PSF CHEQ EXT CMAP DRUDE XPLOR

         4 !NTITLE
*~~~~~~~~~~~~~~~~~~~~~~~~~~~~~~~~~~~~~~~~~~~~~~~~~~~~~~~~~~~~~~~~~~~~~~~
*~ MINIMIZATION OF PACKMOL STRUCTURE
*~~~~~~~~~~~~~~~~~~~~~~~~~~~~~~~~~~~~~~~~~~~~~~~~~~~~~~~~~~~~~~~~~~~~~~~
*  DATE:    10/20/22     16:25:25      CREATED BY USER: marta

     55185 !NATOM
         1 IM1H     1        IM1H     C1       CD33F    2.485000       11.6110           0   -1.18100   1.10000
         2 IM1H     1        IM1H     DC1      DRUD    -2.667000        0.4000           0   0.00000   0.00000
         3 IM1H     1        IM1H     H1       HDA3A    0.135000        1.0080           0   0.00000   0.00000
         4 IM1H     1        IM1H     H2       HDA3A    0.135000        1.0080           0   0.00000   0.00000
         5 IM1H     1        IM1H     H3       HDA3A    0.135000        1.0080           0   0.00000   0.00000
         6 IM1H     1        IM1H     N1       ND2R5C   2.357200       13.6070           0   -0.803000   1.00000
         7 IM1H     1        IM1H     DN1      DRUD    -2.199200        0.4000           0   0.00000   0.00000
         8 IM1H     1        IM1H     C2       CD2R5D   2.447000       11.6110           0   -1.08300   1.10000
         9 IM1H     1        IM1H     DC2      DRUD    -2.554000        0.4000           0   0.00000   0.00000
        10 IM1H     1        IM1H     H4       HDR5D    0.195000        1.0080           0   0.00000   0.00000
        11 IM1H     1        IM1H     C3       CD2R5D   2.507000       11.6110           0   -1.08300   1.10000
        12 IM1H     1        IM1H     DC3      DRUD    -2.554000        0.4000           0   0.00000   0.00000
        13 IM1H     1        IM1H     H5       HDR5D    0.192000        1.0080           0   0.00000   0.00000
        14 IM1H     1        IM1H     C4       CD2R5E   2.724100       11.6110           0   -1.25300   1.20000
        15 IM1H     1        IM1H     DC4      DRUD    -2.747100        0.4000           0   0.00000   0.00000
        16 IM1H     1        IM1H     H6       HDR5E    0.203000        1.0080           0   0.00000   0.00000
        17 IM1H     1        IM1H     N2       ND2R5C   2.042200       13.6070           0   -0.803000   1.00000
        18 IM1H     1        IM1H     DN2      DRUD    -2.199200        0.4000           0   0.00000   0.00000
        19 IM1H     1        IM1H     H7       HDP1A    0.363000        1.0080           0   0.00000   0.00000
        20 IM1H     1        IM1H     LPN21    LPD      0.000000        0.0000           -1   0.00000   0.00000
        21 IM1H     2        IM1H     C1       CD33F    2.485000       11.6110           0   -1.18100   1.10000
        22 IM1H     2        IM1H     DC1      DRUD    -2.667000        0.4000           0   0.00000   0.00000
        23 IM1H     2        IM1H     H1       HDA3A    0.135000        1.0080           0   0.00000   0.00000
        24 IM1H     2        IM1H     H2       HDA3A    0.135000        1.0080           0   0.00000   0.00000
        25 IM1H     2        IM1H     H3       HDA3A    0.135000        1.0080           0   0.00000   0.00000
        26 IM1H     2        IM1H     N1       ND2R5C   2.357200       13.6070           0   -0.803000   1.00000
        27 IM1H     2        IM1H     DN1      DRUD    -2.199200        0.4000           0   0.00000   0.00000
        28 IM1H     2        IM1H     C2       CD2R5D   2.447000       11.6110           0   -1.08300   1.10000
        29 IM1H     2        IM1H     DC2      DRUD    -2.554000        0.4000           0   0.00000   0.00000
        30 IM1H     2        IM1H     H4       HDR5D    0.195000        1.0080           0   0.00000   0.00000
        31 IM1H     2        IM1H     C3       CD2R5D   2.507000       11.6110           0   -1.08300   1.10000
        32 IM1H     2        IM1H     DC3      DRUD    -2.554000        0.4000           0   0.00000   0.00000
        33 IM1H     2        IM1H     H5       HDR5D    0.192000        1.0080           0   0.00000   0.00000
        34 IM1H     2        IM1H     C4       CD2R5E   2.724100       11.6110           0   -1.25300   1.20000
        35 IM1H     2        IM1H     DC4      DRUD    -2.747100        0.4000           0   0.00000   0.00000
        36 IM1H     2        IM1H     H6       HDR5E    0.203000        1.0080           0   0.00000   0.00000
        37 IM1H     2        IM1H     N2       ND2R5C   2.042200       13.6070           0   -0.803000   1.00000
        38 IM1H     2        IM1H     DN2      DRUD    -2.199200        0.4000           0   0.00000   0.00000
        39 IM1H     2        IM1H     H7       HDP1A    0.363000        1.0080           0   0.00000   0.00000
        40 IM1H     2        IM1H     LPN21    LPD      0.000000        0.0000           -1   0.00000   0.00000
        41 IM1H     3        IM1H     C1       CD33F    2.485000       11.6110           0   -1.18100   1.10000
        42 IM1H     3        IM1H     DC1      DRUD    -2.667000        0.4000           0   0.00000   0.00000
        43 IM1H     3        IM1H     H1       HDA3A    0.135000        1.0080           0   0.00000   0.00000
        44 IM1H     3        IM1H     H2       HDA3A    0.135000        1.0080           0   0.00000   0.00000
        45 IM1H     3        IM1H     H3       HDA3A    0.135000        1.0080           0   0.00000   0.00000
        46 IM1H     3        IM1H     N1       ND2R5C   2.357200       13.6070           0   -0.803000   1.00000
        47 IM1H     3        IM1H     DN1      DRUD    -2.199200        0.4000           0   0.00000   0.00000
        48 IM1H     3        IM1H     C2       CD2R5D   2.447000       11.6110           0   -1.08300   1.10000
        49 IM1H     3        IM1H     DC2      DRUD    -2.554000        0.4000           0   0.00000   0.00000
        50 IM1H     3        IM1H     H4       HDR5D    0.195000        1.0080           0   0.00000   0.00000
        51 IM1H     3        IM1H     C3       CD2R5D   2.507000       11.6110           0   -1.08300   1.10000
        52 IM1H     3        IM1H     DC3      DRUD    -2.554000        0.4000           0   0.00000   0.00000
        53 IM1H     3        IM1H     H5       HDR5D    0.192000        1.0080           0   0.00000   0.00000
        54 IM1H     3        IM1H     C4       CD2R5E   2.724100       11.6110           0   -1.25300   1.20000
        55 IM1H     3        IM1H     DC4      DRUD    -2.747100        0.4000           0   0.00000   0.00000
        56 IM1H     3        IM1H     H6       HDR5E    0.203000        1.0080           0   0.00000   0.00000
        57 IM1H     3        IM1H     N2       ND2R5C   2.042200       13.6070           0   -0.803000   1.00000
        58 IM1H     3        IM1H     DN2      DRUD    -2.199200        0.4000           0   0.00000   0.00000
        59 IM1H     3        IM1H     H7       HDP1A    0.363000        1.0080           0   0.00000   0.00000
        60 IM1H     3        IM1H     LPN21    LPD      0.000000        0.0000           -1   0.00000   0.00000
        61 IM1H     4        IM1H     C1       CD33F    2.485000       11.6110           0   -1.18100   1.10000
        62 IM1H     4        IM1H     DC1      DRUD    -2.667000        0.4000           0   0.00000   0.00000
        63 IM1H     4        IM1H     H1       HDA3A    0.135000        1.0080           0   0.00000   0.00000
        64 IM1H     4        IM1H     H2       HDA3A    0.135000        1.0080           0   0.00000   0.00000
        65 IM1H     4        IM1H     H3       HDA3A    0.135000        1.0080           0   0.00000   0.00000
        66 IM1H     4        IM1H     N1       ND2R5C   2.357200       13.6070           0   -0.803000   1.00000
        67 IM1H     4        IM1H     DN1      DRUD    -2.199200        0.4000           0   0.00000   0.00000
        68 IM1H     4        IM1H     C2       CD2R5D   2.447000       11.6110           0   -1.08300   1.10000
        69 IM1H     4        IM1H     DC2      DRUD    -2.554000        0.4000           0   0.00000   0.00000
        70 IM1H     4        IM1H     H4       HDR5D    0.195000        1.0080           0   0.00000   0.00000
        71 IM1H     4        IM1H     C3       CD2R5D   2.507000       11.6110           0   -1.08300   1.10000
        72 IM1H     4        IM1H     DC3      DRUD    -2.554000        0.4000           0   0.00000   0.00000
        73 IM1H     4        IM1H     H5       HDR5D    0.192000        1.0080           0   0.00000   0.00000
        74 IM1H     4        IM1H     C4       CD2R5E   2.724100       11.6110           0   -1.25300   1.20000
        75 IM1H     4        IM1H     DC4      DRUD    -2.747100        0.4000           0   0.00000   0.00000
        76 IM1H     4        IM1H     H6       HDR5E    0.203000        1.0080           0   0.00000   0.00000
        77 IM1H     4        IM1H     N2       ND2R5C   2.042200       13.6070           0   -0.803000   1.00000
        78 IM1H     4        IM1H     DN2      DRUD    -2.199200        0.4000           0   0.00000   0.00000
        79 IM1H     4        IM1H     H7       HDP1A    0.363000        1.0080           0   0.00000   0.00000
        80 IM1H     4        IM1H     LPN21    LPD      0.000000        0.0000           -1   0.00000   0.00000
        81 IM1H     5        IM1H     C1       CD33F    2.485000       11.6110           0   -1.18100   1.10000
        82 IM1H     5        IM1H     DC1      DRUD    -2.667000        0.4000           0   0.00000   0.00000
        83 IM1H     5        IM1H     H1       HDA3A    0.135000        1.0080           0   0.00000   0.00000
        84 IM1H     5        IM1H     H2       HDA3A    0.135000        1.0080           0   0.00000   0.00000
        85 IM1H     5        IM1H     H3       HDA3A    0.135000        1.0080           0   0.00000   0.00000
        86 IM1H     5        IM1H     N1       ND2R5C   2.357200       13.6070           0   -0.803000   1.00000
        87 IM1H     5        IM1H     DN1      DRUD    -2.199200        0.4000           0   0.00000   0.00000
        88 IM1H     5        IM1H     C2       CD2R5D   2.447000       11.6110           0   -1.08300   1.10000
        89 IM1H     5        IM1H     DC2      DRUD    -2.554000        0.4000           0   0.00000   0.00000
        90 IM1H     5        IM1H     H4       HDR5D    0.195000        1.0080           0   0.00000   0.00000
        91 IM1H     5        IM1H     C3       CD2R5D   2.507000       11.6110           0   -1.08300   1.10000
        92 IM1H     5        IM1H     DC3      DRUD    -2.554000        0.4000           0   0.00000   0.00000
        93 IM1H     5        IM1H     H5       HDR5D    0.192000        1.0080           0   0.00000   0.00000
        94 IM1H     5        IM1H     C4       CD2R5E   2.724100       11.6110           0   -1.25300   1.20000
        95 IM1H     5        IM1H     DC4      DRUD    -2.747100        0.4000           0   0.00000   0.00000
        96 IM1H     5        IM1H     H6       HDR5E    0.203000        1.0080           0   0.00000   0.00000
        97 IM1H     5        IM1H     N2       ND2R5C   2.042200       13.6070           0   -0.803000   1.00000
        98 IM1H     5        IM1H     DN2      DRUD    -2.199200        0.4000           0   0.00000   0.00000
        99 IM1H     5        IM1H     H7       HDP1A    0.363000        1.0080           0   0.00000   0.00000
       100 IM1H     5        IM1H     LPN21    LPD      0.000000        0.0000           -1   0.00000   0.00000
       101 IM1H     6        IM1H     C1       CD33F    2.485000       11.6110           0   -1.18100   1.10000
       102 IM1H     6        IM1H     DC1      DRUD    -2.667000        0.4000           0   0.00000   0.00000
       103 IM1H     6        IM1H     H1       HDA3A    0.135000        1.0080           0   0.00000   0.00000
       104 IM1H     6        IM1H     H2       HDA3A    0.135000        1.0080           0   0.00000   0.00000
       105 IM1H     6        IM1H     H3       HDA3A    0.135000        1.0080           0   0.00000   0.00000
       106 IM1H     6        IM1H     N1       ND2R5C   2.357200       13.6070           0   -0.803000   1.00000
       107 IM1H     6        IM1H     DN1      DRUD    -2.199200        0.4000           0   0.00000   0.00000
       108 IM1H     6        IM1H     C2       CD2R5D   2.447000       11.6110           0   -1.08300   1.10000
       109 IM1H     6        IM1H     DC2      DRUD    -2.554000        0.4000           0   0.00000   0.00000
       110 IM1H     6        IM1H     H4       HDR5D    0.195000        1.0080           0   0.00000   0.00000
       111 IM1H     6        IM1H     C3       CD2R5D   2.507000       11.6110           0   -1.08300   1.10000
       112 IM1H     6        IM1H     DC3      DRUD    -2.554000        0.4000           0   0.00000   0.00000
       113 IM1H     6        IM1H     H5       HDR5D    0.192000        1.0080           0   0.00000   0.00000
       114 IM1H     6        IM1H     C4       CD2R5E   2.724100       11.6110           0   -1.25300   1.20000
       115 IM1H     6        IM1H     DC4      DRUD    -2.747100        0.4000           0   0.00000   0.00000
       116 IM1H     6        IM1H     H6       HDR5E    0.203000        1.0080           0   0.00000   0.00000
       117 IM1H     6        IM1H     N2       ND2R5C   2.042200       13.6070           0   -0.803000   1.00000
       118 IM1H     6        IM1H     DN2      DRUD    -2.199200        0.4000           0   0.00000   0.00000
       119 IM1H     6        IM1H     H7       HDP1A    0.363000        1.0080           0   0.00000   0.00000
       120 IM1H     6        IM1H     LPN21    LPD      0.000000        0.0000           -1   0.00000   0.00000
       121 IM1H     7        IM1H     C1       CD33F    2.485000       11.6110           0   -1.18100   1.10000
       122 IM1H     7        IM1H     DC1      DRUD    -2.667000        0.4000           0   0.00000   0.00000
       123 IM1H     7        IM1H     H1       HDA3A    0.135000        1.0080           0   0.00000   0.00000
       124 IM1H     7        IM1H     H2       HDA3A    0.135000        1.0080           0   0.00000   0.00000
       125 IM1H     7        IM1H     H3       HDA3A    0.135000        1.0080           0   0.00000   0.00000
       126 IM1H     7        IM1H     N1       ND2R5C   2.357200       13.6070           0   -0.803000   1.00000
       127 IM1H     7        IM1H     DN1      DRUD    -2.199200        0.4000           0   0.00000   0.00000
       128 IM1H     7        IM1H     C2       CD2R5D   2.447000       11.6110           0   -1.08300   1.10000
       129 IM1H     7        IM1H     DC2      DRUD    -2.554000        0.4000           0   0.00000   0.00000
       130 IM1H     7        IM1H     H4       HDR5D    0.195000        1.0080           0   0.00000   0.00000
       131 IM1H     7        IM1H     C3       CD2R5D   2.507000       11.6110           0   -1.08300   1.10000
       132 IM1H     7        IM1H     DC3      DRUD    -2.554000        0.4000           0   0.00000   0.00000
       133 IM1H     7        IM1H     H5       HDR5D    0.192000        1.0080           0   0.00000   0.00000
       134 IM1H     7        IM1H     C4       CD2R5E   2.724100       11.6110           0   -1.25300   1.20000
       135 IM1H     7        IM1H     DC4      DRUD    -2.747100        0.4000           0   0.00000   0.00000
       136 IM1H     7        IM1H     H6       HDR5E    0.203000        1.0080           0   0.00000   0.00000
       137 IM1H     7        IM1H     N2       ND2R5C   2.042200       13.6070           0   -0.803000   1.00000
       138 IM1H     7        IM1H     DN2      DRUD    -2.199200        0.4000           0   0.00000   0.00000
       139 IM1H     7        IM1H     H7       HDP1A    0.363000        1.0080           0   0.00000   0.00000
       140 IM1H     7        IM1H     LPN21    LPD      0.000000        0.0000           -1   0.00000   0.00000
       141 IM1H     8        IM1H     C1       CD33F    2.485000       11.6110           0   -1.18100   1.10000
       142 IM1H     8        IM1H     DC1      DRUD    -2.667000        0.4000           0   0.00000   0.00000
       143 IM1H     8        IM1H     H1       HDA3A    0.135000        1.0080           0   0.00000   0.00000
       144 IM1H     8        IM1H     H2       HDA3A    0.135000        1.0080           0   0.00000   0.00000
       145 IM1H     8        IM1H     H3       HDA3A    0.135000        1.0080           0   0.00000   0.00000
       146 IM1H     8        IM1H     N1       ND2R5C   2.357200       13.6070           0   -0.803000   1.00000
       147 IM1H     8        IM1H     DN1      DRUD    -2.199200        0.4000           0   0.00000   0.00000
       148 IM1H     8        IM1H     C2       CD2R5D   2.447000       11.6110           0   -1.08300   1.10000
       149 IM1H     8        IM1H     DC2      DRUD    -2.554000        0.4000           0   0.00000   0.00000
       150 IM1H     8        IM1H     H4       HDR5D    0.195000        1.0080           0   0.00000   0.00000
       151 IM1H     8        IM1H     C3       CD2R5D   2.507000       11.6110           0   -1.08300   1.10000
       152 IM1H     8        IM1H     DC3      DRUD    -2.554000        0.4000           0   0.00000   0.00000
       153 IM1H     8        IM1H     H5       HDR5D    0.192000        1.0080           0   0.00000   0.00000
       154 IM1H     8        IM1H     C4       CD2R5E   2.724100       11.6110           0   -1.25300   1.20000
       155 IM1H     8        IM1H     DC4      DRUD    -2.747100        0.4000           0   0.00000   0.00000
       156 IM1H     8        IM1H     H6       HDR5E    0.203000        1.0080           0   0.00000   0.00000
       157 IM1H     8        IM1H     N2       ND2R5C   2.042200       13.6070           0   -0.803000   1.00000
       158 IM1H     8        IM1H     DN2      DRUD    -2.199200        0.4000           0   0.00000   0.00000
       159 IM1H     8        IM1H     H7       HDP1A    0.363000        1.0080           0   0.00000   0.00000
       160 IM1H     8        IM1H     LPN21    LPD      0.000000        0.0000           -1   0.00000   0.00000
       161 IM1H     9        IM1H     C1       CD33F    2.485000       11.6110           0   -1.18100   1.10000
       162 IM1H     9        IM1H     DC1      DRUD    -2.667000        0.4000           0   0.00000   0.00000
       163 IM1H     9        IM1H     H1       HDA3A    0.135000        1.0080           0   0.00000   0.00000
       164 IM1H     9        IM1H     H2       HDA3A    0.135000        1.0080           0   0.00000   0.00000
       165 IM1H     9        IM1H     H3       HDA3A    0.135000        1.0080           0   0.00000   0.00000
       166 IM1H     9        IM1H     N1       ND2R5C   2.357200       13.6070           0   -0.803000   1.00000
       167 IM1H     9        IM1H     DN1      DRUD    -2.199200        0.4000           0   0.00000   0.00000
       168 IM1H     9        IM1H     C2       CD2R5D   2.447000       11.6110           0   -1.08300   1.10000
       169 IM1H     9        IM1H     DC2      DRUD    -2.554000        0.4000           0   0.00000   0.00000
       170 IM1H     9        IM1H     H4       HDR5D    0.195000        1.0080           0   0.00000   0.00000
       171 IM1H     9        IM1H     C3       CD2R5D   2.507000       11.6110           0   -1.08300   1.10000
       172 IM1H     9        IM1H     DC3      DRUD    -2.554000        0.4000           0   0.00000   0.00000
       173 IM1H     9        IM1H     H5       HDR5D    0.192000        1.0080           0   0.00000   0.00000
       174 IM1H     9        IM1H     C4       CD2R5E   2.724100       11.6110           0   -1.25300   1.20000
       175 IM1H     9        IM1H     DC4      DRUD    -2.747100        0.4000           0   0.00000   0.00000
       176 IM1H     9        IM1H     H6       HDR5E    0.203000        1.0080           0   0.00000   0.00000
       177 IM1H     9        IM1H     N2       ND2R5C   2.042200       13.6070           0   -0.803000   1.00000
       178 IM1H     9        IM1H     DN2      DRUD    -2.199200        0.4000           0   0.00000   0.00000
       179 IM1H     9        IM1H     H7       HDP1A    0.363000        1.0080           0   0.00000   0.00000
       180 IM1H     9        IM1H     LPN21    LPD      0.000000        0.0000           -1   0.00000   0.00000
       181 IM1H     10       IM1H     C1       CD33F    2.485000       11.6110           0   -1.18100   1.10000
       182 IM1H     10       IM1H     DC1      DRUD    -2.667000        0.4000           0   0.00000   0.00000
       183 IM1H     10       IM1H     H1       HDA3A    0.135000        1.0080           0   0.00000   0.00000
       184 IM1H     10       IM1H     H2       HDA3A    0.135000        1.0080           0   0.00000   0.00000
       185 IM1H     10       IM1H     H3       HDA3A    0.135000        1.0080           0   0.00000   0.00000
       186 IM1H     10       IM1H     N1       ND2R5C   2.357200       13.6070           0   -0.803000   1.00000
       187 IM1H     10       IM1H     DN1      DRUD    -2.199200        0.4000           0   0.00000   0.00000
       188 IM1H     10       IM1H     C2       CD2R5D   2.447000       11.6110           0   -1.08300   1.10000
       189 IM1H     10       IM1H     DC2      DRUD    -2.554000        0.4000           0   0.00000   0.00000
       190 IM1H     10       IM1H     H4       HDR5D    0.195000        1.0080           0   0.00000   0.00000
       191 IM1H     10       IM1H     C3       CD2R5D   2.507000       11.6110           0   -1.08300   1.10000
       192 IM1H     10       IM1H     DC3      DRUD    -2.554000        0.4000           0   0.00000   0.00000
       193 IM1H     10       IM1H     H5       HDR5D    0.192000        1.0080           0   0.00000   0.00000
       194 IM1H     10       IM1H     C4       CD2R5E   2.724100       11.6110           0   -1.25300   1.20000
       195 IM1H     10       IM1H     DC4      DRUD    -2.747100        0.4000           0   0.00000   0.00000
       196 IM1H     10       IM1H     H6       HDR5E    0.203000        1.0080           0   0.00000   0.00000
       197 IM1H     10       IM1H     N2       ND2R5C   2.042200       13.6070           0   -0.803000   1.00000
       198 IM1H     10       IM1H     DN2      DRUD    -2.199200        0.4000           0   0.00000   0.00000
       199 IM1H     10       IM1H     H7       HDP1A    0.363000        1.0080           0   0.00000   0.00000
       200 IM1H     10       IM1H     LPN21    LPD      0.000000        0.0000           -1   0.00000   0.00000
       201 IM1H     11       IM1H     C1       CD33F    2.485000       11.6110           0   -1.18100   1.10000
       202 IM1H     11       IM1H     DC1      DRUD    -2.667000        0.4000           0   0.00000   0.00000
       203 IM1H     11       IM1H     H1       HDA3A    0.135000        1.0080           0   0.00000   0.00000
       204 IM1H     11       IM1H     H2       HDA3A    0.135000        1.0080           0   0.00000   0.00000
       205 IM1H     11       IM1H     H3       HDA3A    0.135000        1.0080           0   0.00000   0.00000
       206 IM1H     11       IM1H     N1       ND2R5C   2.357200       13.6070           0   -0.803000   1.00000
       207 IM1H     11       IM1H     DN1      DRUD    -2.199200        0.4000           0   0.00000   0.00000
       208 IM1H     11       IM1H     C2       CD2R5D   2.447000       11.6110           0   -1.08300   1.10000
       209 IM1H     11       IM1H     DC2      DRUD    -2.554000        0.4000           0   0.00000   0.00000
       210 IM1H     11       IM1H     H4       HDR5D    0.195000        1.0080           0   0.00000   0.00000
       211 IM1H     11       IM1H     C3       CD2R5D   2.507000       11.6110           0   -1.08300   1.10000
       212 IM1H     11       IM1H     DC3      DRUD    -2.554000        0.4000           0   0.00000   0.00000
       213 IM1H     11       IM1H     H5       HDR5D    0.192000        1.0080           0   0.00000   0.00000
       214 IM1H     11       IM1H     C4       CD2R5E   2.724100       11.6110           0   -1.25300   1.20000
       215 IM1H     11       IM1H     DC4      DRUD    -2.747100        0.4000           0   0.00000   0.00000
       216 IM1H     11       IM1H     H6       HDR5E    0.203000        1.0080           0   0.00000   0.00000
       217 IM1H     11       IM1H     N2       ND2R5C   2.042200       13.6070           0   -0.803000   1.00000
       218 IM1H     11       IM1H     DN2      DRUD    -2.199200        0.4000           0   0.00000   0.00000
       219 IM1H     11       IM1H     H7       HDP1A    0.363000        1.0080           0   0.00000   0.00000
       220 IM1H     11       IM1H     LPN21    LPD      0.000000        0.0000           -1   0.00000   0.00000
       221 IM1H     12       IM1H     C1       CD33F    2.485000       11.6110           0   -1.18100   1.10000
       222 IM1H     12       IM1H     DC1      DRUD    -2.667000        0.4000           0   0.00000   0.00000
       223 IM1H     12       IM1H     H1       HDA3A    0.135000        1.0080           0   0.00000   0.00000
       224 IM1H     12       IM1H     H2       HDA3A    0.135000        1.0080           0   0.00000   0.00000
       225 IM1H     12       IM1H     H3       HDA3A    0.135000        1.0080           0   0.00000   0.00000
       226 IM1H     12       IM1H     N1       ND2R5C   2.357200       13.6070           0   -0.803000   1.00000
       227 IM1H     12       IM1H     DN1      DRUD    -2.199200        0.4000           0   0.00000   0.00000
       228 IM1H     12       IM1H     C2       CD2R5D   2.447000       11.6110           0   -1.08300   1.10000
       229 IM1H     12       IM1H     DC2      DRUD    -2.554000        0.4000           0   0.00000   0.00000
       230 IM1H     12       IM1H     H4       HDR5D    0.195000        1.0080           0   0.00000   0.00000
       231 IM1H     12       IM1H     C3       CD2R5D   2.507000       11.6110           0   -1.08300   1.10000
       232 IM1H     12       IM1H     DC3      DRUD    -2.554000        0.4000           0   0.00000   0.00000
       233 IM1H     12       IM1H     H5       HDR5D    0.192000        1.0080           0   0.00000   0.00000
       234 IM1H     12       IM1H     C4       CD2R5E   2.724100       11.6110           0   -1.25300   1.20000
       235 IM1H     12       IM1H     DC4      DRUD    -2.747100        0.4000           0   0.00000   0.00000
       236 IM1H     12       IM1H     H6       HDR5E    0.203000        1.0080           0   0.00000   0.00000
       237 IM1H     12       IM1H     N2       ND2R5C   2.042200       13.6070           0   -0.803000   1.00000
       238 IM1H     12       IM1H     DN2      DRUD    -2.199200        0.4000           0   0.00000   0.00000
       239 IM1H     12       IM1H     H7       HDP1A    0.363000        1.0080           0   0.00000   0.00000
       240 IM1H     12       IM1H     LPN21    LPD      0.000000        0.0000           -1   0.00000   0.00000
       241 IM1H     13       IM1H     C1       CD33F    2.485000       11.6110           0   -1.18100   1.10000
       242 IM1H     13       IM1H     DC1      DRUD    -2.667000        0.4000           0   0.00000   0.00000
       243 IM1H     13       IM1H     H1       HDA3A    0.135000        1.0080           0   0.00000   0.00000
       244 IM1H     13       IM1H     H2       HDA3A    0.135000        1.0080           0   0.00000   0.00000
       245 IM1H     13       IM1H     H3       HDA3A    0.135000        1.0080           0   0.00000   0.00000
       246 IM1H     13       IM1H     N1       ND2R5C   2.357200       13.6070           0   -0.803000   1.00000
       247 IM1H     13       IM1H     DN1      DRUD    -2.199200        0.4000           0   0.00000   0.00000
       248 IM1H     13       IM1H     C2       CD2R5D   2.447000       11.6110           0   -1.08300   1.10000
       249 IM1H     13       IM1H     DC2      DRUD    -2.554000        0.4000           0   0.00000   0.00000
       250 IM1H     13       IM1H     H4       HDR5D    0.195000        1.0080           0   0.00000   0.00000
       251 IM1H     13       IM1H     C3       CD2R5D   2.507000       11.6110           0   -1.08300   1.10000
       252 IM1H     13       IM1H     DC3      DRUD    -2.554000        0.4000           0   0.00000   0.00000
       253 IM1H     13       IM1H     H5       HDR5D    0.192000        1.0080           0   0.00000   0.00000
       254 IM1H     13       IM1H     C4       CD2R5E   2.724100       11.6110           0   -1.25300   1.20000
       255 IM1H     13       IM1H     DC4      DRUD    -2.747100        0.4000           0   0.00000   0.00000
       256 IM1H     13       IM1H     H6       HDR5E    0.203000        1.0080           0   0.00000   0.00000
       257 IM1H     13       IM1H     N2       ND2R5C   2.042200       13.6070           0   -0.803000   1.00000
       258 IM1H     13       IM1H     DN2      DRUD    -2.199200        0.4000           0   0.00000   0.00000
       259 IM1H     13       IM1H     H7       HDP1A    0.363000        1.0080           0   0.00000   0.00000
       260 IM1H     13       IM1H     LPN21    LPD      0.000000        0.0000           -1   0.00000   0.00000
       261 IM1H     14       IM1H     C1       CD33F    2.485000       11.6110           0   -1.18100   1.10000
       262 IM1H     14       IM1H     DC1      DRUD    -2.667000        0.4000           0   0.00000   0.00000
       263 IM1H     14       IM1H     H1       HDA3A    0.135000        1.0080           0   0.00000   0.00000
       264 IM1H     14       IM1H     H2       HDA3A    0.135000        1.0080           0   0.00000   0.00000
       265 IM1H     14       IM1H     H3       HDA3A    0.135000        1.0080           0   0.00000   0.00000
       266 IM1H     14       IM1H     N1       ND2R5C   2.357200       13.6070           0   -0.803000   1.00000
       267 IM1H     14       IM1H     DN1      DRUD    -2.199200        0.4000           0   0.00000   0.00000
       268 IM1H     14       IM1H     C2       CD2R5D   2.447000       11.6110           0   -1.08300   1.10000
       269 IM1H     14       IM1H     DC2      DRUD    -2.554000        0.4000           0   0.00000   0.00000
       270 IM1H     14       IM1H     H4       HDR5D    0.195000        1.0080           0   0.00000   0.00000
       271 IM1H     14       IM1H     C3       CD2R5D   2.507000       11.6110           0   -1.08300   1.10000
       272 IM1H     14       IM1H     DC3      DRUD    -2.554000        0.4000           0   0.00000   0.00000
       273 IM1H     14       IM1H     H5       HDR5D    0.192000        1.0080           0   0.00000   0.00000
       274 IM1H     14       IM1H     C4       CD2R5E   2.724100       11.6110           0   -1.25300   1.20000
       275 IM1H     14       IM1H     DC4      DRUD    -2.747100        0.4000           0   0.00000   0.00000
       276 IM1H     14       IM1H     H6       HDR5E    0.203000        1.0080           0   0.00000   0.00000
       277 IM1H     14       IM1H     N2       ND2R5C   2.042200       13.6070           0   -0.803000   1.00000
       278 IM1H     14       IM1H     DN2      DRUD    -2.199200        0.4000           0   0.00000   0.00000
       279 IM1H     14       IM1H     H7       HDP1A    0.363000        1.0080           0   0.00000   0.00000
       280 IM1H     14       IM1H     LPN21    LPD      0.000000        0.0000           -1   0.00000   0.00000
       281 IM1H     15       IM1H     C1       CD33F    2.485000       11.6110           0   -1.18100   1.10000
       282 IM1H     15       IM1H     DC1      DRUD    -2.667000        0.4000           0   0.00000   0.00000
       283 IM1H     15       IM1H     H1       HDA3A    0.135000        1.0080           0   0.00000   0.00000
       284 IM1H     15       IM1H     H2       HDA3A    0.135000        1.0080           0   0.00000   0.00000
       285 IM1H     15       IM1H     H3       HDA3A    0.135000        1.0080           0   0.00000   0.00000
       286 IM1H     15       IM1H     N1       ND2R5C   2.357200       13.6070           0   -0.803000   1.00000
       287 IM1H     15       IM1H     DN1      DRUD    -2.199200        0.4000           0   0.00000   0.00000
       288 IM1H     15       IM1H     C2       CD2R5D   2.447000       11.6110           0   -1.08300   1.10000
       289 IM1H     15       IM1H     DC2      DRUD    -2.554000        0.4000           0   0.00000   0.00000
       290 IM1H     15       IM1H     H4       HDR5D    0.195000        1.0080           0   0.00000   0.00000
       291 IM1H     15       IM1H     C3       CD2R5D   2.507000       11.6110           0   -1.08300   1.10000
       292 IM1H     15       IM1H     DC3      DRUD    -2.554000        0.4000           0   0.00000   0.00000
       293 IM1H     15       IM1H     H5       HDR5D    0.192000        1.0080           0   0.00000   0.00000
       294 IM1H     15       IM1H     C4       CD2R5E   2.724100       11.6110           0   -1.25300   1.20000
       295 IM1H     15       IM1H     DC4      DRUD    -2.747100        0.4000           0   0.00000   0.00000
       296 IM1H     15       IM1H     H6       HDR5E    0.203000        1.0080           0   0.00000   0.00000
       297 IM1H     15       IM1H     N2       ND2R5C   2.042200       13.6070           0   -0.803000   1.00000
       298 IM1H     15       IM1H     DN2      DRUD    -2.199200        0.4000           0   0.00000   0.00000
       299 IM1H     15       IM1H     H7       HDP1A    0.363000        1.0080           0   0.00000   0.00000
       300 IM1H     15       IM1H     LPN21    LPD      0.000000        0.0000           -1   0.00000   0.00000
       301 IM1H     16       IM1H     C1       CD33F    2.485000       11.6110           0   -1.18100   1.10000
       302 IM1H     16       IM1H     DC1      DRUD    -2.667000        0.4000           0   0.00000   0.00000
       303 IM1H     16       IM1H     H1       HDA3A    0.135000        1.0080           0   0.00000   0.00000
       304 IM1H     16       IM1H     H2       HDA3A    0.135000        1.0080           0   0.00000   0.00000
       305 IM1H     16       IM1H     H3       HDA3A    0.135000        1.0080           0   0.00000   0.00000
       306 IM1H     16       IM1H     N1       ND2R5C   2.357200       13.6070           0   -0.803000   1.00000
       307 IM1H     16       IM1H     DN1      DRUD    -2.199200        0.4000           0   0.00000   0.00000
       308 IM1H     16       IM1H     C2       CD2R5D   2.447000       11.6110           0   -1.08300   1.10000
       309 IM1H     16       IM1H     DC2      DRUD    -2.554000        0.4000           0   0.00000   0.00000
       310 IM1H     16       IM1H     H4       HDR5D    0.195000        1.0080           0   0.00000   0.00000
       311 IM1H     16       IM1H     C3       CD2R5D   2.507000       11.6110           0   -1.08300   1.10000
       312 IM1H     16       IM1H     DC3      DRUD    -2.554000        0.4000           0   0.00000   0.00000
       313 IM1H     16       IM1H     H5       HDR5D    0.192000        1.0080           0   0.00000   0.00000
       314 IM1H     16       IM1H     C4       CD2R5E   2.724100       11.6110           0   -1.25300   1.20000
       315 IM1H     16       IM1H     DC4      DRUD    -2.747100        0.4000           0   0.00000   0.00000
       316 IM1H     16       IM1H     H6       HDR5E    0.203000        1.0080           0   0.00000   0.00000
       317 IM1H     16       IM1H     N2       ND2R5C   2.042200       13.6070           0   -0.803000   1.00000
       318 IM1H     16       IM1H     DN2      DRUD    -2.199200        0.4000           0   0.00000   0.00000
       319 IM1H     16       IM1H     H7       HDP1A    0.363000        1.0080           0   0.00000   0.00000
       320 IM1H     16       IM1H     LPN21    LPD      0.000000        0.0000           -1   0.00000   0.00000
       321 IM1H     17       IM1H     C1       CD33F    2.485000       11.6110           0   -1.18100   1.10000
       322 IM1H     17       IM1H     DC1      DRUD    -2.667000        0.4000           0   0.00000   0.00000
       323 IM1H     17       IM1H     H1       HDA3A    0.135000        1.0080           0   0.00000   0.00000
       324 IM1H     17       IM1H     H2       HDA3A    0.135000        1.0080           0   0.00000   0.00000
       325 IM1H     17       IM1H     H3       HDA3A    0.135000        1.0080           0   0.00000   0.00000
       326 IM1H     17       IM1H     N1       ND2R5C   2.357200       13.6070           0   -0.803000   1.00000
       327 IM1H     17       IM1H     DN1      DRUD    -2.199200        0.4000           0   0.00000   0.00000
       328 IM1H     17       IM1H     C2       CD2R5D   2.447000       11.6110           0   -1.08300   1.10000
       329 IM1H     17       IM1H     DC2      DRUD    -2.554000        0.4000           0   0.00000   0.00000
       330 IM1H     17       IM1H     H4       HDR5D    0.195000        1.0080           0   0.00000   0.00000
       331 IM1H     17       IM1H     C3       CD2R5D   2.507000       11.6110           0   -1.08300   1.10000
       332 IM1H     17       IM1H     DC3      DRUD    -2.554000        0.4000           0   0.00000   0.00000
       333 IM1H     17       IM1H     H5       HDR5D    0.192000        1.0080           0   0.00000   0.00000
       334 IM1H     17       IM1H     C4       CD2R5E   2.724100       11.6110           0   -1.25300   1.20000
       335 IM1H     17       IM1H     DC4      DRUD    -2.747100        0.4000           0   0.00000   0.00000
       336 IM1H     17       IM1H     H6       HDR5E    0.203000        1.0080           0   0.00000   0.00000
       337 IM1H     17       IM1H     N2       ND2R5C   2.042200       13.6070           0   -0.803000   1.00000
       338 IM1H     17       IM1H     DN2      DRUD    -2.199200        0.4000           0   0.00000   0.00000
       339 IM1H     17       IM1H     H7       HDP1A    0.363000        1.0080           0   0.00000   0.00000
       340 IM1H     17       IM1H     LPN21    LPD      0.000000        0.0000           -1   0.00000   0.00000
       341 IM1H     18       IM1H     C1       CD33F    2.485000       11.6110           0   -1.18100   1.10000
       342 IM1H     18       IM1H     DC1      DRUD    -2.667000        0.4000           0   0.00000   0.00000
       343 IM1H     18       IM1H     H1       HDA3A    0.135000        1.0080           0   0.00000   0.00000
       344 IM1H     18       IM1H     H2       HDA3A    0.135000        1.0080           0   0.00000   0.00000
       345 IM1H     18       IM1H     H3       HDA3A    0.135000        1.0080           0   0.00000   0.00000
       346 IM1H     18       IM1H     N1       ND2R5C   2.357200       13.6070           0   -0.803000   1.00000
       347 IM1H     18       IM1H     DN1      DRUD    -2.199200        0.4000           0   0.00000   0.00000
       348 IM1H     18       IM1H     C2       CD2R5D   2.447000       11.6110           0   -1.08300   1.10000
       349 IM1H     18       IM1H     DC2      DRUD    -2.554000        0.4000           0   0.00000   0.00000
       350 IM1H     18       IM1H     H4       HDR5D    0.195000        1.0080           0   0.00000   0.00000
       351 IM1H     18       IM1H     C3       CD2R5D   2.507000       11.6110           0   -1.08300   1.10000
       352 IM1H     18       IM1H     DC3      DRUD    -2.554000        0.4000           0   0.00000   0.00000
       353 IM1H     18       IM1H     H5       HDR5D    0.192000        1.0080           0   0.00000   0.00000
       354 IM1H     18       IM1H     C4       CD2R5E   2.724100       11.6110           0   -1.25300   1.20000
       355 IM1H     18       IM1H     DC4      DRUD    -2.747100        0.4000           0   0.00000   0.00000
       356 IM1H     18       IM1H     H6       HDR5E    0.203000        1.0080           0   0.00000   0.00000
       357 IM1H     18       IM1H     N2       ND2R5C   2.042200       13.6070           0   -0.803000   1.00000
       358 IM1H     18       IM1H     DN2      DRUD    -2.199200        0.4000           0   0.00000   0.00000
       359 IM1H     18       IM1H     H7       HDP1A    0.363000        1.0080           0   0.00000   0.00000
       360 IM1H     18       IM1H     LPN21    LPD      0.000000        0.0000           -1   0.00000   0.00000
       361 IM1H     19       IM1H     C1       CD33F    2.485000       11.6110           0   -1.18100   1.10000
       362 IM1H     19       IM1H     DC1      DRUD    -2.667000        0.4000           0   0.00000   0.00000
       363 IM1H     19       IM1H     H1       HDA3A    0.135000        1.0080           0   0.00000   0.00000
       364 IM1H     19       IM1H     H2       HDA3A    0.135000        1.0080           0   0.00000   0.00000
       365 IM1H     19       IM1H     H3       HDA3A    0.135000        1.0080           0   0.00000   0.00000
       366 IM1H     19       IM1H     N1       ND2R5C   2.357200       13.6070           0   -0.803000   1.00000
       367 IM1H     19       IM1H     DN1      DRUD    -2.199200        0.4000           0   0.00000   0.00000
       368 IM1H     19       IM1H     C2       CD2R5D   2.447000       11.6110           0   -1.08300   1.10000
       369 IM1H     19       IM1H     DC2      DRUD    -2.554000        0.4000           0   0.00000   0.00000
       370 IM1H     19       IM1H     H4       HDR5D    0.195000        1.0080           0   0.00000   0.00000
       371 IM1H     19       IM1H     C3       CD2R5D   2.507000       11.6110           0   -1.08300   1.10000
       372 IM1H     19       IM1H     DC3      DRUD    -2.554000        0.4000           0   0.00000   0.00000
       373 IM1H     19       IM1H     H5       HDR5D    0.192000        1.0080           0   0.00000   0.00000
       374 IM1H     19       IM1H     C4       CD2R5E   2.724100       11.6110           0   -1.25300   1.20000
       375 IM1H     19       IM1H     DC4      DRUD    -2.747100        0.4000           0   0.00000   0.00000
       376 IM1H     19       IM1H     H6       HDR5E    0.203000        1.0080           0   0.00000   0.00000
       377 IM1H     19       IM1H     N2       ND2R5C   2.042200       13.6070           0   -0.803000   1.00000
       378 IM1H     19       IM1H     DN2      DRUD    -2.199200        0.4000           0   0.00000   0.00000
       379 IM1H     19       IM1H     H7       HDP1A    0.363000        1.0080           0   0.00000   0.00000
       380 IM1H     19       IM1H     LPN21    LPD      0.000000        0.0000           -1   0.00000   0.00000
       381 IM1H     20       IM1H     C1       CD33F    2.485000       11.6110           0   -1.18100   1.10000
       382 IM1H     20       IM1H     DC1      DRUD    -2.667000        0.4000           0   0.00000   0.00000
       383 IM1H     20       IM1H     H1       HDA3A    0.135000        1.0080           0   0.00000   0.00000
       384 IM1H     20       IM1H     H2       HDA3A    0.135000        1.0080           0   0.00000   0.00000
       385 IM1H     20       IM1H     H3       HDA3A    0.135000        1.0080           0   0.00000   0.00000
       386 IM1H     20       IM1H     N1       ND2R5C   2.357200       13.6070           0   -0.803000   1.00000
       387 IM1H     20       IM1H     DN1      DRUD    -2.199200        0.4000           0   0.00000   0.00000
       388 IM1H     20       IM1H     C2       CD2R5D   2.447000       11.6110           0   -1.08300   1.10000
       389 IM1H     20       IM1H     DC2      DRUD    -2.554000        0.4000           0   0.00000   0.00000
       390 IM1H     20       IM1H     H4       HDR5D    0.195000        1.0080           0   0.00000   0.00000
       391 IM1H     20       IM1H     C3       CD2R5D   2.507000       11.6110           0   -1.08300   1.10000
       392 IM1H     20       IM1H     DC3      DRUD    -2.554000        0.4000           0   0.00000   0.00000
       393 IM1H     20       IM1H     H5       HDR5D    0.192000        1.0080           0   0.00000   0.00000
       394 IM1H     20       IM1H     C4       CD2R5E   2.724100       11.6110           0   -1.25300   1.20000
       395 IM1H     20       IM1H     DC4      DRUD    -2.747100        0.4000           0   0.00000   0.00000
       396 IM1H     20       IM1H     H6       HDR5E    0.203000        1.0080           0   0.00000   0.00000
       397 IM1H     20       IM1H     N2       ND2R5C   2.042200       13.6070           0   -0.803000   1.00000
       398 IM1H     20       IM1H     DN2      DRUD    -2.199200        0.4000           0   0.00000   0.00000
       399 IM1H     20       IM1H     H7       HDP1A    0.363000        1.0080           0   0.00000   0.00000
       400 IM1H     20       IM1H     LPN21    LPD      0.000000        0.0000           -1   0.00000   0.00000
       401 IM1H     21       IM1H     C1       CD33F    2.485000       11.6110           0   -1.18100   1.10000
       402 IM1H     21       IM1H     DC1      DRUD    -2.667000        0.4000           0   0.00000   0.00000
       403 IM1H     21       IM1H     H1       HDA3A    0.135000        1.0080           0   0.00000   0.00000
       404 IM1H     21       IM1H     H2       HDA3A    0.135000        1.0080           0   0.00000   0.00000
       405 IM1H     21       IM1H     H3       HDA3A    0.135000        1.0080           0   0.00000   0.00000
       406 IM1H     21       IM1H     N1       ND2R5C   2.357200       13.6070           0   -0.803000   1.00000
       407 IM1H     21       IM1H     DN1      DRUD    -2.199200        0.4000           0   0.00000   0.00000
       408 IM1H     21       IM1H     C2       CD2R5D   2.447000       11.6110           0   -1.08300   1.10000
       409 IM1H     21       IM1H     DC2      DRUD    -2.554000        0.4000           0   0.00000   0.00000
       410 IM1H     21       IM1H     H4       HDR5D    0.195000        1.0080           0   0.00000   0.00000
       411 IM1H     21       IM1H     C3       CD2R5D   2.507000       11.6110           0   -1.08300   1.10000
       412 IM1H     21       IM1H     DC3      DRUD    -2.554000        0.4000           0   0.00000   0.00000
       413 IM1H     21       IM1H     H5       HDR5D    0.192000        1.0080           0   0.00000   0.00000
       414 IM1H     21       IM1H     C4       CD2R5E   2.724100       11.6110           0   -1.25300   1.20000
       415 IM1H     21       IM1H     DC4      DRUD    -2.747100        0.4000           0   0.00000   0.00000
       416 IM1H     21       IM1H     H6       HDR5E    0.203000        1.0080           0   0.00000   0.00000
       417 IM1H     21       IM1H     N2       ND2R5C   2.042200       13.6070           0   -0.803000   1.00000
       418 IM1H     21       IM1H     DN2      DRUD    -2.199200        0.4000           0   0.00000   0.00000
       419 IM1H     21       IM1H     H7       HDP1A    0.363000        1.0080           0   0.00000   0.00000
       420 IM1H     21       IM1H     LPN21    LPD      0.000000        0.0000           -1   0.00000   0.00000
       421 IM1H     22       IM1H     C1       CD33F    2.485000       11.6110           0   -1.18100   1.10000
       422 IM1H     22       IM1H     DC1      DRUD    -2.667000        0.4000           0   0.00000   0.00000
       423 IM1H     22       IM1H     H1       HDA3A    0.135000        1.0080           0   0.00000   0.00000
       424 IM1H     22       IM1H     H2       HDA3A    0.135000        1.0080           0   0.00000   0.00000
       425 IM1H     22       IM1H     H3       HDA3A    0.135000        1.0080           0   0.00000   0.00000
       426 IM1H     22       IM1H     N1       ND2R5C   2.357200       13.6070           0   -0.803000   1.00000
       427 IM1H     22       IM1H     DN1      DRUD    -2.199200        0.4000           0   0.00000   0.00000
       428 IM1H     22       IM1H     C2       CD2R5D   2.447000       11.6110           0   -1.08300   1.10000
       429 IM1H     22       IM1H     DC2      DRUD    -2.554000        0.4000           0   0.00000   0.00000
       430 IM1H     22       IM1H     H4       HDR5D    0.195000        1.0080           0   0.00000   0.00000
       431 IM1H     22       IM1H     C3       CD2R5D   2.507000       11.6110           0   -1.08300   1.10000
       432 IM1H     22       IM1H     DC3      DRUD    -2.554000        0.4000           0   0.00000   0.00000
       433 IM1H     22       IM1H     H5       HDR5D    0.192000        1.0080           0   0.00000   0.00000
       434 IM1H     22       IM1H     C4       CD2R5E   2.724100       11.6110           0   -1.25300   1.20000
       435 IM1H     22       IM1H     DC4      DRUD    -2.747100        0.4000           0   0.00000   0.00000
       436 IM1H     22       IM1H     H6       HDR5E    0.203000        1.0080           0   0.00000   0.00000
       437 IM1H     22       IM1H     N2       ND2R5C   2.042200       13.6070           0   -0.803000   1.00000
       438 IM1H     22       IM1H     DN2      DRUD    -2.199200        0.4000           0   0.00000   0.00000
       439 IM1H     22       IM1H     H7       HDP1A    0.363000        1.0080           0   0.00000   0.00000
       440 IM1H     22       IM1H     LPN21    LPD      0.000000        0.0000           -1   0.00000   0.00000
       441 IM1H     23       IM1H     C1       CD33F    2.485000       11.6110           0   -1.18100   1.10000
       442 IM1H     23       IM1H     DC1      DRUD    -2.667000        0.4000           0   0.00000   0.00000
       443 IM1H     23       IM1H     H1       HDA3A    0.135000        1.0080           0   0.00000   0.00000
       444 IM1H     23       IM1H     H2       HDA3A    0.135000        1.0080           0   0.00000   0.00000
       445 IM1H     23       IM1H     H3       HDA3A    0.135000        1.0080           0   0.00000   0.00000
       446 IM1H     23       IM1H     N1       ND2R5C   2.357200       13.6070           0   -0.803000   1.00000
       447 IM1H     23       IM1H     DN1      DRUD    -2.199200        0.4000           0   0.00000   0.00000
       448 IM1H     23       IM1H     C2       CD2R5D   2.447000       11.6110           0   -1.08300   1.10000
       449 IM1H     23       IM1H     DC2      DRUD    -2.554000        0.4000           0   0.00000   0.00000
       450 IM1H     23       IM1H     H4       HDR5D    0.195000        1.0080           0   0.00000   0.00000
       451 IM1H     23       IM1H     C3       CD2R5D   2.507000       11.6110           0   -1.08300   1.10000
       452 IM1H     23       IM1H     DC3      DRUD    -2.554000        0.4000           0   0.00000   0.00000
       453 IM1H     23       IM1H     H5       HDR5D    0.192000        1.0080           0   0.00000   0.00000
       454 IM1H     23       IM1H     C4       CD2R5E   2.724100       11.6110           0   -1.25300   1.20000
       455 IM1H     23       IM1H     DC4      DRUD    -2.747100        0.4000           0   0.00000   0.00000
       456 IM1H     23       IM1H     H6       HDR5E    0.203000        1.0080           0   0.00000   0.00000
       457 IM1H     23       IM1H     N2       ND2R5C   2.042200       13.6070           0   -0.803000   1.00000
       458 IM1H     23       IM1H     DN2      DRUD    -2.199200        0.4000           0   0.00000   0.00000
       459 IM1H     23       IM1H     H7       HDP1A    0.363000        1.0080           0   0.00000   0.00000
       460 IM1H     23       IM1H     LPN21    LPD      0.000000        0.0000           -1   0.00000   0.00000
       461 IM1H     24       IM1H     C1       CD33F    2.485000       11.6110           0   -1.18100   1.10000
       462 IM1H     24       IM1H     DC1      DRUD    -2.667000        0.4000           0   0.00000   0.00000
       463 IM1H     24       IM1H     H1       HDA3A    0.135000        1.0080           0   0.00000   0.00000
       464 IM1H     24       IM1H     H2       HDA3A    0.135000        1.0080           0   0.00000   0.00000
       465 IM1H     24       IM1H     H3       HDA3A    0.135000        1.0080           0   0.00000   0.00000
       466 IM1H     24       IM1H     N1       ND2R5C   2.357200       13.6070           0   -0.803000   1.00000
       467 IM1H     24       IM1H     DN1      DRUD    -2.199200        0.4000           0   0.00000   0.00000
       468 IM1H     24       IM1H     C2       CD2R5D   2.447000       11.6110           0   -1.08300   1.10000
       469 IM1H     24       IM1H     DC2      DRUD    -2.554000        0.4000           0   0.00000   0.00000
       470 IM1H     24       IM1H     H4       HDR5D    0.195000        1.0080           0   0.00000   0.00000
       471 IM1H     24       IM1H     C3       CD2R5D   2.507000       11.6110           0   -1.08300   1.10000
       472 IM1H     24       IM1H     DC3      DRUD    -2.554000        0.4000           0   0.00000   0.00000
       473 IM1H     24       IM1H     H5       HDR5D    0.192000        1.0080           0   0.00000   0.00000
       474 IM1H     24       IM1H     C4       CD2R5E   2.724100       11.6110           0   -1.25300   1.20000
       475 IM1H     24       IM1H     DC4      DRUD    -2.747100        0.4000           0   0.00000   0.00000
       476 IM1H     24       IM1H     H6       HDR5E    0.203000        1.0080           0   0.00000   0.00000
       477 IM1H     24       IM1H     N2       ND2R5C   2.042200       13.6070           0   -0.803000   1.00000
       478 IM1H     24       IM1H     DN2      DRUD    -2.199200        0.4000           0   0.00000   0.00000
       479 IM1H     24       IM1H     H7       HDP1A    0.363000        1.0080           0   0.00000   0.00000
       480 IM1H     24       IM1H     LPN21    LPD      0.000000        0.0000           -1   0.00000   0.00000
       481 IM1H     25       IM1H     C1       CD33F    2.485000       11.6110           0   -1.18100   1.10000
       482 IM1H     25       IM1H     DC1      DRUD    -2.667000        0.4000           0   0.00000   0.00000
       483 IM1H     25       IM1H     H1       HDA3A    0.135000        1.0080           0   0.00000   0.00000
       484 IM1H     25       IM1H     H2       HDA3A    0.135000        1.0080           0   0.00000   0.00000
       485 IM1H     25       IM1H     H3       HDA3A    0.135000        1.0080           0   0.00000   0.00000
       486 IM1H     25       IM1H     N1       ND2R5C   2.357200       13.6070           0   -0.803000   1.00000
       487 IM1H     25       IM1H     DN1      DRUD    -2.199200        0.4000           0   0.00000   0.00000
       488 IM1H     25       IM1H     C2       CD2R5D   2.447000       11.6110           0   -1.08300   1.10000
       489 IM1H     25       IM1H     DC2      DRUD    -2.554000        0.4000           0   0.00000   0.00000
       490 IM1H     25       IM1H     H4       HDR5D    0.195000        1.0080           0   0.00000   0.00000
       491 IM1H     25       IM1H     C3       CD2R5D   2.507000       11.6110           0   -1.08300   1.10000
       492 IM1H     25       IM1H     DC3      DRUD    -2.554000        0.4000           0   0.00000   0.00000
       493 IM1H     25       IM1H     H5       HDR5D    0.192000        1.0080           0   0.00000   0.00000
       494 IM1H     25       IM1H     C4       CD2R5E   2.724100       11.6110           0   -1.25300   1.20000
       495 IM1H     25       IM1H     DC4      DRUD    -2.747100        0.4000           0   0.00000   0.00000
       496 IM1H     25       IM1H     H6       HDR5E    0.203000        1.0080           0   0.00000   0.00000
       497 IM1H     25       IM1H     N2       ND2R5C   2.042200       13.6070           0   -0.803000   1.00000
       498 IM1H     25       IM1H     DN2      DRUD    -2.199200        0.4000           0   0.00000   0.00000
       499 IM1H     25       IM1H     H7       HDP1A    0.363000        1.0080           0   0.00000   0.00000
       500 IM1H     25       IM1H     LPN21    LPD      0.000000        0.0000           -1   0.00000   0.00000
       501 IM1H     26       IM1H     C1       CD33F    2.485000       11.6110           0   -1.18100   1.10000
       502 IM1H     26       IM1H     DC1      DRUD    -2.667000        0.4000           0   0.00000   0.00000
       503 IM1H     26       IM1H     H1       HDA3A    0.135000        1.0080           0   0.00000   0.00000
       504 IM1H     26       IM1H     H2       HDA3A    0.135000        1.0080           0   0.00000   0.00000
       505 IM1H     26       IM1H     H3       HDA3A    0.135000        1.0080           0   0.00000   0.00000
       506 IM1H     26       IM1H     N1       ND2R5C   2.357200       13.6070           0   -0.803000   1.00000
       507 IM1H     26       IM1H     DN1      DRUD    -2.199200        0.4000           0   0.00000   0.00000
       508 IM1H     26       IM1H     C2       CD2R5D   2.447000       11.6110           0   -1.08300   1.10000
       509 IM1H     26       IM1H     DC2      DRUD    -2.554000        0.4000           0   0.00000   0.00000
       510 IM1H     26       IM1H     H4       HDR5D    0.195000        1.0080           0   0.00000   0.00000
       511 IM1H     26       IM1H     C3       CD2R5D   2.507000       11.6110           0   -1.08300   1.10000
       512 IM1H     26       IM1H     DC3      DRUD    -2.554000        0.4000           0   0.00000   0.00000
       513 IM1H     26       IM1H     H5       HDR5D    0.192000        1.0080           0   0.00000   0.00000
       514 IM1H     26       IM1H     C4       CD2R5E   2.724100       11.6110           0   -1.25300   1.20000
       515 IM1H     26       IM1H     DC4      DRUD    -2.747100        0.4000           0   0.00000   0.00000
       516 IM1H     26       IM1H     H6       HDR5E    0.203000        1.0080           0   0.00000   0.00000
       517 IM1H     26       IM1H     N2       ND2R5C   2.042200       13.6070           0   -0.803000   1.00000
       518 IM1H     26       IM1H     DN2      DRUD    -2.199200        0.4000           0   0.00000   0.00000
       519 IM1H     26       IM1H     H7       HDP1A    0.363000        1.0080           0   0.00000   0.00000
       520 IM1H     26       IM1H     LPN21    LPD      0.000000        0.0000           -1   0.00000   0.00000
       521 IM1H     27       IM1H     C1       CD33F    2.485000       11.6110           0   -1.18100   1.10000
       522 IM1H     27       IM1H     DC1      DRUD    -2.667000        0.4000           0   0.00000   0.00000
       523 IM1H     27       IM1H     H1       HDA3A    0.135000        1.0080           0   0.00000   0.00000
       524 IM1H     27       IM1H     H2       HDA3A    0.135000        1.0080           0   0.00000   0.00000
       525 IM1H     27       IM1H     H3       HDA3A    0.135000        1.0080           0   0.00000   0.00000
       526 IM1H     27       IM1H     N1       ND2R5C   2.357200       13.6070           0   -0.803000   1.00000
       527 IM1H     27       IM1H     DN1      DRUD    -2.199200        0.4000           0   0.00000   0.00000
       528 IM1H     27       IM1H     C2       CD2R5D   2.447000       11.6110           0   -1.08300   1.10000
       529 IM1H     27       IM1H     DC2      DRUD    -2.554000        0.4000           0   0.00000   0.00000
       530 IM1H     27       IM1H     H4       HDR5D    0.195000        1.0080           0   0.00000   0.00000
       531 IM1H     27       IM1H     C3       CD2R5D   2.507000       11.6110           0   -1.08300   1.10000
       532 IM1H     27       IM1H     DC3      DRUD    -2.554000        0.4000           0   0.00000   0.00000
       533 IM1H     27       IM1H     H5       HDR5D    0.192000        1.0080           0   0.00000   0.00000
       534 IM1H     27       IM1H     C4       CD2R5E   2.724100       11.6110           0   -1.25300   1.20000
       535 IM1H     27       IM1H     DC4      DRUD    -2.747100        0.4000           0   0.00000   0.00000
       536 IM1H     27       IM1H     H6       HDR5E    0.203000        1.0080           0   0.00000   0.00000
       537 IM1H     27       IM1H     N2       ND2R5C   2.042200       13.6070           0   -0.803000   1.00000
       538 IM1H     27       IM1H     DN2      DRUD    -2.199200        0.4000           0   0.00000   0.00000
       539 IM1H     27       IM1H     H7       HDP1A    0.363000        1.0080           0   0.00000   0.00000
       540 IM1H     27       IM1H     LPN21    LPD      0.000000        0.0000           -1   0.00000   0.00000
       541 IM1H     28       IM1H     C1       CD33F    2.485000       11.6110           0   -1.18100   1.10000
       542 IM1H     28       IM1H     DC1      DRUD    -2.667000        0.4000           0   0.00000   0.00000
       543 IM1H     28       IM1H     H1       HDA3A    0.135000        1.0080           0   0.00000   0.00000
       544 IM1H     28       IM1H     H2       HDA3A    0.135000        1.0080           0   0.00000   0.00000
       545 IM1H     28       IM1H     H3       HDA3A    0.135000        1.0080           0   0.00000   0.00000
       546 IM1H     28       IM1H     N1       ND2R5C   2.357200       13.6070           0   -0.803000   1.00000
       547 IM1H     28       IM1H     DN1      DRUD    -2.199200        0.4000           0   0.00000   0.00000
       548 IM1H     28       IM1H     C2       CD2R5D   2.447000       11.6110           0   -1.08300   1.10000
       549 IM1H     28       IM1H     DC2      DRUD    -2.554000        0.4000           0   0.00000   0.00000
       550 IM1H     28       IM1H     H4       HDR5D    0.195000        1.0080           0   0.00000   0.00000
       551 IM1H     28       IM1H     C3       CD2R5D   2.507000       11.6110           0   -1.08300   1.10000
       552 IM1H     28       IM1H     DC3      DRUD    -2.554000        0.4000           0   0.00000   0.00000
       553 IM1H     28       IM1H     H5       HDR5D    0.192000        1.0080           0   0.00000   0.00000
       554 IM1H     28       IM1H     C4       CD2R5E   2.724100       11.6110           0   -1.25300   1.20000
       555 IM1H     28       IM1H     DC4      DRUD    -2.747100        0.4000           0   0.00000   0.00000
       556 IM1H     28       IM1H     H6       HDR5E    0.203000        1.0080           0   0.00000   0.00000
       557 IM1H     28       IM1H     N2       ND2R5C   2.042200       13.6070           0   -0.803000   1.00000
       558 IM1H     28       IM1H     DN2      DRUD    -2.199200        0.4000           0   0.00000   0.00000
       559 IM1H     28       IM1H     H7       HDP1A    0.363000        1.0080           0   0.00000   0.00000
       560 IM1H     28       IM1H     LPN21    LPD      0.000000        0.0000           -1   0.00000   0.00000
       561 IM1H     29       IM1H     C1       CD33F    2.485000       11.6110           0   -1.18100   1.10000
       562 IM1H     29       IM1H     DC1      DRUD    -2.667000        0.4000           0   0.00000   0.00000
       563 IM1H     29       IM1H     H1       HDA3A    0.135000        1.0080           0   0.00000   0.00000
       564 IM1H     29       IM1H     H2       HDA3A    0.135000        1.0080           0   0.00000   0.00000
       565 IM1H     29       IM1H     H3       HDA3A    0.135000        1.0080           0   0.00000   0.00000
       566 IM1H     29       IM1H     N1       ND2R5C   2.357200       13.6070           0   -0.803000   1.00000
       567 IM1H     29       IM1H     DN1      DRUD    -2.199200        0.4000           0   0.00000   0.00000
       568 IM1H     29       IM1H     C2       CD2R5D   2.447000       11.6110           0   -1.08300   1.10000
       569 IM1H     29       IM1H     DC2      DRUD    -2.554000        0.4000           0   0.00000   0.00000
       570 IM1H     29       IM1H     H4       HDR5D    0.195000        1.0080           0   0.00000   0.00000
       571 IM1H     29       IM1H     C3       CD2R5D   2.507000       11.6110           0   -1.08300   1.10000
       572 IM1H     29       IM1H     DC3      DRUD    -2.554000        0.4000           0   0.00000   0.00000
       573 IM1H     29       IM1H     H5       HDR5D    0.192000        1.0080           0   0.00000   0.00000
       574 IM1H     29       IM1H     C4       CD2R5E   2.724100       11.6110           0   -1.25300   1.20000
       575 IM1H     29       IM1H     DC4      DRUD    -2.747100        0.4000           0   0.00000   0.00000
       576 IM1H     29       IM1H     H6       HDR5E    0.203000        1.0080           0   0.00000   0.00000
       577 IM1H     29       IM1H     N2       ND2R5C   2.042200       13.6070           0   -0.803000   1.00000
       578 IM1H     29       IM1H     DN2      DRUD    -2.199200        0.4000           0   0.00000   0.00000
       579 IM1H     29       IM1H     H7       HDP1A    0.363000        1.0080           0   0.00000   0.00000
       580 IM1H     29       IM1H     LPN21    LPD      0.000000        0.0000           -1   0.00000   0.00000
       581 IM1H     30       IM1H     C1       CD33F    2.485000       11.6110           0   -1.18100   1.10000
       582 IM1H     30       IM1H     DC1      DRUD    -2.667000        0.4000           0   0.00000   0.00000
       583 IM1H     30       IM1H     H1       HDA3A    0.135000        1.0080           0   0.00000   0.00000
       584 IM1H     30       IM1H     H2       HDA3A    0.135000        1.0080           0   0.00000   0.00000
       585 IM1H     30       IM1H     H3       HDA3A    0.135000        1.0080           0   0.00000   0.00000
       586 IM1H     30       IM1H     N1       ND2R5C   2.357200       13.6070           0   -0.803000   1.00000
       587 IM1H     30       IM1H     DN1      DRUD    -2.199200        0.4000           0   0.00000   0.00000
       588 IM1H     30       IM1H     C2       CD2R5D   2.447000       11.6110           0   -1.08300   1.10000
       589 IM1H     30       IM1H     DC2      DRUD    -2.554000        0.4000           0   0.00000   0.00000
       590 IM1H     30       IM1H     H4       HDR5D    0.195000        1.0080           0   0.00000   0.00000
       591 IM1H     30       IM1H     C3       CD2R5D   2.507000       11.6110           0   -1.08300   1.10000
       592 IM1H     30       IM1H     DC3      DRUD    -2.554000        0.4000           0   0.00000   0.00000
       593 IM1H     30       IM1H     H5       HDR5D    0.192000        1.0080           0   0.00000   0.00000
       594 IM1H     30       IM1H     C4       CD2R5E   2.724100       11.6110           0   -1.25300   1.20000
       595 IM1H     30       IM1H     DC4      DRUD    -2.747100        0.4000           0   0.00000   0.00000
       596 IM1H     30       IM1H     H6       HDR5E    0.203000        1.0080           0   0.00000   0.00000
       597 IM1H     30       IM1H     N2       ND2R5C   2.042200       13.6070           0   -0.803000   1.00000
       598 IM1H     30       IM1H     DN2      DRUD    -2.199200        0.4000           0   0.00000   0.00000
       599 IM1H     30       IM1H     H7       HDP1A    0.363000        1.0080           0   0.00000   0.00000
       600 IM1H     30       IM1H     LPN21    LPD      0.000000        0.0000           -1   0.00000   0.00000
       601 IM1H     31       IM1H     C1       CD33F    2.485000       11.6110           0   -1.18100   1.10000
       602 IM1H     31       IM1H     DC1      DRUD    -2.667000        0.4000           0   0.00000   0.00000
       603 IM1H     31       IM1H     H1       HDA3A    0.135000        1.0080           0   0.00000   0.00000
       604 IM1H     31       IM1H     H2       HDA3A    0.135000        1.0080           0   0.00000   0.00000
       605 IM1H     31       IM1H     H3       HDA3A    0.135000        1.0080           0   0.00000   0.00000
       606 IM1H     31       IM1H     N1       ND2R5C   2.357200       13.6070           0   -0.803000   1.00000
       607 IM1H     31       IM1H     DN1      DRUD    -2.199200        0.4000           0   0.00000   0.00000
       608 IM1H     31       IM1H     C2       CD2R5D   2.447000       11.6110           0   -1.08300   1.10000
       609 IM1H     31       IM1H     DC2      DRUD    -2.554000        0.4000           0   0.00000   0.00000
       610 IM1H     31       IM1H     H4       HDR5D    0.195000        1.0080           0   0.00000   0.00000
       611 IM1H     31       IM1H     C3       CD2R5D   2.507000       11.6110           0   -1.08300   1.10000
       612 IM1H     31       IM1H     DC3      DRUD    -2.554000        0.4000           0   0.00000   0.00000
       613 IM1H     31       IM1H     H5       HDR5D    0.192000        1.0080           0   0.00000   0.00000
       614 IM1H     31       IM1H     C4       CD2R5E   2.724100       11.6110           0   -1.25300   1.20000
       615 IM1H     31       IM1H     DC4      DRUD    -2.747100        0.4000           0   0.00000   0.00000
       616 IM1H     31       IM1H     H6       HDR5E    0.203000        1.0080           0   0.00000   0.00000
       617 IM1H     31       IM1H     N2       ND2R5C   2.042200       13.6070           0   -0.803000   1.00000
       618 IM1H     31       IM1H     DN2      DRUD    -2.199200        0.4000           0   0.00000   0.00000
       619 IM1H     31       IM1H     H7       HDP1A    0.363000        1.0080           0   0.00000   0.00000
       620 IM1H     31       IM1H     LPN21    LPD      0.000000        0.0000           -1   0.00000   0.00000
       621 IM1H     32       IM1H     C1       CD33F    2.485000       11.6110           0   -1.18100   1.10000
       622 IM1H     32       IM1H     DC1      DRUD    -2.667000        0.4000           0   0.00000   0.00000
       623 IM1H     32       IM1H     H1       HDA3A    0.135000        1.0080           0   0.00000   0.00000
       624 IM1H     32       IM1H     H2       HDA3A    0.135000        1.0080           0   0.00000   0.00000
       625 IM1H     32       IM1H     H3       HDA3A    0.135000        1.0080           0   0.00000   0.00000
       626 IM1H     32       IM1H     N1       ND2R5C   2.357200       13.6070           0   -0.803000   1.00000
       627 IM1H     32       IM1H     DN1      DRUD    -2.199200        0.4000           0   0.00000   0.00000
       628 IM1H     32       IM1H     C2       CD2R5D   2.447000       11.6110           0   -1.08300   1.10000
       629 IM1H     32       IM1H     DC2      DRUD    -2.554000        0.4000           0   0.00000   0.00000
       630 IM1H     32       IM1H     H4       HDR5D    0.195000        1.0080           0   0.00000   0.00000
       631 IM1H     32       IM1H     C3       CD2R5D   2.507000       11.6110           0   -1.08300   1.10000
       632 IM1H     32       IM1H     DC3      DRUD    -2.554000        0.4000           0   0.00000   0.00000
       633 IM1H     32       IM1H     H5       HDR5D    0.192000        1.0080           0   0.00000   0.00000
       634 IM1H     32       IM1H     C4       CD2R5E   2.724100       11.6110           0   -1.25300   1.20000
       635 IM1H     32       IM1H     DC4      DRUD    -2.747100        0.4000           0   0.00000   0.00000
       636 IM1H     32       IM1H     H6       HDR5E    0.203000        1.0080           0   0.00000   0.00000
       637 IM1H     32       IM1H     N2       ND2R5C   2.042200       13.6070           0   -0.803000   1.00000
       638 IM1H     32       IM1H     DN2      DRUD    -2.199200        0.4000           0   0.00000   0.00000
       639 IM1H     32       IM1H     H7       HDP1A    0.363000        1.0080           0   0.00000   0.00000
       640 IM1H     32       IM1H     LPN21    LPD      0.000000        0.0000           -1   0.00000   0.00000
       641 IM1H     33       IM1H     C1       CD33F    2.485000       11.6110           0   -1.18100   1.10000
       642 IM1H     33       IM1H     DC1      DRUD    -2.667000        0.4000           0   0.00000   0.00000
       643 IM1H     33       IM1H     H1       HDA3A    0.135000        1.0080           0   0.00000   0.00000
       644 IM1H     33       IM1H     H2       HDA3A    0.135000        1.0080           0   0.00000   0.00000
       645 IM1H     33       IM1H     H3       HDA3A    0.135000        1.0080           0   0.00000   0.00000
       646 IM1H     33       IM1H     N1       ND2R5C   2.357200       13.6070           0   -0.803000   1.00000
       647 IM1H     33       IM1H     DN1      DRUD    -2.199200        0.4000           0   0.00000   0.00000
       648 IM1H     33       IM1H     C2       CD2R5D   2.447000       11.6110           0   -1.08300   1.10000
       649 IM1H     33       IM1H     DC2      DRUD    -2.554000        0.4000           0   0.00000   0.00000
       650 IM1H     33       IM1H     H4       HDR5D    0.195000        1.0080           0   0.00000   0.00000
       651 IM1H     33       IM1H     C3       CD2R5D   2.507000       11.6110           0   -1.08300   1.10000
       652 IM1H     33       IM1H     DC3      DRUD    -2.554000        0.4000           0   0.00000   0.00000
       653 IM1H     33       IM1H     H5       HDR5D    0.192000        1.0080           0   0.00000   0.00000
       654 IM1H     33       IM1H     C4       CD2R5E   2.724100       11.6110           0   -1.25300   1.20000
       655 IM1H     33       IM1H     DC4      DRUD    -2.747100        0.4000           0   0.00000   0.00000
       656 IM1H     33       IM1H     H6       HDR5E    0.203000        1.0080           0   0.00000   0.00000
       657 IM1H     33       IM1H     N2       ND2R5C   2.042200       13.6070           0   -0.803000   1.00000
       658 IM1H     33       IM1H     DN2      DRUD    -2.199200        0.4000           0   0.00000   0.00000
       659 IM1H     33       IM1H     H7       HDP1A    0.363000        1.0080           0   0.00000   0.00000
       660 IM1H     33       IM1H     LPN21    LPD      0.000000        0.0000           -1   0.00000   0.00000
       661 IM1H     34       IM1H     C1       CD33F    2.485000       11.6110           0   -1.18100   1.10000
       662 IM1H     34       IM1H     DC1      DRUD    -2.667000        0.4000           0   0.00000   0.00000
       663 IM1H     34       IM1H     H1       HDA3A    0.135000        1.0080           0   0.00000   0.00000
       664 IM1H     34       IM1H     H2       HDA3A    0.135000        1.0080           0   0.00000   0.00000
       665 IM1H     34       IM1H     H3       HDA3A    0.135000        1.0080           0   0.00000   0.00000
       666 IM1H     34       IM1H     N1       ND2R5C   2.357200       13.6070           0   -0.803000   1.00000
       667 IM1H     34       IM1H     DN1      DRUD    -2.199200        0.4000           0   0.00000   0.00000
       668 IM1H     34       IM1H     C2       CD2R5D   2.447000       11.6110           0   -1.08300   1.10000
       669 IM1H     34       IM1H     DC2      DRUD    -2.554000        0.4000           0   0.00000   0.00000
       670 IM1H     34       IM1H     H4       HDR5D    0.195000        1.0080           0   0.00000   0.00000
       671 IM1H     34       IM1H     C3       CD2R5D   2.507000       11.6110           0   -1.08300   1.10000
       672 IM1H     34       IM1H     DC3      DRUD    -2.554000        0.4000           0   0.00000   0.00000
       673 IM1H     34       IM1H     H5       HDR5D    0.192000        1.0080           0   0.00000   0.00000
       674 IM1H     34       IM1H     C4       CD2R5E   2.724100       11.6110           0   -1.25300   1.20000
       675 IM1H     34       IM1H     DC4      DRUD    -2.747100        0.4000           0   0.00000   0.00000
       676 IM1H     34       IM1H     H6       HDR5E    0.203000        1.0080           0   0.00000   0.00000
       677 IM1H     34       IM1H     N2       ND2R5C   2.042200       13.6070           0   -0.803000   1.00000
       678 IM1H     34       IM1H     DN2      DRUD    -2.199200        0.4000           0   0.00000   0.00000
       679 IM1H     34       IM1H     H7       HDP1A    0.363000        1.0080           0   0.00000   0.00000
       680 IM1H     34       IM1H     LPN21    LPD      0.000000        0.0000           -1   0.00000   0.00000
       681 IM1H     35       IM1H     C1       CD33F    2.485000       11.6110           0   -1.18100   1.10000
       682 IM1H     35       IM1H     DC1      DRUD    -2.667000        0.4000           0   0.00000   0.00000
       683 IM1H     35       IM1H     H1       HDA3A    0.135000        1.0080           0   0.00000   0.00000
       684 IM1H     35       IM1H     H2       HDA3A    0.135000        1.0080           0   0.00000   0.00000
       685 IM1H     35       IM1H     H3       HDA3A    0.135000        1.0080           0   0.00000   0.00000
       686 IM1H     35       IM1H     N1       ND2R5C   2.357200       13.6070           0   -0.803000   1.00000
       687 IM1H     35       IM1H     DN1      DRUD    -2.199200        0.4000           0   0.00000   0.00000
       688 IM1H     35       IM1H     C2       CD2R5D   2.447000       11.6110           0   -1.08300   1.10000
       689 IM1H     35       IM1H     DC2      DRUD    -2.554000        0.4000           0   0.00000   0.00000
       690 IM1H     35       IM1H     H4       HDR5D    0.195000        1.0080           0   0.00000   0.00000
       691 IM1H     35       IM1H     C3       CD2R5D   2.507000       11.6110           0   -1.08300   1.10000
       692 IM1H     35       IM1H     DC3      DRUD    -2.554000        0.4000           0   0.00000   0.00000
       693 IM1H     35       IM1H     H5       HDR5D    0.192000        1.0080           0   0.00000   0.00000
       694 IM1H     35       IM1H     C4       CD2R5E   2.724100       11.6110           0   -1.25300   1.20000
       695 IM1H     35       IM1H     DC4      DRUD    -2.747100        0.4000           0   0.00000   0.00000
       696 IM1H     35       IM1H     H6       HDR5E    0.203000        1.0080           0   0.00000   0.00000
       697 IM1H     35       IM1H     N2       ND2R5C   2.042200       13.6070           0   -0.803000   1.00000
       698 IM1H     35       IM1H     DN2      DRUD    -2.199200        0.4000           0   0.00000   0.00000
       699 IM1H     35       IM1H     H7       HDP1A    0.363000        1.0080           0   0.00000   0.00000
       700 IM1H     35       IM1H     LPN21    LPD      0.000000        0.0000           -1   0.00000   0.00000
       701 IM1H     36       IM1H     C1       CD33F    2.485000       11.6110           0   -1.18100   1.10000
       702 IM1H     36       IM1H     DC1      DRUD    -2.667000        0.4000           0   0.00000   0.00000
       703 IM1H     36       IM1H     H1       HDA3A    0.135000        1.0080           0   0.00000   0.00000
       704 IM1H     36       IM1H     H2       HDA3A    0.135000        1.0080           0   0.00000   0.00000
       705 IM1H     36       IM1H     H3       HDA3A    0.135000        1.0080           0   0.00000   0.00000
       706 IM1H     36       IM1H     N1       ND2R5C   2.357200       13.6070           0   -0.803000   1.00000
       707 IM1H     36       IM1H     DN1      DRUD    -2.199200        0.4000           0   0.00000   0.00000
       708 IM1H     36       IM1H     C2       CD2R5D   2.447000       11.6110           0   -1.08300   1.10000
       709 IM1H     36       IM1H     DC2      DRUD    -2.554000        0.4000           0   0.00000   0.00000
       710 IM1H     36       IM1H     H4       HDR5D    0.195000        1.0080           0   0.00000   0.00000
       711 IM1H     36       IM1H     C3       CD2R5D   2.507000       11.6110           0   -1.08300   1.10000
       712 IM1H     36       IM1H     DC3      DRUD    -2.554000        0.4000           0   0.00000   0.00000
       713 IM1H     36       IM1H     H5       HDR5D    0.192000        1.0080           0   0.00000   0.00000
       714 IM1H     36       IM1H     C4       CD2R5E   2.724100       11.6110           0   -1.25300   1.20000
       715 IM1H     36       IM1H     DC4      DRUD    -2.747100        0.4000           0   0.00000   0.00000
       716 IM1H     36       IM1H     H6       HDR5E    0.203000        1.0080           0   0.00000   0.00000
       717 IM1H     36       IM1H     N2       ND2R5C   2.042200       13.6070           0   -0.803000   1.00000
       718 IM1H     36       IM1H     DN2      DRUD    -2.199200        0.4000           0   0.00000   0.00000
       719 IM1H     36       IM1H     H7       HDP1A    0.363000        1.0080           0   0.00000   0.00000
       720 IM1H     36       IM1H     LPN21    LPD      0.000000        0.0000           -1   0.00000   0.00000
       721 IM1H     37       IM1H     C1       CD33F    2.485000       11.6110           0   -1.18100   1.10000
       722 IM1H     37       IM1H     DC1      DRUD    -2.667000        0.4000           0   0.00000   0.00000
       723 IM1H     37       IM1H     H1       HDA3A    0.135000        1.0080           0   0.00000   0.00000
       724 IM1H     37       IM1H     H2       HDA3A    0.135000        1.0080           0   0.00000   0.00000
       725 IM1H     37       IM1H     H3       HDA3A    0.135000        1.0080           0   0.00000   0.00000
       726 IM1H     37       IM1H     N1       ND2R5C   2.357200       13.6070           0   -0.803000   1.00000
       727 IM1H     37       IM1H     DN1      DRUD    -2.199200        0.4000           0   0.00000   0.00000
       728 IM1H     37       IM1H     C2       CD2R5D   2.447000       11.6110           0   -1.08300   1.10000
       729 IM1H     37       IM1H     DC2      DRUD    -2.554000        0.4000           0   0.00000   0.00000
       730 IM1H     37       IM1H     H4       HDR5D    0.195000        1.0080           0   0.00000   0.00000
       731 IM1H     37       IM1H     C3       CD2R5D   2.507000       11.6110           0   -1.08300   1.10000
       732 IM1H     37       IM1H     DC3      DRUD    -2.554000        0.4000           0   0.00000   0.00000
       733 IM1H     37       IM1H     H5       HDR5D    0.192000        1.0080           0   0.00000   0.00000
       734 IM1H     37       IM1H     C4       CD2R5E   2.724100       11.6110           0   -1.25300   1.20000
       735 IM1H     37       IM1H     DC4      DRUD    -2.747100        0.4000           0   0.00000   0.00000
       736 IM1H     37       IM1H     H6       HDR5E    0.203000        1.0080           0   0.00000   0.00000
       737 IM1H     37       IM1H     N2       ND2R5C   2.042200       13.6070           0   -0.803000   1.00000
       738 IM1H     37       IM1H     DN2      DRUD    -2.199200        0.4000           0   0.00000   0.00000
       739 IM1H     37       IM1H     H7       HDP1A    0.363000        1.0080           0   0.00000   0.00000
       740 IM1H     37       IM1H     LPN21    LPD      0.000000        0.0000           -1   0.00000   0.00000
       741 IM1H     38       IM1H     C1       CD33F    2.485000       11.6110           0   -1.18100   1.10000
       742 IM1H     38       IM1H     DC1      DRUD    -2.667000        0.4000           0   0.00000   0.00000
       743 IM1H     38       IM1H     H1       HDA3A    0.135000        1.0080           0   0.00000   0.00000
       744 IM1H     38       IM1H     H2       HDA3A    0.135000        1.0080           0   0.00000   0.00000
       745 IM1H     38       IM1H     H3       HDA3A    0.135000        1.0080           0   0.00000   0.00000
       746 IM1H     38       IM1H     N1       ND2R5C   2.357200       13.6070           0   -0.803000   1.00000
       747 IM1H     38       IM1H     DN1      DRUD    -2.199200        0.4000           0   0.00000   0.00000
       748 IM1H     38       IM1H     C2       CD2R5D   2.447000       11.6110           0   -1.08300   1.10000
       749 IM1H     38       IM1H     DC2      DRUD    -2.554000        0.4000           0   0.00000   0.00000
       750 IM1H     38       IM1H     H4       HDR5D    0.195000        1.0080           0   0.00000   0.00000
       751 IM1H     38       IM1H     C3       CD2R5D   2.507000       11.6110           0   -1.08300   1.10000
       752 IM1H     38       IM1H     DC3      DRUD    -2.554000        0.4000           0   0.00000   0.00000
       753 IM1H     38       IM1H     H5       HDR5D    0.192000        1.0080           0   0.00000   0.00000
       754 IM1H     38       IM1H     C4       CD2R5E   2.724100       11.6110           0   -1.25300   1.20000
       755 IM1H     38       IM1H     DC4      DRUD    -2.747100        0.4000           0   0.00000   0.00000
       756 IM1H     38       IM1H     H6       HDR5E    0.203000        1.0080           0   0.00000   0.00000
       757 IM1H     38       IM1H     N2       ND2R5C   2.042200       13.6070           0   -0.803000   1.00000
       758 IM1H     38       IM1H     DN2      DRUD    -2.199200        0.4000           0   0.00000   0.00000
       759 IM1H     38       IM1H     H7       HDP1A    0.363000        1.0080           0   0.00000   0.00000
       760 IM1H     38       IM1H     LPN21    LPD      0.000000        0.0000           -1   0.00000   0.00000
       761 IM1H     39       IM1H     C1       CD33F    2.485000       11.6110           0   -1.18100   1.10000
       762 IM1H     39       IM1H     DC1      DRUD    -2.667000        0.4000           0   0.00000   0.00000
       763 IM1H     39       IM1H     H1       HDA3A    0.135000        1.0080           0   0.00000   0.00000
       764 IM1H     39       IM1H     H2       HDA3A    0.135000        1.0080           0   0.00000   0.00000
       765 IM1H     39       IM1H     H3       HDA3A    0.135000        1.0080           0   0.00000   0.00000
       766 IM1H     39       IM1H     N1       ND2R5C   2.357200       13.6070           0   -0.803000   1.00000
       767 IM1H     39       IM1H     DN1      DRUD    -2.199200        0.4000           0   0.00000   0.00000
       768 IM1H     39       IM1H     C2       CD2R5D   2.447000       11.6110           0   -1.08300   1.10000
       769 IM1H     39       IM1H     DC2      DRUD    -2.554000        0.4000           0   0.00000   0.00000
       770 IM1H     39       IM1H     H4       HDR5D    0.195000        1.0080           0   0.00000   0.00000
       771 IM1H     39       IM1H     C3       CD2R5D   2.507000       11.6110           0   -1.08300   1.10000
       772 IM1H     39       IM1H     DC3      DRUD    -2.554000        0.4000           0   0.00000   0.00000
       773 IM1H     39       IM1H     H5       HDR5D    0.192000        1.0080           0   0.00000   0.00000
       774 IM1H     39       IM1H     C4       CD2R5E   2.724100       11.6110           0   -1.25300   1.20000
       775 IM1H     39       IM1H     DC4      DRUD    -2.747100        0.4000           0   0.00000   0.00000
       776 IM1H     39       IM1H     H6       HDR5E    0.203000        1.0080           0   0.00000   0.00000
       777 IM1H     39       IM1H     N2       ND2R5C   2.042200       13.6070           0   -0.803000   1.00000
       778 IM1H     39       IM1H     DN2      DRUD    -2.199200        0.4000           0   0.00000   0.00000
       779 IM1H     39       IM1H     H7       HDP1A    0.363000        1.0080           0   0.00000   0.00000
       780 IM1H     39       IM1H     LPN21    LPD      0.000000        0.0000           -1   0.00000   0.00000
       781 IM1H     40       IM1H     C1       CD33F    2.485000       11.6110           0   -1.18100   1.10000
       782 IM1H     40       IM1H     DC1      DRUD    -2.667000        0.4000           0   0.00000   0.00000
       783 IM1H     40       IM1H     H1       HDA3A    0.135000        1.0080           0   0.00000   0.00000
       784 IM1H     40       IM1H     H2       HDA3A    0.135000        1.0080           0   0.00000   0.00000
       785 IM1H     40       IM1H     H3       HDA3A    0.135000        1.0080           0   0.00000   0.00000
       786 IM1H     40       IM1H     N1       ND2R5C   2.357200       13.6070           0   -0.803000   1.00000
       787 IM1H     40       IM1H     DN1      DRUD    -2.199200        0.4000           0   0.00000   0.00000
       788 IM1H     40       IM1H     C2       CD2R5D   2.447000       11.6110           0   -1.08300   1.10000
       789 IM1H     40       IM1H     DC2      DRUD    -2.554000        0.4000           0   0.00000   0.00000
       790 IM1H     40       IM1H     H4       HDR5D    0.195000        1.0080           0   0.00000   0.00000
       791 IM1H     40       IM1H     C3       CD2R5D   2.507000       11.6110           0   -1.08300   1.10000
       792 IM1H     40       IM1H     DC3      DRUD    -2.554000        0.4000           0   0.00000   0.00000
       793 IM1H     40       IM1H     H5       HDR5D    0.192000        1.0080           0   0.00000   0.00000
       794 IM1H     40       IM1H     C4       CD2R5E   2.724100       11.6110           0   -1.25300   1.20000
       795 IM1H     40       IM1H     DC4      DRUD    -2.747100        0.4000           0   0.00000   0.00000
       796 IM1H     40       IM1H     H6       HDR5E    0.203000        1.0080           0   0.00000   0.00000
       797 IM1H     40       IM1H     N2       ND2R5C   2.042200       13.6070           0   -0.803000   1.00000
       798 IM1H     40       IM1H     DN2      DRUD    -2.199200        0.4000           0   0.00000   0.00000
       799 IM1H     40       IM1H     H7       HDP1A    0.363000        1.0080           0   0.00000   0.00000
       800 IM1H     40       IM1H     LPN21    LPD      0.000000        0.0000           -1   0.00000   0.00000
       801 IM1H     41       IM1H     C1       CD33F    2.485000       11.6110           0   -1.18100   1.10000
       802 IM1H     41       IM1H     DC1      DRUD    -2.667000        0.4000           0   0.00000   0.00000
       803 IM1H     41       IM1H     H1       HDA3A    0.135000        1.0080           0   0.00000   0.00000
       804 IM1H     41       IM1H     H2       HDA3A    0.135000        1.0080           0   0.00000   0.00000
       805 IM1H     41       IM1H     H3       HDA3A    0.135000        1.0080           0   0.00000   0.00000
       806 IM1H     41       IM1H     N1       ND2R5C   2.357200       13.6070           0   -0.803000   1.00000
       807 IM1H     41       IM1H     DN1      DRUD    -2.199200        0.4000           0   0.00000   0.00000
       808 IM1H     41       IM1H     C2       CD2R5D   2.447000       11.6110           0   -1.08300   1.10000
       809 IM1H     41       IM1H     DC2      DRUD    -2.554000        0.4000           0   0.00000   0.00000
       810 IM1H     41       IM1H     H4       HDR5D    0.195000        1.0080           0   0.00000   0.00000
       811 IM1H     41       IM1H     C3       CD2R5D   2.507000       11.6110           0   -1.08300   1.10000
       812 IM1H     41       IM1H     DC3      DRUD    -2.554000        0.4000           0   0.00000   0.00000
       813 IM1H     41       IM1H     H5       HDR5D    0.192000        1.0080           0   0.00000   0.00000
       814 IM1H     41       IM1H     C4       CD2R5E   2.724100       11.6110           0   -1.25300   1.20000
       815 IM1H     41       IM1H     DC4      DRUD    -2.747100        0.4000           0   0.00000   0.00000
       816 IM1H     41       IM1H     H6       HDR5E    0.203000        1.0080           0   0.00000   0.00000
       817 IM1H     41       IM1H     N2       ND2R5C   2.042200       13.6070           0   -0.803000   1.00000
       818 IM1H     41       IM1H     DN2      DRUD    -2.199200        0.4000           0   0.00000   0.00000
       819 IM1H     41       IM1H     H7       HDP1A    0.363000        1.0080           0   0.00000   0.00000
       820 IM1H     41       IM1H     LPN21    LPD      0.000000        0.0000           -1   0.00000   0.00000
       821 IM1H     42       IM1H     C1       CD33F    2.485000       11.6110           0   -1.18100   1.10000
       822 IM1H     42       IM1H     DC1      DRUD    -2.667000        0.4000           0   0.00000   0.00000
       823 IM1H     42       IM1H     H1       HDA3A    0.135000        1.0080           0   0.00000   0.00000
       824 IM1H     42       IM1H     H2       HDA3A    0.135000        1.0080           0   0.00000   0.00000
       825 IM1H     42       IM1H     H3       HDA3A    0.135000        1.0080           0   0.00000   0.00000
       826 IM1H     42       IM1H     N1       ND2R5C   2.357200       13.6070           0   -0.803000   1.00000
       827 IM1H     42       IM1H     DN1      DRUD    -2.199200        0.4000           0   0.00000   0.00000
       828 IM1H     42       IM1H     C2       CD2R5D   2.447000       11.6110           0   -1.08300   1.10000
       829 IM1H     42       IM1H     DC2      DRUD    -2.554000        0.4000           0   0.00000   0.00000
       830 IM1H     42       IM1H     H4       HDR5D    0.195000        1.0080           0   0.00000   0.00000
       831 IM1H     42       IM1H     C3       CD2R5D   2.507000       11.6110           0   -1.08300   1.10000
       832 IM1H     42       IM1H     DC3      DRUD    -2.554000        0.4000           0   0.00000   0.00000
       833 IM1H     42       IM1H     H5       HDR5D    0.192000        1.0080           0   0.00000   0.00000
       834 IM1H     42       IM1H     C4       CD2R5E   2.724100       11.6110           0   -1.25300   1.20000
       835 IM1H     42       IM1H     DC4      DRUD    -2.747100        0.4000           0   0.00000   0.00000
       836 IM1H     42       IM1H     H6       HDR5E    0.203000        1.0080           0   0.00000   0.00000
       837 IM1H     42       IM1H     N2       ND2R5C   2.042200       13.6070           0   -0.803000   1.00000
       838 IM1H     42       IM1H     DN2      DRUD    -2.199200        0.4000           0   0.00000   0.00000
       839 IM1H     42       IM1H     H7       HDP1A    0.363000        1.0080           0   0.00000   0.00000
       840 IM1H     42       IM1H     LPN21    LPD      0.000000        0.0000           -1   0.00000   0.00000
       841 IM1H     43       IM1H     C1       CD33F    2.485000       11.6110           0   -1.18100   1.10000
       842 IM1H     43       IM1H     DC1      DRUD    -2.667000        0.4000           0   0.00000   0.00000
       843 IM1H     43       IM1H     H1       HDA3A    0.135000        1.0080           0   0.00000   0.00000
       844 IM1H     43       IM1H     H2       HDA3A    0.135000        1.0080           0   0.00000   0.00000
       845 IM1H     43       IM1H     H3       HDA3A    0.135000        1.0080           0   0.00000   0.00000
       846 IM1H     43       IM1H     N1       ND2R5C   2.357200       13.6070           0   -0.803000   1.00000
       847 IM1H     43       IM1H     DN1      DRUD    -2.199200        0.4000           0   0.00000   0.00000
       848 IM1H     43       IM1H     C2       CD2R5D   2.447000       11.6110           0   -1.08300   1.10000
       849 IM1H     43       IM1H     DC2      DRUD    -2.554000        0.4000           0   0.00000   0.00000
       850 IM1H     43       IM1H     H4       HDR5D    0.195000        1.0080           0   0.00000   0.00000
       851 IM1H     43       IM1H     C3       CD2R5D   2.507000       11.6110           0   -1.08300   1.10000
       852 IM1H     43       IM1H     DC3      DRUD    -2.554000        0.4000           0   0.00000   0.00000
       853 IM1H     43       IM1H     H5       HDR5D    0.192000        1.0080           0   0.00000   0.00000
       854 IM1H     43       IM1H     C4       CD2R5E   2.724100       11.6110           0   -1.25300   1.20000
       855 IM1H     43       IM1H     DC4      DRUD    -2.747100        0.4000           0   0.00000   0.00000
       856 IM1H     43       IM1H     H6       HDR5E    0.203000        1.0080           0   0.00000   0.00000
       857 IM1H     43       IM1H     N2       ND2R5C   2.042200       13.6070           0   -0.803000   1.00000
       858 IM1H     43       IM1H     DN2      DRUD    -2.199200        0.4000           0   0.00000   0.00000
       859 IM1H     43       IM1H     H7       HDP1A    0.363000        1.0080           0   0.00000   0.00000
       860 IM1H     43       IM1H     LPN21    LPD      0.000000        0.0000           -1   0.00000   0.00000
       861 IM1H     44       IM1H     C1       CD33F    2.485000       11.6110           0   -1.18100   1.10000
       862 IM1H     44       IM1H     DC1      DRUD    -2.667000        0.4000           0   0.00000   0.00000
       863 IM1H     44       IM1H     H1       HDA3A    0.135000        1.0080           0   0.00000   0.00000
       864 IM1H     44       IM1H     H2       HDA3A    0.135000        1.0080           0   0.00000   0.00000
       865 IM1H     44       IM1H     H3       HDA3A    0.135000        1.0080           0   0.00000   0.00000
       866 IM1H     44       IM1H     N1       ND2R5C   2.357200       13.6070           0   -0.803000   1.00000
       867 IM1H     44       IM1H     DN1      DRUD    -2.199200        0.4000           0   0.00000   0.00000
       868 IM1H     44       IM1H     C2       CD2R5D   2.447000       11.6110           0   -1.08300   1.10000
       869 IM1H     44       IM1H     DC2      DRUD    -2.554000        0.4000           0   0.00000   0.00000
       870 IM1H     44       IM1H     H4       HDR5D    0.195000        1.0080           0   0.00000   0.00000
       871 IM1H     44       IM1H     C3       CD2R5D   2.507000       11.6110           0   -1.08300   1.10000
       872 IM1H     44       IM1H     DC3      DRUD    -2.554000        0.4000           0   0.00000   0.00000
       873 IM1H     44       IM1H     H5       HDR5D    0.192000        1.0080           0   0.00000   0.00000
       874 IM1H     44       IM1H     C4       CD2R5E   2.724100       11.6110           0   -1.25300   1.20000
       875 IM1H     44       IM1H     DC4      DRUD    -2.747100        0.4000           0   0.00000   0.00000
       876 IM1H     44       IM1H     H6       HDR5E    0.203000        1.0080           0   0.00000   0.00000
       877 IM1H     44       IM1H     N2       ND2R5C   2.042200       13.6070           0   -0.803000   1.00000
       878 IM1H     44       IM1H     DN2      DRUD    -2.199200        0.4000           0   0.00000   0.00000
       879 IM1H     44       IM1H     H7       HDP1A    0.363000        1.0080           0   0.00000   0.00000
       880 IM1H     44       IM1H     LPN21    LPD      0.000000        0.0000           -1   0.00000   0.00000
       881 IM1H     45       IM1H     C1       CD33F    2.485000       11.6110           0   -1.18100   1.10000
       882 IM1H     45       IM1H     DC1      DRUD    -2.667000        0.4000           0   0.00000   0.00000
       883 IM1H     45       IM1H     H1       HDA3A    0.135000        1.0080           0   0.00000   0.00000
       884 IM1H     45       IM1H     H2       HDA3A    0.135000        1.0080           0   0.00000   0.00000
       885 IM1H     45       IM1H     H3       HDA3A    0.135000        1.0080           0   0.00000   0.00000
       886 IM1H     45       IM1H     N1       ND2R5C   2.357200       13.6070           0   -0.803000   1.00000
       887 IM1H     45       IM1H     DN1      DRUD    -2.199200        0.4000           0   0.00000   0.00000
       888 IM1H     45       IM1H     C2       CD2R5D   2.447000       11.6110           0   -1.08300   1.10000
       889 IM1H     45       IM1H     DC2      DRUD    -2.554000        0.4000           0   0.00000   0.00000
       890 IM1H     45       IM1H     H4       HDR5D    0.195000        1.0080           0   0.00000   0.00000
       891 IM1H     45       IM1H     C3       CD2R5D   2.507000       11.6110           0   -1.08300   1.10000
       892 IM1H     45       IM1H     DC3      DRUD    -2.554000        0.4000           0   0.00000   0.00000
       893 IM1H     45       IM1H     H5       HDR5D    0.192000        1.0080           0   0.00000   0.00000
       894 IM1H     45       IM1H     C4       CD2R5E   2.724100       11.6110           0   -1.25300   1.20000
       895 IM1H     45       IM1H     DC4      DRUD    -2.747100        0.4000           0   0.00000   0.00000
       896 IM1H     45       IM1H     H6       HDR5E    0.203000        1.0080           0   0.00000   0.00000
       897 IM1H     45       IM1H     N2       ND2R5C   2.042200       13.6070           0   -0.803000   1.00000
       898 IM1H     45       IM1H     DN2      DRUD    -2.199200        0.4000           0   0.00000   0.00000
       899 IM1H     45       IM1H     H7       HDP1A    0.363000        1.0080           0   0.00000   0.00000
       900 IM1H     45       IM1H     LPN21    LPD      0.000000        0.0000           -1   0.00000   0.00000
       901 IM1H     46       IM1H     C1       CD33F    2.485000       11.6110           0   -1.18100   1.10000
       902 IM1H     46       IM1H     DC1      DRUD    -2.667000        0.4000           0   0.00000   0.00000
       903 IM1H     46       IM1H     H1       HDA3A    0.135000        1.0080           0   0.00000   0.00000
       904 IM1H     46       IM1H     H2       HDA3A    0.135000        1.0080           0   0.00000   0.00000
       905 IM1H     46       IM1H     H3       HDA3A    0.135000        1.0080           0   0.00000   0.00000
       906 IM1H     46       IM1H     N1       ND2R5C   2.357200       13.6070           0   -0.803000   1.00000
       907 IM1H     46       IM1H     DN1      DRUD    -2.199200        0.4000           0   0.00000   0.00000
       908 IM1H     46       IM1H     C2       CD2R5D   2.447000       11.6110           0   -1.08300   1.10000
       909 IM1H     46       IM1H     DC2      DRUD    -2.554000        0.4000           0   0.00000   0.00000
       910 IM1H     46       IM1H     H4       HDR5D    0.195000        1.0080           0   0.00000   0.00000
       911 IM1H     46       IM1H     C3       CD2R5D   2.507000       11.6110           0   -1.08300   1.10000
       912 IM1H     46       IM1H     DC3      DRUD    -2.554000        0.4000           0   0.00000   0.00000
       913 IM1H     46       IM1H     H5       HDR5D    0.192000        1.0080           0   0.00000   0.00000
       914 IM1H     46       IM1H     C4       CD2R5E   2.724100       11.6110           0   -1.25300   1.20000
       915 IM1H     46       IM1H     DC4      DRUD    -2.747100        0.4000           0   0.00000   0.00000
       916 IM1H     46       IM1H     H6       HDR5E    0.203000        1.0080           0   0.00000   0.00000
       917 IM1H     46       IM1H     N2       ND2R5C   2.042200       13.6070           0   -0.803000   1.00000
       918 IM1H     46       IM1H     DN2      DRUD    -2.199200        0.4000           0   0.00000   0.00000
       919 IM1H     46       IM1H     H7       HDP1A    0.363000        1.0080           0   0.00000   0.00000
       920 IM1H     46       IM1H     LPN21    LPD      0.000000        0.0000           -1   0.00000   0.00000
       921 IM1H     47       IM1H     C1       CD33F    2.485000       11.6110           0   -1.18100   1.10000
       922 IM1H     47       IM1H     DC1      DRUD    -2.667000        0.4000           0   0.00000   0.00000
       923 IM1H     47       IM1H     H1       HDA3A    0.135000        1.0080           0   0.00000   0.00000
       924 IM1H     47       IM1H     H2       HDA3A    0.135000        1.0080           0   0.00000   0.00000
       925 IM1H     47       IM1H     H3       HDA3A    0.135000        1.0080           0   0.00000   0.00000
       926 IM1H     47       IM1H     N1       ND2R5C   2.357200       13.6070           0   -0.803000   1.00000
       927 IM1H     47       IM1H     DN1      DRUD    -2.199200        0.4000           0   0.00000   0.00000
       928 IM1H     47       IM1H     C2       CD2R5D   2.447000       11.6110           0   -1.08300   1.10000
       929 IM1H     47       IM1H     DC2      DRUD    -2.554000        0.4000           0   0.00000   0.00000
       930 IM1H     47       IM1H     H4       HDR5D    0.195000        1.0080           0   0.00000   0.00000
       931 IM1H     47       IM1H     C3       CD2R5D   2.507000       11.6110           0   -1.08300   1.10000
       932 IM1H     47       IM1H     DC3      DRUD    -2.554000        0.4000           0   0.00000   0.00000
       933 IM1H     47       IM1H     H5       HDR5D    0.192000        1.0080           0   0.00000   0.00000
       934 IM1H     47       IM1H     C4       CD2R5E   2.724100       11.6110           0   -1.25300   1.20000
       935 IM1H     47       IM1H     DC4      DRUD    -2.747100        0.4000           0   0.00000   0.00000
       936 IM1H     47       IM1H     H6       HDR5E    0.203000        1.0080           0   0.00000   0.00000
       937 IM1H     47       IM1H     N2       ND2R5C   2.042200       13.6070           0   -0.803000   1.00000
       938 IM1H     47       IM1H     DN2      DRUD    -2.199200        0.4000           0   0.00000   0.00000
       939 IM1H     47       IM1H     H7       HDP1A    0.363000        1.0080           0   0.00000   0.00000
       940 IM1H     47       IM1H     LPN21    LPD      0.000000        0.0000           -1   0.00000   0.00000
       941 IM1H     48       IM1H     C1       CD33F    2.485000       11.6110           0   -1.18100   1.10000
       942 IM1H     48       IM1H     DC1      DRUD    -2.667000        0.4000           0   0.00000   0.00000
       943 IM1H     48       IM1H     H1       HDA3A    0.135000        1.0080           0   0.00000   0.00000
       944 IM1H     48       IM1H     H2       HDA3A    0.135000        1.0080           0   0.00000   0.00000
       945 IM1H     48       IM1H     H3       HDA3A    0.135000        1.0080           0   0.00000   0.00000
       946 IM1H     48       IM1H     N1       ND2R5C   2.357200       13.6070           0   -0.803000   1.00000
       947 IM1H     48       IM1H     DN1      DRUD    -2.199200        0.4000           0   0.00000   0.00000
       948 IM1H     48       IM1H     C2       CD2R5D   2.447000       11.6110           0   -1.08300   1.10000
       949 IM1H     48       IM1H     DC2      DRUD    -2.554000        0.4000           0   0.00000   0.00000
       950 IM1H     48       IM1H     H4       HDR5D    0.195000        1.0080           0   0.00000   0.00000
       951 IM1H     48       IM1H     C3       CD2R5D   2.507000       11.6110           0   -1.08300   1.10000
       952 IM1H     48       IM1H     DC3      DRUD    -2.554000        0.4000           0   0.00000   0.00000
       953 IM1H     48       IM1H     H5       HDR5D    0.192000        1.0080           0   0.00000   0.00000
       954 IM1H     48       IM1H     C4       CD2R5E   2.724100       11.6110           0   -1.25300   1.20000
       955 IM1H     48       IM1H     DC4      DRUD    -2.747100        0.4000           0   0.00000   0.00000
       956 IM1H     48       IM1H     H6       HDR5E    0.203000        1.0080           0   0.00000   0.00000
       957 IM1H     48       IM1H     N2       ND2R5C   2.042200       13.6070           0   -0.803000   1.00000
       958 IM1H     48       IM1H     DN2      DRUD    -2.199200        0.4000           0   0.00000   0.00000
       959 IM1H     48       IM1H     H7       HDP1A    0.363000        1.0080           0   0.00000   0.00000
       960 IM1H     48       IM1H     LPN21    LPD      0.000000        0.0000           -1   0.00000   0.00000
       961 IM1H     49       IM1H     C1       CD33F    2.485000       11.6110           0   -1.18100   1.10000
       962 IM1H     49       IM1H     DC1      DRUD    -2.667000        0.4000           0   0.00000   0.00000
       963 IM1H     49       IM1H     H1       HDA3A    0.135000        1.0080           0   0.00000   0.00000
       964 IM1H     49       IM1H     H2       HDA3A    0.135000        1.0080           0   0.00000   0.00000
       965 IM1H     49       IM1H     H3       HDA3A    0.135000        1.0080           0   0.00000   0.00000
       966 IM1H     49       IM1H     N1       ND2R5C   2.357200       13.6070           0   -0.803000   1.00000
       967 IM1H     49       IM1H     DN1      DRUD    -2.199200        0.4000           0   0.00000   0.00000
       968 IM1H     49       IM1H     C2       CD2R5D   2.447000       11.6110           0   -1.08300   1.10000
       969 IM1H     49       IM1H     DC2      DRUD    -2.554000        0.4000           0   0.00000   0.00000
       970 IM1H     49       IM1H     H4       HDR5D    0.195000        1.0080           0   0.00000   0.00000
       971 IM1H     49       IM1H     C3       CD2R5D   2.507000       11.6110           0   -1.08300   1.10000
       972 IM1H     49       IM1H     DC3      DRUD    -2.554000        0.4000           0   0.00000   0.00000
       973 IM1H     49       IM1H     H5       HDR5D    0.192000        1.0080           0   0.00000   0.00000
       974 IM1H     49       IM1H     C4       CD2R5E   2.724100       11.6110           0   -1.25300   1.20000
       975 IM1H     49       IM1H     DC4      DRUD    -2.747100        0.4000           0   0.00000   0.00000
       976 IM1H     49       IM1H     H6       HDR5E    0.203000        1.0080           0   0.00000   0.00000
       977 IM1H     49       IM1H     N2       ND2R5C   2.042200       13.6070           0   -0.803000   1.00000
       978 IM1H     49       IM1H     DN2      DRUD    -2.199200        0.4000           0   0.00000   0.00000
       979 IM1H     49       IM1H     H7       HDP1A    0.363000        1.0080           0   0.00000   0.00000
       980 IM1H     49       IM1H     LPN21    LPD      0.000000        0.0000           -1   0.00000   0.00000
       981 IM1H     50       IM1H     C1       CD33F    2.485000       11.6110           0   -1.18100   1.10000
       982 IM1H     50       IM1H     DC1      DRUD    -2.667000        0.4000           0   0.00000   0.00000
       983 IM1H     50       IM1H     H1       HDA3A    0.135000        1.0080           0   0.00000   0.00000
       984 IM1H     50       IM1H     H2       HDA3A    0.135000        1.0080           0   0.00000   0.00000
       985 IM1H     50       IM1H     H3       HDA3A    0.135000        1.0080           0   0.00000   0.00000
       986 IM1H     50       IM1H     N1       ND2R5C   2.357200       13.6070           0   -0.803000   1.00000
       987 IM1H     50       IM1H     DN1      DRUD    -2.199200        0.4000           0   0.00000   0.00000
       988 IM1H     50       IM1H     C2       CD2R5D   2.447000       11.6110           0   -1.08300   1.10000
       989 IM1H     50       IM1H     DC2      DRUD    -2.554000        0.4000           0   0.00000   0.00000
       990 IM1H     50       IM1H     H4       HDR5D    0.195000        1.0080           0   0.00000   0.00000
       991 IM1H     50       IM1H     C3       CD2R5D   2.507000       11.6110           0   -1.08300   1.10000
       992 IM1H     50       IM1H     DC3      DRUD    -2.554000        0.4000           0   0.00000   0.00000
       993 IM1H     50       IM1H     H5       HDR5D    0.192000        1.0080           0   0.00000   0.00000
       994 IM1H     50       IM1H     C4       CD2R5E   2.724100       11.6110           0   -1.25300   1.20000
       995 IM1H     50       IM1H     DC4      DRUD    -2.747100        0.4000           0   0.00000   0.00000
       996 IM1H     50       IM1H     H6       HDR5E    0.203000        1.0080           0   0.00000   0.00000
       997 IM1H     50       IM1H     N2       ND2R5C   2.042200       13.6070           0   -0.803000   1.00000
       998 IM1H     50       IM1H     DN2      DRUD    -2.199200        0.4000           0   0.00000   0.00000
       999 IM1H     50       IM1H     H7       HDP1A    0.363000        1.0080           0   0.00000   0.00000
      1000 IM1H     50       IM1H     LPN21    LPD      0.000000        0.0000           -1   0.00000   0.00000
      1001 IM1H     51       IM1H     C1       CD33F    2.485000       11.6110           0   -1.18100   1.10000
      1002 IM1H     51       IM1H     DC1      DRUD    -2.667000        0.4000           0   0.00000   0.00000
      1003 IM1H     51       IM1H     H1       HDA3A    0.135000        1.0080           0   0.00000   0.00000
      1004 IM1H     51       IM1H     H2       HDA3A    0.135000        1.0080           0   0.00000   0.00000
      1005 IM1H     51       IM1H     H3       HDA3A    0.135000        1.0080           0   0.00000   0.00000
      1006 IM1H     51       IM1H     N1       ND2R5C   2.357200       13.6070           0   -0.803000   1.00000
      1007 IM1H     51       IM1H     DN1      DRUD    -2.199200        0.4000           0   0.00000   0.00000
      1008 IM1H     51       IM1H     C2       CD2R5D   2.447000       11.6110           0   -1.08300   1.10000
      1009 IM1H     51       IM1H     DC2      DRUD    -2.554000        0.4000           0   0.00000   0.00000
      1010 IM1H     51       IM1H     H4       HDR5D    0.195000        1.0080           0   0.00000   0.00000
      1011 IM1H     51       IM1H     C3       CD2R5D   2.507000       11.6110           0   -1.08300   1.10000
      1012 IM1H     51       IM1H     DC3      DRUD    -2.554000        0.4000           0   0.00000   0.00000
      1013 IM1H     51       IM1H     H5       HDR5D    0.192000        1.0080           0   0.00000   0.00000
      1014 IM1H     51       IM1H     C4       CD2R5E   2.724100       11.6110           0   -1.25300   1.20000
      1015 IM1H     51       IM1H     DC4      DRUD    -2.747100        0.4000           0   0.00000   0.00000
      1016 IM1H     51       IM1H     H6       HDR5E    0.203000        1.0080           0   0.00000   0.00000
      1017 IM1H     51       IM1H     N2       ND2R5C   2.042200       13.6070           0   -0.803000   1.00000
      1018 IM1H     51       IM1H     DN2      DRUD    -2.199200        0.4000           0   0.00000   0.00000
      1019 IM1H     51       IM1H     H7       HDP1A    0.363000        1.0080           0   0.00000   0.00000
      1020 IM1H     51       IM1H     LPN21    LPD      0.000000        0.0000           -1   0.00000   0.00000
      1021 IM1H     52       IM1H     C1       CD33F    2.485000       11.6110           0   -1.18100   1.10000
      1022 IM1H     52       IM1H     DC1      DRUD    -2.667000        0.4000           0   0.00000   0.00000
      1023 IM1H     52       IM1H     H1       HDA3A    0.135000        1.0080           0   0.00000   0.00000
      1024 IM1H     52       IM1H     H2       HDA3A    0.135000        1.0080           0   0.00000   0.00000
      1025 IM1H     52       IM1H     H3       HDA3A    0.135000        1.0080           0   0.00000   0.00000
      1026 IM1H     52       IM1H     N1       ND2R5C   2.357200       13.6070           0   -0.803000   1.00000
      1027 IM1H     52       IM1H     DN1      DRUD    -2.199200        0.4000           0   0.00000   0.00000
      1028 IM1H     52       IM1H     C2       CD2R5D   2.447000       11.6110           0   -1.08300   1.10000
      1029 IM1H     52       IM1H     DC2      DRUD    -2.554000        0.4000           0   0.00000   0.00000
      1030 IM1H     52       IM1H     H4       HDR5D    0.195000        1.0080           0   0.00000   0.00000
      1031 IM1H     52       IM1H     C3       CD2R5D   2.507000       11.6110           0   -1.08300   1.10000
      1032 IM1H     52       IM1H     DC3      DRUD    -2.554000        0.4000           0   0.00000   0.00000
      1033 IM1H     52       IM1H     H5       HDR5D    0.192000        1.0080           0   0.00000   0.00000
      1034 IM1H     52       IM1H     C4       CD2R5E   2.724100       11.6110           0   -1.25300   1.20000
      1035 IM1H     52       IM1H     DC4      DRUD    -2.747100        0.4000           0   0.00000   0.00000
      1036 IM1H     52       IM1H     H6       HDR5E    0.203000        1.0080           0   0.00000   0.00000
      1037 IM1H     52       IM1H     N2       ND2R5C   2.042200       13.6070           0   -0.803000   1.00000
      1038 IM1H     52       IM1H     DN2      DRUD    -2.199200        0.4000           0   0.00000   0.00000
      1039 IM1H     52       IM1H     H7       HDP1A    0.363000        1.0080           0   0.00000   0.00000
      1040 IM1H     52       IM1H     LPN21    LPD      0.000000        0.0000           -1   0.00000   0.00000
      1041 IM1H     53       IM1H     C1       CD33F    2.485000       11.6110           0   -1.18100   1.10000
      1042 IM1H     53       IM1H     DC1      DRUD    -2.667000        0.4000           0   0.00000   0.00000
      1043 IM1H     53       IM1H     H1       HDA3A    0.135000        1.0080           0   0.00000   0.00000
      1044 IM1H     53       IM1H     H2       HDA3A    0.135000        1.0080           0   0.00000   0.00000
      1045 IM1H     53       IM1H     H3       HDA3A    0.135000        1.0080           0   0.00000   0.00000
      1046 IM1H     53       IM1H     N1       ND2R5C   2.357200       13.6070           0   -0.803000   1.00000
      1047 IM1H     53       IM1H     DN1      DRUD    -2.199200        0.4000           0   0.00000   0.00000
      1048 IM1H     53       IM1H     C2       CD2R5D   2.447000       11.6110           0   -1.08300   1.10000
      1049 IM1H     53       IM1H     DC2      DRUD    -2.554000        0.4000           0   0.00000   0.00000
      1050 IM1H     53       IM1H     H4       HDR5D    0.195000        1.0080           0   0.00000   0.00000
      1051 IM1H     53       IM1H     C3       CD2R5D   2.507000       11.6110           0   -1.08300   1.10000
      1052 IM1H     53       IM1H     DC3      DRUD    -2.554000        0.4000           0   0.00000   0.00000
      1053 IM1H     53       IM1H     H5       HDR5D    0.192000        1.0080           0   0.00000   0.00000
      1054 IM1H     53       IM1H     C4       CD2R5E   2.724100       11.6110           0   -1.25300   1.20000
      1055 IM1H     53       IM1H     DC4      DRUD    -2.747100        0.4000           0   0.00000   0.00000
      1056 IM1H     53       IM1H     H6       HDR5E    0.203000        1.0080           0   0.00000   0.00000
      1057 IM1H     53       IM1H     N2       ND2R5C   2.042200       13.6070           0   -0.803000   1.00000
      1058 IM1H     53       IM1H     DN2      DRUD    -2.199200        0.4000           0   0.00000   0.00000
      1059 IM1H     53       IM1H     H7       HDP1A    0.363000        1.0080           0   0.00000   0.00000
      1060 IM1H     53       IM1H     LPN21    LPD      0.000000        0.0000           -1   0.00000   0.00000
      1061 IM1H     54       IM1H     C1       CD33F    2.485000       11.6110           0   -1.18100   1.10000
      1062 IM1H     54       IM1H     DC1      DRUD    -2.667000        0.4000           0   0.00000   0.00000
      1063 IM1H     54       IM1H     H1       HDA3A    0.135000        1.0080           0   0.00000   0.00000
      1064 IM1H     54       IM1H     H2       HDA3A    0.135000        1.0080           0   0.00000   0.00000
      1065 IM1H     54       IM1H     H3       HDA3A    0.135000        1.0080           0   0.00000   0.00000
      1066 IM1H     54       IM1H     N1       ND2R5C   2.357200       13.6070           0   -0.803000   1.00000
      1067 IM1H     54       IM1H     DN1      DRUD    -2.199200        0.4000           0   0.00000   0.00000
      1068 IM1H     54       IM1H     C2       CD2R5D   2.447000       11.6110           0   -1.08300   1.10000
      1069 IM1H     54       IM1H     DC2      DRUD    -2.554000        0.4000           0   0.00000   0.00000
      1070 IM1H     54       IM1H     H4       HDR5D    0.195000        1.0080           0   0.00000   0.00000
      1071 IM1H     54       IM1H     C3       CD2R5D   2.507000       11.6110           0   -1.08300   1.10000
      1072 IM1H     54       IM1H     DC3      DRUD    -2.554000        0.4000           0   0.00000   0.00000
      1073 IM1H     54       IM1H     H5       HDR5D    0.192000        1.0080           0   0.00000   0.00000
      1074 IM1H     54       IM1H     C4       CD2R5E   2.724100       11.6110           0   -1.25300   1.20000
      1075 IM1H     54       IM1H     DC4      DRUD    -2.747100        0.4000           0   0.00000   0.00000
      1076 IM1H     54       IM1H     H6       HDR5E    0.203000        1.0080           0   0.00000   0.00000
      1077 IM1H     54       IM1H     N2       ND2R5C   2.042200       13.6070           0   -0.803000   1.00000
      1078 IM1H     54       IM1H     DN2      DRUD    -2.199200        0.4000           0   0.00000   0.00000
      1079 IM1H     54       IM1H     H7       HDP1A    0.363000        1.0080           0   0.00000   0.00000
      1080 IM1H     54       IM1H     LPN21    LPD      0.000000        0.0000           -1   0.00000   0.00000
      1081 IM1H     55       IM1H     C1       CD33F    2.485000       11.6110           0   -1.18100   1.10000
      1082 IM1H     55       IM1H     DC1      DRUD    -2.667000        0.4000           0   0.00000   0.00000
      1083 IM1H     55       IM1H     H1       HDA3A    0.135000        1.0080           0   0.00000   0.00000
      1084 IM1H     55       IM1H     H2       HDA3A    0.135000        1.0080           0   0.00000   0.00000
      1085 IM1H     55       IM1H     H3       HDA3A    0.135000        1.0080           0   0.00000   0.00000
      1086 IM1H     55       IM1H     N1       ND2R5C   2.357200       13.6070           0   -0.803000   1.00000
      1087 IM1H     55       IM1H     DN1      DRUD    -2.199200        0.4000           0   0.00000   0.00000
      1088 IM1H     55       IM1H     C2       CD2R5D   2.447000       11.6110           0   -1.08300   1.10000
      1089 IM1H     55       IM1H     DC2      DRUD    -2.554000        0.4000           0   0.00000   0.00000
      1090 IM1H     55       IM1H     H4       HDR5D    0.195000        1.0080           0   0.00000   0.00000
      1091 IM1H     55       IM1H     C3       CD2R5D   2.507000       11.6110           0   -1.08300   1.10000
      1092 IM1H     55       IM1H     DC3      DRUD    -2.554000        0.4000           0   0.00000   0.00000
      1093 IM1H     55       IM1H     H5       HDR5D    0.192000        1.0080           0   0.00000   0.00000
      1094 IM1H     55       IM1H     C4       CD2R5E   2.724100       11.6110           0   -1.25300   1.20000
      1095 IM1H     55       IM1H     DC4      DRUD    -2.747100        0.4000           0   0.00000   0.00000
      1096 IM1H     55       IM1H     H6       HDR5E    0.203000        1.0080           0   0.00000   0.00000
      1097 IM1H     55       IM1H     N2       ND2R5C   2.042200       13.6070           0   -0.803000   1.00000
      1098 IM1H     55       IM1H     DN2      DRUD    -2.199200        0.4000           0   0.00000   0.00000
      1099 IM1H     55       IM1H     H7       HDP1A    0.363000        1.0080           0   0.00000   0.00000
      1100 IM1H     55       IM1H     LPN21    LPD      0.000000        0.0000           -1   0.00000   0.00000
      1101 IM1H     56       IM1H     C1       CD33F    2.485000       11.6110           0   -1.18100   1.10000
      1102 IM1H     56       IM1H     DC1      DRUD    -2.667000        0.4000           0   0.00000   0.00000
      1103 IM1H     56       IM1H     H1       HDA3A    0.135000        1.0080           0   0.00000   0.00000
      1104 IM1H     56       IM1H     H2       HDA3A    0.135000        1.0080           0   0.00000   0.00000
      1105 IM1H     56       IM1H     H3       HDA3A    0.135000        1.0080           0   0.00000   0.00000
      1106 IM1H     56       IM1H     N1       ND2R5C   2.357200       13.6070           0   -0.803000   1.00000
      1107 IM1H     56       IM1H     DN1      DRUD    -2.199200        0.4000           0   0.00000   0.00000
      1108 IM1H     56       IM1H     C2       CD2R5D   2.447000       11.6110           0   -1.08300   1.10000
      1109 IM1H     56       IM1H     DC2      DRUD    -2.554000        0.4000           0   0.00000   0.00000
      1110 IM1H     56       IM1H     H4       HDR5D    0.195000        1.0080           0   0.00000   0.00000
      1111 IM1H     56       IM1H     C3       CD2R5D   2.507000       11.6110           0   -1.08300   1.10000
      1112 IM1H     56       IM1H     DC3      DRUD    -2.554000        0.4000           0   0.00000   0.00000
      1113 IM1H     56       IM1H     H5       HDR5D    0.192000        1.0080           0   0.00000   0.00000
      1114 IM1H     56       IM1H     C4       CD2R5E   2.724100       11.6110           0   -1.25300   1.20000
      1115 IM1H     56       IM1H     DC4      DRUD    -2.747100        0.4000           0   0.00000   0.00000
      1116 IM1H     56       IM1H     H6       HDR5E    0.203000        1.0080           0   0.00000   0.00000
      1117 IM1H     56       IM1H     N2       ND2R5C   2.042200       13.6070           0   -0.803000   1.00000
      1118 IM1H     56       IM1H     DN2      DRUD    -2.199200        0.4000           0   0.00000   0.00000
      1119 IM1H     56       IM1H     H7       HDP1A    0.363000        1.0080           0   0.00000   0.00000
      1120 IM1H     56       IM1H     LPN21    LPD      0.000000        0.0000           -1   0.00000   0.00000
      1121 IM1H     57       IM1H     C1       CD33F    2.485000       11.6110           0   -1.18100   1.10000
      1122 IM1H     57       IM1H     DC1      DRUD    -2.667000        0.4000           0   0.00000   0.00000
      1123 IM1H     57       IM1H     H1       HDA3A    0.135000        1.0080           0   0.00000   0.00000
      1124 IM1H     57       IM1H     H2       HDA3A    0.135000        1.0080           0   0.00000   0.00000
      1125 IM1H     57       IM1H     H3       HDA3A    0.135000        1.0080           0   0.00000   0.00000
      1126 IM1H     57       IM1H     N1       ND2R5C   2.357200       13.6070           0   -0.803000   1.00000
      1127 IM1H     57       IM1H     DN1      DRUD    -2.199200        0.4000           0   0.00000   0.00000
      1128 IM1H     57       IM1H     C2       CD2R5D   2.447000       11.6110           0   -1.08300   1.10000
      1129 IM1H     57       IM1H     DC2      DRUD    -2.554000        0.4000           0   0.00000   0.00000
      1130 IM1H     57       IM1H     H4       HDR5D    0.195000        1.0080           0   0.00000   0.00000
      1131 IM1H     57       IM1H     C3       CD2R5D   2.507000       11.6110           0   -1.08300   1.10000
      1132 IM1H     57       IM1H     DC3      DRUD    -2.554000        0.4000           0   0.00000   0.00000
      1133 IM1H     57       IM1H     H5       HDR5D    0.192000        1.0080           0   0.00000   0.00000
      1134 IM1H     57       IM1H     C4       CD2R5E   2.724100       11.6110           0   -1.25300   1.20000
      1135 IM1H     57       IM1H     DC4      DRUD    -2.747100        0.4000           0   0.00000   0.00000
      1136 IM1H     57       IM1H     H6       HDR5E    0.203000        1.0080           0   0.00000   0.00000
      1137 IM1H     57       IM1H     N2       ND2R5C   2.042200       13.6070           0   -0.803000   1.00000
      1138 IM1H     57       IM1H     DN2      DRUD    -2.199200        0.4000           0   0.00000   0.00000
      1139 IM1H     57       IM1H     H7       HDP1A    0.363000        1.0080           0   0.00000   0.00000
      1140 IM1H     57       IM1H     LPN21    LPD      0.000000        0.0000           -1   0.00000   0.00000
      1141 IM1H     58       IM1H     C1       CD33F    2.485000       11.6110           0   -1.18100   1.10000
      1142 IM1H     58       IM1H     DC1      DRUD    -2.667000        0.4000           0   0.00000   0.00000
      1143 IM1H     58       IM1H     H1       HDA3A    0.135000        1.0080           0   0.00000   0.00000
      1144 IM1H     58       IM1H     H2       HDA3A    0.135000        1.0080           0   0.00000   0.00000
      1145 IM1H     58       IM1H     H3       HDA3A    0.135000        1.0080           0   0.00000   0.00000
      1146 IM1H     58       IM1H     N1       ND2R5C   2.357200       13.6070           0   -0.803000   1.00000
      1147 IM1H     58       IM1H     DN1      DRUD    -2.199200        0.4000           0   0.00000   0.00000
      1148 IM1H     58       IM1H     C2       CD2R5D   2.447000       11.6110           0   -1.08300   1.10000
      1149 IM1H     58       IM1H     DC2      DRUD    -2.554000        0.4000           0   0.00000   0.00000
      1150 IM1H     58       IM1H     H4       HDR5D    0.195000        1.0080           0   0.00000   0.00000
      1151 IM1H     58       IM1H     C3       CD2R5D   2.507000       11.6110           0   -1.08300   1.10000
      1152 IM1H     58       IM1H     DC3      DRUD    -2.554000        0.4000           0   0.00000   0.00000
      1153 IM1H     58       IM1H     H5       HDR5D    0.192000        1.0080           0   0.00000   0.00000
      1154 IM1H     58       IM1H     C4       CD2R5E   2.724100       11.6110           0   -1.25300   1.20000
      1155 IM1H     58       IM1H     DC4      DRUD    -2.747100        0.4000           0   0.00000   0.00000
      1156 IM1H     58       IM1H     H6       HDR5E    0.203000        1.0080           0   0.00000   0.00000
      1157 IM1H     58       IM1H     N2       ND2R5C   2.042200       13.6070           0   -0.803000   1.00000
      1158 IM1H     58       IM1H     DN2      DRUD    -2.199200        0.4000           0   0.00000   0.00000
      1159 IM1H     58       IM1H     H7       HDP1A    0.363000        1.0080           0   0.00000   0.00000
      1160 IM1H     58       IM1H     LPN21    LPD      0.000000        0.0000           -1   0.00000   0.00000
      1161 IM1H     59       IM1H     C1       CD33F    2.485000       11.6110           0   -1.18100   1.10000
      1162 IM1H     59       IM1H     DC1      DRUD    -2.667000        0.4000           0   0.00000   0.00000
      1163 IM1H     59       IM1H     H1       HDA3A    0.135000        1.0080           0   0.00000   0.00000
      1164 IM1H     59       IM1H     H2       HDA3A    0.135000        1.0080           0   0.00000   0.00000
      1165 IM1H     59       IM1H     H3       HDA3A    0.135000        1.0080           0   0.00000   0.00000
      1166 IM1H     59       IM1H     N1       ND2R5C   2.357200       13.6070           0   -0.803000   1.00000
      1167 IM1H     59       IM1H     DN1      DRUD    -2.199200        0.4000           0   0.00000   0.00000
      1168 IM1H     59       IM1H     C2       CD2R5D   2.447000       11.6110           0   -1.08300   1.10000
      1169 IM1H     59       IM1H     DC2      DRUD    -2.554000        0.4000           0   0.00000   0.00000
      1170 IM1H     59       IM1H     H4       HDR5D    0.195000        1.0080           0   0.00000   0.00000
      1171 IM1H     59       IM1H     C3       CD2R5D   2.507000       11.6110           0   -1.08300   1.10000
      1172 IM1H     59       IM1H     DC3      DRUD    -2.554000        0.4000           0   0.00000   0.00000
      1173 IM1H     59       IM1H     H5       HDR5D    0.192000        1.0080           0   0.00000   0.00000
      1174 IM1H     59       IM1H     C4       CD2R5E   2.724100       11.6110           0   -1.25300   1.20000
      1175 IM1H     59       IM1H     DC4      DRUD    -2.747100        0.4000           0   0.00000   0.00000
      1176 IM1H     59       IM1H     H6       HDR5E    0.203000        1.0080           0   0.00000   0.00000
      1177 IM1H     59       IM1H     N2       ND2R5C   2.042200       13.6070           0   -0.803000   1.00000
      1178 IM1H     59       IM1H     DN2      DRUD    -2.199200        0.4000           0   0.00000   0.00000
      1179 IM1H     59       IM1H     H7       HDP1A    0.363000        1.0080           0   0.00000   0.00000
      1180 IM1H     59       IM1H     LPN21    LPD      0.000000        0.0000           -1   0.00000   0.00000
      1181 IM1H     60       IM1H     C1       CD33F    2.485000       11.6110           0   -1.18100   1.10000
      1182 IM1H     60       IM1H     DC1      DRUD    -2.667000        0.4000           0   0.00000   0.00000
      1183 IM1H     60       IM1H     H1       HDA3A    0.135000        1.0080           0   0.00000   0.00000
      1184 IM1H     60       IM1H     H2       HDA3A    0.135000        1.0080           0   0.00000   0.00000
      1185 IM1H     60       IM1H     H3       HDA3A    0.135000        1.0080           0   0.00000   0.00000
      1186 IM1H     60       IM1H     N1       ND2R5C   2.357200       13.6070           0   -0.803000   1.00000
      1187 IM1H     60       IM1H     DN1      DRUD    -2.199200        0.4000           0   0.00000   0.00000
      1188 IM1H     60       IM1H     C2       CD2R5D   2.447000       11.6110           0   -1.08300   1.10000
      1189 IM1H     60       IM1H     DC2      DRUD    -2.554000        0.4000           0   0.00000   0.00000
      1190 IM1H     60       IM1H     H4       HDR5D    0.195000        1.0080           0   0.00000   0.00000
      1191 IM1H     60       IM1H     C3       CD2R5D   2.507000       11.6110           0   -1.08300   1.10000
      1192 IM1H     60       IM1H     DC3      DRUD    -2.554000        0.4000           0   0.00000   0.00000
      1193 IM1H     60       IM1H     H5       HDR5D    0.192000        1.0080           0   0.00000   0.00000
      1194 IM1H     60       IM1H     C4       CD2R5E   2.724100       11.6110           0   -1.25300   1.20000
      1195 IM1H     60       IM1H     DC4      DRUD    -2.747100        0.4000           0   0.00000   0.00000
      1196 IM1H     60       IM1H     H6       HDR5E    0.203000        1.0080           0   0.00000   0.00000
      1197 IM1H     60       IM1H     N2       ND2R5C   2.042200       13.6070           0   -0.803000   1.00000
      1198 IM1H     60       IM1H     DN2      DRUD    -2.199200        0.4000           0   0.00000   0.00000
      1199 IM1H     60       IM1H     H7       HDP1A    0.363000        1.0080           0   0.00000   0.00000
      1200 IM1H     60       IM1H     LPN21    LPD      0.000000        0.0000           -1   0.00000   0.00000
      1201 IM1H     61       IM1H     C1       CD33F    2.485000       11.6110           0   -1.18100   1.10000
      1202 IM1H     61       IM1H     DC1      DRUD    -2.667000        0.4000           0   0.00000   0.00000
      1203 IM1H     61       IM1H     H1       HDA3A    0.135000        1.0080           0   0.00000   0.00000
      1204 IM1H     61       IM1H     H2       HDA3A    0.135000        1.0080           0   0.00000   0.00000
      1205 IM1H     61       IM1H     H3       HDA3A    0.135000        1.0080           0   0.00000   0.00000
      1206 IM1H     61       IM1H     N1       ND2R5C   2.357200       13.6070           0   -0.803000   1.00000
      1207 IM1H     61       IM1H     DN1      DRUD    -2.199200        0.4000           0   0.00000   0.00000
      1208 IM1H     61       IM1H     C2       CD2R5D   2.447000       11.6110           0   -1.08300   1.10000
      1209 IM1H     61       IM1H     DC2      DRUD    -2.554000        0.4000           0   0.00000   0.00000
      1210 IM1H     61       IM1H     H4       HDR5D    0.195000        1.0080           0   0.00000   0.00000
      1211 IM1H     61       IM1H     C3       CD2R5D   2.507000       11.6110           0   -1.08300   1.10000
      1212 IM1H     61       IM1H     DC3      DRUD    -2.554000        0.4000           0   0.00000   0.00000
      1213 IM1H     61       IM1H     H5       HDR5D    0.192000        1.0080           0   0.00000   0.00000
      1214 IM1H     61       IM1H     C4       CD2R5E   2.724100       11.6110           0   -1.25300   1.20000
      1215 IM1H     61       IM1H     DC4      DRUD    -2.747100        0.4000           0   0.00000   0.00000
      1216 IM1H     61       IM1H     H6       HDR5E    0.203000        1.0080           0   0.00000   0.00000
      1217 IM1H     61       IM1H     N2       ND2R5C   2.042200       13.6070           0   -0.803000   1.00000
      1218 IM1H     61       IM1H     DN2      DRUD    -2.199200        0.4000           0   0.00000   0.00000
      1219 IM1H     61       IM1H     H7       HDP1A    0.363000        1.0080           0   0.00000   0.00000
      1220 IM1H     61       IM1H     LPN21    LPD      0.000000        0.0000           -1   0.00000   0.00000
      1221 IM1H     62       IM1H     C1       CD33F    2.485000       11.6110           0   -1.18100   1.10000
      1222 IM1H     62       IM1H     DC1      DRUD    -2.667000        0.4000           0   0.00000   0.00000
      1223 IM1H     62       IM1H     H1       HDA3A    0.135000        1.0080           0   0.00000   0.00000
      1224 IM1H     62       IM1H     H2       HDA3A    0.135000        1.0080           0   0.00000   0.00000
      1225 IM1H     62       IM1H     H3       HDA3A    0.135000        1.0080           0   0.00000   0.00000
      1226 IM1H     62       IM1H     N1       ND2R5C   2.357200       13.6070           0   -0.803000   1.00000
      1227 IM1H     62       IM1H     DN1      DRUD    -2.199200        0.4000           0   0.00000   0.00000
      1228 IM1H     62       IM1H     C2       CD2R5D   2.447000       11.6110           0   -1.08300   1.10000
      1229 IM1H     62       IM1H     DC2      DRUD    -2.554000        0.4000           0   0.00000   0.00000
      1230 IM1H     62       IM1H     H4       HDR5D    0.195000        1.0080           0   0.00000   0.00000
      1231 IM1H     62       IM1H     C3       CD2R5D   2.507000       11.6110           0   -1.08300   1.10000
      1232 IM1H     62       IM1H     DC3      DRUD    -2.554000        0.4000           0   0.00000   0.00000
      1233 IM1H     62       IM1H     H5       HDR5D    0.192000        1.0080           0   0.00000   0.00000
      1234 IM1H     62       IM1H     C4       CD2R5E   2.724100       11.6110           0   -1.25300   1.20000
      1235 IM1H     62       IM1H     DC4      DRUD    -2.747100        0.4000           0   0.00000   0.00000
      1236 IM1H     62       IM1H     H6       HDR5E    0.203000        1.0080           0   0.00000   0.00000
      1237 IM1H     62       IM1H     N2       ND2R5C   2.042200       13.6070           0   -0.803000   1.00000
      1238 IM1H     62       IM1H     DN2      DRUD    -2.199200        0.4000           0   0.00000   0.00000
      1239 IM1H     62       IM1H     H7       HDP1A    0.363000        1.0080           0   0.00000   0.00000
      1240 IM1H     62       IM1H     LPN21    LPD      0.000000        0.0000           -1   0.00000   0.00000
      1241 IM1H     63       IM1H     C1       CD33F    2.485000       11.6110           0   -1.18100   1.10000
      1242 IM1H     63       IM1H     DC1      DRUD    -2.667000        0.4000           0   0.00000   0.00000
      1243 IM1H     63       IM1H     H1       HDA3A    0.135000        1.0080           0   0.00000   0.00000
      1244 IM1H     63       IM1H     H2       HDA3A    0.135000        1.0080           0   0.00000   0.00000
      1245 IM1H     63       IM1H     H3       HDA3A    0.135000        1.0080           0   0.00000   0.00000
      1246 IM1H     63       IM1H     N1       ND2R5C   2.357200       13.6070           0   -0.803000   1.00000
      1247 IM1H     63       IM1H     DN1      DRUD    -2.199200        0.4000           0   0.00000   0.00000
      1248 IM1H     63       IM1H     C2       CD2R5D   2.447000       11.6110           0   -1.08300   1.10000
      1249 IM1H     63       IM1H     DC2      DRUD    -2.554000        0.4000           0   0.00000   0.00000
      1250 IM1H     63       IM1H     H4       HDR5D    0.195000        1.0080           0   0.00000   0.00000
      1251 IM1H     63       IM1H     C3       CD2R5D   2.507000       11.6110           0   -1.08300   1.10000
      1252 IM1H     63       IM1H     DC3      DRUD    -2.554000        0.4000           0   0.00000   0.00000
      1253 IM1H     63       IM1H     H5       HDR5D    0.192000        1.0080           0   0.00000   0.00000
      1254 IM1H     63       IM1H     C4       CD2R5E   2.724100       11.6110           0   -1.25300   1.20000
      1255 IM1H     63       IM1H     DC4      DRUD    -2.747100        0.4000           0   0.00000   0.00000
      1256 IM1H     63       IM1H     H6       HDR5E    0.203000        1.0080           0   0.00000   0.00000
      1257 IM1H     63       IM1H     N2       ND2R5C   2.042200       13.6070           0   -0.803000   1.00000
      1258 IM1H     63       IM1H     DN2      DRUD    -2.199200        0.4000           0   0.00000   0.00000
      1259 IM1H     63       IM1H     H7       HDP1A    0.363000        1.0080           0   0.00000   0.00000
      1260 IM1H     63       IM1H     LPN21    LPD      0.000000        0.0000           -1   0.00000   0.00000
      1261 IM1H     64       IM1H     C1       CD33F    2.485000       11.6110           0   -1.18100   1.10000
      1262 IM1H     64       IM1H     DC1      DRUD    -2.667000        0.4000           0   0.00000   0.00000
      1263 IM1H     64       IM1H     H1       HDA3A    0.135000        1.0080           0   0.00000   0.00000
      1264 IM1H     64       IM1H     H2       HDA3A    0.135000        1.0080           0   0.00000   0.00000
      1265 IM1H     64       IM1H     H3       HDA3A    0.135000        1.0080           0   0.00000   0.00000
      1266 IM1H     64       IM1H     N1       ND2R5C   2.357200       13.6070           0   -0.803000   1.00000
      1267 IM1H     64       IM1H     DN1      DRUD    -2.199200        0.4000           0   0.00000   0.00000
      1268 IM1H     64       IM1H     C2       CD2R5D   2.447000       11.6110           0   -1.08300   1.10000
      1269 IM1H     64       IM1H     DC2      DRUD    -2.554000        0.4000           0   0.00000   0.00000
      1270 IM1H     64       IM1H     H4       HDR5D    0.195000        1.0080           0   0.00000   0.00000
      1271 IM1H     64       IM1H     C3       CD2R5D   2.507000       11.6110           0   -1.08300   1.10000
      1272 IM1H     64       IM1H     DC3      DRUD    -2.554000        0.4000           0   0.00000   0.00000
      1273 IM1H     64       IM1H     H5       HDR5D    0.192000        1.0080           0   0.00000   0.00000
      1274 IM1H     64       IM1H     C4       CD2R5E   2.724100       11.6110           0   -1.25300   1.20000
      1275 IM1H     64       IM1H     DC4      DRUD    -2.747100        0.4000           0   0.00000   0.00000
      1276 IM1H     64       IM1H     H6       HDR5E    0.203000        1.0080           0   0.00000   0.00000
      1277 IM1H     64       IM1H     N2       ND2R5C   2.042200       13.6070           0   -0.803000   1.00000
      1278 IM1H     64       IM1H     DN2      DRUD    -2.199200        0.4000           0   0.00000   0.00000
      1279 IM1H     64       IM1H     H7       HDP1A    0.363000        1.0080           0   0.00000   0.00000
      1280 IM1H     64       IM1H     LPN21    LPD      0.000000        0.0000           -1   0.00000   0.00000
      1281 IM1H     65       IM1H     C1       CD33F    2.485000       11.6110           0   -1.18100   1.10000
      1282 IM1H     65       IM1H     DC1      DRUD    -2.667000        0.4000           0   0.00000   0.00000
      1283 IM1H     65       IM1H     H1       HDA3A    0.135000        1.0080           0   0.00000   0.00000
      1284 IM1H     65       IM1H     H2       HDA3A    0.135000        1.0080           0   0.00000   0.00000
      1285 IM1H     65       IM1H     H3       HDA3A    0.135000        1.0080           0   0.00000   0.00000
      1286 IM1H     65       IM1H     N1       ND2R5C   2.357200       13.6070           0   -0.803000   1.00000
      1287 IM1H     65       IM1H     DN1      DRUD    -2.199200        0.4000           0   0.00000   0.00000
      1288 IM1H     65       IM1H     C2       CD2R5D   2.447000       11.6110           0   -1.08300   1.10000
      1289 IM1H     65       IM1H     DC2      DRUD    -2.554000        0.4000           0   0.00000   0.00000
      1290 IM1H     65       IM1H     H4       HDR5D    0.195000        1.0080           0   0.00000   0.00000
      1291 IM1H     65       IM1H     C3       CD2R5D   2.507000       11.6110           0   -1.08300   1.10000
      1292 IM1H     65       IM1H     DC3      DRUD    -2.554000        0.4000           0   0.00000   0.00000
      1293 IM1H     65       IM1H     H5       HDR5D    0.192000        1.0080           0   0.00000   0.00000
      1294 IM1H     65       IM1H     C4       CD2R5E   2.724100       11.6110           0   -1.25300   1.20000
      1295 IM1H     65       IM1H     DC4      DRUD    -2.747100        0.4000           0   0.00000   0.00000
      1296 IM1H     65       IM1H     H6       HDR5E    0.203000        1.0080           0   0.00000   0.00000
      1297 IM1H     65       IM1H     N2       ND2R5C   2.042200       13.6070           0   -0.803000   1.00000
      1298 IM1H     65       IM1H     DN2      DRUD    -2.199200        0.4000           0   0.00000   0.00000
      1299 IM1H     65       IM1H     H7       HDP1A    0.363000        1.0080           0   0.00000   0.00000
      1300 IM1H     65       IM1H     LPN21    LPD      0.000000        0.0000           -1   0.00000   0.00000
      1301 IM1H     66       IM1H     C1       CD33F    2.485000       11.6110           0   -1.18100   1.10000
      1302 IM1H     66       IM1H     DC1      DRUD    -2.667000        0.4000           0   0.00000   0.00000
      1303 IM1H     66       IM1H     H1       HDA3A    0.135000        1.0080           0   0.00000   0.00000
      1304 IM1H     66       IM1H     H2       HDA3A    0.135000        1.0080           0   0.00000   0.00000
      1305 IM1H     66       IM1H     H3       HDA3A    0.135000        1.0080           0   0.00000   0.00000
      1306 IM1H     66       IM1H     N1       ND2R5C   2.357200       13.6070           0   -0.803000   1.00000
      1307 IM1H     66       IM1H     DN1      DRUD    -2.199200        0.4000           0   0.00000   0.00000
      1308 IM1H     66       IM1H     C2       CD2R5D   2.447000       11.6110           0   -1.08300   1.10000
      1309 IM1H     66       IM1H     DC2      DRUD    -2.554000        0.4000           0   0.00000   0.00000
      1310 IM1H     66       IM1H     H4       HDR5D    0.195000        1.0080           0   0.00000   0.00000
      1311 IM1H     66       IM1H     C3       CD2R5D   2.507000       11.6110           0   -1.08300   1.10000
      1312 IM1H     66       IM1H     DC3      DRUD    -2.554000        0.4000           0   0.00000   0.00000
      1313 IM1H     66       IM1H     H5       HDR5D    0.192000        1.0080           0   0.00000   0.00000
      1314 IM1H     66       IM1H     C4       CD2R5E   2.724100       11.6110           0   -1.25300   1.20000
      1315 IM1H     66       IM1H     DC4      DRUD    -2.747100        0.4000           0   0.00000   0.00000
      1316 IM1H     66       IM1H     H6       HDR5E    0.203000        1.0080           0   0.00000   0.00000
      1317 IM1H     66       IM1H     N2       ND2R5C   2.042200       13.6070           0   -0.803000   1.00000
      1318 IM1H     66       IM1H     DN2      DRUD    -2.199200        0.4000           0   0.00000   0.00000
      1319 IM1H     66       IM1H     H7       HDP1A    0.363000        1.0080           0   0.00000   0.00000
      1320 IM1H     66       IM1H     LPN21    LPD      0.000000        0.0000           -1   0.00000   0.00000
      1321 IM1H     67       IM1H     C1       CD33F    2.485000       11.6110           0   -1.18100   1.10000
      1322 IM1H     67       IM1H     DC1      DRUD    -2.667000        0.4000           0   0.00000   0.00000
      1323 IM1H     67       IM1H     H1       HDA3A    0.135000        1.0080           0   0.00000   0.00000
      1324 IM1H     67       IM1H     H2       HDA3A    0.135000        1.0080           0   0.00000   0.00000
      1325 IM1H     67       IM1H     H3       HDA3A    0.135000        1.0080           0   0.00000   0.00000
      1326 IM1H     67       IM1H     N1       ND2R5C   2.357200       13.6070           0   -0.803000   1.00000
      1327 IM1H     67       IM1H     DN1      DRUD    -2.199200        0.4000           0   0.00000   0.00000
      1328 IM1H     67       IM1H     C2       CD2R5D   2.447000       11.6110           0   -1.08300   1.10000
      1329 IM1H     67       IM1H     DC2      DRUD    -2.554000        0.4000           0   0.00000   0.00000
      1330 IM1H     67       IM1H     H4       HDR5D    0.195000        1.0080           0   0.00000   0.00000
      1331 IM1H     67       IM1H     C3       CD2R5D   2.507000       11.6110           0   -1.08300   1.10000
      1332 IM1H     67       IM1H     DC3      DRUD    -2.554000        0.4000           0   0.00000   0.00000
      1333 IM1H     67       IM1H     H5       HDR5D    0.192000        1.0080           0   0.00000   0.00000
      1334 IM1H     67       IM1H     C4       CD2R5E   2.724100       11.6110           0   -1.25300   1.20000
      1335 IM1H     67       IM1H     DC4      DRUD    -2.747100        0.4000           0   0.00000   0.00000
      1336 IM1H     67       IM1H     H6       HDR5E    0.203000        1.0080           0   0.00000   0.00000
      1337 IM1H     67       IM1H     N2       ND2R5C   2.042200       13.6070           0   -0.803000   1.00000
      1338 IM1H     67       IM1H     DN2      DRUD    -2.199200        0.4000           0   0.00000   0.00000
      1339 IM1H     67       IM1H     H7       HDP1A    0.363000        1.0080           0   0.00000   0.00000
      1340 IM1H     67       IM1H     LPN21    LPD      0.000000        0.0000           -1   0.00000   0.00000
      1341 IM1H     68       IM1H     C1       CD33F    2.485000       11.6110           0   -1.18100   1.10000
      1342 IM1H     68       IM1H     DC1      DRUD    -2.667000        0.4000           0   0.00000   0.00000
      1343 IM1H     68       IM1H     H1       HDA3A    0.135000        1.0080           0   0.00000   0.00000
      1344 IM1H     68       IM1H     H2       HDA3A    0.135000        1.0080           0   0.00000   0.00000
      1345 IM1H     68       IM1H     H3       HDA3A    0.135000        1.0080           0   0.00000   0.00000
      1346 IM1H     68       IM1H     N1       ND2R5C   2.357200       13.6070           0   -0.803000   1.00000
      1347 IM1H     68       IM1H     DN1      DRUD    -2.199200        0.4000           0   0.00000   0.00000
      1348 IM1H     68       IM1H     C2       CD2R5D   2.447000       11.6110           0   -1.08300   1.10000
      1349 IM1H     68       IM1H     DC2      DRUD    -2.554000        0.4000           0   0.00000   0.00000
      1350 IM1H     68       IM1H     H4       HDR5D    0.195000        1.0080           0   0.00000   0.00000
      1351 IM1H     68       IM1H     C3       CD2R5D   2.507000       11.6110           0   -1.08300   1.10000
      1352 IM1H     68       IM1H     DC3      DRUD    -2.554000        0.4000           0   0.00000   0.00000
      1353 IM1H     68       IM1H     H5       HDR5D    0.192000        1.0080           0   0.00000   0.00000
      1354 IM1H     68       IM1H     C4       CD2R5E   2.724100       11.6110           0   -1.25300   1.20000
      1355 IM1H     68       IM1H     DC4      DRUD    -2.747100        0.4000           0   0.00000   0.00000
      1356 IM1H     68       IM1H     H6       HDR5E    0.203000        1.0080           0   0.00000   0.00000
      1357 IM1H     68       IM1H     N2       ND2R5C   2.042200       13.6070           0   -0.803000   1.00000
      1358 IM1H     68       IM1H     DN2      DRUD    -2.199200        0.4000           0   0.00000   0.00000
      1359 IM1H     68       IM1H     H7       HDP1A    0.363000        1.0080           0   0.00000   0.00000
      1360 IM1H     68       IM1H     LPN21    LPD      0.000000        0.0000           -1   0.00000   0.00000
      1361 IM1H     69       IM1H     C1       CD33F    2.485000       11.6110           0   -1.18100   1.10000
      1362 IM1H     69       IM1H     DC1      DRUD    -2.667000        0.4000           0   0.00000   0.00000
      1363 IM1H     69       IM1H     H1       HDA3A    0.135000        1.0080           0   0.00000   0.00000
      1364 IM1H     69       IM1H     H2       HDA3A    0.135000        1.0080           0   0.00000   0.00000
      1365 IM1H     69       IM1H     H3       HDA3A    0.135000        1.0080           0   0.00000   0.00000
      1366 IM1H     69       IM1H     N1       ND2R5C   2.357200       13.6070           0   -0.803000   1.00000
      1367 IM1H     69       IM1H     DN1      DRUD    -2.199200        0.4000           0   0.00000   0.00000
      1368 IM1H     69       IM1H     C2       CD2R5D   2.447000       11.6110           0   -1.08300   1.10000
      1369 IM1H     69       IM1H     DC2      DRUD    -2.554000        0.4000           0   0.00000   0.00000
      1370 IM1H     69       IM1H     H4       HDR5D    0.195000        1.0080           0   0.00000   0.00000
      1371 IM1H     69       IM1H     C3       CD2R5D   2.507000       11.6110           0   -1.08300   1.10000
      1372 IM1H     69       IM1H     DC3      DRUD    -2.554000        0.4000           0   0.00000   0.00000
      1373 IM1H     69       IM1H     H5       HDR5D    0.192000        1.0080           0   0.00000   0.00000
      1374 IM1H     69       IM1H     C4       CD2R5E   2.724100       11.6110           0   -1.25300   1.20000
      1375 IM1H     69       IM1H     DC4      DRUD    -2.747100        0.4000           0   0.00000   0.00000
      1376 IM1H     69       IM1H     H6       HDR5E    0.203000        1.0080           0   0.00000   0.00000
      1377 IM1H     69       IM1H     N2       ND2R5C   2.042200       13.6070           0   -0.803000   1.00000
      1378 IM1H     69       IM1H     DN2      DRUD    -2.199200        0.4000           0   0.00000   0.00000
      1379 IM1H     69       IM1H     H7       HDP1A    0.363000        1.0080           0   0.00000   0.00000
      1380 IM1H     69       IM1H     LPN21    LPD      0.000000        0.0000           -1   0.00000   0.00000
      1381 IM1H     70       IM1H     C1       CD33F    2.485000       11.6110           0   -1.18100   1.10000
      1382 IM1H     70       IM1H     DC1      DRUD    -2.667000        0.4000           0   0.00000   0.00000
      1383 IM1H     70       IM1H     H1       HDA3A    0.135000        1.0080           0   0.00000   0.00000
      1384 IM1H     70       IM1H     H2       HDA3A    0.135000        1.0080           0   0.00000   0.00000
      1385 IM1H     70       IM1H     H3       HDA3A    0.135000        1.0080           0   0.00000   0.00000
      1386 IM1H     70       IM1H     N1       ND2R5C   2.357200       13.6070           0   -0.803000   1.00000
      1387 IM1H     70       IM1H     DN1      DRUD    -2.199200        0.4000           0   0.00000   0.00000
      1388 IM1H     70       IM1H     C2       CD2R5D   2.447000       11.6110           0   -1.08300   1.10000
      1389 IM1H     70       IM1H     DC2      DRUD    -2.554000        0.4000           0   0.00000   0.00000
      1390 IM1H     70       IM1H     H4       HDR5D    0.195000        1.0080           0   0.00000   0.00000
      1391 IM1H     70       IM1H     C3       CD2R5D   2.507000       11.6110           0   -1.08300   1.10000
      1392 IM1H     70       IM1H     DC3      DRUD    -2.554000        0.4000           0   0.00000   0.00000
      1393 IM1H     70       IM1H     H5       HDR5D    0.192000        1.0080           0   0.00000   0.00000
      1394 IM1H     70       IM1H     C4       CD2R5E   2.724100       11.6110           0   -1.25300   1.20000
      1395 IM1H     70       IM1H     DC4      DRUD    -2.747100        0.4000           0   0.00000   0.00000
      1396 IM1H     70       IM1H     H6       HDR5E    0.203000        1.0080           0   0.00000   0.00000
      1397 IM1H     70       IM1H     N2       ND2R5C   2.042200       13.6070           0   -0.803000   1.00000
      1398 IM1H     70       IM1H     DN2      DRUD    -2.199200        0.4000           0   0.00000   0.00000
      1399 IM1H     70       IM1H     H7       HDP1A    0.363000        1.0080           0   0.00000   0.00000
      1400 IM1H     70       IM1H     LPN21    LPD      0.000000        0.0000           -1   0.00000   0.00000
      1401 IM1H     71       IM1H     C1       CD33F    2.485000       11.6110           0   -1.18100   1.10000
      1402 IM1H     71       IM1H     DC1      DRUD    -2.667000        0.4000           0   0.00000   0.00000
      1403 IM1H     71       IM1H     H1       HDA3A    0.135000        1.0080           0   0.00000   0.00000
      1404 IM1H     71       IM1H     H2       HDA3A    0.135000        1.0080           0   0.00000   0.00000
      1405 IM1H     71       IM1H     H3       HDA3A    0.135000        1.0080           0   0.00000   0.00000
      1406 IM1H     71       IM1H     N1       ND2R5C   2.357200       13.6070           0   -0.803000   1.00000
      1407 IM1H     71       IM1H     DN1      DRUD    -2.199200        0.4000           0   0.00000   0.00000
      1408 IM1H     71       IM1H     C2       CD2R5D   2.447000       11.6110           0   -1.08300   1.10000
      1409 IM1H     71       IM1H     DC2      DRUD    -2.554000        0.4000           0   0.00000   0.00000
      1410 IM1H     71       IM1H     H4       HDR5D    0.195000        1.0080           0   0.00000   0.00000
      1411 IM1H     71       IM1H     C3       CD2R5D   2.507000       11.6110           0   -1.08300   1.10000
      1412 IM1H     71       IM1H     DC3      DRUD    -2.554000        0.4000           0   0.00000   0.00000
      1413 IM1H     71       IM1H     H5       HDR5D    0.192000        1.0080           0   0.00000   0.00000
      1414 IM1H     71       IM1H     C4       CD2R5E   2.724100       11.6110           0   -1.25300   1.20000
      1415 IM1H     71       IM1H     DC4      DRUD    -2.747100        0.4000           0   0.00000   0.00000
      1416 IM1H     71       IM1H     H6       HDR5E    0.203000        1.0080           0   0.00000   0.00000
      1417 IM1H     71       IM1H     N2       ND2R5C   2.042200       13.6070           0   -0.803000   1.00000
      1418 IM1H     71       IM1H     DN2      DRUD    -2.199200        0.4000           0   0.00000   0.00000
      1419 IM1H     71       IM1H     H7       HDP1A    0.363000        1.0080           0   0.00000   0.00000
      1420 IM1H     71       IM1H     LPN21    LPD      0.000000        0.0000           -1   0.00000   0.00000
      1421 IM1H     72       IM1H     C1       CD33F    2.485000       11.6110           0   -1.18100   1.10000
      1422 IM1H     72       IM1H     DC1      DRUD    -2.667000        0.4000           0   0.00000   0.00000
      1423 IM1H     72       IM1H     H1       HDA3A    0.135000        1.0080           0   0.00000   0.00000
      1424 IM1H     72       IM1H     H2       HDA3A    0.135000        1.0080           0   0.00000   0.00000
      1425 IM1H     72       IM1H     H3       HDA3A    0.135000        1.0080           0   0.00000   0.00000
      1426 IM1H     72       IM1H     N1       ND2R5C   2.357200       13.6070           0   -0.803000   1.00000
      1427 IM1H     72       IM1H     DN1      DRUD    -2.199200        0.4000           0   0.00000   0.00000
      1428 IM1H     72       IM1H     C2       CD2R5D   2.447000       11.6110           0   -1.08300   1.10000
      1429 IM1H     72       IM1H     DC2      DRUD    -2.554000        0.4000           0   0.00000   0.00000
      1430 IM1H     72       IM1H     H4       HDR5D    0.195000        1.0080           0   0.00000   0.00000
      1431 IM1H     72       IM1H     C3       CD2R5D   2.507000       11.6110           0   -1.08300   1.10000
      1432 IM1H     72       IM1H     DC3      DRUD    -2.554000        0.4000           0   0.00000   0.00000
      1433 IM1H     72       IM1H     H5       HDR5D    0.192000        1.0080           0   0.00000   0.00000
      1434 IM1H     72       IM1H     C4       CD2R5E   2.724100       11.6110           0   -1.25300   1.20000
      1435 IM1H     72       IM1H     DC4      DRUD    -2.747100        0.4000           0   0.00000   0.00000
      1436 IM1H     72       IM1H     H6       HDR5E    0.203000        1.0080           0   0.00000   0.00000
      1437 IM1H     72       IM1H     N2       ND2R5C   2.042200       13.6070           0   -0.803000   1.00000
      1438 IM1H     72       IM1H     DN2      DRUD    -2.199200        0.4000           0   0.00000   0.00000
      1439 IM1H     72       IM1H     H7       HDP1A    0.363000        1.0080           0   0.00000   0.00000
      1440 IM1H     72       IM1H     LPN21    LPD      0.000000        0.0000           -1   0.00000   0.00000
      1441 IM1H     73       IM1H     C1       CD33F    2.485000       11.6110           0   -1.18100   1.10000
      1442 IM1H     73       IM1H     DC1      DRUD    -2.667000        0.4000           0   0.00000   0.00000
      1443 IM1H     73       IM1H     H1       HDA3A    0.135000        1.0080           0   0.00000   0.00000
      1444 IM1H     73       IM1H     H2       HDA3A    0.135000        1.0080           0   0.00000   0.00000
      1445 IM1H     73       IM1H     H3       HDA3A    0.135000        1.0080           0   0.00000   0.00000
      1446 IM1H     73       IM1H     N1       ND2R5C   2.357200       13.6070           0   -0.803000   1.00000
      1447 IM1H     73       IM1H     DN1      DRUD    -2.199200        0.4000           0   0.00000   0.00000
      1448 IM1H     73       IM1H     C2       CD2R5D   2.447000       11.6110           0   -1.08300   1.10000
      1449 IM1H     73       IM1H     DC2      DRUD    -2.554000        0.4000           0   0.00000   0.00000
      1450 IM1H     73       IM1H     H4       HDR5D    0.195000        1.0080           0   0.00000   0.00000
      1451 IM1H     73       IM1H     C3       CD2R5D   2.507000       11.6110           0   -1.08300   1.10000
      1452 IM1H     73       IM1H     DC3      DRUD    -2.554000        0.4000           0   0.00000   0.00000
      1453 IM1H     73       IM1H     H5       HDR5D    0.192000        1.0080           0   0.00000   0.00000
      1454 IM1H     73       IM1H     C4       CD2R5E   2.724100       11.6110           0   -1.25300   1.20000
      1455 IM1H     73       IM1H     DC4      DRUD    -2.747100        0.4000           0   0.00000   0.00000
      1456 IM1H     73       IM1H     H6       HDR5E    0.203000        1.0080           0   0.00000   0.00000
      1457 IM1H     73       IM1H     N2       ND2R5C   2.042200       13.6070           0   -0.803000   1.00000
      1458 IM1H     73       IM1H     DN2      DRUD    -2.199200        0.4000           0   0.00000   0.00000
      1459 IM1H     73       IM1H     H7       HDP1A    0.363000        1.0080           0   0.00000   0.00000
      1460 IM1H     73       IM1H     LPN21    LPD      0.000000        0.0000           -1   0.00000   0.00000
      1461 IM1H     74       IM1H     C1       CD33F    2.485000       11.6110           0   -1.18100   1.10000
      1462 IM1H     74       IM1H     DC1      DRUD    -2.667000        0.4000           0   0.00000   0.00000
      1463 IM1H     74       IM1H     H1       HDA3A    0.135000        1.0080           0   0.00000   0.00000
      1464 IM1H     74       IM1H     H2       HDA3A    0.135000        1.0080           0   0.00000   0.00000
      1465 IM1H     74       IM1H     H3       HDA3A    0.135000        1.0080           0   0.00000   0.00000
      1466 IM1H     74       IM1H     N1       ND2R5C   2.357200       13.6070           0   -0.803000   1.00000
      1467 IM1H     74       IM1H     DN1      DRUD    -2.199200        0.4000           0   0.00000   0.00000
      1468 IM1H     74       IM1H     C2       CD2R5D   2.447000       11.6110           0   -1.08300   1.10000
      1469 IM1H     74       IM1H     DC2      DRUD    -2.554000        0.4000           0   0.00000   0.00000
      1470 IM1H     74       IM1H     H4       HDR5D    0.195000        1.0080           0   0.00000   0.00000
      1471 IM1H     74       IM1H     C3       CD2R5D   2.507000       11.6110           0   -1.08300   1.10000
      1472 IM1H     74       IM1H     DC3      DRUD    -2.554000        0.4000           0   0.00000   0.00000
      1473 IM1H     74       IM1H     H5       HDR5D    0.192000        1.0080           0   0.00000   0.00000
      1474 IM1H     74       IM1H     C4       CD2R5E   2.724100       11.6110           0   -1.25300   1.20000
      1475 IM1H     74       IM1H     DC4      DRUD    -2.747100        0.4000           0   0.00000   0.00000
      1476 IM1H     74       IM1H     H6       HDR5E    0.203000        1.0080           0   0.00000   0.00000
      1477 IM1H     74       IM1H     N2       ND2R5C   2.042200       13.6070           0   -0.803000   1.00000
      1478 IM1H     74       IM1H     DN2      DRUD    -2.199200        0.4000           0   0.00000   0.00000
      1479 IM1H     74       IM1H     H7       HDP1A    0.363000        1.0080           0   0.00000   0.00000
      1480 IM1H     74       IM1H     LPN21    LPD      0.000000        0.0000           -1   0.00000   0.00000
      1481 IM1H     75       IM1H     C1       CD33F    2.485000       11.6110           0   -1.18100   1.10000
      1482 IM1H     75       IM1H     DC1      DRUD    -2.667000        0.4000           0   0.00000   0.00000
      1483 IM1H     75       IM1H     H1       HDA3A    0.135000        1.0080           0   0.00000   0.00000
      1484 IM1H     75       IM1H     H2       HDA3A    0.135000        1.0080           0   0.00000   0.00000
      1485 IM1H     75       IM1H     H3       HDA3A    0.135000        1.0080           0   0.00000   0.00000
      1486 IM1H     75       IM1H     N1       ND2R5C   2.357200       13.6070           0   -0.803000   1.00000
      1487 IM1H     75       IM1H     DN1      DRUD    -2.199200        0.4000           0   0.00000   0.00000
      1488 IM1H     75       IM1H     C2       CD2R5D   2.447000       11.6110           0   -1.08300   1.10000
      1489 IM1H     75       IM1H     DC2      DRUD    -2.554000        0.4000           0   0.00000   0.00000
      1490 IM1H     75       IM1H     H4       HDR5D    0.195000        1.0080           0   0.00000   0.00000
      1491 IM1H     75       IM1H     C3       CD2R5D   2.507000       11.6110           0   -1.08300   1.10000
      1492 IM1H     75       IM1H     DC3      DRUD    -2.554000        0.4000           0   0.00000   0.00000
      1493 IM1H     75       IM1H     H5       HDR5D    0.192000        1.0080           0   0.00000   0.00000
      1494 IM1H     75       IM1H     C4       CD2R5E   2.724100       11.6110           0   -1.25300   1.20000
      1495 IM1H     75       IM1H     DC4      DRUD    -2.747100        0.4000           0   0.00000   0.00000
      1496 IM1H     75       IM1H     H6       HDR5E    0.203000        1.0080           0   0.00000   0.00000
      1497 IM1H     75       IM1H     N2       ND2R5C   2.042200       13.6070           0   -0.803000   1.00000
      1498 IM1H     75       IM1H     DN2      DRUD    -2.199200        0.4000           0   0.00000   0.00000
      1499 IM1H     75       IM1H     H7       HDP1A    0.363000        1.0080           0   0.00000   0.00000
      1500 IM1H     75       IM1H     LPN21    LPD      0.000000        0.0000           -1   0.00000   0.00000
      1501 IM1H     76       IM1H     C1       CD33F    2.485000       11.6110           0   -1.18100   1.10000
      1502 IM1H     76       IM1H     DC1      DRUD    -2.667000        0.4000           0   0.00000   0.00000
      1503 IM1H     76       IM1H     H1       HDA3A    0.135000        1.0080           0   0.00000   0.00000
      1504 IM1H     76       IM1H     H2       HDA3A    0.135000        1.0080           0   0.00000   0.00000
      1505 IM1H     76       IM1H     H3       HDA3A    0.135000        1.0080           0   0.00000   0.00000
      1506 IM1H     76       IM1H     N1       ND2R5C   2.357200       13.6070           0   -0.803000   1.00000
      1507 IM1H     76       IM1H     DN1      DRUD    -2.199200        0.4000           0   0.00000   0.00000
      1508 IM1H     76       IM1H     C2       CD2R5D   2.447000       11.6110           0   -1.08300   1.10000
      1509 IM1H     76       IM1H     DC2      DRUD    -2.554000        0.4000           0   0.00000   0.00000
      1510 IM1H     76       IM1H     H4       HDR5D    0.195000        1.0080           0   0.00000   0.00000
      1511 IM1H     76       IM1H     C3       CD2R5D   2.507000       11.6110           0   -1.08300   1.10000
      1512 IM1H     76       IM1H     DC3      DRUD    -2.554000        0.4000           0   0.00000   0.00000
      1513 IM1H     76       IM1H     H5       HDR5D    0.192000        1.0080           0   0.00000   0.00000
      1514 IM1H     76       IM1H     C4       CD2R5E   2.724100       11.6110           0   -1.25300   1.20000
      1515 IM1H     76       IM1H     DC4      DRUD    -2.747100        0.4000           0   0.00000   0.00000
      1516 IM1H     76       IM1H     H6       HDR5E    0.203000        1.0080           0   0.00000   0.00000
      1517 IM1H     76       IM1H     N2       ND2R5C   2.042200       13.6070           0   -0.803000   1.00000
      1518 IM1H     76       IM1H     DN2      DRUD    -2.199200        0.4000           0   0.00000   0.00000
      1519 IM1H     76       IM1H     H7       HDP1A    0.363000        1.0080           0   0.00000   0.00000
      1520 IM1H     76       IM1H     LPN21    LPD      0.000000        0.0000           -1   0.00000   0.00000
      1521 IM1H     77       IM1H     C1       CD33F    2.485000       11.6110           0   -1.18100   1.10000
      1522 IM1H     77       IM1H     DC1      DRUD    -2.667000        0.4000           0   0.00000   0.00000
      1523 IM1H     77       IM1H     H1       HDA3A    0.135000        1.0080           0   0.00000   0.00000
      1524 IM1H     77       IM1H     H2       HDA3A    0.135000        1.0080           0   0.00000   0.00000
      1525 IM1H     77       IM1H     H3       HDA3A    0.135000        1.0080           0   0.00000   0.00000
      1526 IM1H     77       IM1H     N1       ND2R5C   2.357200       13.6070           0   -0.803000   1.00000
      1527 IM1H     77       IM1H     DN1      DRUD    -2.199200        0.4000           0   0.00000   0.00000
      1528 IM1H     77       IM1H     C2       CD2R5D   2.447000       11.6110           0   -1.08300   1.10000
      1529 IM1H     77       IM1H     DC2      DRUD    -2.554000        0.4000           0   0.00000   0.00000
      1530 IM1H     77       IM1H     H4       HDR5D    0.195000        1.0080           0   0.00000   0.00000
      1531 IM1H     77       IM1H     C3       CD2R5D   2.507000       11.6110           0   -1.08300   1.10000
      1532 IM1H     77       IM1H     DC3      DRUD    -2.554000        0.4000           0   0.00000   0.00000
      1533 IM1H     77       IM1H     H5       HDR5D    0.192000        1.0080           0   0.00000   0.00000
      1534 IM1H     77       IM1H     C4       CD2R5E   2.724100       11.6110           0   -1.25300   1.20000
      1535 IM1H     77       IM1H     DC4      DRUD    -2.747100        0.4000           0   0.00000   0.00000
      1536 IM1H     77       IM1H     H6       HDR5E    0.203000        1.0080           0   0.00000   0.00000
      1537 IM1H     77       IM1H     N2       ND2R5C   2.042200       13.6070           0   -0.803000   1.00000
      1538 IM1H     77       IM1H     DN2      DRUD    -2.199200        0.4000           0   0.00000   0.00000
      1539 IM1H     77       IM1H     H7       HDP1A    0.363000        1.0080           0   0.00000   0.00000
      1540 IM1H     77       IM1H     LPN21    LPD      0.000000        0.0000           -1   0.00000   0.00000
      1541 IM1H     78       IM1H     C1       CD33F    2.485000       11.6110           0   -1.18100   1.10000
      1542 IM1H     78       IM1H     DC1      DRUD    -2.667000        0.4000           0   0.00000   0.00000
      1543 IM1H     78       IM1H     H1       HDA3A    0.135000        1.0080           0   0.00000   0.00000
      1544 IM1H     78       IM1H     H2       HDA3A    0.135000        1.0080           0   0.00000   0.00000
      1545 IM1H     78       IM1H     H3       HDA3A    0.135000        1.0080           0   0.00000   0.00000
      1546 IM1H     78       IM1H     N1       ND2R5C   2.357200       13.6070           0   -0.803000   1.00000
      1547 IM1H     78       IM1H     DN1      DRUD    -2.199200        0.4000           0   0.00000   0.00000
      1548 IM1H     78       IM1H     C2       CD2R5D   2.447000       11.6110           0   -1.08300   1.10000
      1549 IM1H     78       IM1H     DC2      DRUD    -2.554000        0.4000           0   0.00000   0.00000
      1550 IM1H     78       IM1H     H4       HDR5D    0.195000        1.0080           0   0.00000   0.00000
      1551 IM1H     78       IM1H     C3       CD2R5D   2.507000       11.6110           0   -1.08300   1.10000
      1552 IM1H     78       IM1H     DC3      DRUD    -2.554000        0.4000           0   0.00000   0.00000
      1553 IM1H     78       IM1H     H5       HDR5D    0.192000        1.0080           0   0.00000   0.00000
      1554 IM1H     78       IM1H     C4       CD2R5E   2.724100       11.6110           0   -1.25300   1.20000
      1555 IM1H     78       IM1H     DC4      DRUD    -2.747100        0.4000           0   0.00000   0.00000
      1556 IM1H     78       IM1H     H6       HDR5E    0.203000        1.0080           0   0.00000   0.00000
      1557 IM1H     78       IM1H     N2       ND2R5C   2.042200       13.6070           0   -0.803000   1.00000
      1558 IM1H     78       IM1H     DN2      DRUD    -2.199200        0.4000           0   0.00000   0.00000
      1559 IM1H     78       IM1H     H7       HDP1A    0.363000        1.0080           0   0.00000   0.00000
      1560 IM1H     78       IM1H     LPN21    LPD      0.000000        0.0000           -1   0.00000   0.00000
      1561 IM1H     79       IM1H     C1       CD33F    2.485000       11.6110           0   -1.18100   1.10000
      1562 IM1H     79       IM1H     DC1      DRUD    -2.667000        0.4000           0   0.00000   0.00000
      1563 IM1H     79       IM1H     H1       HDA3A    0.135000        1.0080           0   0.00000   0.00000
      1564 IM1H     79       IM1H     H2       HDA3A    0.135000        1.0080           0   0.00000   0.00000
      1565 IM1H     79       IM1H     H3       HDA3A    0.135000        1.0080           0   0.00000   0.00000
      1566 IM1H     79       IM1H     N1       ND2R5C   2.357200       13.6070           0   -0.803000   1.00000
      1567 IM1H     79       IM1H     DN1      DRUD    -2.199200        0.4000           0   0.00000   0.00000
      1568 IM1H     79       IM1H     C2       CD2R5D   2.447000       11.6110           0   -1.08300   1.10000
      1569 IM1H     79       IM1H     DC2      DRUD    -2.554000        0.4000           0   0.00000   0.00000
      1570 IM1H     79       IM1H     H4       HDR5D    0.195000        1.0080           0   0.00000   0.00000
      1571 IM1H     79       IM1H     C3       CD2R5D   2.507000       11.6110           0   -1.08300   1.10000
      1572 IM1H     79       IM1H     DC3      DRUD    -2.554000        0.4000           0   0.00000   0.00000
      1573 IM1H     79       IM1H     H5       HDR5D    0.192000        1.0080           0   0.00000   0.00000
      1574 IM1H     79       IM1H     C4       CD2R5E   2.724100       11.6110           0   -1.25300   1.20000
      1575 IM1H     79       IM1H     DC4      DRUD    -2.747100        0.4000           0   0.00000   0.00000
      1576 IM1H     79       IM1H     H6       HDR5E    0.203000        1.0080           0   0.00000   0.00000
      1577 IM1H     79       IM1H     N2       ND2R5C   2.042200       13.6070           0   -0.803000   1.00000
      1578 IM1H     79       IM1H     DN2      DRUD    -2.199200        0.4000           0   0.00000   0.00000
      1579 IM1H     79       IM1H     H7       HDP1A    0.363000        1.0080           0   0.00000   0.00000
      1580 IM1H     79       IM1H     LPN21    LPD      0.000000        0.0000           -1   0.00000   0.00000
      1581 IM1H     80       IM1H     C1       CD33F    2.485000       11.6110           0   -1.18100   1.10000
      1582 IM1H     80       IM1H     DC1      DRUD    -2.667000        0.4000           0   0.00000   0.00000
      1583 IM1H     80       IM1H     H1       HDA3A    0.135000        1.0080           0   0.00000   0.00000
      1584 IM1H     80       IM1H     H2       HDA3A    0.135000        1.0080           0   0.00000   0.00000
      1585 IM1H     80       IM1H     H3       HDA3A    0.135000        1.0080           0   0.00000   0.00000
      1586 IM1H     80       IM1H     N1       ND2R5C   2.357200       13.6070           0   -0.803000   1.00000
      1587 IM1H     80       IM1H     DN1      DRUD    -2.199200        0.4000           0   0.00000   0.00000
      1588 IM1H     80       IM1H     C2       CD2R5D   2.447000       11.6110           0   -1.08300   1.10000
      1589 IM1H     80       IM1H     DC2      DRUD    -2.554000        0.4000           0   0.00000   0.00000
      1590 IM1H     80       IM1H     H4       HDR5D    0.195000        1.0080           0   0.00000   0.00000
      1591 IM1H     80       IM1H     C3       CD2R5D   2.507000       11.6110           0   -1.08300   1.10000
      1592 IM1H     80       IM1H     DC3      DRUD    -2.554000        0.4000           0   0.00000   0.00000
      1593 IM1H     80       IM1H     H5       HDR5D    0.192000        1.0080           0   0.00000   0.00000
      1594 IM1H     80       IM1H     C4       CD2R5E   2.724100       11.6110           0   -1.25300   1.20000
      1595 IM1H     80       IM1H     DC4      DRUD    -2.747100        0.4000           0   0.00000   0.00000
      1596 IM1H     80       IM1H     H6       HDR5E    0.203000        1.0080           0   0.00000   0.00000
      1597 IM1H     80       IM1H     N2       ND2R5C   2.042200       13.6070           0   -0.803000   1.00000
      1598 IM1H     80       IM1H     DN2      DRUD    -2.199200        0.4000           0   0.00000   0.00000
      1599 IM1H     80       IM1H     H7       HDP1A    0.363000        1.0080           0   0.00000   0.00000
      1600 IM1H     80       IM1H     LPN21    LPD      0.000000        0.0000           -1   0.00000   0.00000
      1601 IM1H     81       IM1H     C1       CD33F    2.485000       11.6110           0   -1.18100   1.10000
      1602 IM1H     81       IM1H     DC1      DRUD    -2.667000        0.4000           0   0.00000   0.00000
      1603 IM1H     81       IM1H     H1       HDA3A    0.135000        1.0080           0   0.00000   0.00000
      1604 IM1H     81       IM1H     H2       HDA3A    0.135000        1.0080           0   0.00000   0.00000
      1605 IM1H     81       IM1H     H3       HDA3A    0.135000        1.0080           0   0.00000   0.00000
      1606 IM1H     81       IM1H     N1       ND2R5C   2.357200       13.6070           0   -0.803000   1.00000
      1607 IM1H     81       IM1H     DN1      DRUD    -2.199200        0.4000           0   0.00000   0.00000
      1608 IM1H     81       IM1H     C2       CD2R5D   2.447000       11.6110           0   -1.08300   1.10000
      1609 IM1H     81       IM1H     DC2      DRUD    -2.554000        0.4000           0   0.00000   0.00000
      1610 IM1H     81       IM1H     H4       HDR5D    0.195000        1.0080           0   0.00000   0.00000
      1611 IM1H     81       IM1H     C3       CD2R5D   2.507000       11.6110           0   -1.08300   1.10000
      1612 IM1H     81       IM1H     DC3      DRUD    -2.554000        0.4000           0   0.00000   0.00000
      1613 IM1H     81       IM1H     H5       HDR5D    0.192000        1.0080           0   0.00000   0.00000
      1614 IM1H     81       IM1H     C4       CD2R5E   2.724100       11.6110           0   -1.25300   1.20000
      1615 IM1H     81       IM1H     DC4      DRUD    -2.747100        0.4000           0   0.00000   0.00000
      1616 IM1H     81       IM1H     H6       HDR5E    0.203000        1.0080           0   0.00000   0.00000
      1617 IM1H     81       IM1H     N2       ND2R5C   2.042200       13.6070           0   -0.803000   1.00000
      1618 IM1H     81       IM1H     DN2      DRUD    -2.199200        0.4000           0   0.00000   0.00000
      1619 IM1H     81       IM1H     H7       HDP1A    0.363000        1.0080           0   0.00000   0.00000
      1620 IM1H     81       IM1H     LPN21    LPD      0.000000        0.0000           -1   0.00000   0.00000
      1621 IM1H     82       IM1H     C1       CD33F    2.485000       11.6110           0   -1.18100   1.10000
      1622 IM1H     82       IM1H     DC1      DRUD    -2.667000        0.4000           0   0.00000   0.00000
      1623 IM1H     82       IM1H     H1       HDA3A    0.135000        1.0080           0   0.00000   0.00000
      1624 IM1H     82       IM1H     H2       HDA3A    0.135000        1.0080           0   0.00000   0.00000
      1625 IM1H     82       IM1H     H3       HDA3A    0.135000        1.0080           0   0.00000   0.00000
      1626 IM1H     82       IM1H     N1       ND2R5C   2.357200       13.6070           0   -0.803000   1.00000
      1627 IM1H     82       IM1H     DN1      DRUD    -2.199200        0.4000           0   0.00000   0.00000
      1628 IM1H     82       IM1H     C2       CD2R5D   2.447000       11.6110           0   -1.08300   1.10000
      1629 IM1H     82       IM1H     DC2      DRUD    -2.554000        0.4000           0   0.00000   0.00000
      1630 IM1H     82       IM1H     H4       HDR5D    0.195000        1.0080           0   0.00000   0.00000
      1631 IM1H     82       IM1H     C3       CD2R5D   2.507000       11.6110           0   -1.08300   1.10000
      1632 IM1H     82       IM1H     DC3      DRUD    -2.554000        0.4000           0   0.00000   0.00000
      1633 IM1H     82       IM1H     H5       HDR5D    0.192000        1.0080           0   0.00000   0.00000
      1634 IM1H     82       IM1H     C4       CD2R5E   2.724100       11.6110           0   -1.25300   1.20000
      1635 IM1H     82       IM1H     DC4      DRUD    -2.747100        0.4000           0   0.00000   0.00000
      1636 IM1H     82       IM1H     H6       HDR5E    0.203000        1.0080           0   0.00000   0.00000
      1637 IM1H     82       IM1H     N2       ND2R5C   2.042200       13.6070           0   -0.803000   1.00000
      1638 IM1H     82       IM1H     DN2      DRUD    -2.199200        0.4000           0   0.00000   0.00000
      1639 IM1H     82       IM1H     H7       HDP1A    0.363000        1.0080           0   0.00000   0.00000
      1640 IM1H     82       IM1H     LPN21    LPD      0.000000        0.0000           -1   0.00000   0.00000
      1641 IM1H     83       IM1H     C1       CD33F    2.485000       11.6110           0   -1.18100   1.10000
      1642 IM1H     83       IM1H     DC1      DRUD    -2.667000        0.4000           0   0.00000   0.00000
      1643 IM1H     83       IM1H     H1       HDA3A    0.135000        1.0080           0   0.00000   0.00000
      1644 IM1H     83       IM1H     H2       HDA3A    0.135000        1.0080           0   0.00000   0.00000
      1645 IM1H     83       IM1H     H3       HDA3A    0.135000        1.0080           0   0.00000   0.00000
      1646 IM1H     83       IM1H     N1       ND2R5C   2.357200       13.6070           0   -0.803000   1.00000
      1647 IM1H     83       IM1H     DN1      DRUD    -2.199200        0.4000           0   0.00000   0.00000
      1648 IM1H     83       IM1H     C2       CD2R5D   2.447000       11.6110           0   -1.08300   1.10000
      1649 IM1H     83       IM1H     DC2      DRUD    -2.554000        0.4000           0   0.00000   0.00000
      1650 IM1H     83       IM1H     H4       HDR5D    0.195000        1.0080           0   0.00000   0.00000
      1651 IM1H     83       IM1H     C3       CD2R5D   2.507000       11.6110           0   -1.08300   1.10000
      1652 IM1H     83       IM1H     DC3      DRUD    -2.554000        0.4000           0   0.00000   0.00000
      1653 IM1H     83       IM1H     H5       HDR5D    0.192000        1.0080           0   0.00000   0.00000
      1654 IM1H     83       IM1H     C4       CD2R5E   2.724100       11.6110           0   -1.25300   1.20000
      1655 IM1H     83       IM1H     DC4      DRUD    -2.747100        0.4000           0   0.00000   0.00000
      1656 IM1H     83       IM1H     H6       HDR5E    0.203000        1.0080           0   0.00000   0.00000
      1657 IM1H     83       IM1H     N2       ND2R5C   2.042200       13.6070           0   -0.803000   1.00000
      1658 IM1H     83       IM1H     DN2      DRUD    -2.199200        0.4000           0   0.00000   0.00000
      1659 IM1H     83       IM1H     H7       HDP1A    0.363000        1.0080           0   0.00000   0.00000
      1660 IM1H     83       IM1H     LPN21    LPD      0.000000        0.0000           -1   0.00000   0.00000
      1661 IM1H     84       IM1H     C1       CD33F    2.485000       11.6110           0   -1.18100   1.10000
      1662 IM1H     84       IM1H     DC1      DRUD    -2.667000        0.4000           0   0.00000   0.00000
      1663 IM1H     84       IM1H     H1       HDA3A    0.135000        1.0080           0   0.00000   0.00000
      1664 IM1H     84       IM1H     H2       HDA3A    0.135000        1.0080           0   0.00000   0.00000
      1665 IM1H     84       IM1H     H3       HDA3A    0.135000        1.0080           0   0.00000   0.00000
      1666 IM1H     84       IM1H     N1       ND2R5C   2.357200       13.6070           0   -0.803000   1.00000
      1667 IM1H     84       IM1H     DN1      DRUD    -2.199200        0.4000           0   0.00000   0.00000
      1668 IM1H     84       IM1H     C2       CD2R5D   2.447000       11.6110           0   -1.08300   1.10000
      1669 IM1H     84       IM1H     DC2      DRUD    -2.554000        0.4000           0   0.00000   0.00000
      1670 IM1H     84       IM1H     H4       HDR5D    0.195000        1.0080           0   0.00000   0.00000
      1671 IM1H     84       IM1H     C3       CD2R5D   2.507000       11.6110           0   -1.08300   1.10000
      1672 IM1H     84       IM1H     DC3      DRUD    -2.554000        0.4000           0   0.00000   0.00000
      1673 IM1H     84       IM1H     H5       HDR5D    0.192000        1.0080           0   0.00000   0.00000
      1674 IM1H     84       IM1H     C4       CD2R5E   2.724100       11.6110           0   -1.25300   1.20000
      1675 IM1H     84       IM1H     DC4      DRUD    -2.747100        0.4000           0   0.00000   0.00000
      1676 IM1H     84       IM1H     H6       HDR5E    0.203000        1.0080           0   0.00000   0.00000
      1677 IM1H     84       IM1H     N2       ND2R5C   2.042200       13.6070           0   -0.803000   1.00000
      1678 IM1H     84       IM1H     DN2      DRUD    -2.199200        0.4000           0   0.00000   0.00000
      1679 IM1H     84       IM1H     H7       HDP1A    0.363000        1.0080           0   0.00000   0.00000
      1680 IM1H     84       IM1H     LPN21    LPD      0.000000        0.0000           -1   0.00000   0.00000
      1681 IM1H     85       IM1H     C1       CD33F    2.485000       11.6110           0   -1.18100   1.10000
      1682 IM1H     85       IM1H     DC1      DRUD    -2.667000        0.4000           0   0.00000   0.00000
      1683 IM1H     85       IM1H     H1       HDA3A    0.135000        1.0080           0   0.00000   0.00000
      1684 IM1H     85       IM1H     H2       HDA3A    0.135000        1.0080           0   0.00000   0.00000
      1685 IM1H     85       IM1H     H3       HDA3A    0.135000        1.0080           0   0.00000   0.00000
      1686 IM1H     85       IM1H     N1       ND2R5C   2.357200       13.6070           0   -0.803000   1.00000
      1687 IM1H     85       IM1H     DN1      DRUD    -2.199200        0.4000           0   0.00000   0.00000
      1688 IM1H     85       IM1H     C2       CD2R5D   2.447000       11.6110           0   -1.08300   1.10000
      1689 IM1H     85       IM1H     DC2      DRUD    -2.554000        0.4000           0   0.00000   0.00000
      1690 IM1H     85       IM1H     H4       HDR5D    0.195000        1.0080           0   0.00000   0.00000
      1691 IM1H     85       IM1H     C3       CD2R5D   2.507000       11.6110           0   -1.08300   1.10000
      1692 IM1H     85       IM1H     DC3      DRUD    -2.554000        0.4000           0   0.00000   0.00000
      1693 IM1H     85       IM1H     H5       HDR5D    0.192000        1.0080           0   0.00000   0.00000
      1694 IM1H     85       IM1H     C4       CD2R5E   2.724100       11.6110           0   -1.25300   1.20000
      1695 IM1H     85       IM1H     DC4      DRUD    -2.747100        0.4000           0   0.00000   0.00000
      1696 IM1H     85       IM1H     H6       HDR5E    0.203000        1.0080           0   0.00000   0.00000
      1697 IM1H     85       IM1H     N2       ND2R5C   2.042200       13.6070           0   -0.803000   1.00000
      1698 IM1H     85       IM1H     DN2      DRUD    -2.199200        0.4000           0   0.00000   0.00000
      1699 IM1H     85       IM1H     H7       HDP1A    0.363000        1.0080           0   0.00000   0.00000
      1700 IM1H     85       IM1H     LPN21    LPD      0.000000        0.0000           -1   0.00000   0.00000
      1701 IM1H     86       IM1H     C1       CD33F    2.485000       11.6110           0   -1.18100   1.10000
      1702 IM1H     86       IM1H     DC1      DRUD    -2.667000        0.4000           0   0.00000   0.00000
      1703 IM1H     86       IM1H     H1       HDA3A    0.135000        1.0080           0   0.00000   0.00000
      1704 IM1H     86       IM1H     H2       HDA3A    0.135000        1.0080           0   0.00000   0.00000
      1705 IM1H     86       IM1H     H3       HDA3A    0.135000        1.0080           0   0.00000   0.00000
      1706 IM1H     86       IM1H     N1       ND2R5C   2.357200       13.6070           0   -0.803000   1.00000
      1707 IM1H     86       IM1H     DN1      DRUD    -2.199200        0.4000           0   0.00000   0.00000
      1708 IM1H     86       IM1H     C2       CD2R5D   2.447000       11.6110           0   -1.08300   1.10000
      1709 IM1H     86       IM1H     DC2      DRUD    -2.554000        0.4000           0   0.00000   0.00000
      1710 IM1H     86       IM1H     H4       HDR5D    0.195000        1.0080           0   0.00000   0.00000
      1711 IM1H     86       IM1H     C3       CD2R5D   2.507000       11.6110           0   -1.08300   1.10000
      1712 IM1H     86       IM1H     DC3      DRUD    -2.554000        0.4000           0   0.00000   0.00000
      1713 IM1H     86       IM1H     H5       HDR5D    0.192000        1.0080           0   0.00000   0.00000
      1714 IM1H     86       IM1H     C4       CD2R5E   2.724100       11.6110           0   -1.25300   1.20000
      1715 IM1H     86       IM1H     DC4      DRUD    -2.747100        0.4000           0   0.00000   0.00000
      1716 IM1H     86       IM1H     H6       HDR5E    0.203000        1.0080           0   0.00000   0.00000
      1717 IM1H     86       IM1H     N2       ND2R5C   2.042200       13.6070           0   -0.803000   1.00000
      1718 IM1H     86       IM1H     DN2      DRUD    -2.199200        0.4000           0   0.00000   0.00000
      1719 IM1H     86       IM1H     H7       HDP1A    0.363000        1.0080           0   0.00000   0.00000
      1720 IM1H     86       IM1H     LPN21    LPD      0.000000        0.0000           -1   0.00000   0.00000
      1721 IM1H     87       IM1H     C1       CD33F    2.485000       11.6110           0   -1.18100   1.10000
      1722 IM1H     87       IM1H     DC1      DRUD    -2.667000        0.4000           0   0.00000   0.00000
      1723 IM1H     87       IM1H     H1       HDA3A    0.135000        1.0080           0   0.00000   0.00000
      1724 IM1H     87       IM1H     H2       HDA3A    0.135000        1.0080           0   0.00000   0.00000
      1725 IM1H     87       IM1H     H3       HDA3A    0.135000        1.0080           0   0.00000   0.00000
      1726 IM1H     87       IM1H     N1       ND2R5C   2.357200       13.6070           0   -0.803000   1.00000
      1727 IM1H     87       IM1H     DN1      DRUD    -2.199200        0.4000           0   0.00000   0.00000
      1728 IM1H     87       IM1H     C2       CD2R5D   2.447000       11.6110           0   -1.08300   1.10000
      1729 IM1H     87       IM1H     DC2      DRUD    -2.554000        0.4000           0   0.00000   0.00000
      1730 IM1H     87       IM1H     H4       HDR5D    0.195000        1.0080           0   0.00000   0.00000
      1731 IM1H     87       IM1H     C3       CD2R5D   2.507000       11.6110           0   -1.08300   1.10000
      1732 IM1H     87       IM1H     DC3      DRUD    -2.554000        0.4000           0   0.00000   0.00000
      1733 IM1H     87       IM1H     H5       HDR5D    0.192000        1.0080           0   0.00000   0.00000
      1734 IM1H     87       IM1H     C4       CD2R5E   2.724100       11.6110           0   -1.25300   1.20000
      1735 IM1H     87       IM1H     DC4      DRUD    -2.747100        0.4000           0   0.00000   0.00000
      1736 IM1H     87       IM1H     H6       HDR5E    0.203000        1.0080           0   0.00000   0.00000
      1737 IM1H     87       IM1H     N2       ND2R5C   2.042200       13.6070           0   -0.803000   1.00000
      1738 IM1H     87       IM1H     DN2      DRUD    -2.199200        0.4000           0   0.00000   0.00000
      1739 IM1H     87       IM1H     H7       HDP1A    0.363000        1.0080           0   0.00000   0.00000
      1740 IM1H     87       IM1H     LPN21    LPD      0.000000        0.0000           -1   0.00000   0.00000
      1741 IM1H     88       IM1H     C1       CD33F    2.485000       11.6110           0   -1.18100   1.10000
      1742 IM1H     88       IM1H     DC1      DRUD    -2.667000        0.4000           0   0.00000   0.00000
      1743 IM1H     88       IM1H     H1       HDA3A    0.135000        1.0080           0   0.00000   0.00000
      1744 IM1H     88       IM1H     H2       HDA3A    0.135000        1.0080           0   0.00000   0.00000
      1745 IM1H     88       IM1H     H3       HDA3A    0.135000        1.0080           0   0.00000   0.00000
      1746 IM1H     88       IM1H     N1       ND2R5C   2.357200       13.6070           0   -0.803000   1.00000
      1747 IM1H     88       IM1H     DN1      DRUD    -2.199200        0.4000           0   0.00000   0.00000
      1748 IM1H     88       IM1H     C2       CD2R5D   2.447000       11.6110           0   -1.08300   1.10000
      1749 IM1H     88       IM1H     DC2      DRUD    -2.554000        0.4000           0   0.00000   0.00000
      1750 IM1H     88       IM1H     H4       HDR5D    0.195000        1.0080           0   0.00000   0.00000
      1751 IM1H     88       IM1H     C3       CD2R5D   2.507000       11.6110           0   -1.08300   1.10000
      1752 IM1H     88       IM1H     DC3      DRUD    -2.554000        0.4000           0   0.00000   0.00000
      1753 IM1H     88       IM1H     H5       HDR5D    0.192000        1.0080           0   0.00000   0.00000
      1754 IM1H     88       IM1H     C4       CD2R5E   2.724100       11.6110           0   -1.25300   1.20000
      1755 IM1H     88       IM1H     DC4      DRUD    -2.747100        0.4000           0   0.00000   0.00000
      1756 IM1H     88       IM1H     H6       HDR5E    0.203000        1.0080           0   0.00000   0.00000
      1757 IM1H     88       IM1H     N2       ND2R5C   2.042200       13.6070           0   -0.803000   1.00000
      1758 IM1H     88       IM1H     DN2      DRUD    -2.199200        0.4000           0   0.00000   0.00000
      1759 IM1H     88       IM1H     H7       HDP1A    0.363000        1.0080           0   0.00000   0.00000
      1760 IM1H     88       IM1H     LPN21    LPD      0.000000        0.0000           -1   0.00000   0.00000
      1761 IM1H     89       IM1H     C1       CD33F    2.485000       11.6110           0   -1.18100   1.10000
      1762 IM1H     89       IM1H     DC1      DRUD    -2.667000        0.4000           0   0.00000   0.00000
      1763 IM1H     89       IM1H     H1       HDA3A    0.135000        1.0080           0   0.00000   0.00000
      1764 IM1H     89       IM1H     H2       HDA3A    0.135000        1.0080           0   0.00000   0.00000
      1765 IM1H     89       IM1H     H3       HDA3A    0.135000        1.0080           0   0.00000   0.00000
      1766 IM1H     89       IM1H     N1       ND2R5C   2.357200       13.6070           0   -0.803000   1.00000
      1767 IM1H     89       IM1H     DN1      DRUD    -2.199200        0.4000           0   0.00000   0.00000
      1768 IM1H     89       IM1H     C2       CD2R5D   2.447000       11.6110           0   -1.08300   1.10000
      1769 IM1H     89       IM1H     DC2      DRUD    -2.554000        0.4000           0   0.00000   0.00000
      1770 IM1H     89       IM1H     H4       HDR5D    0.195000        1.0080           0   0.00000   0.00000
      1771 IM1H     89       IM1H     C3       CD2R5D   2.507000       11.6110           0   -1.08300   1.10000
      1772 IM1H     89       IM1H     DC3      DRUD    -2.554000        0.4000           0   0.00000   0.00000
      1773 IM1H     89       IM1H     H5       HDR5D    0.192000        1.0080           0   0.00000   0.00000
      1774 IM1H     89       IM1H     C4       CD2R5E   2.724100       11.6110           0   -1.25300   1.20000
      1775 IM1H     89       IM1H     DC4      DRUD    -2.747100        0.4000           0   0.00000   0.00000
      1776 IM1H     89       IM1H     H6       HDR5E    0.203000        1.0080           0   0.00000   0.00000
      1777 IM1H     89       IM1H     N2       ND2R5C   2.042200       13.6070           0   -0.803000   1.00000
      1778 IM1H     89       IM1H     DN2      DRUD    -2.199200        0.4000           0   0.00000   0.00000
      1779 IM1H     89       IM1H     H7       HDP1A    0.363000        1.0080           0   0.00000   0.00000
      1780 IM1H     89       IM1H     LPN21    LPD      0.000000        0.0000           -1   0.00000   0.00000
      1781 IM1H     90       IM1H     C1       CD33F    2.485000       11.6110           0   -1.18100   1.10000
      1782 IM1H     90       IM1H     DC1      DRUD    -2.667000        0.4000           0   0.00000   0.00000
      1783 IM1H     90       IM1H     H1       HDA3A    0.135000        1.0080           0   0.00000   0.00000
      1784 IM1H     90       IM1H     H2       HDA3A    0.135000        1.0080           0   0.00000   0.00000
      1785 IM1H     90       IM1H     H3       HDA3A    0.135000        1.0080           0   0.00000   0.00000
      1786 IM1H     90       IM1H     N1       ND2R5C   2.357200       13.6070           0   -0.803000   1.00000
      1787 IM1H     90       IM1H     DN1      DRUD    -2.199200        0.4000           0   0.00000   0.00000
      1788 IM1H     90       IM1H     C2       CD2R5D   2.447000       11.6110           0   -1.08300   1.10000
      1789 IM1H     90       IM1H     DC2      DRUD    -2.554000        0.4000           0   0.00000   0.00000
      1790 IM1H     90       IM1H     H4       HDR5D    0.195000        1.0080           0   0.00000   0.00000
      1791 IM1H     90       IM1H     C3       CD2R5D   2.507000       11.6110           0   -1.08300   1.10000
      1792 IM1H     90       IM1H     DC3      DRUD    -2.554000        0.4000           0   0.00000   0.00000
      1793 IM1H     90       IM1H     H5       HDR5D    0.192000        1.0080           0   0.00000   0.00000
      1794 IM1H     90       IM1H     C4       CD2R5E   2.724100       11.6110           0   -1.25300   1.20000
      1795 IM1H     90       IM1H     DC4      DRUD    -2.747100        0.4000           0   0.00000   0.00000
      1796 IM1H     90       IM1H     H6       HDR5E    0.203000        1.0080           0   0.00000   0.00000
      1797 IM1H     90       IM1H     N2       ND2R5C   2.042200       13.6070           0   -0.803000   1.00000
      1798 IM1H     90       IM1H     DN2      DRUD    -2.199200        0.4000           0   0.00000   0.00000
      1799 IM1H     90       IM1H     H7       HDP1A    0.363000        1.0080           0   0.00000   0.00000
      1800 IM1H     90       IM1H     LPN21    LPD      0.000000        0.0000           -1   0.00000   0.00000
      1801 IM1H     91       IM1H     C1       CD33F    2.485000       11.6110           0   -1.18100   1.10000
      1802 IM1H     91       IM1H     DC1      DRUD    -2.667000        0.4000           0   0.00000   0.00000
      1803 IM1H     91       IM1H     H1       HDA3A    0.135000        1.0080           0   0.00000   0.00000
      1804 IM1H     91       IM1H     H2       HDA3A    0.135000        1.0080           0   0.00000   0.00000
      1805 IM1H     91       IM1H     H3       HDA3A    0.135000        1.0080           0   0.00000   0.00000
      1806 IM1H     91       IM1H     N1       ND2R5C   2.357200       13.6070           0   -0.803000   1.00000
      1807 IM1H     91       IM1H     DN1      DRUD    -2.199200        0.4000           0   0.00000   0.00000
      1808 IM1H     91       IM1H     C2       CD2R5D   2.447000       11.6110           0   -1.08300   1.10000
      1809 IM1H     91       IM1H     DC2      DRUD    -2.554000        0.4000           0   0.00000   0.00000
      1810 IM1H     91       IM1H     H4       HDR5D    0.195000        1.0080           0   0.00000   0.00000
      1811 IM1H     91       IM1H     C3       CD2R5D   2.507000       11.6110           0   -1.08300   1.10000
      1812 IM1H     91       IM1H     DC3      DRUD    -2.554000        0.4000           0   0.00000   0.00000
      1813 IM1H     91       IM1H     H5       HDR5D    0.192000        1.0080           0   0.00000   0.00000
      1814 IM1H     91       IM1H     C4       CD2R5E   2.724100       11.6110           0   -1.25300   1.20000
      1815 IM1H     91       IM1H     DC4      DRUD    -2.747100        0.4000           0   0.00000   0.00000
      1816 IM1H     91       IM1H     H6       HDR5E    0.203000        1.0080           0   0.00000   0.00000
      1817 IM1H     91       IM1H     N2       ND2R5C   2.042200       13.6070           0   -0.803000   1.00000
      1818 IM1H     91       IM1H     DN2      DRUD    -2.199200        0.4000           0   0.00000   0.00000
      1819 IM1H     91       IM1H     H7       HDP1A    0.363000        1.0080           0   0.00000   0.00000
      1820 IM1H     91       IM1H     LPN21    LPD      0.000000        0.0000           -1   0.00000   0.00000
      1821 IM1H     92       IM1H     C1       CD33F    2.485000       11.6110           0   -1.18100   1.10000
      1822 IM1H     92       IM1H     DC1      DRUD    -2.667000        0.4000           0   0.00000   0.00000
      1823 IM1H     92       IM1H     H1       HDA3A    0.135000        1.0080           0   0.00000   0.00000
      1824 IM1H     92       IM1H     H2       HDA3A    0.135000        1.0080           0   0.00000   0.00000
      1825 IM1H     92       IM1H     H3       HDA3A    0.135000        1.0080           0   0.00000   0.00000
      1826 IM1H     92       IM1H     N1       ND2R5C   2.357200       13.6070           0   -0.803000   1.00000
      1827 IM1H     92       IM1H     DN1      DRUD    -2.199200        0.4000           0   0.00000   0.00000
      1828 IM1H     92       IM1H     C2       CD2R5D   2.447000       11.6110           0   -1.08300   1.10000
      1829 IM1H     92       IM1H     DC2      DRUD    -2.554000        0.4000           0   0.00000   0.00000
      1830 IM1H     92       IM1H     H4       HDR5D    0.195000        1.0080           0   0.00000   0.00000
      1831 IM1H     92       IM1H     C3       CD2R5D   2.507000       11.6110           0   -1.08300   1.10000
      1832 IM1H     92       IM1H     DC3      DRUD    -2.554000        0.4000           0   0.00000   0.00000
      1833 IM1H     92       IM1H     H5       HDR5D    0.192000        1.0080           0   0.00000   0.00000
      1834 IM1H     92       IM1H     C4       CD2R5E   2.724100       11.6110           0   -1.25300   1.20000
      1835 IM1H     92       IM1H     DC4      DRUD    -2.747100        0.4000           0   0.00000   0.00000
      1836 IM1H     92       IM1H     H6       HDR5E    0.203000        1.0080           0   0.00000   0.00000
      1837 IM1H     92       IM1H     N2       ND2R5C   2.042200       13.6070           0   -0.803000   1.00000
      1838 IM1H     92       IM1H     DN2      DRUD    -2.199200        0.4000           0   0.00000   0.00000
      1839 IM1H     92       IM1H     H7       HDP1A    0.363000        1.0080           0   0.00000   0.00000
      1840 IM1H     92       IM1H     LPN21    LPD      0.000000        0.0000           -1   0.00000   0.00000
      1841 IM1H     93       IM1H     C1       CD33F    2.485000       11.6110           0   -1.18100   1.10000
      1842 IM1H     93       IM1H     DC1      DRUD    -2.667000        0.4000           0   0.00000   0.00000
      1843 IM1H     93       IM1H     H1       HDA3A    0.135000        1.0080           0   0.00000   0.00000
      1844 IM1H     93       IM1H     H2       HDA3A    0.135000        1.0080           0   0.00000   0.00000
      1845 IM1H     93       IM1H     H3       HDA3A    0.135000        1.0080           0   0.00000   0.00000
      1846 IM1H     93       IM1H     N1       ND2R5C   2.357200       13.6070           0   -0.803000   1.00000
      1847 IM1H     93       IM1H     DN1      DRUD    -2.199200        0.4000           0   0.00000   0.00000
      1848 IM1H     93       IM1H     C2       CD2R5D   2.447000       11.6110           0   -1.08300   1.10000
      1849 IM1H     93       IM1H     DC2      DRUD    -2.554000        0.4000           0   0.00000   0.00000
      1850 IM1H     93       IM1H     H4       HDR5D    0.195000        1.0080           0   0.00000   0.00000
      1851 IM1H     93       IM1H     C3       CD2R5D   2.507000       11.6110           0   -1.08300   1.10000
      1852 IM1H     93       IM1H     DC3      DRUD    -2.554000        0.4000           0   0.00000   0.00000
      1853 IM1H     93       IM1H     H5       HDR5D    0.192000        1.0080           0   0.00000   0.00000
      1854 IM1H     93       IM1H     C4       CD2R5E   2.724100       11.6110           0   -1.25300   1.20000
      1855 IM1H     93       IM1H     DC4      DRUD    -2.747100        0.4000           0   0.00000   0.00000
      1856 IM1H     93       IM1H     H6       HDR5E    0.203000        1.0080           0   0.00000   0.00000
      1857 IM1H     93       IM1H     N2       ND2R5C   2.042200       13.6070           0   -0.803000   1.00000
      1858 IM1H     93       IM1H     DN2      DRUD    -2.199200        0.4000           0   0.00000   0.00000
      1859 IM1H     93       IM1H     H7       HDP1A    0.363000        1.0080           0   0.00000   0.00000
      1860 IM1H     93       IM1H     LPN21    LPD      0.000000        0.0000           -1   0.00000   0.00000
      1861 IM1H     94       IM1H     C1       CD33F    2.485000       11.6110           0   -1.18100   1.10000
      1862 IM1H     94       IM1H     DC1      DRUD    -2.667000        0.4000           0   0.00000   0.00000
      1863 IM1H     94       IM1H     H1       HDA3A    0.135000        1.0080           0   0.00000   0.00000
      1864 IM1H     94       IM1H     H2       HDA3A    0.135000        1.0080           0   0.00000   0.00000
      1865 IM1H     94       IM1H     H3       HDA3A    0.135000        1.0080           0   0.00000   0.00000
      1866 IM1H     94       IM1H     N1       ND2R5C   2.357200       13.6070           0   -0.803000   1.00000
      1867 IM1H     94       IM1H     DN1      DRUD    -2.199200        0.4000           0   0.00000   0.00000
      1868 IM1H     94       IM1H     C2       CD2R5D   2.447000       11.6110           0   -1.08300   1.10000
      1869 IM1H     94       IM1H     DC2      DRUD    -2.554000        0.4000           0   0.00000   0.00000
      1870 IM1H     94       IM1H     H4       HDR5D    0.195000        1.0080           0   0.00000   0.00000
      1871 IM1H     94       IM1H     C3       CD2R5D   2.507000       11.6110           0   -1.08300   1.10000
      1872 IM1H     94       IM1H     DC3      DRUD    -2.554000        0.4000           0   0.00000   0.00000
      1873 IM1H     94       IM1H     H5       HDR5D    0.192000        1.0080           0   0.00000   0.00000
      1874 IM1H     94       IM1H     C4       CD2R5E   2.724100       11.6110           0   -1.25300   1.20000
      1875 IM1H     94       IM1H     DC4      DRUD    -2.747100        0.4000           0   0.00000   0.00000
      1876 IM1H     94       IM1H     H6       HDR5E    0.203000        1.0080           0   0.00000   0.00000
      1877 IM1H     94       IM1H     N2       ND2R5C   2.042200       13.6070           0   -0.803000   1.00000
      1878 IM1H     94       IM1H     DN2      DRUD    -2.199200        0.4000           0   0.00000   0.00000
      1879 IM1H     94       IM1H     H7       HDP1A    0.363000        1.0080           0   0.00000   0.00000
      1880 IM1H     94       IM1H     LPN21    LPD      0.000000        0.0000           -1   0.00000   0.00000
      1881 IM1H     95       IM1H     C1       CD33F    2.485000       11.6110           0   -1.18100   1.10000
      1882 IM1H     95       IM1H     DC1      DRUD    -2.667000        0.4000           0   0.00000   0.00000
      1883 IM1H     95       IM1H     H1       HDA3A    0.135000        1.0080           0   0.00000   0.00000
      1884 IM1H     95       IM1H     H2       HDA3A    0.135000        1.0080           0   0.00000   0.00000
      1885 IM1H     95       IM1H     H3       HDA3A    0.135000        1.0080           0   0.00000   0.00000
      1886 IM1H     95       IM1H     N1       ND2R5C   2.357200       13.6070           0   -0.803000   1.00000
      1887 IM1H     95       IM1H     DN1      DRUD    -2.199200        0.4000           0   0.00000   0.00000
      1888 IM1H     95       IM1H     C2       CD2R5D   2.447000       11.6110           0   -1.08300   1.10000
      1889 IM1H     95       IM1H     DC2      DRUD    -2.554000        0.4000           0   0.00000   0.00000
      1890 IM1H     95       IM1H     H4       HDR5D    0.195000        1.0080           0   0.00000   0.00000
      1891 IM1H     95       IM1H     C3       CD2R5D   2.507000       11.6110           0   -1.08300   1.10000
      1892 IM1H     95       IM1H     DC3      DRUD    -2.554000        0.4000           0   0.00000   0.00000
      1893 IM1H     95       IM1H     H5       HDR5D    0.192000        1.0080           0   0.00000   0.00000
      1894 IM1H     95       IM1H     C4       CD2R5E   2.724100       11.6110           0   -1.25300   1.20000
      1895 IM1H     95       IM1H     DC4      DRUD    -2.747100        0.4000           0   0.00000   0.00000
      1896 IM1H     95       IM1H     H6       HDR5E    0.203000        1.0080           0   0.00000   0.00000
      1897 IM1H     95       IM1H     N2       ND2R5C   2.042200       13.6070           0   -0.803000   1.00000
      1898 IM1H     95       IM1H     DN2      DRUD    -2.199200        0.4000           0   0.00000   0.00000
      1899 IM1H     95       IM1H     H7       HDP1A    0.363000        1.0080           0   0.00000   0.00000
      1900 IM1H     95       IM1H     LPN21    LPD      0.000000        0.0000           -1   0.00000   0.00000
      1901 IM1H     96       IM1H     C1       CD33F    2.485000       11.6110           0   -1.18100   1.10000
      1902 IM1H     96       IM1H     DC1      DRUD    -2.667000        0.4000           0   0.00000   0.00000
      1903 IM1H     96       IM1H     H1       HDA3A    0.135000        1.0080           0   0.00000   0.00000
      1904 IM1H     96       IM1H     H2       HDA3A    0.135000        1.0080           0   0.00000   0.00000
      1905 IM1H     96       IM1H     H3       HDA3A    0.135000        1.0080           0   0.00000   0.00000
      1906 IM1H     96       IM1H     N1       ND2R5C   2.357200       13.6070           0   -0.803000   1.00000
      1907 IM1H     96       IM1H     DN1      DRUD    -2.199200        0.4000           0   0.00000   0.00000
      1908 IM1H     96       IM1H     C2       CD2R5D   2.447000       11.6110           0   -1.08300   1.10000
      1909 IM1H     96       IM1H     DC2      DRUD    -2.554000        0.4000           0   0.00000   0.00000
      1910 IM1H     96       IM1H     H4       HDR5D    0.195000        1.0080           0   0.00000   0.00000
      1911 IM1H     96       IM1H     C3       CD2R5D   2.507000       11.6110           0   -1.08300   1.10000
      1912 IM1H     96       IM1H     DC3      DRUD    -2.554000        0.4000           0   0.00000   0.00000
      1913 IM1H     96       IM1H     H5       HDR5D    0.192000        1.0080           0   0.00000   0.00000
      1914 IM1H     96       IM1H     C4       CD2R5E   2.724100       11.6110           0   -1.25300   1.20000
      1915 IM1H     96       IM1H     DC4      DRUD    -2.747100        0.4000           0   0.00000   0.00000
      1916 IM1H     96       IM1H     H6       HDR5E    0.203000        1.0080           0   0.00000   0.00000
      1917 IM1H     96       IM1H     N2       ND2R5C   2.042200       13.6070           0   -0.803000   1.00000
      1918 IM1H     96       IM1H     DN2      DRUD    -2.199200        0.4000           0   0.00000   0.00000
      1919 IM1H     96       IM1H     H7       HDP1A    0.363000        1.0080           0   0.00000   0.00000
      1920 IM1H     96       IM1H     LPN21    LPD      0.000000        0.0000           -1   0.00000   0.00000
      1921 IM1H     97       IM1H     C1       CD33F    2.485000       11.6110           0   -1.18100   1.10000
      1922 IM1H     97       IM1H     DC1      DRUD    -2.667000        0.4000           0   0.00000   0.00000
      1923 IM1H     97       IM1H     H1       HDA3A    0.135000        1.0080           0   0.00000   0.00000
      1924 IM1H     97       IM1H     H2       HDA3A    0.135000        1.0080           0   0.00000   0.00000
      1925 IM1H     97       IM1H     H3       HDA3A    0.135000        1.0080           0   0.00000   0.00000
      1926 IM1H     97       IM1H     N1       ND2R5C   2.357200       13.6070           0   -0.803000   1.00000
      1927 IM1H     97       IM1H     DN1      DRUD    -2.199200        0.4000           0   0.00000   0.00000
      1928 IM1H     97       IM1H     C2       CD2R5D   2.447000       11.6110           0   -1.08300   1.10000
      1929 IM1H     97       IM1H     DC2      DRUD    -2.554000        0.4000           0   0.00000   0.00000
      1930 IM1H     97       IM1H     H4       HDR5D    0.195000        1.0080           0   0.00000   0.00000
      1931 IM1H     97       IM1H     C3       CD2R5D   2.507000       11.6110           0   -1.08300   1.10000
      1932 IM1H     97       IM1H     DC3      DRUD    -2.554000        0.4000           0   0.00000   0.00000
      1933 IM1H     97       IM1H     H5       HDR5D    0.192000        1.0080           0   0.00000   0.00000
      1934 IM1H     97       IM1H     C4       CD2R5E   2.724100       11.6110           0   -1.25300   1.20000
      1935 IM1H     97       IM1H     DC4      DRUD    -2.747100        0.4000           0   0.00000   0.00000
      1936 IM1H     97       IM1H     H6       HDR5E    0.203000        1.0080           0   0.00000   0.00000
      1937 IM1H     97       IM1H     N2       ND2R5C   2.042200       13.6070           0   -0.803000   1.00000
      1938 IM1H     97       IM1H     DN2      DRUD    -2.199200        0.4000           0   0.00000   0.00000
      1939 IM1H     97       IM1H     H7       HDP1A    0.363000        1.0080           0   0.00000   0.00000
      1940 IM1H     97       IM1H     LPN21    LPD      0.000000        0.0000           -1   0.00000   0.00000
      1941 IM1H     98       IM1H     C1       CD33F    2.485000       11.6110           0   -1.18100   1.10000
      1942 IM1H     98       IM1H     DC1      DRUD    -2.667000        0.4000           0   0.00000   0.00000
      1943 IM1H     98       IM1H     H1       HDA3A    0.135000        1.0080           0   0.00000   0.00000
      1944 IM1H     98       IM1H     H2       HDA3A    0.135000        1.0080           0   0.00000   0.00000
      1945 IM1H     98       IM1H     H3       HDA3A    0.135000        1.0080           0   0.00000   0.00000
      1946 IM1H     98       IM1H     N1       ND2R5C   2.357200       13.6070           0   -0.803000   1.00000
      1947 IM1H     98       IM1H     DN1      DRUD    -2.199200        0.4000           0   0.00000   0.00000
      1948 IM1H     98       IM1H     C2       CD2R5D   2.447000       11.6110           0   -1.08300   1.10000
      1949 IM1H     98       IM1H     DC2      DRUD    -2.554000        0.4000           0   0.00000   0.00000
      1950 IM1H     98       IM1H     H4       HDR5D    0.195000        1.0080           0   0.00000   0.00000
      1951 IM1H     98       IM1H     C3       CD2R5D   2.507000       11.6110           0   -1.08300   1.10000
      1952 IM1H     98       IM1H     DC3      DRUD    -2.554000        0.4000           0   0.00000   0.00000
      1953 IM1H     98       IM1H     H5       HDR5D    0.192000        1.0080           0   0.00000   0.00000
      1954 IM1H     98       IM1H     C4       CD2R5E   2.724100       11.6110           0   -1.25300   1.20000
      1955 IM1H     98       IM1H     DC4      DRUD    -2.747100        0.4000           0   0.00000   0.00000
      1956 IM1H     98       IM1H     H6       HDR5E    0.203000        1.0080           0   0.00000   0.00000
      1957 IM1H     98       IM1H     N2       ND2R5C   2.042200       13.6070           0   -0.803000   1.00000
      1958 IM1H     98       IM1H     DN2      DRUD    -2.199200        0.4000           0   0.00000   0.00000
      1959 IM1H     98       IM1H     H7       HDP1A    0.363000        1.0080           0   0.00000   0.00000
      1960 IM1H     98       IM1H     LPN21    LPD      0.000000        0.0000           -1   0.00000   0.00000
      1961 IM1H     99       IM1H     C1       CD33F    2.485000       11.6110           0   -1.18100   1.10000
      1962 IM1H     99       IM1H     DC1      DRUD    -2.667000        0.4000           0   0.00000   0.00000
      1963 IM1H     99       IM1H     H1       HDA3A    0.135000        1.0080           0   0.00000   0.00000
      1964 IM1H     99       IM1H     H2       HDA3A    0.135000        1.0080           0   0.00000   0.00000
      1965 IM1H     99       IM1H     H3       HDA3A    0.135000        1.0080           0   0.00000   0.00000
      1966 IM1H     99       IM1H     N1       ND2R5C   2.357200       13.6070           0   -0.803000   1.00000
      1967 IM1H     99       IM1H     DN1      DRUD    -2.199200        0.4000           0   0.00000   0.00000
      1968 IM1H     99       IM1H     C2       CD2R5D   2.447000       11.6110           0   -1.08300   1.10000
      1969 IM1H     99       IM1H     DC2      DRUD    -2.554000        0.4000           0   0.00000   0.00000
      1970 IM1H     99       IM1H     H4       HDR5D    0.195000        1.0080           0   0.00000   0.00000
      1971 IM1H     99       IM1H     C3       CD2R5D   2.507000       11.6110           0   -1.08300   1.10000
      1972 IM1H     99       IM1H     DC3      DRUD    -2.554000        0.4000           0   0.00000   0.00000
      1973 IM1H     99       IM1H     H5       HDR5D    0.192000        1.0080           0   0.00000   0.00000
      1974 IM1H     99       IM1H     C4       CD2R5E   2.724100       11.6110           0   -1.25300   1.20000
      1975 IM1H     99       IM1H     DC4      DRUD    -2.747100        0.4000           0   0.00000   0.00000
      1976 IM1H     99       IM1H     H6       HDR5E    0.203000        1.0080           0   0.00000   0.00000
      1977 IM1H     99       IM1H     N2       ND2R5C   2.042200       13.6070           0   -0.803000   1.00000
      1978 IM1H     99       IM1H     DN2      DRUD    -2.199200        0.4000           0   0.00000   0.00000
      1979 IM1H     99       IM1H     H7       HDP1A    0.363000        1.0080           0   0.00000   0.00000
      1980 IM1H     99       IM1H     LPN21    LPD      0.000000        0.0000           -1   0.00000   0.00000
      1981 IM1H     100      IM1H     C1       CD33F    2.485000       11.6110           0   -1.18100   1.10000
      1982 IM1H     100      IM1H     DC1      DRUD    -2.667000        0.4000           0   0.00000   0.00000
      1983 IM1H     100      IM1H     H1       HDA3A    0.135000        1.0080           0   0.00000   0.00000
      1984 IM1H     100      IM1H     H2       HDA3A    0.135000        1.0080           0   0.00000   0.00000
      1985 IM1H     100      IM1H     H3       HDA3A    0.135000        1.0080           0   0.00000   0.00000
      1986 IM1H     100      IM1H     N1       ND2R5C   2.357200       13.6070           0   -0.803000   1.00000
      1987 IM1H     100      IM1H     DN1      DRUD    -2.199200        0.4000           0   0.00000   0.00000
      1988 IM1H     100      IM1H     C2       CD2R5D   2.447000       11.6110           0   -1.08300   1.10000
      1989 IM1H     100      IM1H     DC2      DRUD    -2.554000        0.4000           0   0.00000   0.00000
      1990 IM1H     100      IM1H     H4       HDR5D    0.195000        1.0080           0   0.00000   0.00000
      1991 IM1H     100      IM1H     C3       CD2R5D   2.507000       11.6110           0   -1.08300   1.10000
      1992 IM1H     100      IM1H     DC3      DRUD    -2.554000        0.4000           0   0.00000   0.00000
      1993 IM1H     100      IM1H     H5       HDR5D    0.192000        1.0080           0   0.00000   0.00000
      1994 IM1H     100      IM1H     C4       CD2R5E   2.724100       11.6110           0   -1.25300   1.20000
      1995 IM1H     100      IM1H     DC4      DRUD    -2.747100        0.4000           0   0.00000   0.00000
      1996 IM1H     100      IM1H     H6       HDR5E    0.203000        1.0080           0   0.00000   0.00000
      1997 IM1H     100      IM1H     N2       ND2R5C   2.042200       13.6070           0   -0.803000   1.00000
      1998 IM1H     100      IM1H     DN2      DRUD    -2.199200        0.4000           0   0.00000   0.00000
      1999 IM1H     100      IM1H     H7       HDP1A    0.363000        1.0080           0   0.00000   0.00000
      2000 IM1H     100      IM1H     LPN21    LPD      0.000000        0.0000           -1   0.00000   0.00000
      2001 IM1H     101      IM1H     C1       CD33F    2.485000       11.6110           0   -1.18100   1.10000
      2002 IM1H     101      IM1H     DC1      DRUD    -2.667000        0.4000           0   0.00000   0.00000
      2003 IM1H     101      IM1H     H1       HDA3A    0.135000        1.0080           0   0.00000   0.00000
      2004 IM1H     101      IM1H     H2       HDA3A    0.135000        1.0080           0   0.00000   0.00000
      2005 IM1H     101      IM1H     H3       HDA3A    0.135000        1.0080           0   0.00000   0.00000
      2006 IM1H     101      IM1H     N1       ND2R5C   2.357200       13.6070           0   -0.803000   1.00000
      2007 IM1H     101      IM1H     DN1      DRUD    -2.199200        0.4000           0   0.00000   0.00000
      2008 IM1H     101      IM1H     C2       CD2R5D   2.447000       11.6110           0   -1.08300   1.10000
      2009 IM1H     101      IM1H     DC2      DRUD    -2.554000        0.4000           0   0.00000   0.00000
      2010 IM1H     101      IM1H     H4       HDR5D    0.195000        1.0080           0   0.00000   0.00000
      2011 IM1H     101      IM1H     C3       CD2R5D   2.507000       11.6110           0   -1.08300   1.10000
      2012 IM1H     101      IM1H     DC3      DRUD    -2.554000        0.4000           0   0.00000   0.00000
      2013 IM1H     101      IM1H     H5       HDR5D    0.192000        1.0080           0   0.00000   0.00000
      2014 IM1H     101      IM1H     C4       CD2R5E   2.724100       11.6110           0   -1.25300   1.20000
      2015 IM1H     101      IM1H     DC4      DRUD    -2.747100        0.4000           0   0.00000   0.00000
      2016 IM1H     101      IM1H     H6       HDR5E    0.203000        1.0080           0   0.00000   0.00000
      2017 IM1H     101      IM1H     N2       ND2R5C   2.042200       13.6070           0   -0.803000   1.00000
      2018 IM1H     101      IM1H     DN2      DRUD    -2.199200        0.4000           0   0.00000   0.00000
      2019 IM1H     101      IM1H     H7       HDP1A    0.363000        1.0080           0   0.00000   0.00000
      2020 IM1H     101      IM1H     LPN21    LPD      0.000000        0.0000           -1   0.00000   0.00000
      2021 IM1H     102      IM1H     C1       CD33F    2.485000       11.6110           0   -1.18100   1.10000
      2022 IM1H     102      IM1H     DC1      DRUD    -2.667000        0.4000           0   0.00000   0.00000
      2023 IM1H     102      IM1H     H1       HDA3A    0.135000        1.0080           0   0.00000   0.00000
      2024 IM1H     102      IM1H     H2       HDA3A    0.135000        1.0080           0   0.00000   0.00000
      2025 IM1H     102      IM1H     H3       HDA3A    0.135000        1.0080           0   0.00000   0.00000
      2026 IM1H     102      IM1H     N1       ND2R5C   2.357200       13.6070           0   -0.803000   1.00000
      2027 IM1H     102      IM1H     DN1      DRUD    -2.199200        0.4000           0   0.00000   0.00000
      2028 IM1H     102      IM1H     C2       CD2R5D   2.447000       11.6110           0   -1.08300   1.10000
      2029 IM1H     102      IM1H     DC2      DRUD    -2.554000        0.4000           0   0.00000   0.00000
      2030 IM1H     102      IM1H     H4       HDR5D    0.195000        1.0080           0   0.00000   0.00000
      2031 IM1H     102      IM1H     C3       CD2R5D   2.507000       11.6110           0   -1.08300   1.10000
      2032 IM1H     102      IM1H     DC3      DRUD    -2.554000        0.4000           0   0.00000   0.00000
      2033 IM1H     102      IM1H     H5       HDR5D    0.192000        1.0080           0   0.00000   0.00000
      2034 IM1H     102      IM1H     C4       CD2R5E   2.724100       11.6110           0   -1.25300   1.20000
      2035 IM1H     102      IM1H     DC4      DRUD    -2.747100        0.4000           0   0.00000   0.00000
      2036 IM1H     102      IM1H     H6       HDR5E    0.203000        1.0080           0   0.00000   0.00000
      2037 IM1H     102      IM1H     N2       ND2R5C   2.042200       13.6070           0   -0.803000   1.00000
      2038 IM1H     102      IM1H     DN2      DRUD    -2.199200        0.4000           0   0.00000   0.00000
      2039 IM1H     102      IM1H     H7       HDP1A    0.363000        1.0080           0   0.00000   0.00000
      2040 IM1H     102      IM1H     LPN21    LPD      0.000000        0.0000           -1   0.00000   0.00000
      2041 IM1H     103      IM1H     C1       CD33F    2.485000       11.6110           0   -1.18100   1.10000
      2042 IM1H     103      IM1H     DC1      DRUD    -2.667000        0.4000           0   0.00000   0.00000
      2043 IM1H     103      IM1H     H1       HDA3A    0.135000        1.0080           0   0.00000   0.00000
      2044 IM1H     103      IM1H     H2       HDA3A    0.135000        1.0080           0   0.00000   0.00000
      2045 IM1H     103      IM1H     H3       HDA3A    0.135000        1.0080           0   0.00000   0.00000
      2046 IM1H     103      IM1H     N1       ND2R5C   2.357200       13.6070           0   -0.803000   1.00000
      2047 IM1H     103      IM1H     DN1      DRUD    -2.199200        0.4000           0   0.00000   0.00000
      2048 IM1H     103      IM1H     C2       CD2R5D   2.447000       11.6110           0   -1.08300   1.10000
      2049 IM1H     103      IM1H     DC2      DRUD    -2.554000        0.4000           0   0.00000   0.00000
      2050 IM1H     103      IM1H     H4       HDR5D    0.195000        1.0080           0   0.00000   0.00000
      2051 IM1H     103      IM1H     C3       CD2R5D   2.507000       11.6110           0   -1.08300   1.10000
      2052 IM1H     103      IM1H     DC3      DRUD    -2.554000        0.4000           0   0.00000   0.00000
      2053 IM1H     103      IM1H     H5       HDR5D    0.192000        1.0080           0   0.00000   0.00000
      2054 IM1H     103      IM1H     C4       CD2R5E   2.724100       11.6110           0   -1.25300   1.20000
      2055 IM1H     103      IM1H     DC4      DRUD    -2.747100        0.4000           0   0.00000   0.00000
      2056 IM1H     103      IM1H     H6       HDR5E    0.203000        1.0080           0   0.00000   0.00000
      2057 IM1H     103      IM1H     N2       ND2R5C   2.042200       13.6070           0   -0.803000   1.00000
      2058 IM1H     103      IM1H     DN2      DRUD    -2.199200        0.4000           0   0.00000   0.00000
      2059 IM1H     103      IM1H     H7       HDP1A    0.363000        1.0080           0   0.00000   0.00000
      2060 IM1H     103      IM1H     LPN21    LPD      0.000000        0.0000           -1   0.00000   0.00000
      2061 IM1H     104      IM1H     C1       CD33F    2.485000       11.6110           0   -1.18100   1.10000
      2062 IM1H     104      IM1H     DC1      DRUD    -2.667000        0.4000           0   0.00000   0.00000
      2063 IM1H     104      IM1H     H1       HDA3A    0.135000        1.0080           0   0.00000   0.00000
      2064 IM1H     104      IM1H     H2       HDA3A    0.135000        1.0080           0   0.00000   0.00000
      2065 IM1H     104      IM1H     H3       HDA3A    0.135000        1.0080           0   0.00000   0.00000
      2066 IM1H     104      IM1H     N1       ND2R5C   2.357200       13.6070           0   -0.803000   1.00000
      2067 IM1H     104      IM1H     DN1      DRUD    -2.199200        0.4000           0   0.00000   0.00000
      2068 IM1H     104      IM1H     C2       CD2R5D   2.447000       11.6110           0   -1.08300   1.10000
      2069 IM1H     104      IM1H     DC2      DRUD    -2.554000        0.4000           0   0.00000   0.00000
      2070 IM1H     104      IM1H     H4       HDR5D    0.195000        1.0080           0   0.00000   0.00000
      2071 IM1H     104      IM1H     C3       CD2R5D   2.507000       11.6110           0   -1.08300   1.10000
      2072 IM1H     104      IM1H     DC3      DRUD    -2.554000        0.4000           0   0.00000   0.00000
      2073 IM1H     104      IM1H     H5       HDR5D    0.192000        1.0080           0   0.00000   0.00000
      2074 IM1H     104      IM1H     C4       CD2R5E   2.724100       11.6110           0   -1.25300   1.20000
      2075 IM1H     104      IM1H     DC4      DRUD    -2.747100        0.4000           0   0.00000   0.00000
      2076 IM1H     104      IM1H     H6       HDR5E    0.203000        1.0080           0   0.00000   0.00000
      2077 IM1H     104      IM1H     N2       ND2R5C   2.042200       13.6070           0   -0.803000   1.00000
      2078 IM1H     104      IM1H     DN2      DRUD    -2.199200        0.4000           0   0.00000   0.00000
      2079 IM1H     104      IM1H     H7       HDP1A    0.363000        1.0080           0   0.00000   0.00000
      2080 IM1H     104      IM1H     LPN21    LPD      0.000000        0.0000           -1   0.00000   0.00000
      2081 IM1H     105      IM1H     C1       CD33F    2.485000       11.6110           0   -1.18100   1.10000
      2082 IM1H     105      IM1H     DC1      DRUD    -2.667000        0.4000           0   0.00000   0.00000
      2083 IM1H     105      IM1H     H1       HDA3A    0.135000        1.0080           0   0.00000   0.00000
      2084 IM1H     105      IM1H     H2       HDA3A    0.135000        1.0080           0   0.00000   0.00000
      2085 IM1H     105      IM1H     H3       HDA3A    0.135000        1.0080           0   0.00000   0.00000
      2086 IM1H     105      IM1H     N1       ND2R5C   2.357200       13.6070           0   -0.803000   1.00000
      2087 IM1H     105      IM1H     DN1      DRUD    -2.199200        0.4000           0   0.00000   0.00000
      2088 IM1H     105      IM1H     C2       CD2R5D   2.447000       11.6110           0   -1.08300   1.10000
      2089 IM1H     105      IM1H     DC2      DRUD    -2.554000        0.4000           0   0.00000   0.00000
      2090 IM1H     105      IM1H     H4       HDR5D    0.195000        1.0080           0   0.00000   0.00000
      2091 IM1H     105      IM1H     C3       CD2R5D   2.507000       11.6110           0   -1.08300   1.10000
      2092 IM1H     105      IM1H     DC3      DRUD    -2.554000        0.4000           0   0.00000   0.00000
      2093 IM1H     105      IM1H     H5       HDR5D    0.192000        1.0080           0   0.00000   0.00000
      2094 IM1H     105      IM1H     C4       CD2R5E   2.724100       11.6110           0   -1.25300   1.20000
      2095 IM1H     105      IM1H     DC4      DRUD    -2.747100        0.4000           0   0.00000   0.00000
      2096 IM1H     105      IM1H     H6       HDR5E    0.203000        1.0080           0   0.00000   0.00000
      2097 IM1H     105      IM1H     N2       ND2R5C   2.042200       13.6070           0   -0.803000   1.00000
      2098 IM1H     105      IM1H     DN2      DRUD    -2.199200        0.4000           0   0.00000   0.00000
      2099 IM1H     105      IM1H     H7       HDP1A    0.363000        1.0080           0   0.00000   0.00000
      2100 IM1H     105      IM1H     LPN21    LPD      0.000000        0.0000           -1   0.00000   0.00000
      2101 IM1H     106      IM1H     C1       CD33F    2.485000       11.6110           0   -1.18100   1.10000
      2102 IM1H     106      IM1H     DC1      DRUD    -2.667000        0.4000           0   0.00000   0.00000
      2103 IM1H     106      IM1H     H1       HDA3A    0.135000        1.0080           0   0.00000   0.00000
      2104 IM1H     106      IM1H     H2       HDA3A    0.135000        1.0080           0   0.00000   0.00000
      2105 IM1H     106      IM1H     H3       HDA3A    0.135000        1.0080           0   0.00000   0.00000
      2106 IM1H     106      IM1H     N1       ND2R5C   2.357200       13.6070           0   -0.803000   1.00000
      2107 IM1H     106      IM1H     DN1      DRUD    -2.199200        0.4000           0   0.00000   0.00000
      2108 IM1H     106      IM1H     C2       CD2R5D   2.447000       11.6110           0   -1.08300   1.10000
      2109 IM1H     106      IM1H     DC2      DRUD    -2.554000        0.4000           0   0.00000   0.00000
      2110 IM1H     106      IM1H     H4       HDR5D    0.195000        1.0080           0   0.00000   0.00000
      2111 IM1H     106      IM1H     C3       CD2R5D   2.507000       11.6110           0   -1.08300   1.10000
      2112 IM1H     106      IM1H     DC3      DRUD    -2.554000        0.4000           0   0.00000   0.00000
      2113 IM1H     106      IM1H     H5       HDR5D    0.192000        1.0080           0   0.00000   0.00000
      2114 IM1H     106      IM1H     C4       CD2R5E   2.724100       11.6110           0   -1.25300   1.20000
      2115 IM1H     106      IM1H     DC4      DRUD    -2.747100        0.4000           0   0.00000   0.00000
      2116 IM1H     106      IM1H     H6       HDR5E    0.203000        1.0080           0   0.00000   0.00000
      2117 IM1H     106      IM1H     N2       ND2R5C   2.042200       13.6070           0   -0.803000   1.00000
      2118 IM1H     106      IM1H     DN2      DRUD    -2.199200        0.4000           0   0.00000   0.00000
      2119 IM1H     106      IM1H     H7       HDP1A    0.363000        1.0080           0   0.00000   0.00000
      2120 IM1H     106      IM1H     LPN21    LPD      0.000000        0.0000           -1   0.00000   0.00000
      2121 IM1H     107      IM1H     C1       CD33F    2.485000       11.6110           0   -1.18100   1.10000
      2122 IM1H     107      IM1H     DC1      DRUD    -2.667000        0.4000           0   0.00000   0.00000
      2123 IM1H     107      IM1H     H1       HDA3A    0.135000        1.0080           0   0.00000   0.00000
      2124 IM1H     107      IM1H     H2       HDA3A    0.135000        1.0080           0   0.00000   0.00000
      2125 IM1H     107      IM1H     H3       HDA3A    0.135000        1.0080           0   0.00000   0.00000
      2126 IM1H     107      IM1H     N1       ND2R5C   2.357200       13.6070           0   -0.803000   1.00000
      2127 IM1H     107      IM1H     DN1      DRUD    -2.199200        0.4000           0   0.00000   0.00000
      2128 IM1H     107      IM1H     C2       CD2R5D   2.447000       11.6110           0   -1.08300   1.10000
      2129 IM1H     107      IM1H     DC2      DRUD    -2.554000        0.4000           0   0.00000   0.00000
      2130 IM1H     107      IM1H     H4       HDR5D    0.195000        1.0080           0   0.00000   0.00000
      2131 IM1H     107      IM1H     C3       CD2R5D   2.507000       11.6110           0   -1.08300   1.10000
      2132 IM1H     107      IM1H     DC3      DRUD    -2.554000        0.4000           0   0.00000   0.00000
      2133 IM1H     107      IM1H     H5       HDR5D    0.192000        1.0080           0   0.00000   0.00000
      2134 IM1H     107      IM1H     C4       CD2R5E   2.724100       11.6110           0   -1.25300   1.20000
      2135 IM1H     107      IM1H     DC4      DRUD    -2.747100        0.4000           0   0.00000   0.00000
      2136 IM1H     107      IM1H     H6       HDR5E    0.203000        1.0080           0   0.00000   0.00000
      2137 IM1H     107      IM1H     N2       ND2R5C   2.042200       13.6070           0   -0.803000   1.00000
      2138 IM1H     107      IM1H     DN2      DRUD    -2.199200        0.4000           0   0.00000   0.00000
      2139 IM1H     107      IM1H     H7       HDP1A    0.363000        1.0080           0   0.00000   0.00000
      2140 IM1H     107      IM1H     LPN21    LPD      0.000000        0.0000           -1   0.00000   0.00000
      2141 IM1H     108      IM1H     C1       CD33F    2.485000       11.6110           0   -1.18100   1.10000
      2142 IM1H     108      IM1H     DC1      DRUD    -2.667000        0.4000           0   0.00000   0.00000
      2143 IM1H     108      IM1H     H1       HDA3A    0.135000        1.0080           0   0.00000   0.00000
      2144 IM1H     108      IM1H     H2       HDA3A    0.135000        1.0080           0   0.00000   0.00000
      2145 IM1H     108      IM1H     H3       HDA3A    0.135000        1.0080           0   0.00000   0.00000
      2146 IM1H     108      IM1H     N1       ND2R5C   2.357200       13.6070           0   -0.803000   1.00000
      2147 IM1H     108      IM1H     DN1      DRUD    -2.199200        0.4000           0   0.00000   0.00000
      2148 IM1H     108      IM1H     C2       CD2R5D   2.447000       11.6110           0   -1.08300   1.10000
      2149 IM1H     108      IM1H     DC2      DRUD    -2.554000        0.4000           0   0.00000   0.00000
      2150 IM1H     108      IM1H     H4       HDR5D    0.195000        1.0080           0   0.00000   0.00000
      2151 IM1H     108      IM1H     C3       CD2R5D   2.507000       11.6110           0   -1.08300   1.10000
      2152 IM1H     108      IM1H     DC3      DRUD    -2.554000        0.4000           0   0.00000   0.00000
      2153 IM1H     108      IM1H     H5       HDR5D    0.192000        1.0080           0   0.00000   0.00000
      2154 IM1H     108      IM1H     C4       CD2R5E   2.724100       11.6110           0   -1.25300   1.20000
      2155 IM1H     108      IM1H     DC4      DRUD    -2.747100        0.4000           0   0.00000   0.00000
      2156 IM1H     108      IM1H     H6       HDR5E    0.203000        1.0080           0   0.00000   0.00000
      2157 IM1H     108      IM1H     N2       ND2R5C   2.042200       13.6070           0   -0.803000   1.00000
      2158 IM1H     108      IM1H     DN2      DRUD    -2.199200        0.4000           0   0.00000   0.00000
      2159 IM1H     108      IM1H     H7       HDP1A    0.363000        1.0080           0   0.00000   0.00000
      2160 IM1H     108      IM1H     LPN21    LPD      0.000000        0.0000           -1   0.00000   0.00000
      2161 IM1H     109      IM1H     C1       CD33F    2.485000       11.6110           0   -1.18100   1.10000
      2162 IM1H     109      IM1H     DC1      DRUD    -2.667000        0.4000           0   0.00000   0.00000
      2163 IM1H     109      IM1H     H1       HDA3A    0.135000        1.0080           0   0.00000   0.00000
      2164 IM1H     109      IM1H     H2       HDA3A    0.135000        1.0080           0   0.00000   0.00000
      2165 IM1H     109      IM1H     H3       HDA3A    0.135000        1.0080           0   0.00000   0.00000
      2166 IM1H     109      IM1H     N1       ND2R5C   2.357200       13.6070           0   -0.803000   1.00000
      2167 IM1H     109      IM1H     DN1      DRUD    -2.199200        0.4000           0   0.00000   0.00000
      2168 IM1H     109      IM1H     C2       CD2R5D   2.447000       11.6110           0   -1.08300   1.10000
      2169 IM1H     109      IM1H     DC2      DRUD    -2.554000        0.4000           0   0.00000   0.00000
      2170 IM1H     109      IM1H     H4       HDR5D    0.195000        1.0080           0   0.00000   0.00000
      2171 IM1H     109      IM1H     C3       CD2R5D   2.507000       11.6110           0   -1.08300   1.10000
      2172 IM1H     109      IM1H     DC3      DRUD    -2.554000        0.4000           0   0.00000   0.00000
      2173 IM1H     109      IM1H     H5       HDR5D    0.192000        1.0080           0   0.00000   0.00000
      2174 IM1H     109      IM1H     C4       CD2R5E   2.724100       11.6110           0   -1.25300   1.20000
      2175 IM1H     109      IM1H     DC4      DRUD    -2.747100        0.4000           0   0.00000   0.00000
      2176 IM1H     109      IM1H     H6       HDR5E    0.203000        1.0080           0   0.00000   0.00000
      2177 IM1H     109      IM1H     N2       ND2R5C   2.042200       13.6070           0   -0.803000   1.00000
      2178 IM1H     109      IM1H     DN2      DRUD    -2.199200        0.4000           0   0.00000   0.00000
      2179 IM1H     109      IM1H     H7       HDP1A    0.363000        1.0080           0   0.00000   0.00000
      2180 IM1H     109      IM1H     LPN21    LPD      0.000000        0.0000           -1   0.00000   0.00000
      2181 IM1H     110      IM1H     C1       CD33F    2.485000       11.6110           0   -1.18100   1.10000
      2182 IM1H     110      IM1H     DC1      DRUD    -2.667000        0.4000           0   0.00000   0.00000
      2183 IM1H     110      IM1H     H1       HDA3A    0.135000        1.0080           0   0.00000   0.00000
      2184 IM1H     110      IM1H     H2       HDA3A    0.135000        1.0080           0   0.00000   0.00000
      2185 IM1H     110      IM1H     H3       HDA3A    0.135000        1.0080           0   0.00000   0.00000
      2186 IM1H     110      IM1H     N1       ND2R5C   2.357200       13.6070           0   -0.803000   1.00000
      2187 IM1H     110      IM1H     DN1      DRUD    -2.199200        0.4000           0   0.00000   0.00000
      2188 IM1H     110      IM1H     C2       CD2R5D   2.447000       11.6110           0   -1.08300   1.10000
      2189 IM1H     110      IM1H     DC2      DRUD    -2.554000        0.4000           0   0.00000   0.00000
      2190 IM1H     110      IM1H     H4       HDR5D    0.195000        1.0080           0   0.00000   0.00000
      2191 IM1H     110      IM1H     C3       CD2R5D   2.507000       11.6110           0   -1.08300   1.10000
      2192 IM1H     110      IM1H     DC3      DRUD    -2.554000        0.4000           0   0.00000   0.00000
      2193 IM1H     110      IM1H     H5       HDR5D    0.192000        1.0080           0   0.00000   0.00000
      2194 IM1H     110      IM1H     C4       CD2R5E   2.724100       11.6110           0   -1.25300   1.20000
      2195 IM1H     110      IM1H     DC4      DRUD    -2.747100        0.4000           0   0.00000   0.00000
      2196 IM1H     110      IM1H     H6       HDR5E    0.203000        1.0080           0   0.00000   0.00000
      2197 IM1H     110      IM1H     N2       ND2R5C   2.042200       13.6070           0   -0.803000   1.00000
      2198 IM1H     110      IM1H     DN2      DRUD    -2.199200        0.4000           0   0.00000   0.00000
      2199 IM1H     110      IM1H     H7       HDP1A    0.363000        1.0080           0   0.00000   0.00000
      2200 IM1H     110      IM1H     LPN21    LPD      0.000000        0.0000           -1   0.00000   0.00000
      2201 IM1H     111      IM1H     C1       CD33F    2.485000       11.6110           0   -1.18100   1.10000
      2202 IM1H     111      IM1H     DC1      DRUD    -2.667000        0.4000           0   0.00000   0.00000
      2203 IM1H     111      IM1H     H1       HDA3A    0.135000        1.0080           0   0.00000   0.00000
      2204 IM1H     111      IM1H     H2       HDA3A    0.135000        1.0080           0   0.00000   0.00000
      2205 IM1H     111      IM1H     H3       HDA3A    0.135000        1.0080           0   0.00000   0.00000
      2206 IM1H     111      IM1H     N1       ND2R5C   2.357200       13.6070           0   -0.803000   1.00000
      2207 IM1H     111      IM1H     DN1      DRUD    -2.199200        0.4000           0   0.00000   0.00000
      2208 IM1H     111      IM1H     C2       CD2R5D   2.447000       11.6110           0   -1.08300   1.10000
      2209 IM1H     111      IM1H     DC2      DRUD    -2.554000        0.4000           0   0.00000   0.00000
      2210 IM1H     111      IM1H     H4       HDR5D    0.195000        1.0080           0   0.00000   0.00000
      2211 IM1H     111      IM1H     C3       CD2R5D   2.507000       11.6110           0   -1.08300   1.10000
      2212 IM1H     111      IM1H     DC3      DRUD    -2.554000        0.4000           0   0.00000   0.00000
      2213 IM1H     111      IM1H     H5       HDR5D    0.192000        1.0080           0   0.00000   0.00000
      2214 IM1H     111      IM1H     C4       CD2R5E   2.724100       11.6110           0   -1.25300   1.20000
      2215 IM1H     111      IM1H     DC4      DRUD    -2.747100        0.4000           0   0.00000   0.00000
      2216 IM1H     111      IM1H     H6       HDR5E    0.203000        1.0080           0   0.00000   0.00000
      2217 IM1H     111      IM1H     N2       ND2R5C   2.042200       13.6070           0   -0.803000   1.00000
      2218 IM1H     111      IM1H     DN2      DRUD    -2.199200        0.4000           0   0.00000   0.00000
      2219 IM1H     111      IM1H     H7       HDP1A    0.363000        1.0080           0   0.00000   0.00000
      2220 IM1H     111      IM1H     LPN21    LPD      0.000000        0.0000           -1   0.00000   0.00000
      2221 IM1H     112      IM1H     C1       CD33F    2.485000       11.6110           0   -1.18100   1.10000
      2222 IM1H     112      IM1H     DC1      DRUD    -2.667000        0.4000           0   0.00000   0.00000
      2223 IM1H     112      IM1H     H1       HDA3A    0.135000        1.0080           0   0.00000   0.00000
      2224 IM1H     112      IM1H     H2       HDA3A    0.135000        1.0080           0   0.00000   0.00000
      2225 IM1H     112      IM1H     H3       HDA3A    0.135000        1.0080           0   0.00000   0.00000
      2226 IM1H     112      IM1H     N1       ND2R5C   2.357200       13.6070           0   -0.803000   1.00000
      2227 IM1H     112      IM1H     DN1      DRUD    -2.199200        0.4000           0   0.00000   0.00000
      2228 IM1H     112      IM1H     C2       CD2R5D   2.447000       11.6110           0   -1.08300   1.10000
      2229 IM1H     112      IM1H     DC2      DRUD    -2.554000        0.4000           0   0.00000   0.00000
      2230 IM1H     112      IM1H     H4       HDR5D    0.195000        1.0080           0   0.00000   0.00000
      2231 IM1H     112      IM1H     C3       CD2R5D   2.507000       11.6110           0   -1.08300   1.10000
      2232 IM1H     112      IM1H     DC3      DRUD    -2.554000        0.4000           0   0.00000   0.00000
      2233 IM1H     112      IM1H     H5       HDR5D    0.192000        1.0080           0   0.00000   0.00000
      2234 IM1H     112      IM1H     C4       CD2R5E   2.724100       11.6110           0   -1.25300   1.20000
      2235 IM1H     112      IM1H     DC4      DRUD    -2.747100        0.4000           0   0.00000   0.00000
      2236 IM1H     112      IM1H     H6       HDR5E    0.203000        1.0080           0   0.00000   0.00000
      2237 IM1H     112      IM1H     N2       ND2R5C   2.042200       13.6070           0   -0.803000   1.00000
      2238 IM1H     112      IM1H     DN2      DRUD    -2.199200        0.4000           0   0.00000   0.00000
      2239 IM1H     112      IM1H     H7       HDP1A    0.363000        1.0080           0   0.00000   0.00000
      2240 IM1H     112      IM1H     LPN21    LPD      0.000000        0.0000           -1   0.00000   0.00000
      2241 IM1H     113      IM1H     C1       CD33F    2.485000       11.6110           0   -1.18100   1.10000
      2242 IM1H     113      IM1H     DC1      DRUD    -2.667000        0.4000           0   0.00000   0.00000
      2243 IM1H     113      IM1H     H1       HDA3A    0.135000        1.0080           0   0.00000   0.00000
      2244 IM1H     113      IM1H     H2       HDA3A    0.135000        1.0080           0   0.00000   0.00000
      2245 IM1H     113      IM1H     H3       HDA3A    0.135000        1.0080           0   0.00000   0.00000
      2246 IM1H     113      IM1H     N1       ND2R5C   2.357200       13.6070           0   -0.803000   1.00000
      2247 IM1H     113      IM1H     DN1      DRUD    -2.199200        0.4000           0   0.00000   0.00000
      2248 IM1H     113      IM1H     C2       CD2R5D   2.447000       11.6110           0   -1.08300   1.10000
      2249 IM1H     113      IM1H     DC2      DRUD    -2.554000        0.4000           0   0.00000   0.00000
      2250 IM1H     113      IM1H     H4       HDR5D    0.195000        1.0080           0   0.00000   0.00000
      2251 IM1H     113      IM1H     C3       CD2R5D   2.507000       11.6110           0   -1.08300   1.10000
      2252 IM1H     113      IM1H     DC3      DRUD    -2.554000        0.4000           0   0.00000   0.00000
      2253 IM1H     113      IM1H     H5       HDR5D    0.192000        1.0080           0   0.00000   0.00000
      2254 IM1H     113      IM1H     C4       CD2R5E   2.724100       11.6110           0   -1.25300   1.20000
      2255 IM1H     113      IM1H     DC4      DRUD    -2.747100        0.4000           0   0.00000   0.00000
      2256 IM1H     113      IM1H     H6       HDR5E    0.203000        1.0080           0   0.00000   0.00000
      2257 IM1H     113      IM1H     N2       ND2R5C   2.042200       13.6070           0   -0.803000   1.00000
      2258 IM1H     113      IM1H     DN2      DRUD    -2.199200        0.4000           0   0.00000   0.00000
      2259 IM1H     113      IM1H     H7       HDP1A    0.363000        1.0080           0   0.00000   0.00000
      2260 IM1H     113      IM1H     LPN21    LPD      0.000000        0.0000           -1   0.00000   0.00000
      2261 IM1H     114      IM1H     C1       CD33F    2.485000       11.6110           0   -1.18100   1.10000
      2262 IM1H     114      IM1H     DC1      DRUD    -2.667000        0.4000           0   0.00000   0.00000
      2263 IM1H     114      IM1H     H1       HDA3A    0.135000        1.0080           0   0.00000   0.00000
      2264 IM1H     114      IM1H     H2       HDA3A    0.135000        1.0080           0   0.00000   0.00000
      2265 IM1H     114      IM1H     H3       HDA3A    0.135000        1.0080           0   0.00000   0.00000
      2266 IM1H     114      IM1H     N1       ND2R5C   2.357200       13.6070           0   -0.803000   1.00000
      2267 IM1H     114      IM1H     DN1      DRUD    -2.199200        0.4000           0   0.00000   0.00000
      2268 IM1H     114      IM1H     C2       CD2R5D   2.447000       11.6110           0   -1.08300   1.10000
      2269 IM1H     114      IM1H     DC2      DRUD    -2.554000        0.4000           0   0.00000   0.00000
      2270 IM1H     114      IM1H     H4       HDR5D    0.195000        1.0080           0   0.00000   0.00000
      2271 IM1H     114      IM1H     C3       CD2R5D   2.507000       11.6110           0   -1.08300   1.10000
      2272 IM1H     114      IM1H     DC3      DRUD    -2.554000        0.4000           0   0.00000   0.00000
      2273 IM1H     114      IM1H     H5       HDR5D    0.192000        1.0080           0   0.00000   0.00000
      2274 IM1H     114      IM1H     C4       CD2R5E   2.724100       11.6110           0   -1.25300   1.20000
      2275 IM1H     114      IM1H     DC4      DRUD    -2.747100        0.4000           0   0.00000   0.00000
      2276 IM1H     114      IM1H     H6       HDR5E    0.203000        1.0080           0   0.00000   0.00000
      2277 IM1H     114      IM1H     N2       ND2R5C   2.042200       13.6070           0   -0.803000   1.00000
      2278 IM1H     114      IM1H     DN2      DRUD    -2.199200        0.4000           0   0.00000   0.00000
      2279 IM1H     114      IM1H     H7       HDP1A    0.363000        1.0080           0   0.00000   0.00000
      2280 IM1H     114      IM1H     LPN21    LPD      0.000000        0.0000           -1   0.00000   0.00000
      2281 IM1H     115      IM1H     C1       CD33F    2.485000       11.6110           0   -1.18100   1.10000
      2282 IM1H     115      IM1H     DC1      DRUD    -2.667000        0.4000           0   0.00000   0.00000
      2283 IM1H     115      IM1H     H1       HDA3A    0.135000        1.0080           0   0.00000   0.00000
      2284 IM1H     115      IM1H     H2       HDA3A    0.135000        1.0080           0   0.00000   0.00000
      2285 IM1H     115      IM1H     H3       HDA3A    0.135000        1.0080           0   0.00000   0.00000
      2286 IM1H     115      IM1H     N1       ND2R5C   2.357200       13.6070           0   -0.803000   1.00000
      2287 IM1H     115      IM1H     DN1      DRUD    -2.199200        0.4000           0   0.00000   0.00000
      2288 IM1H     115      IM1H     C2       CD2R5D   2.447000       11.6110           0   -1.08300   1.10000
      2289 IM1H     115      IM1H     DC2      DRUD    -2.554000        0.4000           0   0.00000   0.00000
      2290 IM1H     115      IM1H     H4       HDR5D    0.195000        1.0080           0   0.00000   0.00000
      2291 IM1H     115      IM1H     C3       CD2R5D   2.507000       11.6110           0   -1.08300   1.10000
      2292 IM1H     115      IM1H     DC3      DRUD    -2.554000        0.4000           0   0.00000   0.00000
      2293 IM1H     115      IM1H     H5       HDR5D    0.192000        1.0080           0   0.00000   0.00000
      2294 IM1H     115      IM1H     C4       CD2R5E   2.724100       11.6110           0   -1.25300   1.20000
      2295 IM1H     115      IM1H     DC4      DRUD    -2.747100        0.4000           0   0.00000   0.00000
      2296 IM1H     115      IM1H     H6       HDR5E    0.203000        1.0080           0   0.00000   0.00000
      2297 IM1H     115      IM1H     N2       ND2R5C   2.042200       13.6070           0   -0.803000   1.00000
      2298 IM1H     115      IM1H     DN2      DRUD    -2.199200        0.4000           0   0.00000   0.00000
      2299 IM1H     115      IM1H     H7       HDP1A    0.363000        1.0080           0   0.00000   0.00000
      2300 IM1H     115      IM1H     LPN21    LPD      0.000000        0.0000           -1   0.00000   0.00000
      2301 IM1H     116      IM1H     C1       CD33F    2.485000       11.6110           0   -1.18100   1.10000
      2302 IM1H     116      IM1H     DC1      DRUD    -2.667000        0.4000           0   0.00000   0.00000
      2303 IM1H     116      IM1H     H1       HDA3A    0.135000        1.0080           0   0.00000   0.00000
      2304 IM1H     116      IM1H     H2       HDA3A    0.135000        1.0080           0   0.00000   0.00000
      2305 IM1H     116      IM1H     H3       HDA3A    0.135000        1.0080           0   0.00000   0.00000
      2306 IM1H     116      IM1H     N1       ND2R5C   2.357200       13.6070           0   -0.803000   1.00000
      2307 IM1H     116      IM1H     DN1      DRUD    -2.199200        0.4000           0   0.00000   0.00000
      2308 IM1H     116      IM1H     C2       CD2R5D   2.447000       11.6110           0   -1.08300   1.10000
      2309 IM1H     116      IM1H     DC2      DRUD    -2.554000        0.4000           0   0.00000   0.00000
      2310 IM1H     116      IM1H     H4       HDR5D    0.195000        1.0080           0   0.00000   0.00000
      2311 IM1H     116      IM1H     C3       CD2R5D   2.507000       11.6110           0   -1.08300   1.10000
      2312 IM1H     116      IM1H     DC3      DRUD    -2.554000        0.4000           0   0.00000   0.00000
      2313 IM1H     116      IM1H     H5       HDR5D    0.192000        1.0080           0   0.00000   0.00000
      2314 IM1H     116      IM1H     C4       CD2R5E   2.724100       11.6110           0   -1.25300   1.20000
      2315 IM1H     116      IM1H     DC4      DRUD    -2.747100        0.4000           0   0.00000   0.00000
      2316 IM1H     116      IM1H     H6       HDR5E    0.203000        1.0080           0   0.00000   0.00000
      2317 IM1H     116      IM1H     N2       ND2R5C   2.042200       13.6070           0   -0.803000   1.00000
      2318 IM1H     116      IM1H     DN2      DRUD    -2.199200        0.4000           0   0.00000   0.00000
      2319 IM1H     116      IM1H     H7       HDP1A    0.363000        1.0080           0   0.00000   0.00000
      2320 IM1H     116      IM1H     LPN21    LPD      0.000000        0.0000           -1   0.00000   0.00000
      2321 IM1H     117      IM1H     C1       CD33F    2.485000       11.6110           0   -1.18100   1.10000
      2322 IM1H     117      IM1H     DC1      DRUD    -2.667000        0.4000           0   0.00000   0.00000
      2323 IM1H     117      IM1H     H1       HDA3A    0.135000        1.0080           0   0.00000   0.00000
      2324 IM1H     117      IM1H     H2       HDA3A    0.135000        1.0080           0   0.00000   0.00000
      2325 IM1H     117      IM1H     H3       HDA3A    0.135000        1.0080           0   0.00000   0.00000
      2326 IM1H     117      IM1H     N1       ND2R5C   2.357200       13.6070           0   -0.803000   1.00000
      2327 IM1H     117      IM1H     DN1      DRUD    -2.199200        0.4000           0   0.00000   0.00000
      2328 IM1H     117      IM1H     C2       CD2R5D   2.447000       11.6110           0   -1.08300   1.10000
      2329 IM1H     117      IM1H     DC2      DRUD    -2.554000        0.4000           0   0.00000   0.00000
      2330 IM1H     117      IM1H     H4       HDR5D    0.195000        1.0080           0   0.00000   0.00000
      2331 IM1H     117      IM1H     C3       CD2R5D   2.507000       11.6110           0   -1.08300   1.10000
      2332 IM1H     117      IM1H     DC3      DRUD    -2.554000        0.4000           0   0.00000   0.00000
      2333 IM1H     117      IM1H     H5       HDR5D    0.192000        1.0080           0   0.00000   0.00000
      2334 IM1H     117      IM1H     C4       CD2R5E   2.724100       11.6110           0   -1.25300   1.20000
      2335 IM1H     117      IM1H     DC4      DRUD    -2.747100        0.4000           0   0.00000   0.00000
      2336 IM1H     117      IM1H     H6       HDR5E    0.203000        1.0080           0   0.00000   0.00000
      2337 IM1H     117      IM1H     N2       ND2R5C   2.042200       13.6070           0   -0.803000   1.00000
      2338 IM1H     117      IM1H     DN2      DRUD    -2.199200        0.4000           0   0.00000   0.00000
      2339 IM1H     117      IM1H     H7       HDP1A    0.363000        1.0080           0   0.00000   0.00000
      2340 IM1H     117      IM1H     LPN21    LPD      0.000000        0.0000           -1   0.00000   0.00000
      2341 IM1H     118      IM1H     C1       CD33F    2.485000       11.6110           0   -1.18100   1.10000
      2342 IM1H     118      IM1H     DC1      DRUD    -2.667000        0.4000           0   0.00000   0.00000
      2343 IM1H     118      IM1H     H1       HDA3A    0.135000        1.0080           0   0.00000   0.00000
      2344 IM1H     118      IM1H     H2       HDA3A    0.135000        1.0080           0   0.00000   0.00000
      2345 IM1H     118      IM1H     H3       HDA3A    0.135000        1.0080           0   0.00000   0.00000
      2346 IM1H     118      IM1H     N1       ND2R5C   2.357200       13.6070           0   -0.803000   1.00000
      2347 IM1H     118      IM1H     DN1      DRUD    -2.199200        0.4000           0   0.00000   0.00000
      2348 IM1H     118      IM1H     C2       CD2R5D   2.447000       11.6110           0   -1.08300   1.10000
      2349 IM1H     118      IM1H     DC2      DRUD    -2.554000        0.4000           0   0.00000   0.00000
      2350 IM1H     118      IM1H     H4       HDR5D    0.195000        1.0080           0   0.00000   0.00000
      2351 IM1H     118      IM1H     C3       CD2R5D   2.507000       11.6110           0   -1.08300   1.10000
      2352 IM1H     118      IM1H     DC3      DRUD    -2.554000        0.4000           0   0.00000   0.00000
      2353 IM1H     118      IM1H     H5       HDR5D    0.192000        1.0080           0   0.00000   0.00000
      2354 IM1H     118      IM1H     C4       CD2R5E   2.724100       11.6110           0   -1.25300   1.20000
      2355 IM1H     118      IM1H     DC4      DRUD    -2.747100        0.4000           0   0.00000   0.00000
      2356 IM1H     118      IM1H     H6       HDR5E    0.203000        1.0080           0   0.00000   0.00000
      2357 IM1H     118      IM1H     N2       ND2R5C   2.042200       13.6070           0   -0.803000   1.00000
      2358 IM1H     118      IM1H     DN2      DRUD    -2.199200        0.4000           0   0.00000   0.00000
      2359 IM1H     118      IM1H     H7       HDP1A    0.363000        1.0080           0   0.00000   0.00000
      2360 IM1H     118      IM1H     LPN21    LPD      0.000000        0.0000           -1   0.00000   0.00000
      2361 IM1H     119      IM1H     C1       CD33F    2.485000       11.6110           0   -1.18100   1.10000
      2362 IM1H     119      IM1H     DC1      DRUD    -2.667000        0.4000           0   0.00000   0.00000
      2363 IM1H     119      IM1H     H1       HDA3A    0.135000        1.0080           0   0.00000   0.00000
      2364 IM1H     119      IM1H     H2       HDA3A    0.135000        1.0080           0   0.00000   0.00000
      2365 IM1H     119      IM1H     H3       HDA3A    0.135000        1.0080           0   0.00000   0.00000
      2366 IM1H     119      IM1H     N1       ND2R5C   2.357200       13.6070           0   -0.803000   1.00000
      2367 IM1H     119      IM1H     DN1      DRUD    -2.199200        0.4000           0   0.00000   0.00000
      2368 IM1H     119      IM1H     C2       CD2R5D   2.447000       11.6110           0   -1.08300   1.10000
      2369 IM1H     119      IM1H     DC2      DRUD    -2.554000        0.4000           0   0.00000   0.00000
      2370 IM1H     119      IM1H     H4       HDR5D    0.195000        1.0080           0   0.00000   0.00000
      2371 IM1H     119      IM1H     C3       CD2R5D   2.507000       11.6110           0   -1.08300   1.10000
      2372 IM1H     119      IM1H     DC3      DRUD    -2.554000        0.4000           0   0.00000   0.00000
      2373 IM1H     119      IM1H     H5       HDR5D    0.192000        1.0080           0   0.00000   0.00000
      2374 IM1H     119      IM1H     C4       CD2R5E   2.724100       11.6110           0   -1.25300   1.20000
      2375 IM1H     119      IM1H     DC4      DRUD    -2.747100        0.4000           0   0.00000   0.00000
      2376 IM1H     119      IM1H     H6       HDR5E    0.203000        1.0080           0   0.00000   0.00000
      2377 IM1H     119      IM1H     N2       ND2R5C   2.042200       13.6070           0   -0.803000   1.00000
      2378 IM1H     119      IM1H     DN2      DRUD    -2.199200        0.4000           0   0.00000   0.00000
      2379 IM1H     119      IM1H     H7       HDP1A    0.363000        1.0080           0   0.00000   0.00000
      2380 IM1H     119      IM1H     LPN21    LPD      0.000000        0.0000           -1   0.00000   0.00000
      2381 IM1H     120      IM1H     C1       CD33F    2.485000       11.6110           0   -1.18100   1.10000
      2382 IM1H     120      IM1H     DC1      DRUD    -2.667000        0.4000           0   0.00000   0.00000
      2383 IM1H     120      IM1H     H1       HDA3A    0.135000        1.0080           0   0.00000   0.00000
      2384 IM1H     120      IM1H     H2       HDA3A    0.135000        1.0080           0   0.00000   0.00000
      2385 IM1H     120      IM1H     H3       HDA3A    0.135000        1.0080           0   0.00000   0.00000
      2386 IM1H     120      IM1H     N1       ND2R5C   2.357200       13.6070           0   -0.803000   1.00000
      2387 IM1H     120      IM1H     DN1      DRUD    -2.199200        0.4000           0   0.00000   0.00000
      2388 IM1H     120      IM1H     C2       CD2R5D   2.447000       11.6110           0   -1.08300   1.10000
      2389 IM1H     120      IM1H     DC2      DRUD    -2.554000        0.4000           0   0.00000   0.00000
      2390 IM1H     120      IM1H     H4       HDR5D    0.195000        1.0080           0   0.00000   0.00000
      2391 IM1H     120      IM1H     C3       CD2R5D   2.507000       11.6110           0   -1.08300   1.10000
      2392 IM1H     120      IM1H     DC3      DRUD    -2.554000        0.4000           0   0.00000   0.00000
      2393 IM1H     120      IM1H     H5       HDR5D    0.192000        1.0080           0   0.00000   0.00000
      2394 IM1H     120      IM1H     C4       CD2R5E   2.724100       11.6110           0   -1.25300   1.20000
      2395 IM1H     120      IM1H     DC4      DRUD    -2.747100        0.4000           0   0.00000   0.00000
      2396 IM1H     120      IM1H     H6       HDR5E    0.203000        1.0080           0   0.00000   0.00000
      2397 IM1H     120      IM1H     N2       ND2R5C   2.042200       13.6070           0   -0.803000   1.00000
      2398 IM1H     120      IM1H     DN2      DRUD    -2.199200        0.4000           0   0.00000   0.00000
      2399 IM1H     120      IM1H     H7       HDP1A    0.363000        1.0080           0   0.00000   0.00000
      2400 IM1H     120      IM1H     LPN21    LPD      0.000000        0.0000           -1   0.00000   0.00000
      2401 IM1H     121      IM1H     C1       CD33F    2.485000       11.6110           0   -1.18100   1.10000
      2402 IM1H     121      IM1H     DC1      DRUD    -2.667000        0.4000           0   0.00000   0.00000
      2403 IM1H     121      IM1H     H1       HDA3A    0.135000        1.0080           0   0.00000   0.00000
      2404 IM1H     121      IM1H     H2       HDA3A    0.135000        1.0080           0   0.00000   0.00000
      2405 IM1H     121      IM1H     H3       HDA3A    0.135000        1.0080           0   0.00000   0.00000
      2406 IM1H     121      IM1H     N1       ND2R5C   2.357200       13.6070           0   -0.803000   1.00000
      2407 IM1H     121      IM1H     DN1      DRUD    -2.199200        0.4000           0   0.00000   0.00000
      2408 IM1H     121      IM1H     C2       CD2R5D   2.447000       11.6110           0   -1.08300   1.10000
      2409 IM1H     121      IM1H     DC2      DRUD    -2.554000        0.4000           0   0.00000   0.00000
      2410 IM1H     121      IM1H     H4       HDR5D    0.195000        1.0080           0   0.00000   0.00000
      2411 IM1H     121      IM1H     C3       CD2R5D   2.507000       11.6110           0   -1.08300   1.10000
      2412 IM1H     121      IM1H     DC3      DRUD    -2.554000        0.4000           0   0.00000   0.00000
      2413 IM1H     121      IM1H     H5       HDR5D    0.192000        1.0080           0   0.00000   0.00000
      2414 IM1H     121      IM1H     C4       CD2R5E   2.724100       11.6110           0   -1.25300   1.20000
      2415 IM1H     121      IM1H     DC4      DRUD    -2.747100        0.4000           0   0.00000   0.00000
      2416 IM1H     121      IM1H     H6       HDR5E    0.203000        1.0080           0   0.00000   0.00000
      2417 IM1H     121      IM1H     N2       ND2R5C   2.042200       13.6070           0   -0.803000   1.00000
      2418 IM1H     121      IM1H     DN2      DRUD    -2.199200        0.4000           0   0.00000   0.00000
      2419 IM1H     121      IM1H     H7       HDP1A    0.363000        1.0080           0   0.00000   0.00000
      2420 IM1H     121      IM1H     LPN21    LPD      0.000000        0.0000           -1   0.00000   0.00000
      2421 IM1H     122      IM1H     C1       CD33F    2.485000       11.6110           0   -1.18100   1.10000
      2422 IM1H     122      IM1H     DC1      DRUD    -2.667000        0.4000           0   0.00000   0.00000
      2423 IM1H     122      IM1H     H1       HDA3A    0.135000        1.0080           0   0.00000   0.00000
      2424 IM1H     122      IM1H     H2       HDA3A    0.135000        1.0080           0   0.00000   0.00000
      2425 IM1H     122      IM1H     H3       HDA3A    0.135000        1.0080           0   0.00000   0.00000
      2426 IM1H     122      IM1H     N1       ND2R5C   2.357200       13.6070           0   -0.803000   1.00000
      2427 IM1H     122      IM1H     DN1      DRUD    -2.199200        0.4000           0   0.00000   0.00000
      2428 IM1H     122      IM1H     C2       CD2R5D   2.447000       11.6110           0   -1.08300   1.10000
      2429 IM1H     122      IM1H     DC2      DRUD    -2.554000        0.4000           0   0.00000   0.00000
      2430 IM1H     122      IM1H     H4       HDR5D    0.195000        1.0080           0   0.00000   0.00000
      2431 IM1H     122      IM1H     C3       CD2R5D   2.507000       11.6110           0   -1.08300   1.10000
      2432 IM1H     122      IM1H     DC3      DRUD    -2.554000        0.4000           0   0.00000   0.00000
      2433 IM1H     122      IM1H     H5       HDR5D    0.192000        1.0080           0   0.00000   0.00000
      2434 IM1H     122      IM1H     C4       CD2R5E   2.724100       11.6110           0   -1.25300   1.20000
      2435 IM1H     122      IM1H     DC4      DRUD    -2.747100        0.4000           0   0.00000   0.00000
      2436 IM1H     122      IM1H     H6       HDR5E    0.203000        1.0080           0   0.00000   0.00000
      2437 IM1H     122      IM1H     N2       ND2R5C   2.042200       13.6070           0   -0.803000   1.00000
      2438 IM1H     122      IM1H     DN2      DRUD    -2.199200        0.4000           0   0.00000   0.00000
      2439 IM1H     122      IM1H     H7       HDP1A    0.363000        1.0080           0   0.00000   0.00000
      2440 IM1H     122      IM1H     LPN21    LPD      0.000000        0.0000           -1   0.00000   0.00000
      2441 IM1H     123      IM1H     C1       CD33F    2.485000       11.6110           0   -1.18100   1.10000
      2442 IM1H     123      IM1H     DC1      DRUD    -2.667000        0.4000           0   0.00000   0.00000
      2443 IM1H     123      IM1H     H1       HDA3A    0.135000        1.0080           0   0.00000   0.00000
      2444 IM1H     123      IM1H     H2       HDA3A    0.135000        1.0080           0   0.00000   0.00000
      2445 IM1H     123      IM1H     H3       HDA3A    0.135000        1.0080           0   0.00000   0.00000
      2446 IM1H     123      IM1H     N1       ND2R5C   2.357200       13.6070           0   -0.803000   1.00000
      2447 IM1H     123      IM1H     DN1      DRUD    -2.199200        0.4000           0   0.00000   0.00000
      2448 IM1H     123      IM1H     C2       CD2R5D   2.447000       11.6110           0   -1.08300   1.10000
      2449 IM1H     123      IM1H     DC2      DRUD    -2.554000        0.4000           0   0.00000   0.00000
      2450 IM1H     123      IM1H     H4       HDR5D    0.195000        1.0080           0   0.00000   0.00000
      2451 IM1H     123      IM1H     C3       CD2R5D   2.507000       11.6110           0   -1.08300   1.10000
      2452 IM1H     123      IM1H     DC3      DRUD    -2.554000        0.4000           0   0.00000   0.00000
      2453 IM1H     123      IM1H     H5       HDR5D    0.192000        1.0080           0   0.00000   0.00000
      2454 IM1H     123      IM1H     C4       CD2R5E   2.724100       11.6110           0   -1.25300   1.20000
      2455 IM1H     123      IM1H     DC4      DRUD    -2.747100        0.4000           0   0.00000   0.00000
      2456 IM1H     123      IM1H     H6       HDR5E    0.203000        1.0080           0   0.00000   0.00000
      2457 IM1H     123      IM1H     N2       ND2R5C   2.042200       13.6070           0   -0.803000   1.00000
      2458 IM1H     123      IM1H     DN2      DRUD    -2.199200        0.4000           0   0.00000   0.00000
      2459 IM1H     123      IM1H     H7       HDP1A    0.363000        1.0080           0   0.00000   0.00000
      2460 IM1H     123      IM1H     LPN21    LPD      0.000000        0.0000           -1   0.00000   0.00000
      2461 IM1H     124      IM1H     C1       CD33F    2.485000       11.6110           0   -1.18100   1.10000
      2462 IM1H     124      IM1H     DC1      DRUD    -2.667000        0.4000           0   0.00000   0.00000
      2463 IM1H     124      IM1H     H1       HDA3A    0.135000        1.0080           0   0.00000   0.00000
      2464 IM1H     124      IM1H     H2       HDA3A    0.135000        1.0080           0   0.00000   0.00000
      2465 IM1H     124      IM1H     H3       HDA3A    0.135000        1.0080           0   0.00000   0.00000
      2466 IM1H     124      IM1H     N1       ND2R5C   2.357200       13.6070           0   -0.803000   1.00000
      2467 IM1H     124      IM1H     DN1      DRUD    -2.199200        0.4000           0   0.00000   0.00000
      2468 IM1H     124      IM1H     C2       CD2R5D   2.447000       11.6110           0   -1.08300   1.10000
      2469 IM1H     124      IM1H     DC2      DRUD    -2.554000        0.4000           0   0.00000   0.00000
      2470 IM1H     124      IM1H     H4       HDR5D    0.195000        1.0080           0   0.00000   0.00000
      2471 IM1H     124      IM1H     C3       CD2R5D   2.507000       11.6110           0   -1.08300   1.10000
      2472 IM1H     124      IM1H     DC3      DRUD    -2.554000        0.4000           0   0.00000   0.00000
      2473 IM1H     124      IM1H     H5       HDR5D    0.192000        1.0080           0   0.00000   0.00000
      2474 IM1H     124      IM1H     C4       CD2R5E   2.724100       11.6110           0   -1.25300   1.20000
      2475 IM1H     124      IM1H     DC4      DRUD    -2.747100        0.4000           0   0.00000   0.00000
      2476 IM1H     124      IM1H     H6       HDR5E    0.203000        1.0080           0   0.00000   0.00000
      2477 IM1H     124      IM1H     N2       ND2R5C   2.042200       13.6070           0   -0.803000   1.00000
      2478 IM1H     124      IM1H     DN2      DRUD    -2.199200        0.4000           0   0.00000   0.00000
      2479 IM1H     124      IM1H     H7       HDP1A    0.363000        1.0080           0   0.00000   0.00000
      2480 IM1H     124      IM1H     LPN21    LPD      0.000000        0.0000           -1   0.00000   0.00000
      2481 IM1H     125      IM1H     C1       CD33F    2.485000       11.6110           0   -1.18100   1.10000
      2482 IM1H     125      IM1H     DC1      DRUD    -2.667000        0.4000           0   0.00000   0.00000
      2483 IM1H     125      IM1H     H1       HDA3A    0.135000        1.0080           0   0.00000   0.00000
      2484 IM1H     125      IM1H     H2       HDA3A    0.135000        1.0080           0   0.00000   0.00000
      2485 IM1H     125      IM1H     H3       HDA3A    0.135000        1.0080           0   0.00000   0.00000
      2486 IM1H     125      IM1H     N1       ND2R5C   2.357200       13.6070           0   -0.803000   1.00000
      2487 IM1H     125      IM1H     DN1      DRUD    -2.199200        0.4000           0   0.00000   0.00000
      2488 IM1H     125      IM1H     C2       CD2R5D   2.447000       11.6110           0   -1.08300   1.10000
      2489 IM1H     125      IM1H     DC2      DRUD    -2.554000        0.4000           0   0.00000   0.00000
      2490 IM1H     125      IM1H     H4       HDR5D    0.195000        1.0080           0   0.00000   0.00000
      2491 IM1H     125      IM1H     C3       CD2R5D   2.507000       11.6110           0   -1.08300   1.10000
      2492 IM1H     125      IM1H     DC3      DRUD    -2.554000        0.4000           0   0.00000   0.00000
      2493 IM1H     125      IM1H     H5       HDR5D    0.192000        1.0080           0   0.00000   0.00000
      2494 IM1H     125      IM1H     C4       CD2R5E   2.724100       11.6110           0   -1.25300   1.20000
      2495 IM1H     125      IM1H     DC4      DRUD    -2.747100        0.4000           0   0.00000   0.00000
      2496 IM1H     125      IM1H     H6       HDR5E    0.203000        1.0080           0   0.00000   0.00000
      2497 IM1H     125      IM1H     N2       ND2R5C   2.042200       13.6070           0   -0.803000   1.00000
      2498 IM1H     125      IM1H     DN2      DRUD    -2.199200        0.4000           0   0.00000   0.00000
      2499 IM1H     125      IM1H     H7       HDP1A    0.363000        1.0080           0   0.00000   0.00000
      2500 IM1H     125      IM1H     LPN21    LPD      0.000000        0.0000           -1   0.00000   0.00000
      2501 IM1H     126      IM1H     C1       CD33F    2.485000       11.6110           0   -1.18100   1.10000
      2502 IM1H     126      IM1H     DC1      DRUD    -2.667000        0.4000           0   0.00000   0.00000
      2503 IM1H     126      IM1H     H1       HDA3A    0.135000        1.0080           0   0.00000   0.00000
      2504 IM1H     126      IM1H     H2       HDA3A    0.135000        1.0080           0   0.00000   0.00000
      2505 IM1H     126      IM1H     H3       HDA3A    0.135000        1.0080           0   0.00000   0.00000
      2506 IM1H     126      IM1H     N1       ND2R5C   2.357200       13.6070           0   -0.803000   1.00000
      2507 IM1H     126      IM1H     DN1      DRUD    -2.199200        0.4000           0   0.00000   0.00000
      2508 IM1H     126      IM1H     C2       CD2R5D   2.447000       11.6110           0   -1.08300   1.10000
      2509 IM1H     126      IM1H     DC2      DRUD    -2.554000        0.4000           0   0.00000   0.00000
      2510 IM1H     126      IM1H     H4       HDR5D    0.195000        1.0080           0   0.00000   0.00000
      2511 IM1H     126      IM1H     C3       CD2R5D   2.507000       11.6110           0   -1.08300   1.10000
      2512 IM1H     126      IM1H     DC3      DRUD    -2.554000        0.4000           0   0.00000   0.00000
      2513 IM1H     126      IM1H     H5       HDR5D    0.192000        1.0080           0   0.00000   0.00000
      2514 IM1H     126      IM1H     C4       CD2R5E   2.724100       11.6110           0   -1.25300   1.20000
      2515 IM1H     126      IM1H     DC4      DRUD    -2.747100        0.4000           0   0.00000   0.00000
      2516 IM1H     126      IM1H     H6       HDR5E    0.203000        1.0080           0   0.00000   0.00000
      2517 IM1H     126      IM1H     N2       ND2R5C   2.042200       13.6070           0   -0.803000   1.00000
      2518 IM1H     126      IM1H     DN2      DRUD    -2.199200        0.4000           0   0.00000   0.00000
      2519 IM1H     126      IM1H     H7       HDP1A    0.363000        1.0080           0   0.00000   0.00000
      2520 IM1H     126      IM1H     LPN21    LPD      0.000000        0.0000           -1   0.00000   0.00000
      2521 IM1H     127      IM1H     C1       CD33F    2.485000       11.6110           0   -1.18100   1.10000
      2522 IM1H     127      IM1H     DC1      DRUD    -2.667000        0.4000           0   0.00000   0.00000
      2523 IM1H     127      IM1H     H1       HDA3A    0.135000        1.0080           0   0.00000   0.00000
      2524 IM1H     127      IM1H     H2       HDA3A    0.135000        1.0080           0   0.00000   0.00000
      2525 IM1H     127      IM1H     H3       HDA3A    0.135000        1.0080           0   0.00000   0.00000
      2526 IM1H     127      IM1H     N1       ND2R5C   2.357200       13.6070           0   -0.803000   1.00000
      2527 IM1H     127      IM1H     DN1      DRUD    -2.199200        0.4000           0   0.00000   0.00000
      2528 IM1H     127      IM1H     C2       CD2R5D   2.447000       11.6110           0   -1.08300   1.10000
      2529 IM1H     127      IM1H     DC2      DRUD    -2.554000        0.4000           0   0.00000   0.00000
      2530 IM1H     127      IM1H     H4       HDR5D    0.195000        1.0080           0   0.00000   0.00000
      2531 IM1H     127      IM1H     C3       CD2R5D   2.507000       11.6110           0   -1.08300   1.10000
      2532 IM1H     127      IM1H     DC3      DRUD    -2.554000        0.4000           0   0.00000   0.00000
      2533 IM1H     127      IM1H     H5       HDR5D    0.192000        1.0080           0   0.00000   0.00000
      2534 IM1H     127      IM1H     C4       CD2R5E   2.724100       11.6110           0   -1.25300   1.20000
      2535 IM1H     127      IM1H     DC4      DRUD    -2.747100        0.4000           0   0.00000   0.00000
      2536 IM1H     127      IM1H     H6       HDR5E    0.203000        1.0080           0   0.00000   0.00000
      2537 IM1H     127      IM1H     N2       ND2R5C   2.042200       13.6070           0   -0.803000   1.00000
      2538 IM1H     127      IM1H     DN2      DRUD    -2.199200        0.4000           0   0.00000   0.00000
      2539 IM1H     127      IM1H     H7       HDP1A    0.363000        1.0080           0   0.00000   0.00000
      2540 IM1H     127      IM1H     LPN21    LPD      0.000000        0.0000           -1   0.00000   0.00000
      2541 IM1H     128      IM1H     C1       CD33F    2.485000       11.6110           0   -1.18100   1.10000
      2542 IM1H     128      IM1H     DC1      DRUD    -2.667000        0.4000           0   0.00000   0.00000
      2543 IM1H     128      IM1H     H1       HDA3A    0.135000        1.0080           0   0.00000   0.00000
      2544 IM1H     128      IM1H     H2       HDA3A    0.135000        1.0080           0   0.00000   0.00000
      2545 IM1H     128      IM1H     H3       HDA3A    0.135000        1.0080           0   0.00000   0.00000
      2546 IM1H     128      IM1H     N1       ND2R5C   2.357200       13.6070           0   -0.803000   1.00000
      2547 IM1H     128      IM1H     DN1      DRUD    -2.199200        0.4000           0   0.00000   0.00000
      2548 IM1H     128      IM1H     C2       CD2R5D   2.447000       11.6110           0   -1.08300   1.10000
      2549 IM1H     128      IM1H     DC2      DRUD    -2.554000        0.4000           0   0.00000   0.00000
      2550 IM1H     128      IM1H     H4       HDR5D    0.195000        1.0080           0   0.00000   0.00000
      2551 IM1H     128      IM1H     C3       CD2R5D   2.507000       11.6110           0   -1.08300   1.10000
      2552 IM1H     128      IM1H     DC3      DRUD    -2.554000        0.4000           0   0.00000   0.00000
      2553 IM1H     128      IM1H     H5       HDR5D    0.192000        1.0080           0   0.00000   0.00000
      2554 IM1H     128      IM1H     C4       CD2R5E   2.724100       11.6110           0   -1.25300   1.20000
      2555 IM1H     128      IM1H     DC4      DRUD    -2.747100        0.4000           0   0.00000   0.00000
      2556 IM1H     128      IM1H     H6       HDR5E    0.203000        1.0080           0   0.00000   0.00000
      2557 IM1H     128      IM1H     N2       ND2R5C   2.042200       13.6070           0   -0.803000   1.00000
      2558 IM1H     128      IM1H     DN2      DRUD    -2.199200        0.4000           0   0.00000   0.00000
      2559 IM1H     128      IM1H     H7       HDP1A    0.363000        1.0080           0   0.00000   0.00000
      2560 IM1H     128      IM1H     LPN21    LPD      0.000000        0.0000           -1   0.00000   0.00000
      2561 IM1H     129      IM1H     C1       CD33F    2.485000       11.6110           0   -1.18100   1.10000
      2562 IM1H     129      IM1H     DC1      DRUD    -2.667000        0.4000           0   0.00000   0.00000
      2563 IM1H     129      IM1H     H1       HDA3A    0.135000        1.0080           0   0.00000   0.00000
      2564 IM1H     129      IM1H     H2       HDA3A    0.135000        1.0080           0   0.00000   0.00000
      2565 IM1H     129      IM1H     H3       HDA3A    0.135000        1.0080           0   0.00000   0.00000
      2566 IM1H     129      IM1H     N1       ND2R5C   2.357200       13.6070           0   -0.803000   1.00000
      2567 IM1H     129      IM1H     DN1      DRUD    -2.199200        0.4000           0   0.00000   0.00000
      2568 IM1H     129      IM1H     C2       CD2R5D   2.447000       11.6110           0   -1.08300   1.10000
      2569 IM1H     129      IM1H     DC2      DRUD    -2.554000        0.4000           0   0.00000   0.00000
      2570 IM1H     129      IM1H     H4       HDR5D    0.195000        1.0080           0   0.00000   0.00000
      2571 IM1H     129      IM1H     C3       CD2R5D   2.507000       11.6110           0   -1.08300   1.10000
      2572 IM1H     129      IM1H     DC3      DRUD    -2.554000        0.4000           0   0.00000   0.00000
      2573 IM1H     129      IM1H     H5       HDR5D    0.192000        1.0080           0   0.00000   0.00000
      2574 IM1H     129      IM1H     C4       CD2R5E   2.724100       11.6110           0   -1.25300   1.20000
      2575 IM1H     129      IM1H     DC4      DRUD    -2.747100        0.4000           0   0.00000   0.00000
      2576 IM1H     129      IM1H     H6       HDR5E    0.203000        1.0080           0   0.00000   0.00000
      2577 IM1H     129      IM1H     N2       ND2R5C   2.042200       13.6070           0   -0.803000   1.00000
      2578 IM1H     129      IM1H     DN2      DRUD    -2.199200        0.4000           0   0.00000   0.00000
      2579 IM1H     129      IM1H     H7       HDP1A    0.363000        1.0080           0   0.00000   0.00000
      2580 IM1H     129      IM1H     LPN21    LPD      0.000000        0.0000           -1   0.00000   0.00000
      2581 IM1H     130      IM1H     C1       CD33F    2.485000       11.6110           0   -1.18100   1.10000
      2582 IM1H     130      IM1H     DC1      DRUD    -2.667000        0.4000           0   0.00000   0.00000
      2583 IM1H     130      IM1H     H1       HDA3A    0.135000        1.0080           0   0.00000   0.00000
      2584 IM1H     130      IM1H     H2       HDA3A    0.135000        1.0080           0   0.00000   0.00000
      2585 IM1H     130      IM1H     H3       HDA3A    0.135000        1.0080           0   0.00000   0.00000
      2586 IM1H     130      IM1H     N1       ND2R5C   2.357200       13.6070           0   -0.803000   1.00000
      2587 IM1H     130      IM1H     DN1      DRUD    -2.199200        0.4000           0   0.00000   0.00000
      2588 IM1H     130      IM1H     C2       CD2R5D   2.447000       11.6110           0   -1.08300   1.10000
      2589 IM1H     130      IM1H     DC2      DRUD    -2.554000        0.4000           0   0.00000   0.00000
      2590 IM1H     130      IM1H     H4       HDR5D    0.195000        1.0080           0   0.00000   0.00000
      2591 IM1H     130      IM1H     C3       CD2R5D   2.507000       11.6110           0   -1.08300   1.10000
      2592 IM1H     130      IM1H     DC3      DRUD    -2.554000        0.4000           0   0.00000   0.00000
      2593 IM1H     130      IM1H     H5       HDR5D    0.192000        1.0080           0   0.00000   0.00000
      2594 IM1H     130      IM1H     C4       CD2R5E   2.724100       11.6110           0   -1.25300   1.20000
      2595 IM1H     130      IM1H     DC4      DRUD    -2.747100        0.4000           0   0.00000   0.00000
      2596 IM1H     130      IM1H     H6       HDR5E    0.203000        1.0080           0   0.00000   0.00000
      2597 IM1H     130      IM1H     N2       ND2R5C   2.042200       13.6070           0   -0.803000   1.00000
      2598 IM1H     130      IM1H     DN2      DRUD    -2.199200        0.4000           0   0.00000   0.00000
      2599 IM1H     130      IM1H     H7       HDP1A    0.363000        1.0080           0   0.00000   0.00000
      2600 IM1H     130      IM1H     LPN21    LPD      0.000000        0.0000           -1   0.00000   0.00000
      2601 IM1H     131      IM1H     C1       CD33F    2.485000       11.6110           0   -1.18100   1.10000
      2602 IM1H     131      IM1H     DC1      DRUD    -2.667000        0.4000           0   0.00000   0.00000
      2603 IM1H     131      IM1H     H1       HDA3A    0.135000        1.0080           0   0.00000   0.00000
      2604 IM1H     131      IM1H     H2       HDA3A    0.135000        1.0080           0   0.00000   0.00000
      2605 IM1H     131      IM1H     H3       HDA3A    0.135000        1.0080           0   0.00000   0.00000
      2606 IM1H     131      IM1H     N1       ND2R5C   2.357200       13.6070           0   -0.803000   1.00000
      2607 IM1H     131      IM1H     DN1      DRUD    -2.199200        0.4000           0   0.00000   0.00000
      2608 IM1H     131      IM1H     C2       CD2R5D   2.447000       11.6110           0   -1.08300   1.10000
      2609 IM1H     131      IM1H     DC2      DRUD    -2.554000        0.4000           0   0.00000   0.00000
      2610 IM1H     131      IM1H     H4       HDR5D    0.195000        1.0080           0   0.00000   0.00000
      2611 IM1H     131      IM1H     C3       CD2R5D   2.507000       11.6110           0   -1.08300   1.10000
      2612 IM1H     131      IM1H     DC3      DRUD    -2.554000        0.4000           0   0.00000   0.00000
      2613 IM1H     131      IM1H     H5       HDR5D    0.192000        1.0080           0   0.00000   0.00000
      2614 IM1H     131      IM1H     C4       CD2R5E   2.724100       11.6110           0   -1.25300   1.20000
      2615 IM1H     131      IM1H     DC4      DRUD    -2.747100        0.4000           0   0.00000   0.00000
      2616 IM1H     131      IM1H     H6       HDR5E    0.203000        1.0080           0   0.00000   0.00000
      2617 IM1H     131      IM1H     N2       ND2R5C   2.042200       13.6070           0   -0.803000   1.00000
      2618 IM1H     131      IM1H     DN2      DRUD    -2.199200        0.4000           0   0.00000   0.00000
      2619 IM1H     131      IM1H     H7       HDP1A    0.363000        1.0080           0   0.00000   0.00000
      2620 IM1H     131      IM1H     LPN21    LPD      0.000000        0.0000           -1   0.00000   0.00000
      2621 IM1H     132      IM1H     C1       CD33F    2.485000       11.6110           0   -1.18100   1.10000
      2622 IM1H     132      IM1H     DC1      DRUD    -2.667000        0.4000           0   0.00000   0.00000
      2623 IM1H     132      IM1H     H1       HDA3A    0.135000        1.0080           0   0.00000   0.00000
      2624 IM1H     132      IM1H     H2       HDA3A    0.135000        1.0080           0   0.00000   0.00000
      2625 IM1H     132      IM1H     H3       HDA3A    0.135000        1.0080           0   0.00000   0.00000
      2626 IM1H     132      IM1H     N1       ND2R5C   2.357200       13.6070           0   -0.803000   1.00000
      2627 IM1H     132      IM1H     DN1      DRUD    -2.199200        0.4000           0   0.00000   0.00000
      2628 IM1H     132      IM1H     C2       CD2R5D   2.447000       11.6110           0   -1.08300   1.10000
      2629 IM1H     132      IM1H     DC2      DRUD    -2.554000        0.4000           0   0.00000   0.00000
      2630 IM1H     132      IM1H     H4       HDR5D    0.195000        1.0080           0   0.00000   0.00000
      2631 IM1H     132      IM1H     C3       CD2R5D   2.507000       11.6110           0   -1.08300   1.10000
      2632 IM1H     132      IM1H     DC3      DRUD    -2.554000        0.4000           0   0.00000   0.00000
      2633 IM1H     132      IM1H     H5       HDR5D    0.192000        1.0080           0   0.00000   0.00000
      2634 IM1H     132      IM1H     C4       CD2R5E   2.724100       11.6110           0   -1.25300   1.20000
      2635 IM1H     132      IM1H     DC4      DRUD    -2.747100        0.4000           0   0.00000   0.00000
      2636 IM1H     132      IM1H     H6       HDR5E    0.203000        1.0080           0   0.00000   0.00000
      2637 IM1H     132      IM1H     N2       ND2R5C   2.042200       13.6070           0   -0.803000   1.00000
      2638 IM1H     132      IM1H     DN2      DRUD    -2.199200        0.4000           0   0.00000   0.00000
      2639 IM1H     132      IM1H     H7       HDP1A    0.363000        1.0080           0   0.00000   0.00000
      2640 IM1H     132      IM1H     LPN21    LPD      0.000000        0.0000           -1   0.00000   0.00000
      2641 IM1H     133      IM1H     C1       CD33F    2.485000       11.6110           0   -1.18100   1.10000
      2642 IM1H     133      IM1H     DC1      DRUD    -2.667000        0.4000           0   0.00000   0.00000
      2643 IM1H     133      IM1H     H1       HDA3A    0.135000        1.0080           0   0.00000   0.00000
      2644 IM1H     133      IM1H     H2       HDA3A    0.135000        1.0080           0   0.00000   0.00000
      2645 IM1H     133      IM1H     H3       HDA3A    0.135000        1.0080           0   0.00000   0.00000
      2646 IM1H     133      IM1H     N1       ND2R5C   2.357200       13.6070           0   -0.803000   1.00000
      2647 IM1H     133      IM1H     DN1      DRUD    -2.199200        0.4000           0   0.00000   0.00000
      2648 IM1H     133      IM1H     C2       CD2R5D   2.447000       11.6110           0   -1.08300   1.10000
      2649 IM1H     133      IM1H     DC2      DRUD    -2.554000        0.4000           0   0.00000   0.00000
      2650 IM1H     133      IM1H     H4       HDR5D    0.195000        1.0080           0   0.00000   0.00000
      2651 IM1H     133      IM1H     C3       CD2R5D   2.507000       11.6110           0   -1.08300   1.10000
      2652 IM1H     133      IM1H     DC3      DRUD    -2.554000        0.4000           0   0.00000   0.00000
      2653 IM1H     133      IM1H     H5       HDR5D    0.192000        1.0080           0   0.00000   0.00000
      2654 IM1H     133      IM1H     C4       CD2R5E   2.724100       11.6110           0   -1.25300   1.20000
      2655 IM1H     133      IM1H     DC4      DRUD    -2.747100        0.4000           0   0.00000   0.00000
      2656 IM1H     133      IM1H     H6       HDR5E    0.203000        1.0080           0   0.00000   0.00000
      2657 IM1H     133      IM1H     N2       ND2R5C   2.042200       13.6070           0   -0.803000   1.00000
      2658 IM1H     133      IM1H     DN2      DRUD    -2.199200        0.4000           0   0.00000   0.00000
      2659 IM1H     133      IM1H     H7       HDP1A    0.363000        1.0080           0   0.00000   0.00000
      2660 IM1H     133      IM1H     LPN21    LPD      0.000000        0.0000           -1   0.00000   0.00000
      2661 IM1H     134      IM1H     C1       CD33F    2.485000       11.6110           0   -1.18100   1.10000
      2662 IM1H     134      IM1H     DC1      DRUD    -2.667000        0.4000           0   0.00000   0.00000
      2663 IM1H     134      IM1H     H1       HDA3A    0.135000        1.0080           0   0.00000   0.00000
      2664 IM1H     134      IM1H     H2       HDA3A    0.135000        1.0080           0   0.00000   0.00000
      2665 IM1H     134      IM1H     H3       HDA3A    0.135000        1.0080           0   0.00000   0.00000
      2666 IM1H     134      IM1H     N1       ND2R5C   2.357200       13.6070           0   -0.803000   1.00000
      2667 IM1H     134      IM1H     DN1      DRUD    -2.199200        0.4000           0   0.00000   0.00000
      2668 IM1H     134      IM1H     C2       CD2R5D   2.447000       11.6110           0   -1.08300   1.10000
      2669 IM1H     134      IM1H     DC2      DRUD    -2.554000        0.4000           0   0.00000   0.00000
      2670 IM1H     134      IM1H     H4       HDR5D    0.195000        1.0080           0   0.00000   0.00000
      2671 IM1H     134      IM1H     C3       CD2R5D   2.507000       11.6110           0   -1.08300   1.10000
      2672 IM1H     134      IM1H     DC3      DRUD    -2.554000        0.4000           0   0.00000   0.00000
      2673 IM1H     134      IM1H     H5       HDR5D    0.192000        1.0080           0   0.00000   0.00000
      2674 IM1H     134      IM1H     C4       CD2R5E   2.724100       11.6110           0   -1.25300   1.20000
      2675 IM1H     134      IM1H     DC4      DRUD    -2.747100        0.4000           0   0.00000   0.00000
      2676 IM1H     134      IM1H     H6       HDR5E    0.203000        1.0080           0   0.00000   0.00000
      2677 IM1H     134      IM1H     N2       ND2R5C   2.042200       13.6070           0   -0.803000   1.00000
      2678 IM1H     134      IM1H     DN2      DRUD    -2.199200        0.4000           0   0.00000   0.00000
      2679 IM1H     134      IM1H     H7       HDP1A    0.363000        1.0080           0   0.00000   0.00000
      2680 IM1H     134      IM1H     LPN21    LPD      0.000000        0.0000           -1   0.00000   0.00000
      2681 IM1H     135      IM1H     C1       CD33F    2.485000       11.6110           0   -1.18100   1.10000
      2682 IM1H     135      IM1H     DC1      DRUD    -2.667000        0.4000           0   0.00000   0.00000
      2683 IM1H     135      IM1H     H1       HDA3A    0.135000        1.0080           0   0.00000   0.00000
      2684 IM1H     135      IM1H     H2       HDA3A    0.135000        1.0080           0   0.00000   0.00000
      2685 IM1H     135      IM1H     H3       HDA3A    0.135000        1.0080           0   0.00000   0.00000
      2686 IM1H     135      IM1H     N1       ND2R5C   2.357200       13.6070           0   -0.803000   1.00000
      2687 IM1H     135      IM1H     DN1      DRUD    -2.199200        0.4000           0   0.00000   0.00000
      2688 IM1H     135      IM1H     C2       CD2R5D   2.447000       11.6110           0   -1.08300   1.10000
      2689 IM1H     135      IM1H     DC2      DRUD    -2.554000        0.4000           0   0.00000   0.00000
      2690 IM1H     135      IM1H     H4       HDR5D    0.195000        1.0080           0   0.00000   0.00000
      2691 IM1H     135      IM1H     C3       CD2R5D   2.507000       11.6110           0   -1.08300   1.10000
      2692 IM1H     135      IM1H     DC3      DRUD    -2.554000        0.4000           0   0.00000   0.00000
      2693 IM1H     135      IM1H     H5       HDR5D    0.192000        1.0080           0   0.00000   0.00000
      2694 IM1H     135      IM1H     C4       CD2R5E   2.724100       11.6110           0   -1.25300   1.20000
      2695 IM1H     135      IM1H     DC4      DRUD    -2.747100        0.4000           0   0.00000   0.00000
      2696 IM1H     135      IM1H     H6       HDR5E    0.203000        1.0080           0   0.00000   0.00000
      2697 IM1H     135      IM1H     N2       ND2R5C   2.042200       13.6070           0   -0.803000   1.00000
      2698 IM1H     135      IM1H     DN2      DRUD    -2.199200        0.4000           0   0.00000   0.00000
      2699 IM1H     135      IM1H     H7       HDP1A    0.363000        1.0080           0   0.00000   0.00000
      2700 IM1H     135      IM1H     LPN21    LPD      0.000000        0.0000           -1   0.00000   0.00000
      2701 IM1H     136      IM1H     C1       CD33F    2.485000       11.6110           0   -1.18100   1.10000
      2702 IM1H     136      IM1H     DC1      DRUD    -2.667000        0.4000           0   0.00000   0.00000
      2703 IM1H     136      IM1H     H1       HDA3A    0.135000        1.0080           0   0.00000   0.00000
      2704 IM1H     136      IM1H     H2       HDA3A    0.135000        1.0080           0   0.00000   0.00000
      2705 IM1H     136      IM1H     H3       HDA3A    0.135000        1.0080           0   0.00000   0.00000
      2706 IM1H     136      IM1H     N1       ND2R5C   2.357200       13.6070           0   -0.803000   1.00000
      2707 IM1H     136      IM1H     DN1      DRUD    -2.199200        0.4000           0   0.00000   0.00000
      2708 IM1H     136      IM1H     C2       CD2R5D   2.447000       11.6110           0   -1.08300   1.10000
      2709 IM1H     136      IM1H     DC2      DRUD    -2.554000        0.4000           0   0.00000   0.00000
      2710 IM1H     136      IM1H     H4       HDR5D    0.195000        1.0080           0   0.00000   0.00000
      2711 IM1H     136      IM1H     C3       CD2R5D   2.507000       11.6110           0   -1.08300   1.10000
      2712 IM1H     136      IM1H     DC3      DRUD    -2.554000        0.4000           0   0.00000   0.00000
      2713 IM1H     136      IM1H     H5       HDR5D    0.192000        1.0080           0   0.00000   0.00000
      2714 IM1H     136      IM1H     C4       CD2R5E   2.724100       11.6110           0   -1.25300   1.20000
      2715 IM1H     136      IM1H     DC4      DRUD    -2.747100        0.4000           0   0.00000   0.00000
      2716 IM1H     136      IM1H     H6       HDR5E    0.203000        1.0080           0   0.00000   0.00000
      2717 IM1H     136      IM1H     N2       ND2R5C   2.042200       13.6070           0   -0.803000   1.00000
      2718 IM1H     136      IM1H     DN2      DRUD    -2.199200        0.4000           0   0.00000   0.00000
      2719 IM1H     136      IM1H     H7       HDP1A    0.363000        1.0080           0   0.00000   0.00000
      2720 IM1H     136      IM1H     LPN21    LPD      0.000000        0.0000           -1   0.00000   0.00000
      2721 IM1H     137      IM1H     C1       CD33F    2.485000       11.6110           0   -1.18100   1.10000
      2722 IM1H     137      IM1H     DC1      DRUD    -2.667000        0.4000           0   0.00000   0.00000
      2723 IM1H     137      IM1H     H1       HDA3A    0.135000        1.0080           0   0.00000   0.00000
      2724 IM1H     137      IM1H     H2       HDA3A    0.135000        1.0080           0   0.00000   0.00000
      2725 IM1H     137      IM1H     H3       HDA3A    0.135000        1.0080           0   0.00000   0.00000
      2726 IM1H     137      IM1H     N1       ND2R5C   2.357200       13.6070           0   -0.803000   1.00000
      2727 IM1H     137      IM1H     DN1      DRUD    -2.199200        0.4000           0   0.00000   0.00000
      2728 IM1H     137      IM1H     C2       CD2R5D   2.447000       11.6110           0   -1.08300   1.10000
      2729 IM1H     137      IM1H     DC2      DRUD    -2.554000        0.4000           0   0.00000   0.00000
      2730 IM1H     137      IM1H     H4       HDR5D    0.195000        1.0080           0   0.00000   0.00000
      2731 IM1H     137      IM1H     C3       CD2R5D   2.507000       11.6110           0   -1.08300   1.10000
      2732 IM1H     137      IM1H     DC3      DRUD    -2.554000        0.4000           0   0.00000   0.00000
      2733 IM1H     137      IM1H     H5       HDR5D    0.192000        1.0080           0   0.00000   0.00000
      2734 IM1H     137      IM1H     C4       CD2R5E   2.724100       11.6110           0   -1.25300   1.20000
      2735 IM1H     137      IM1H     DC4      DRUD    -2.747100        0.4000           0   0.00000   0.00000
      2736 IM1H     137      IM1H     H6       HDR5E    0.203000        1.0080           0   0.00000   0.00000
      2737 IM1H     137      IM1H     N2       ND2R5C   2.042200       13.6070           0   -0.803000   1.00000
      2738 IM1H     137      IM1H     DN2      DRUD    -2.199200        0.4000           0   0.00000   0.00000
      2739 IM1H     137      IM1H     H7       HDP1A    0.363000        1.0080           0   0.00000   0.00000
      2740 IM1H     137      IM1H     LPN21    LPD      0.000000        0.0000           -1   0.00000   0.00000
      2741 IM1H     138      IM1H     C1       CD33F    2.485000       11.6110           0   -1.18100   1.10000
      2742 IM1H     138      IM1H     DC1      DRUD    -2.667000        0.4000           0   0.00000   0.00000
      2743 IM1H     138      IM1H     H1       HDA3A    0.135000        1.0080           0   0.00000   0.00000
      2744 IM1H     138      IM1H     H2       HDA3A    0.135000        1.0080           0   0.00000   0.00000
      2745 IM1H     138      IM1H     H3       HDA3A    0.135000        1.0080           0   0.00000   0.00000
      2746 IM1H     138      IM1H     N1       ND2R5C   2.357200       13.6070           0   -0.803000   1.00000
      2747 IM1H     138      IM1H     DN1      DRUD    -2.199200        0.4000           0   0.00000   0.00000
      2748 IM1H     138      IM1H     C2       CD2R5D   2.447000       11.6110           0   -1.08300   1.10000
      2749 IM1H     138      IM1H     DC2      DRUD    -2.554000        0.4000           0   0.00000   0.00000
      2750 IM1H     138      IM1H     H4       HDR5D    0.195000        1.0080           0   0.00000   0.00000
      2751 IM1H     138      IM1H     C3       CD2R5D   2.507000       11.6110           0   -1.08300   1.10000
      2752 IM1H     138      IM1H     DC3      DRUD    -2.554000        0.4000           0   0.00000   0.00000
      2753 IM1H     138      IM1H     H5       HDR5D    0.192000        1.0080           0   0.00000   0.00000
      2754 IM1H     138      IM1H     C4       CD2R5E   2.724100       11.6110           0   -1.25300   1.20000
      2755 IM1H     138      IM1H     DC4      DRUD    -2.747100        0.4000           0   0.00000   0.00000
      2756 IM1H     138      IM1H     H6       HDR5E    0.203000        1.0080           0   0.00000   0.00000
      2757 IM1H     138      IM1H     N2       ND2R5C   2.042200       13.6070           0   -0.803000   1.00000
      2758 IM1H     138      IM1H     DN2      DRUD    -2.199200        0.4000           0   0.00000   0.00000
      2759 IM1H     138      IM1H     H7       HDP1A    0.363000        1.0080           0   0.00000   0.00000
      2760 IM1H     138      IM1H     LPN21    LPD      0.000000        0.0000           -1   0.00000   0.00000
      2761 IM1H     139      IM1H     C1       CD33F    2.485000       11.6110           0   -1.18100   1.10000
      2762 IM1H     139      IM1H     DC1      DRUD    -2.667000        0.4000           0   0.00000   0.00000
      2763 IM1H     139      IM1H     H1       HDA3A    0.135000        1.0080           0   0.00000   0.00000
      2764 IM1H     139      IM1H     H2       HDA3A    0.135000        1.0080           0   0.00000   0.00000
      2765 IM1H     139      IM1H     H3       HDA3A    0.135000        1.0080           0   0.00000   0.00000
      2766 IM1H     139      IM1H     N1       ND2R5C   2.357200       13.6070           0   -0.803000   1.00000
      2767 IM1H     139      IM1H     DN1      DRUD    -2.199200        0.4000           0   0.00000   0.00000
      2768 IM1H     139      IM1H     C2       CD2R5D   2.447000       11.6110           0   -1.08300   1.10000
      2769 IM1H     139      IM1H     DC2      DRUD    -2.554000        0.4000           0   0.00000   0.00000
      2770 IM1H     139      IM1H     H4       HDR5D    0.195000        1.0080           0   0.00000   0.00000
      2771 IM1H     139      IM1H     C3       CD2R5D   2.507000       11.6110           0   -1.08300   1.10000
      2772 IM1H     139      IM1H     DC3      DRUD    -2.554000        0.4000           0   0.00000   0.00000
      2773 IM1H     139      IM1H     H5       HDR5D    0.192000        1.0080           0   0.00000   0.00000
      2774 IM1H     139      IM1H     C4       CD2R5E   2.724100       11.6110           0   -1.25300   1.20000
      2775 IM1H     139      IM1H     DC4      DRUD    -2.747100        0.4000           0   0.00000   0.00000
      2776 IM1H     139      IM1H     H6       HDR5E    0.203000        1.0080           0   0.00000   0.00000
      2777 IM1H     139      IM1H     N2       ND2R5C   2.042200       13.6070           0   -0.803000   1.00000
      2778 IM1H     139      IM1H     DN2      DRUD    -2.199200        0.4000           0   0.00000   0.00000
      2779 IM1H     139      IM1H     H7       HDP1A    0.363000        1.0080           0   0.00000   0.00000
      2780 IM1H     139      IM1H     LPN21    LPD      0.000000        0.0000           -1   0.00000   0.00000
      2781 IM1H     140      IM1H     C1       CD33F    2.485000       11.6110           0   -1.18100   1.10000
      2782 IM1H     140      IM1H     DC1      DRUD    -2.667000        0.4000           0   0.00000   0.00000
      2783 IM1H     140      IM1H     H1       HDA3A    0.135000        1.0080           0   0.00000   0.00000
      2784 IM1H     140      IM1H     H2       HDA3A    0.135000        1.0080           0   0.00000   0.00000
      2785 IM1H     140      IM1H     H3       HDA3A    0.135000        1.0080           0   0.00000   0.00000
      2786 IM1H     140      IM1H     N1       ND2R5C   2.357200       13.6070           0   -0.803000   1.00000
      2787 IM1H     140      IM1H     DN1      DRUD    -2.199200        0.4000           0   0.00000   0.00000
      2788 IM1H     140      IM1H     C2       CD2R5D   2.447000       11.6110           0   -1.08300   1.10000
      2789 IM1H     140      IM1H     DC2      DRUD    -2.554000        0.4000           0   0.00000   0.00000
      2790 IM1H     140      IM1H     H4       HDR5D    0.195000        1.0080           0   0.00000   0.00000
      2791 IM1H     140      IM1H     C3       CD2R5D   2.507000       11.6110           0   -1.08300   1.10000
      2792 IM1H     140      IM1H     DC3      DRUD    -2.554000        0.4000           0   0.00000   0.00000
      2793 IM1H     140      IM1H     H5       HDR5D    0.192000        1.0080           0   0.00000   0.00000
      2794 IM1H     140      IM1H     C4       CD2R5E   2.724100       11.6110           0   -1.25300   1.20000
      2795 IM1H     140      IM1H     DC4      DRUD    -2.747100        0.4000           0   0.00000   0.00000
      2796 IM1H     140      IM1H     H6       HDR5E    0.203000        1.0080           0   0.00000   0.00000
      2797 IM1H     140      IM1H     N2       ND2R5C   2.042200       13.6070           0   -0.803000   1.00000
      2798 IM1H     140      IM1H     DN2      DRUD    -2.199200        0.4000           0   0.00000   0.00000
      2799 IM1H     140      IM1H     H7       HDP1A    0.363000        1.0080           0   0.00000   0.00000
      2800 IM1H     140      IM1H     LPN21    LPD      0.000000        0.0000           -1   0.00000   0.00000
      2801 IM1H     141      IM1H     C1       CD33F    2.485000       11.6110           0   -1.18100   1.10000
      2802 IM1H     141      IM1H     DC1      DRUD    -2.667000        0.4000           0   0.00000   0.00000
      2803 IM1H     141      IM1H     H1       HDA3A    0.135000        1.0080           0   0.00000   0.00000
      2804 IM1H     141      IM1H     H2       HDA3A    0.135000        1.0080           0   0.00000   0.00000
      2805 IM1H     141      IM1H     H3       HDA3A    0.135000        1.0080           0   0.00000   0.00000
      2806 IM1H     141      IM1H     N1       ND2R5C   2.357200       13.6070           0   -0.803000   1.00000
      2807 IM1H     141      IM1H     DN1      DRUD    -2.199200        0.4000           0   0.00000   0.00000
      2808 IM1H     141      IM1H     C2       CD2R5D   2.447000       11.6110           0   -1.08300   1.10000
      2809 IM1H     141      IM1H     DC2      DRUD    -2.554000        0.4000           0   0.00000   0.00000
      2810 IM1H     141      IM1H     H4       HDR5D    0.195000        1.0080           0   0.00000   0.00000
      2811 IM1H     141      IM1H     C3       CD2R5D   2.507000       11.6110           0   -1.08300   1.10000
      2812 IM1H     141      IM1H     DC3      DRUD    -2.554000        0.4000           0   0.00000   0.00000
      2813 IM1H     141      IM1H     H5       HDR5D    0.192000        1.0080           0   0.00000   0.00000
      2814 IM1H     141      IM1H     C4       CD2R5E   2.724100       11.6110           0   -1.25300   1.20000
      2815 IM1H     141      IM1H     DC4      DRUD    -2.747100        0.4000           0   0.00000   0.00000
      2816 IM1H     141      IM1H     H6       HDR5E    0.203000        1.0080           0   0.00000   0.00000
      2817 IM1H     141      IM1H     N2       ND2R5C   2.042200       13.6070           0   -0.803000   1.00000
      2818 IM1H     141      IM1H     DN2      DRUD    -2.199200        0.4000           0   0.00000   0.00000
      2819 IM1H     141      IM1H     H7       HDP1A    0.363000        1.0080           0   0.00000   0.00000
      2820 IM1H     141      IM1H     LPN21    LPD      0.000000        0.0000           -1   0.00000   0.00000
      2821 IM1H     142      IM1H     C1       CD33F    2.485000       11.6110           0   -1.18100   1.10000
      2822 IM1H     142      IM1H     DC1      DRUD    -2.667000        0.4000           0   0.00000   0.00000
      2823 IM1H     142      IM1H     H1       HDA3A    0.135000        1.0080           0   0.00000   0.00000
      2824 IM1H     142      IM1H     H2       HDA3A    0.135000        1.0080           0   0.00000   0.00000
      2825 IM1H     142      IM1H     H3       HDA3A    0.135000        1.0080           0   0.00000   0.00000
      2826 IM1H     142      IM1H     N1       ND2R5C   2.357200       13.6070           0   -0.803000   1.00000
      2827 IM1H     142      IM1H     DN1      DRUD    -2.199200        0.4000           0   0.00000   0.00000
      2828 IM1H     142      IM1H     C2       CD2R5D   2.447000       11.6110           0   -1.08300   1.10000
      2829 IM1H     142      IM1H     DC2      DRUD    -2.554000        0.4000           0   0.00000   0.00000
      2830 IM1H     142      IM1H     H4       HDR5D    0.195000        1.0080           0   0.00000   0.00000
      2831 IM1H     142      IM1H     C3       CD2R5D   2.507000       11.6110           0   -1.08300   1.10000
      2832 IM1H     142      IM1H     DC3      DRUD    -2.554000        0.4000           0   0.00000   0.00000
      2833 IM1H     142      IM1H     H5       HDR5D    0.192000        1.0080           0   0.00000   0.00000
      2834 IM1H     142      IM1H     C4       CD2R5E   2.724100       11.6110           0   -1.25300   1.20000
      2835 IM1H     142      IM1H     DC4      DRUD    -2.747100        0.4000           0   0.00000   0.00000
      2836 IM1H     142      IM1H     H6       HDR5E    0.203000        1.0080           0   0.00000   0.00000
      2837 IM1H     142      IM1H     N2       ND2R5C   2.042200       13.6070           0   -0.803000   1.00000
      2838 IM1H     142      IM1H     DN2      DRUD    -2.199200        0.4000           0   0.00000   0.00000
      2839 IM1H     142      IM1H     H7       HDP1A    0.363000        1.0080           0   0.00000   0.00000
      2840 IM1H     142      IM1H     LPN21    LPD      0.000000        0.0000           -1   0.00000   0.00000
      2841 IM1H     143      IM1H     C1       CD33F    2.485000       11.6110           0   -1.18100   1.10000
      2842 IM1H     143      IM1H     DC1      DRUD    -2.667000        0.4000           0   0.00000   0.00000
      2843 IM1H     143      IM1H     H1       HDA3A    0.135000        1.0080           0   0.00000   0.00000
      2844 IM1H     143      IM1H     H2       HDA3A    0.135000        1.0080           0   0.00000   0.00000
      2845 IM1H     143      IM1H     H3       HDA3A    0.135000        1.0080           0   0.00000   0.00000
      2846 IM1H     143      IM1H     N1       ND2R5C   2.357200       13.6070           0   -0.803000   1.00000
      2847 IM1H     143      IM1H     DN1      DRUD    -2.199200        0.4000           0   0.00000   0.00000
      2848 IM1H     143      IM1H     C2       CD2R5D   2.447000       11.6110           0   -1.08300   1.10000
      2849 IM1H     143      IM1H     DC2      DRUD    -2.554000        0.4000           0   0.00000   0.00000
      2850 IM1H     143      IM1H     H4       HDR5D    0.195000        1.0080           0   0.00000   0.00000
      2851 IM1H     143      IM1H     C3       CD2R5D   2.507000       11.6110           0   -1.08300   1.10000
      2852 IM1H     143      IM1H     DC3      DRUD    -2.554000        0.4000           0   0.00000   0.00000
      2853 IM1H     143      IM1H     H5       HDR5D    0.192000        1.0080           0   0.00000   0.00000
      2854 IM1H     143      IM1H     C4       CD2R5E   2.724100       11.6110           0   -1.25300   1.20000
      2855 IM1H     143      IM1H     DC4      DRUD    -2.747100        0.4000           0   0.00000   0.00000
      2856 IM1H     143      IM1H     H6       HDR5E    0.203000        1.0080           0   0.00000   0.00000
      2857 IM1H     143      IM1H     N2       ND2R5C   2.042200       13.6070           0   -0.803000   1.00000
      2858 IM1H     143      IM1H     DN2      DRUD    -2.199200        0.4000           0   0.00000   0.00000
      2859 IM1H     143      IM1H     H7       HDP1A    0.363000        1.0080           0   0.00000   0.00000
      2860 IM1H     143      IM1H     LPN21    LPD      0.000000        0.0000           -1   0.00000   0.00000
      2861 IM1H     144      IM1H     C1       CD33F    2.485000       11.6110           0   -1.18100   1.10000
      2862 IM1H     144      IM1H     DC1      DRUD    -2.667000        0.4000           0   0.00000   0.00000
      2863 IM1H     144      IM1H     H1       HDA3A    0.135000        1.0080           0   0.00000   0.00000
      2864 IM1H     144      IM1H     H2       HDA3A    0.135000        1.0080           0   0.00000   0.00000
      2865 IM1H     144      IM1H     H3       HDA3A    0.135000        1.0080           0   0.00000   0.00000
      2866 IM1H     144      IM1H     N1       ND2R5C   2.357200       13.6070           0   -0.803000   1.00000
      2867 IM1H     144      IM1H     DN1      DRUD    -2.199200        0.4000           0   0.00000   0.00000
      2868 IM1H     144      IM1H     C2       CD2R5D   2.447000       11.6110           0   -1.08300   1.10000
      2869 IM1H     144      IM1H     DC2      DRUD    -2.554000        0.4000           0   0.00000   0.00000
      2870 IM1H     144      IM1H     H4       HDR5D    0.195000        1.0080           0   0.00000   0.00000
      2871 IM1H     144      IM1H     C3       CD2R5D   2.507000       11.6110           0   -1.08300   1.10000
      2872 IM1H     144      IM1H     DC3      DRUD    -2.554000        0.4000           0   0.00000   0.00000
      2873 IM1H     144      IM1H     H5       HDR5D    0.192000        1.0080           0   0.00000   0.00000
      2874 IM1H     144      IM1H     C4       CD2R5E   2.724100       11.6110           0   -1.25300   1.20000
      2875 IM1H     144      IM1H     DC4      DRUD    -2.747100        0.4000           0   0.00000   0.00000
      2876 IM1H     144      IM1H     H6       HDR5E    0.203000        1.0080           0   0.00000   0.00000
      2877 IM1H     144      IM1H     N2       ND2R5C   2.042200       13.6070           0   -0.803000   1.00000
      2878 IM1H     144      IM1H     DN2      DRUD    -2.199200        0.4000           0   0.00000   0.00000
      2879 IM1H     144      IM1H     H7       HDP1A    0.363000        1.0080           0   0.00000   0.00000
      2880 IM1H     144      IM1H     LPN21    LPD      0.000000        0.0000           -1   0.00000   0.00000
      2881 IM1H     145      IM1H     C1       CD33F    2.485000       11.6110           0   -1.18100   1.10000
      2882 IM1H     145      IM1H     DC1      DRUD    -2.667000        0.4000           0   0.00000   0.00000
      2883 IM1H     145      IM1H     H1       HDA3A    0.135000        1.0080           0   0.00000   0.00000
      2884 IM1H     145      IM1H     H2       HDA3A    0.135000        1.0080           0   0.00000   0.00000
      2885 IM1H     145      IM1H     H3       HDA3A    0.135000        1.0080           0   0.00000   0.00000
      2886 IM1H     145      IM1H     N1       ND2R5C   2.357200       13.6070           0   -0.803000   1.00000
      2887 IM1H     145      IM1H     DN1      DRUD    -2.199200        0.4000           0   0.00000   0.00000
      2888 IM1H     145      IM1H     C2       CD2R5D   2.447000       11.6110           0   -1.08300   1.10000
      2889 IM1H     145      IM1H     DC2      DRUD    -2.554000        0.4000           0   0.00000   0.00000
      2890 IM1H     145      IM1H     H4       HDR5D    0.195000        1.0080           0   0.00000   0.00000
      2891 IM1H     145      IM1H     C3       CD2R5D   2.507000       11.6110           0   -1.08300   1.10000
      2892 IM1H     145      IM1H     DC3      DRUD    -2.554000        0.4000           0   0.00000   0.00000
      2893 IM1H     145      IM1H     H5       HDR5D    0.192000        1.0080           0   0.00000   0.00000
      2894 IM1H     145      IM1H     C4       CD2R5E   2.724100       11.6110           0   -1.25300   1.20000
      2895 IM1H     145      IM1H     DC4      DRUD    -2.747100        0.4000           0   0.00000   0.00000
      2896 IM1H     145      IM1H     H6       HDR5E    0.203000        1.0080           0   0.00000   0.00000
      2897 IM1H     145      IM1H     N2       ND2R5C   2.042200       13.6070           0   -0.803000   1.00000
      2898 IM1H     145      IM1H     DN2      DRUD    -2.199200        0.4000           0   0.00000   0.00000
      2899 IM1H     145      IM1H     H7       HDP1A    0.363000        1.0080           0   0.00000   0.00000
      2900 IM1H     145      IM1H     LPN21    LPD      0.000000        0.0000           -1   0.00000   0.00000
      2901 IM1H     146      IM1H     C1       CD33F    2.485000       11.6110           0   -1.18100   1.10000
      2902 IM1H     146      IM1H     DC1      DRUD    -2.667000        0.4000           0   0.00000   0.00000
      2903 IM1H     146      IM1H     H1       HDA3A    0.135000        1.0080           0   0.00000   0.00000
      2904 IM1H     146      IM1H     H2       HDA3A    0.135000        1.0080           0   0.00000   0.00000
      2905 IM1H     146      IM1H     H3       HDA3A    0.135000        1.0080           0   0.00000   0.00000
      2906 IM1H     146      IM1H     N1       ND2R5C   2.357200       13.6070           0   -0.803000   1.00000
      2907 IM1H     146      IM1H     DN1      DRUD    -2.199200        0.4000           0   0.00000   0.00000
      2908 IM1H     146      IM1H     C2       CD2R5D   2.447000       11.6110           0   -1.08300   1.10000
      2909 IM1H     146      IM1H     DC2      DRUD    -2.554000        0.4000           0   0.00000   0.00000
      2910 IM1H     146      IM1H     H4       HDR5D    0.195000        1.0080           0   0.00000   0.00000
      2911 IM1H     146      IM1H     C3       CD2R5D   2.507000       11.6110           0   -1.08300   1.10000
      2912 IM1H     146      IM1H     DC3      DRUD    -2.554000        0.4000           0   0.00000   0.00000
      2913 IM1H     146      IM1H     H5       HDR5D    0.192000        1.0080           0   0.00000   0.00000
      2914 IM1H     146      IM1H     C4       CD2R5E   2.724100       11.6110           0   -1.25300   1.20000
      2915 IM1H     146      IM1H     DC4      DRUD    -2.747100        0.4000           0   0.00000   0.00000
      2916 IM1H     146      IM1H     H6       HDR5E    0.203000        1.0080           0   0.00000   0.00000
      2917 IM1H     146      IM1H     N2       ND2R5C   2.042200       13.6070           0   -0.803000   1.00000
      2918 IM1H     146      IM1H     DN2      DRUD    -2.199200        0.4000           0   0.00000   0.00000
      2919 IM1H     146      IM1H     H7       HDP1A    0.363000        1.0080           0   0.00000   0.00000
      2920 IM1H     146      IM1H     LPN21    LPD      0.000000        0.0000           -1   0.00000   0.00000
      2921 IM1H     147      IM1H     C1       CD33F    2.485000       11.6110           0   -1.18100   1.10000
      2922 IM1H     147      IM1H     DC1      DRUD    -2.667000        0.4000           0   0.00000   0.00000
      2923 IM1H     147      IM1H     H1       HDA3A    0.135000        1.0080           0   0.00000   0.00000
      2924 IM1H     147      IM1H     H2       HDA3A    0.135000        1.0080           0   0.00000   0.00000
      2925 IM1H     147      IM1H     H3       HDA3A    0.135000        1.0080           0   0.00000   0.00000
      2926 IM1H     147      IM1H     N1       ND2R5C   2.357200       13.6070           0   -0.803000   1.00000
      2927 IM1H     147      IM1H     DN1      DRUD    -2.199200        0.4000           0   0.00000   0.00000
      2928 IM1H     147      IM1H     C2       CD2R5D   2.447000       11.6110           0   -1.08300   1.10000
      2929 IM1H     147      IM1H     DC2      DRUD    -2.554000        0.4000           0   0.00000   0.00000
      2930 IM1H     147      IM1H     H4       HDR5D    0.195000        1.0080           0   0.00000   0.00000
      2931 IM1H     147      IM1H     C3       CD2R5D   2.507000       11.6110           0   -1.08300   1.10000
      2932 IM1H     147      IM1H     DC3      DRUD    -2.554000        0.4000           0   0.00000   0.00000
      2933 IM1H     147      IM1H     H5       HDR5D    0.192000        1.0080           0   0.00000   0.00000
      2934 IM1H     147      IM1H     C4       CD2R5E   2.724100       11.6110           0   -1.25300   1.20000
      2935 IM1H     147      IM1H     DC4      DRUD    -2.747100        0.4000           0   0.00000   0.00000
      2936 IM1H     147      IM1H     H6       HDR5E    0.203000        1.0080           0   0.00000   0.00000
      2937 IM1H     147      IM1H     N2       ND2R5C   2.042200       13.6070           0   -0.803000   1.00000
      2938 IM1H     147      IM1H     DN2      DRUD    -2.199200        0.4000           0   0.00000   0.00000
      2939 IM1H     147      IM1H     H7       HDP1A    0.363000        1.0080           0   0.00000   0.00000
      2940 IM1H     147      IM1H     LPN21    LPD      0.000000        0.0000           -1   0.00000   0.00000
      2941 OAC      1        OAC      C1       CD2O2A   3.181700       11.6110           0   -1.01600   0.899000
      2942 OAC      1        OAC      DC1      DRUD    -2.473700        0.4000           0   0.00000   0.00000
      2943 OAC      1        OAC      C2       CD33A    2.987900       11.6110           0   -1.68100   1.41400
      2944 OAC      1        OAC      DC2      DRUD    -3.181900        0.4000           0   0.00000   0.00000
      2945 OAC      1        OAC      H1       HDA3A    0.004000        1.0080           0   0.00000   0.00000
      2946 OAC      1        OAC      H2       HDA3A    0.004000        1.0080           0   0.00000   0.00000
      2947 OAC      1        OAC      H3       HDA3A    0.004000        1.0080           0   0.00000   0.00000
      2948 OAC      1        OAC      O1       OD2C2A   2.054800       15.5994           0   -0.699000   2.39900
      2949 OAC      1        OAC      DO1      DRUD    -2.051800        0.4000           0   0.00000   0.00000
      2950 OAC      1        OAC      O2       OD2C2A   2.054800       15.5994           0   -0.699000   2.39900
      2951 OAC      1        OAC      DO2      DRUD    -2.051800        0.4000           0   0.00000   0.00000
      2952 OAC      1        OAC      H        DUMH     0.000000        1.0080           0   0.00000   0.00000
      2953 OAC      1        OAC      LPO11    LPD     -0.383000        0.0000           -1   0.00000   0.00000
      2954 OAC      1        OAC      LPO12    LPD     -0.383000        0.0000           -1   0.00000   0.00000
      2955 OAC      1        OAC      LPO21    LPD     -0.383000        0.0000           -1   0.00000   0.00000
      2956 OAC      1        OAC      LPO22    LPD     -0.383000        0.0000           -1   0.00000   0.00000
      2957 OAC      2        OAC      C1       CD2O2A   3.181700       11.6110           0   -1.01600   0.899000
      2958 OAC      2        OAC      DC1      DRUD    -2.473700        0.4000           0   0.00000   0.00000
      2959 OAC      2        OAC      C2       CD33A    2.987900       11.6110           0   -1.68100   1.41400
      2960 OAC      2        OAC      DC2      DRUD    -3.181900        0.4000           0   0.00000   0.00000
      2961 OAC      2        OAC      H1       HDA3A    0.004000        1.0080           0   0.00000   0.00000
      2962 OAC      2        OAC      H2       HDA3A    0.004000        1.0080           0   0.00000   0.00000
      2963 OAC      2        OAC      H3       HDA3A    0.004000        1.0080           0   0.00000   0.00000
      2964 OAC      2        OAC      O1       OD2C2A   2.054800       15.5994           0   -0.699000   2.39900
      2965 OAC      2        OAC      DO1      DRUD    -2.051800        0.4000           0   0.00000   0.00000
      2966 OAC      2        OAC      O2       OD2C2A   2.054800       15.5994           0   -0.699000   2.39900
      2967 OAC      2        OAC      DO2      DRUD    -2.051800        0.4000           0   0.00000   0.00000
      2968 OAC      2        OAC      H        DUMH     0.000000        1.0080           0   0.00000   0.00000
      2969 OAC      2        OAC      LPO11    LPD     -0.383000        0.0000           -1   0.00000   0.00000
      2970 OAC      2        OAC      LPO12    LPD     -0.383000        0.0000           -1   0.00000   0.00000
      2971 OAC      2        OAC      LPO21    LPD     -0.383000        0.0000           -1   0.00000   0.00000
      2972 OAC      2        OAC      LPO22    LPD     -0.383000        0.0000           -1   0.00000   0.00000
      2973 OAC      3        OAC      C1       CD2O2A   3.181700       11.6110           0   -1.01600   0.899000
      2974 OAC      3        OAC      DC1      DRUD    -2.473700        0.4000           0   0.00000   0.00000
      2975 OAC      3        OAC      C2       CD33A    2.987900       11.6110           0   -1.68100   1.41400
      2976 OAC      3        OAC      DC2      DRUD    -3.181900        0.4000           0   0.00000   0.00000
      2977 OAC      3        OAC      H1       HDA3A    0.004000        1.0080           0   0.00000   0.00000
      2978 OAC      3        OAC      H2       HDA3A    0.004000        1.0080           0   0.00000   0.00000
      2979 OAC      3        OAC      H3       HDA3A    0.004000        1.0080           0   0.00000   0.00000
      2980 OAC      3        OAC      O1       OD2C2A   2.054800       15.5994           0   -0.699000   2.39900
      2981 OAC      3        OAC      DO1      DRUD    -2.051800        0.4000           0   0.00000   0.00000
      2982 OAC      3        OAC      O2       OD2C2A   2.054800       15.5994           0   -0.699000   2.39900
      2983 OAC      3        OAC      DO2      DRUD    -2.051800        0.4000           0   0.00000   0.00000
      2984 OAC      3        OAC      H        DUMH     0.000000        1.0080           0   0.00000   0.00000
      2985 OAC      3        OAC      LPO11    LPD     -0.383000        0.0000           -1   0.00000   0.00000
      2986 OAC      3        OAC      LPO12    LPD     -0.383000        0.0000           -1   0.00000   0.00000
      2987 OAC      3        OAC      LPO21    LPD     -0.383000        0.0000           -1   0.00000   0.00000
      2988 OAC      3        OAC      LPO22    LPD     -0.383000        0.0000           -1   0.00000   0.00000
      2989 OAC      4        OAC      C1       CD2O2A   3.181700       11.6110           0   -1.01600   0.899000
      2990 OAC      4        OAC      DC1      DRUD    -2.473700        0.4000           0   0.00000   0.00000
      2991 OAC      4        OAC      C2       CD33A    2.987900       11.6110           0   -1.68100   1.41400
      2992 OAC      4        OAC      DC2      DRUD    -3.181900        0.4000           0   0.00000   0.00000
      2993 OAC      4        OAC      H1       HDA3A    0.004000        1.0080           0   0.00000   0.00000
      2994 OAC      4        OAC      H2       HDA3A    0.004000        1.0080           0   0.00000   0.00000
      2995 OAC      4        OAC      H3       HDA3A    0.004000        1.0080           0   0.00000   0.00000
      2996 OAC      4        OAC      O1       OD2C2A   2.054800       15.5994           0   -0.699000   2.39900
      2997 OAC      4        OAC      DO1      DRUD    -2.051800        0.4000           0   0.00000   0.00000
      2998 OAC      4        OAC      O2       OD2C2A   2.054800       15.5994           0   -0.699000   2.39900
      2999 OAC      4        OAC      DO2      DRUD    -2.051800        0.4000           0   0.00000   0.00000
      3000 OAC      4        OAC      H        DUMH     0.000000        1.0080           0   0.00000   0.00000
      3001 OAC      4        OAC      LPO11    LPD     -0.383000        0.0000           -1   0.00000   0.00000
      3002 OAC      4        OAC      LPO12    LPD     -0.383000        0.0000           -1   0.00000   0.00000
      3003 OAC      4        OAC      LPO21    LPD     -0.383000        0.0000           -1   0.00000   0.00000
      3004 OAC      4        OAC      LPO22    LPD     -0.383000        0.0000           -1   0.00000   0.00000
      3005 OAC      5        OAC      C1       CD2O2A   3.181700       11.6110           0   -1.01600   0.899000
      3006 OAC      5        OAC      DC1      DRUD    -2.473700        0.4000           0   0.00000   0.00000
      3007 OAC      5        OAC      C2       CD33A    2.987900       11.6110           0   -1.68100   1.41400
      3008 OAC      5        OAC      DC2      DRUD    -3.181900        0.4000           0   0.00000   0.00000
      3009 OAC      5        OAC      H1       HDA3A    0.004000        1.0080           0   0.00000   0.00000
      3010 OAC      5        OAC      H2       HDA3A    0.004000        1.0080           0   0.00000   0.00000
      3011 OAC      5        OAC      H3       HDA3A    0.004000        1.0080           0   0.00000   0.00000
      3012 OAC      5        OAC      O1       OD2C2A   2.054800       15.5994           0   -0.699000   2.39900
      3013 OAC      5        OAC      DO1      DRUD    -2.051800        0.4000           0   0.00000   0.00000
      3014 OAC      5        OAC      O2       OD2C2A   2.054800       15.5994           0   -0.699000   2.39900
      3015 OAC      5        OAC      DO2      DRUD    -2.051800        0.4000           0   0.00000   0.00000
      3016 OAC      5        OAC      H        DUMH     0.000000        1.0080           0   0.00000   0.00000
      3017 OAC      5        OAC      LPO11    LPD     -0.383000        0.0000           -1   0.00000   0.00000
      3018 OAC      5        OAC      LPO12    LPD     -0.383000        0.0000           -1   0.00000   0.00000
      3019 OAC      5        OAC      LPO21    LPD     -0.383000        0.0000           -1   0.00000   0.00000
      3020 OAC      5        OAC      LPO22    LPD     -0.383000        0.0000           -1   0.00000   0.00000
      3021 OAC      6        OAC      C1       CD2O2A   3.181700       11.6110           0   -1.01600   0.899000
      3022 OAC      6        OAC      DC1      DRUD    -2.473700        0.4000           0   0.00000   0.00000
      3023 OAC      6        OAC      C2       CD33A    2.987900       11.6110           0   -1.68100   1.41400
      3024 OAC      6        OAC      DC2      DRUD    -3.181900        0.4000           0   0.00000   0.00000
      3025 OAC      6        OAC      H1       HDA3A    0.004000        1.0080           0   0.00000   0.00000
      3026 OAC      6        OAC      H2       HDA3A    0.004000        1.0080           0   0.00000   0.00000
      3027 OAC      6        OAC      H3       HDA3A    0.004000        1.0080           0   0.00000   0.00000
      3028 OAC      6        OAC      O1       OD2C2A   2.054800       15.5994           0   -0.699000   2.39900
      3029 OAC      6        OAC      DO1      DRUD    -2.051800        0.4000           0   0.00000   0.00000
      3030 OAC      6        OAC      O2       OD2C2A   2.054800       15.5994           0   -0.699000   2.39900
      3031 OAC      6        OAC      DO2      DRUD    -2.051800        0.4000           0   0.00000   0.00000
      3032 OAC      6        OAC      H        DUMH     0.000000        1.0080           0   0.00000   0.00000
      3033 OAC      6        OAC      LPO11    LPD     -0.383000        0.0000           -1   0.00000   0.00000
      3034 OAC      6        OAC      LPO12    LPD     -0.383000        0.0000           -1   0.00000   0.00000
      3035 OAC      6        OAC      LPO21    LPD     -0.383000        0.0000           -1   0.00000   0.00000
      3036 OAC      6        OAC      LPO22    LPD     -0.383000        0.0000           -1   0.00000   0.00000
      3037 OAC      7        OAC      C1       CD2O2A   3.181700       11.6110           0   -1.01600   0.899000
      3038 OAC      7        OAC      DC1      DRUD    -2.473700        0.4000           0   0.00000   0.00000
      3039 OAC      7        OAC      C2       CD33A    2.987900       11.6110           0   -1.68100   1.41400
      3040 OAC      7        OAC      DC2      DRUD    -3.181900        0.4000           0   0.00000   0.00000
      3041 OAC      7        OAC      H1       HDA3A    0.004000        1.0080           0   0.00000   0.00000
      3042 OAC      7        OAC      H2       HDA3A    0.004000        1.0080           0   0.00000   0.00000
      3043 OAC      7        OAC      H3       HDA3A    0.004000        1.0080           0   0.00000   0.00000
      3044 OAC      7        OAC      O1       OD2C2A   2.054800       15.5994           0   -0.699000   2.39900
      3045 OAC      7        OAC      DO1      DRUD    -2.051800        0.4000           0   0.00000   0.00000
      3046 OAC      7        OAC      O2       OD2C2A   2.054800       15.5994           0   -0.699000   2.39900
      3047 OAC      7        OAC      DO2      DRUD    -2.051800        0.4000           0   0.00000   0.00000
      3048 OAC      7        OAC      H        DUMH     0.000000        1.0080           0   0.00000   0.00000
      3049 OAC      7        OAC      LPO11    LPD     -0.383000        0.0000           -1   0.00000   0.00000
      3050 OAC      7        OAC      LPO12    LPD     -0.383000        0.0000           -1   0.00000   0.00000
      3051 OAC      7        OAC      LPO21    LPD     -0.383000        0.0000           -1   0.00000   0.00000
      3052 OAC      7        OAC      LPO22    LPD     -0.383000        0.0000           -1   0.00000   0.00000
      3053 OAC      8        OAC      C1       CD2O2A   3.181700       11.6110           0   -1.01600   0.899000
      3054 OAC      8        OAC      DC1      DRUD    -2.473700        0.4000           0   0.00000   0.00000
      3055 OAC      8        OAC      C2       CD33A    2.987900       11.6110           0   -1.68100   1.41400
      3056 OAC      8        OAC      DC2      DRUD    -3.181900        0.4000           0   0.00000   0.00000
      3057 OAC      8        OAC      H1       HDA3A    0.004000        1.0080           0   0.00000   0.00000
      3058 OAC      8        OAC      H2       HDA3A    0.004000        1.0080           0   0.00000   0.00000
      3059 OAC      8        OAC      H3       HDA3A    0.004000        1.0080           0   0.00000   0.00000
      3060 OAC      8        OAC      O1       OD2C2A   2.054800       15.5994           0   -0.699000   2.39900
      3061 OAC      8        OAC      DO1      DRUD    -2.051800        0.4000           0   0.00000   0.00000
      3062 OAC      8        OAC      O2       OD2C2A   2.054800       15.5994           0   -0.699000   2.39900
      3063 OAC      8        OAC      DO2      DRUD    -2.051800        0.4000           0   0.00000   0.00000
      3064 OAC      8        OAC      H        DUMH     0.000000        1.0080           0   0.00000   0.00000
      3065 OAC      8        OAC      LPO11    LPD     -0.383000        0.0000           -1   0.00000   0.00000
      3066 OAC      8        OAC      LPO12    LPD     -0.383000        0.0000           -1   0.00000   0.00000
      3067 OAC      8        OAC      LPO21    LPD     -0.383000        0.0000           -1   0.00000   0.00000
      3068 OAC      8        OAC      LPO22    LPD     -0.383000        0.0000           -1   0.00000   0.00000
      3069 OAC      9        OAC      C1       CD2O2A   3.181700       11.6110           0   -1.01600   0.899000
      3070 OAC      9        OAC      DC1      DRUD    -2.473700        0.4000           0   0.00000   0.00000
      3071 OAC      9        OAC      C2       CD33A    2.987900       11.6110           0   -1.68100   1.41400
      3072 OAC      9        OAC      DC2      DRUD    -3.181900        0.4000           0   0.00000   0.00000
      3073 OAC      9        OAC      H1       HDA3A    0.004000        1.0080           0   0.00000   0.00000
      3074 OAC      9        OAC      H2       HDA3A    0.004000        1.0080           0   0.00000   0.00000
      3075 OAC      9        OAC      H3       HDA3A    0.004000        1.0080           0   0.00000   0.00000
      3076 OAC      9        OAC      O1       OD2C2A   2.054800       15.5994           0   -0.699000   2.39900
      3077 OAC      9        OAC      DO1      DRUD    -2.051800        0.4000           0   0.00000   0.00000
      3078 OAC      9        OAC      O2       OD2C2A   2.054800       15.5994           0   -0.699000   2.39900
      3079 OAC      9        OAC      DO2      DRUD    -2.051800        0.4000           0   0.00000   0.00000
      3080 OAC      9        OAC      H        DUMH     0.000000        1.0080           0   0.00000   0.00000
      3081 OAC      9        OAC      LPO11    LPD     -0.383000        0.0000           -1   0.00000   0.00000
      3082 OAC      9        OAC      LPO12    LPD     -0.383000        0.0000           -1   0.00000   0.00000
      3083 OAC      9        OAC      LPO21    LPD     -0.383000        0.0000           -1   0.00000   0.00000
      3084 OAC      9        OAC      LPO22    LPD     -0.383000        0.0000           -1   0.00000   0.00000
      3085 OAC      10       OAC      C1       CD2O2A   3.181700       11.6110           0   -1.01600   0.899000
      3086 OAC      10       OAC      DC1      DRUD    -2.473700        0.4000           0   0.00000   0.00000
      3087 OAC      10       OAC      C2       CD33A    2.987900       11.6110           0   -1.68100   1.41400
      3088 OAC      10       OAC      DC2      DRUD    -3.181900        0.4000           0   0.00000   0.00000
      3089 OAC      10       OAC      H1       HDA3A    0.004000        1.0080           0   0.00000   0.00000
      3090 OAC      10       OAC      H2       HDA3A    0.004000        1.0080           0   0.00000   0.00000
      3091 OAC      10       OAC      H3       HDA3A    0.004000        1.0080           0   0.00000   0.00000
      3092 OAC      10       OAC      O1       OD2C2A   2.054800       15.5994           0   -0.699000   2.39900
      3093 OAC      10       OAC      DO1      DRUD    -2.051800        0.4000           0   0.00000   0.00000
      3094 OAC      10       OAC      O2       OD2C2A   2.054800       15.5994           0   -0.699000   2.39900
      3095 OAC      10       OAC      DO2      DRUD    -2.051800        0.4000           0   0.00000   0.00000
      3096 OAC      10       OAC      H        DUMH     0.000000        1.0080           0   0.00000   0.00000
      3097 OAC      10       OAC      LPO11    LPD     -0.383000        0.0000           -1   0.00000   0.00000
      3098 OAC      10       OAC      LPO12    LPD     -0.383000        0.0000           -1   0.00000   0.00000
      3099 OAC      10       OAC      LPO21    LPD     -0.383000        0.0000           -1   0.00000   0.00000
      3100 OAC      10       OAC      LPO22    LPD     -0.383000        0.0000           -1   0.00000   0.00000
      3101 OAC      11       OAC      C1       CD2O2A   3.181700       11.6110           0   -1.01600   0.899000
      3102 OAC      11       OAC      DC1      DRUD    -2.473700        0.4000           0   0.00000   0.00000
      3103 OAC      11       OAC      C2       CD33A    2.987900       11.6110           0   -1.68100   1.41400
      3104 OAC      11       OAC      DC2      DRUD    -3.181900        0.4000           0   0.00000   0.00000
      3105 OAC      11       OAC      H1       HDA3A    0.004000        1.0080           0   0.00000   0.00000
      3106 OAC      11       OAC      H2       HDA3A    0.004000        1.0080           0   0.00000   0.00000
      3107 OAC      11       OAC      H3       HDA3A    0.004000        1.0080           0   0.00000   0.00000
      3108 OAC      11       OAC      O1       OD2C2A   2.054800       15.5994           0   -0.699000   2.39900
      3109 OAC      11       OAC      DO1      DRUD    -2.051800        0.4000           0   0.00000   0.00000
      3110 OAC      11       OAC      O2       OD2C2A   2.054800       15.5994           0   -0.699000   2.39900
      3111 OAC      11       OAC      DO2      DRUD    -2.051800        0.4000           0   0.00000   0.00000
      3112 OAC      11       OAC      H        DUMH     0.000000        1.0080           0   0.00000   0.00000
      3113 OAC      11       OAC      LPO11    LPD     -0.383000        0.0000           -1   0.00000   0.00000
      3114 OAC      11       OAC      LPO12    LPD     -0.383000        0.0000           -1   0.00000   0.00000
      3115 OAC      11       OAC      LPO21    LPD     -0.383000        0.0000           -1   0.00000   0.00000
      3116 OAC      11       OAC      LPO22    LPD     -0.383000        0.0000           -1   0.00000   0.00000
      3117 OAC      12       OAC      C1       CD2O2A   3.181700       11.6110           0   -1.01600   0.899000
      3118 OAC      12       OAC      DC1      DRUD    -2.473700        0.4000           0   0.00000   0.00000
      3119 OAC      12       OAC      C2       CD33A    2.987900       11.6110           0   -1.68100   1.41400
      3120 OAC      12       OAC      DC2      DRUD    -3.181900        0.4000           0   0.00000   0.00000
      3121 OAC      12       OAC      H1       HDA3A    0.004000        1.0080           0   0.00000   0.00000
      3122 OAC      12       OAC      H2       HDA3A    0.004000        1.0080           0   0.00000   0.00000
      3123 OAC      12       OAC      H3       HDA3A    0.004000        1.0080           0   0.00000   0.00000
      3124 OAC      12       OAC      O1       OD2C2A   2.054800       15.5994           0   -0.699000   2.39900
      3125 OAC      12       OAC      DO1      DRUD    -2.051800        0.4000           0   0.00000   0.00000
      3126 OAC      12       OAC      O2       OD2C2A   2.054800       15.5994           0   -0.699000   2.39900
      3127 OAC      12       OAC      DO2      DRUD    -2.051800        0.4000           0   0.00000   0.00000
      3128 OAC      12       OAC      H        DUMH     0.000000        1.0080           0   0.00000   0.00000
      3129 OAC      12       OAC      LPO11    LPD     -0.383000        0.0000           -1   0.00000   0.00000
      3130 OAC      12       OAC      LPO12    LPD     -0.383000        0.0000           -1   0.00000   0.00000
      3131 OAC      12       OAC      LPO21    LPD     -0.383000        0.0000           -1   0.00000   0.00000
      3132 OAC      12       OAC      LPO22    LPD     -0.383000        0.0000           -1   0.00000   0.00000
      3133 OAC      13       OAC      C1       CD2O2A   3.181700       11.6110           0   -1.01600   0.899000
      3134 OAC      13       OAC      DC1      DRUD    -2.473700        0.4000           0   0.00000   0.00000
      3135 OAC      13       OAC      C2       CD33A    2.987900       11.6110           0   -1.68100   1.41400
      3136 OAC      13       OAC      DC2      DRUD    -3.181900        0.4000           0   0.00000   0.00000
      3137 OAC      13       OAC      H1       HDA3A    0.004000        1.0080           0   0.00000   0.00000
      3138 OAC      13       OAC      H2       HDA3A    0.004000        1.0080           0   0.00000   0.00000
      3139 OAC      13       OAC      H3       HDA3A    0.004000        1.0080           0   0.00000   0.00000
      3140 OAC      13       OAC      O1       OD2C2A   2.054800       15.5994           0   -0.699000   2.39900
      3141 OAC      13       OAC      DO1      DRUD    -2.051800        0.4000           0   0.00000   0.00000
      3142 OAC      13       OAC      O2       OD2C2A   2.054800       15.5994           0   -0.699000   2.39900
      3143 OAC      13       OAC      DO2      DRUD    -2.051800        0.4000           0   0.00000   0.00000
      3144 OAC      13       OAC      H        DUMH     0.000000        1.0080           0   0.00000   0.00000
      3145 OAC      13       OAC      LPO11    LPD     -0.383000        0.0000           -1   0.00000   0.00000
      3146 OAC      13       OAC      LPO12    LPD     -0.383000        0.0000           -1   0.00000   0.00000
      3147 OAC      13       OAC      LPO21    LPD     -0.383000        0.0000           -1   0.00000   0.00000
      3148 OAC      13       OAC      LPO22    LPD     -0.383000        0.0000           -1   0.00000   0.00000
      3149 OAC      14       OAC      C1       CD2O2A   3.181700       11.6110           0   -1.01600   0.899000
      3150 OAC      14       OAC      DC1      DRUD    -2.473700        0.4000           0   0.00000   0.00000
      3151 OAC      14       OAC      C2       CD33A    2.987900       11.6110           0   -1.68100   1.41400
      3152 OAC      14       OAC      DC2      DRUD    -3.181900        0.4000           0   0.00000   0.00000
      3153 OAC      14       OAC      H1       HDA3A    0.004000        1.0080           0   0.00000   0.00000
      3154 OAC      14       OAC      H2       HDA3A    0.004000        1.0080           0   0.00000   0.00000
      3155 OAC      14       OAC      H3       HDA3A    0.004000        1.0080           0   0.00000   0.00000
      3156 OAC      14       OAC      O1       OD2C2A   2.054800       15.5994           0   -0.699000   2.39900
      3157 OAC      14       OAC      DO1      DRUD    -2.051800        0.4000           0   0.00000   0.00000
      3158 OAC      14       OAC      O2       OD2C2A   2.054800       15.5994           0   -0.699000   2.39900
      3159 OAC      14       OAC      DO2      DRUD    -2.051800        0.4000           0   0.00000   0.00000
      3160 OAC      14       OAC      H        DUMH     0.000000        1.0080           0   0.00000   0.00000
      3161 OAC      14       OAC      LPO11    LPD     -0.383000        0.0000           -1   0.00000   0.00000
      3162 OAC      14       OAC      LPO12    LPD     -0.383000        0.0000           -1   0.00000   0.00000
      3163 OAC      14       OAC      LPO21    LPD     -0.383000        0.0000           -1   0.00000   0.00000
      3164 OAC      14       OAC      LPO22    LPD     -0.383000        0.0000           -1   0.00000   0.00000
      3165 OAC      15       OAC      C1       CD2O2A   3.181700       11.6110           0   -1.01600   0.899000
      3166 OAC      15       OAC      DC1      DRUD    -2.473700        0.4000           0   0.00000   0.00000
      3167 OAC      15       OAC      C2       CD33A    2.987900       11.6110           0   -1.68100   1.41400
      3168 OAC      15       OAC      DC2      DRUD    -3.181900        0.4000           0   0.00000   0.00000
      3169 OAC      15       OAC      H1       HDA3A    0.004000        1.0080           0   0.00000   0.00000
      3170 OAC      15       OAC      H2       HDA3A    0.004000        1.0080           0   0.00000   0.00000
      3171 OAC      15       OAC      H3       HDA3A    0.004000        1.0080           0   0.00000   0.00000
      3172 OAC      15       OAC      O1       OD2C2A   2.054800       15.5994           0   -0.699000   2.39900
      3173 OAC      15       OAC      DO1      DRUD    -2.051800        0.4000           0   0.00000   0.00000
      3174 OAC      15       OAC      O2       OD2C2A   2.054800       15.5994           0   -0.699000   2.39900
      3175 OAC      15       OAC      DO2      DRUD    -2.051800        0.4000           0   0.00000   0.00000
      3176 OAC      15       OAC      H        DUMH     0.000000        1.0080           0   0.00000   0.00000
      3177 OAC      15       OAC      LPO11    LPD     -0.383000        0.0000           -1   0.00000   0.00000
      3178 OAC      15       OAC      LPO12    LPD     -0.383000        0.0000           -1   0.00000   0.00000
      3179 OAC      15       OAC      LPO21    LPD     -0.383000        0.0000           -1   0.00000   0.00000
      3180 OAC      15       OAC      LPO22    LPD     -0.383000        0.0000           -1   0.00000   0.00000
      3181 OAC      16       OAC      C1       CD2O2A   3.181700       11.6110           0   -1.01600   0.899000
      3182 OAC      16       OAC      DC1      DRUD    -2.473700        0.4000           0   0.00000   0.00000
      3183 OAC      16       OAC      C2       CD33A    2.987900       11.6110           0   -1.68100   1.41400
      3184 OAC      16       OAC      DC2      DRUD    -3.181900        0.4000           0   0.00000   0.00000
      3185 OAC      16       OAC      H1       HDA3A    0.004000        1.0080           0   0.00000   0.00000
      3186 OAC      16       OAC      H2       HDA3A    0.004000        1.0080           0   0.00000   0.00000
      3187 OAC      16       OAC      H3       HDA3A    0.004000        1.0080           0   0.00000   0.00000
      3188 OAC      16       OAC      O1       OD2C2A   2.054800       15.5994           0   -0.699000   2.39900
      3189 OAC      16       OAC      DO1      DRUD    -2.051800        0.4000           0   0.00000   0.00000
      3190 OAC      16       OAC      O2       OD2C2A   2.054800       15.5994           0   -0.699000   2.39900
      3191 OAC      16       OAC      DO2      DRUD    -2.051800        0.4000           0   0.00000   0.00000
      3192 OAC      16       OAC      H        DUMH     0.000000        1.0080           0   0.00000   0.00000
      3193 OAC      16       OAC      LPO11    LPD     -0.383000        0.0000           -1   0.00000   0.00000
      3194 OAC      16       OAC      LPO12    LPD     -0.383000        0.0000           -1   0.00000   0.00000
      3195 OAC      16       OAC      LPO21    LPD     -0.383000        0.0000           -1   0.00000   0.00000
      3196 OAC      16       OAC      LPO22    LPD     -0.383000        0.0000           -1   0.00000   0.00000
      3197 OAC      17       OAC      C1       CD2O2A   3.181700       11.6110           0   -1.01600   0.899000
      3198 OAC      17       OAC      DC1      DRUD    -2.473700        0.4000           0   0.00000   0.00000
      3199 OAC      17       OAC      C2       CD33A    2.987900       11.6110           0   -1.68100   1.41400
      3200 OAC      17       OAC      DC2      DRUD    -3.181900        0.4000           0   0.00000   0.00000
      3201 OAC      17       OAC      H1       HDA3A    0.004000        1.0080           0   0.00000   0.00000
      3202 OAC      17       OAC      H2       HDA3A    0.004000        1.0080           0   0.00000   0.00000
      3203 OAC      17       OAC      H3       HDA3A    0.004000        1.0080           0   0.00000   0.00000
      3204 OAC      17       OAC      O1       OD2C2A   2.054800       15.5994           0   -0.699000   2.39900
      3205 OAC      17       OAC      DO1      DRUD    -2.051800        0.4000           0   0.00000   0.00000
      3206 OAC      17       OAC      O2       OD2C2A   2.054800       15.5994           0   -0.699000   2.39900
      3207 OAC      17       OAC      DO2      DRUD    -2.051800        0.4000           0   0.00000   0.00000
      3208 OAC      17       OAC      H        DUMH     0.000000        1.0080           0   0.00000   0.00000
      3209 OAC      17       OAC      LPO11    LPD     -0.383000        0.0000           -1   0.00000   0.00000
      3210 OAC      17       OAC      LPO12    LPD     -0.383000        0.0000           -1   0.00000   0.00000
      3211 OAC      17       OAC      LPO21    LPD     -0.383000        0.0000           -1   0.00000   0.00000
      3212 OAC      17       OAC      LPO22    LPD     -0.383000        0.0000           -1   0.00000   0.00000
      3213 OAC      18       OAC      C1       CD2O2A   3.181700       11.6110           0   -1.01600   0.899000
      3214 OAC      18       OAC      DC1      DRUD    -2.473700        0.4000           0   0.00000   0.00000
      3215 OAC      18       OAC      C2       CD33A    2.987900       11.6110           0   -1.68100   1.41400
      3216 OAC      18       OAC      DC2      DRUD    -3.181900        0.4000           0   0.00000   0.00000
      3217 OAC      18       OAC      H1       HDA3A    0.004000        1.0080           0   0.00000   0.00000
      3218 OAC      18       OAC      H2       HDA3A    0.004000        1.0080           0   0.00000   0.00000
      3219 OAC      18       OAC      H3       HDA3A    0.004000        1.0080           0   0.00000   0.00000
      3220 OAC      18       OAC      O1       OD2C2A   2.054800       15.5994           0   -0.699000   2.39900
      3221 OAC      18       OAC      DO1      DRUD    -2.051800        0.4000           0   0.00000   0.00000
      3222 OAC      18       OAC      O2       OD2C2A   2.054800       15.5994           0   -0.699000   2.39900
      3223 OAC      18       OAC      DO2      DRUD    -2.051800        0.4000           0   0.00000   0.00000
      3224 OAC      18       OAC      H        DUMH     0.000000        1.0080           0   0.00000   0.00000
      3225 OAC      18       OAC      LPO11    LPD     -0.383000        0.0000           -1   0.00000   0.00000
      3226 OAC      18       OAC      LPO12    LPD     -0.383000        0.0000           -1   0.00000   0.00000
      3227 OAC      18       OAC      LPO21    LPD     -0.383000        0.0000           -1   0.00000   0.00000
      3228 OAC      18       OAC      LPO22    LPD     -0.383000        0.0000           -1   0.00000   0.00000
      3229 OAC      19       OAC      C1       CD2O2A   3.181700       11.6110           0   -1.01600   0.899000
      3230 OAC      19       OAC      DC1      DRUD    -2.473700        0.4000           0   0.00000   0.00000
      3231 OAC      19       OAC      C2       CD33A    2.987900       11.6110           0   -1.68100   1.41400
      3232 OAC      19       OAC      DC2      DRUD    -3.181900        0.4000           0   0.00000   0.00000
      3233 OAC      19       OAC      H1       HDA3A    0.004000        1.0080           0   0.00000   0.00000
      3234 OAC      19       OAC      H2       HDA3A    0.004000        1.0080           0   0.00000   0.00000
      3235 OAC      19       OAC      H3       HDA3A    0.004000        1.0080           0   0.00000   0.00000
      3236 OAC      19       OAC      O1       OD2C2A   2.054800       15.5994           0   -0.699000   2.39900
      3237 OAC      19       OAC      DO1      DRUD    -2.051800        0.4000           0   0.00000   0.00000
      3238 OAC      19       OAC      O2       OD2C2A   2.054800       15.5994           0   -0.699000   2.39900
      3239 OAC      19       OAC      DO2      DRUD    -2.051800        0.4000           0   0.00000   0.00000
      3240 OAC      19       OAC      H        DUMH     0.000000        1.0080           0   0.00000   0.00000
      3241 OAC      19       OAC      LPO11    LPD     -0.383000        0.0000           -1   0.00000   0.00000
      3242 OAC      19       OAC      LPO12    LPD     -0.383000        0.0000           -1   0.00000   0.00000
      3243 OAC      19       OAC      LPO21    LPD     -0.383000        0.0000           -1   0.00000   0.00000
      3244 OAC      19       OAC      LPO22    LPD     -0.383000        0.0000           -1   0.00000   0.00000
      3245 OAC      20       OAC      C1       CD2O2A   3.181700       11.6110           0   -1.01600   0.899000
      3246 OAC      20       OAC      DC1      DRUD    -2.473700        0.4000           0   0.00000   0.00000
      3247 OAC      20       OAC      C2       CD33A    2.987900       11.6110           0   -1.68100   1.41400
      3248 OAC      20       OAC      DC2      DRUD    -3.181900        0.4000           0   0.00000   0.00000
      3249 OAC      20       OAC      H1       HDA3A    0.004000        1.0080           0   0.00000   0.00000
      3250 OAC      20       OAC      H2       HDA3A    0.004000        1.0080           0   0.00000   0.00000
      3251 OAC      20       OAC      H3       HDA3A    0.004000        1.0080           0   0.00000   0.00000
      3252 OAC      20       OAC      O1       OD2C2A   2.054800       15.5994           0   -0.699000   2.39900
      3253 OAC      20       OAC      DO1      DRUD    -2.051800        0.4000           0   0.00000   0.00000
      3254 OAC      20       OAC      O2       OD2C2A   2.054800       15.5994           0   -0.699000   2.39900
      3255 OAC      20       OAC      DO2      DRUD    -2.051800        0.4000           0   0.00000   0.00000
      3256 OAC      20       OAC      H        DUMH     0.000000        1.0080           0   0.00000   0.00000
      3257 OAC      20       OAC      LPO11    LPD     -0.383000        0.0000           -1   0.00000   0.00000
      3258 OAC      20       OAC      LPO12    LPD     -0.383000        0.0000           -1   0.00000   0.00000
      3259 OAC      20       OAC      LPO21    LPD     -0.383000        0.0000           -1   0.00000   0.00000
      3260 OAC      20       OAC      LPO22    LPD     -0.383000        0.0000           -1   0.00000   0.00000
      3261 OAC      21       OAC      C1       CD2O2A   3.181700       11.6110           0   -1.01600   0.899000
      3262 OAC      21       OAC      DC1      DRUD    -2.473700        0.4000           0   0.00000   0.00000
      3263 OAC      21       OAC      C2       CD33A    2.987900       11.6110           0   -1.68100   1.41400
      3264 OAC      21       OAC      DC2      DRUD    -3.181900        0.4000           0   0.00000   0.00000
      3265 OAC      21       OAC      H1       HDA3A    0.004000        1.0080           0   0.00000   0.00000
      3266 OAC      21       OAC      H2       HDA3A    0.004000        1.0080           0   0.00000   0.00000
      3267 OAC      21       OAC      H3       HDA3A    0.004000        1.0080           0   0.00000   0.00000
      3268 OAC      21       OAC      O1       OD2C2A   2.054800       15.5994           0   -0.699000   2.39900
      3269 OAC      21       OAC      DO1      DRUD    -2.051800        0.4000           0   0.00000   0.00000
      3270 OAC      21       OAC      O2       OD2C2A   2.054800       15.5994           0   -0.699000   2.39900
      3271 OAC      21       OAC      DO2      DRUD    -2.051800        0.4000           0   0.00000   0.00000
      3272 OAC      21       OAC      H        DUMH     0.000000        1.0080           0   0.00000   0.00000
      3273 OAC      21       OAC      LPO11    LPD     -0.383000        0.0000           -1   0.00000   0.00000
      3274 OAC      21       OAC      LPO12    LPD     -0.383000        0.0000           -1   0.00000   0.00000
      3275 OAC      21       OAC      LPO21    LPD     -0.383000        0.0000           -1   0.00000   0.00000
      3276 OAC      21       OAC      LPO22    LPD     -0.383000        0.0000           -1   0.00000   0.00000
      3277 OAC      22       OAC      C1       CD2O2A   3.181700       11.6110           0   -1.01600   0.899000
      3278 OAC      22       OAC      DC1      DRUD    -2.473700        0.4000           0   0.00000   0.00000
      3279 OAC      22       OAC      C2       CD33A    2.987900       11.6110           0   -1.68100   1.41400
      3280 OAC      22       OAC      DC2      DRUD    -3.181900        0.4000           0   0.00000   0.00000
      3281 OAC      22       OAC      H1       HDA3A    0.004000        1.0080           0   0.00000   0.00000
      3282 OAC      22       OAC      H2       HDA3A    0.004000        1.0080           0   0.00000   0.00000
      3283 OAC      22       OAC      H3       HDA3A    0.004000        1.0080           0   0.00000   0.00000
      3284 OAC      22       OAC      O1       OD2C2A   2.054800       15.5994           0   -0.699000   2.39900
      3285 OAC      22       OAC      DO1      DRUD    -2.051800        0.4000           0   0.00000   0.00000
      3286 OAC      22       OAC      O2       OD2C2A   2.054800       15.5994           0   -0.699000   2.39900
      3287 OAC      22       OAC      DO2      DRUD    -2.051800        0.4000           0   0.00000   0.00000
      3288 OAC      22       OAC      H        DUMH     0.000000        1.0080           0   0.00000   0.00000
      3289 OAC      22       OAC      LPO11    LPD     -0.383000        0.0000           -1   0.00000   0.00000
      3290 OAC      22       OAC      LPO12    LPD     -0.383000        0.0000           -1   0.00000   0.00000
      3291 OAC      22       OAC      LPO21    LPD     -0.383000        0.0000           -1   0.00000   0.00000
      3292 OAC      22       OAC      LPO22    LPD     -0.383000        0.0000           -1   0.00000   0.00000
      3293 OAC      23       OAC      C1       CD2O2A   3.181700       11.6110           0   -1.01600   0.899000
      3294 OAC      23       OAC      DC1      DRUD    -2.473700        0.4000           0   0.00000   0.00000
      3295 OAC      23       OAC      C2       CD33A    2.987900       11.6110           0   -1.68100   1.41400
      3296 OAC      23       OAC      DC2      DRUD    -3.181900        0.4000           0   0.00000   0.00000
      3297 OAC      23       OAC      H1       HDA3A    0.004000        1.0080           0   0.00000   0.00000
      3298 OAC      23       OAC      H2       HDA3A    0.004000        1.0080           0   0.00000   0.00000
      3299 OAC      23       OAC      H3       HDA3A    0.004000        1.0080           0   0.00000   0.00000
      3300 OAC      23       OAC      O1       OD2C2A   2.054800       15.5994           0   -0.699000   2.39900
      3301 OAC      23       OAC      DO1      DRUD    -2.051800        0.4000           0   0.00000   0.00000
      3302 OAC      23       OAC      O2       OD2C2A   2.054800       15.5994           0   -0.699000   2.39900
      3303 OAC      23       OAC      DO2      DRUD    -2.051800        0.4000           0   0.00000   0.00000
      3304 OAC      23       OAC      H        DUMH     0.000000        1.0080           0   0.00000   0.00000
      3305 OAC      23       OAC      LPO11    LPD     -0.383000        0.0000           -1   0.00000   0.00000
      3306 OAC      23       OAC      LPO12    LPD     -0.383000        0.0000           -1   0.00000   0.00000
      3307 OAC      23       OAC      LPO21    LPD     -0.383000        0.0000           -1   0.00000   0.00000
      3308 OAC      23       OAC      LPO22    LPD     -0.383000        0.0000           -1   0.00000   0.00000
      3309 OAC      24       OAC      C1       CD2O2A   3.181700       11.6110           0   -1.01600   0.899000
      3310 OAC      24       OAC      DC1      DRUD    -2.473700        0.4000           0   0.00000   0.00000
      3311 OAC      24       OAC      C2       CD33A    2.987900       11.6110           0   -1.68100   1.41400
      3312 OAC      24       OAC      DC2      DRUD    -3.181900        0.4000           0   0.00000   0.00000
      3313 OAC      24       OAC      H1       HDA3A    0.004000        1.0080           0   0.00000   0.00000
      3314 OAC      24       OAC      H2       HDA3A    0.004000        1.0080           0   0.00000   0.00000
      3315 OAC      24       OAC      H3       HDA3A    0.004000        1.0080           0   0.00000   0.00000
      3316 OAC      24       OAC      O1       OD2C2A   2.054800       15.5994           0   -0.699000   2.39900
      3317 OAC      24       OAC      DO1      DRUD    -2.051800        0.4000           0   0.00000   0.00000
      3318 OAC      24       OAC      O2       OD2C2A   2.054800       15.5994           0   -0.699000   2.39900
      3319 OAC      24       OAC      DO2      DRUD    -2.051800        0.4000           0   0.00000   0.00000
      3320 OAC      24       OAC      H        DUMH     0.000000        1.0080           0   0.00000   0.00000
      3321 OAC      24       OAC      LPO11    LPD     -0.383000        0.0000           -1   0.00000   0.00000
      3322 OAC      24       OAC      LPO12    LPD     -0.383000        0.0000           -1   0.00000   0.00000
      3323 OAC      24       OAC      LPO21    LPD     -0.383000        0.0000           -1   0.00000   0.00000
      3324 OAC      24       OAC      LPO22    LPD     -0.383000        0.0000           -1   0.00000   0.00000
      3325 OAC      25       OAC      C1       CD2O2A   3.181700       11.6110           0   -1.01600   0.899000
      3326 OAC      25       OAC      DC1      DRUD    -2.473700        0.4000           0   0.00000   0.00000
      3327 OAC      25       OAC      C2       CD33A    2.987900       11.6110           0   -1.68100   1.41400
      3328 OAC      25       OAC      DC2      DRUD    -3.181900        0.4000           0   0.00000   0.00000
      3329 OAC      25       OAC      H1       HDA3A    0.004000        1.0080           0   0.00000   0.00000
      3330 OAC      25       OAC      H2       HDA3A    0.004000        1.0080           0   0.00000   0.00000
      3331 OAC      25       OAC      H3       HDA3A    0.004000        1.0080           0   0.00000   0.00000
      3332 OAC      25       OAC      O1       OD2C2A   2.054800       15.5994           0   -0.699000   2.39900
      3333 OAC      25       OAC      DO1      DRUD    -2.051800        0.4000           0   0.00000   0.00000
      3334 OAC      25       OAC      O2       OD2C2A   2.054800       15.5994           0   -0.699000   2.39900
      3335 OAC      25       OAC      DO2      DRUD    -2.051800        0.4000           0   0.00000   0.00000
      3336 OAC      25       OAC      H        DUMH     0.000000        1.0080           0   0.00000   0.00000
      3337 OAC      25       OAC      LPO11    LPD     -0.383000        0.0000           -1   0.00000   0.00000
      3338 OAC      25       OAC      LPO12    LPD     -0.383000        0.0000           -1   0.00000   0.00000
      3339 OAC      25       OAC      LPO21    LPD     -0.383000        0.0000           -1   0.00000   0.00000
      3340 OAC      25       OAC      LPO22    LPD     -0.383000        0.0000           -1   0.00000   0.00000
      3341 OAC      26       OAC      C1       CD2O2A   3.181700       11.6110           0   -1.01600   0.899000
      3342 OAC      26       OAC      DC1      DRUD    -2.473700        0.4000           0   0.00000   0.00000
      3343 OAC      26       OAC      C2       CD33A    2.987900       11.6110           0   -1.68100   1.41400
      3344 OAC      26       OAC      DC2      DRUD    -3.181900        0.4000           0   0.00000   0.00000
      3345 OAC      26       OAC      H1       HDA3A    0.004000        1.0080           0   0.00000   0.00000
      3346 OAC      26       OAC      H2       HDA3A    0.004000        1.0080           0   0.00000   0.00000
      3347 OAC      26       OAC      H3       HDA3A    0.004000        1.0080           0   0.00000   0.00000
      3348 OAC      26       OAC      O1       OD2C2A   2.054800       15.5994           0   -0.699000   2.39900
      3349 OAC      26       OAC      DO1      DRUD    -2.051800        0.4000           0   0.00000   0.00000
      3350 OAC      26       OAC      O2       OD2C2A   2.054800       15.5994           0   -0.699000   2.39900
      3351 OAC      26       OAC      DO2      DRUD    -2.051800        0.4000           0   0.00000   0.00000
      3352 OAC      26       OAC      H        DUMH     0.000000        1.0080           0   0.00000   0.00000
      3353 OAC      26       OAC      LPO11    LPD     -0.383000        0.0000           -1   0.00000   0.00000
      3354 OAC      26       OAC      LPO12    LPD     -0.383000        0.0000           -1   0.00000   0.00000
      3355 OAC      26       OAC      LPO21    LPD     -0.383000        0.0000           -1   0.00000   0.00000
      3356 OAC      26       OAC      LPO22    LPD     -0.383000        0.0000           -1   0.00000   0.00000
      3357 OAC      27       OAC      C1       CD2O2A   3.181700       11.6110           0   -1.01600   0.899000
      3358 OAC      27       OAC      DC1      DRUD    -2.473700        0.4000           0   0.00000   0.00000
      3359 OAC      27       OAC      C2       CD33A    2.987900       11.6110           0   -1.68100   1.41400
      3360 OAC      27       OAC      DC2      DRUD    -3.181900        0.4000           0   0.00000   0.00000
      3361 OAC      27       OAC      H1       HDA3A    0.004000        1.0080           0   0.00000   0.00000
      3362 OAC      27       OAC      H2       HDA3A    0.004000        1.0080           0   0.00000   0.00000
      3363 OAC      27       OAC      H3       HDA3A    0.004000        1.0080           0   0.00000   0.00000
      3364 OAC      27       OAC      O1       OD2C2A   2.054800       15.5994           0   -0.699000   2.39900
      3365 OAC      27       OAC      DO1      DRUD    -2.051800        0.4000           0   0.00000   0.00000
      3366 OAC      27       OAC      O2       OD2C2A   2.054800       15.5994           0   -0.699000   2.39900
      3367 OAC      27       OAC      DO2      DRUD    -2.051800        0.4000           0   0.00000   0.00000
      3368 OAC      27       OAC      H        DUMH     0.000000        1.0080           0   0.00000   0.00000
      3369 OAC      27       OAC      LPO11    LPD     -0.383000        0.0000           -1   0.00000   0.00000
      3370 OAC      27       OAC      LPO12    LPD     -0.383000        0.0000           -1   0.00000   0.00000
      3371 OAC      27       OAC      LPO21    LPD     -0.383000        0.0000           -1   0.00000   0.00000
      3372 OAC      27       OAC      LPO22    LPD     -0.383000        0.0000           -1   0.00000   0.00000
      3373 OAC      28       OAC      C1       CD2O2A   3.181700       11.6110           0   -1.01600   0.899000
      3374 OAC      28       OAC      DC1      DRUD    -2.473700        0.4000           0   0.00000   0.00000
      3375 OAC      28       OAC      C2       CD33A    2.987900       11.6110           0   -1.68100   1.41400
      3376 OAC      28       OAC      DC2      DRUD    -3.181900        0.4000           0   0.00000   0.00000
      3377 OAC      28       OAC      H1       HDA3A    0.004000        1.0080           0   0.00000   0.00000
      3378 OAC      28       OAC      H2       HDA3A    0.004000        1.0080           0   0.00000   0.00000
      3379 OAC      28       OAC      H3       HDA3A    0.004000        1.0080           0   0.00000   0.00000
      3380 OAC      28       OAC      O1       OD2C2A   2.054800       15.5994           0   -0.699000   2.39900
      3381 OAC      28       OAC      DO1      DRUD    -2.051800        0.4000           0   0.00000   0.00000
      3382 OAC      28       OAC      O2       OD2C2A   2.054800       15.5994           0   -0.699000   2.39900
      3383 OAC      28       OAC      DO2      DRUD    -2.051800        0.4000           0   0.00000   0.00000
      3384 OAC      28       OAC      H        DUMH     0.000000        1.0080           0   0.00000   0.00000
      3385 OAC      28       OAC      LPO11    LPD     -0.383000        0.0000           -1   0.00000   0.00000
      3386 OAC      28       OAC      LPO12    LPD     -0.383000        0.0000           -1   0.00000   0.00000
      3387 OAC      28       OAC      LPO21    LPD     -0.383000        0.0000           -1   0.00000   0.00000
      3388 OAC      28       OAC      LPO22    LPD     -0.383000        0.0000           -1   0.00000   0.00000
      3389 OAC      29       OAC      C1       CD2O2A   3.181700       11.6110           0   -1.01600   0.899000
      3390 OAC      29       OAC      DC1      DRUD    -2.473700        0.4000           0   0.00000   0.00000
      3391 OAC      29       OAC      C2       CD33A    2.987900       11.6110           0   -1.68100   1.41400
      3392 OAC      29       OAC      DC2      DRUD    -3.181900        0.4000           0   0.00000   0.00000
      3393 OAC      29       OAC      H1       HDA3A    0.004000        1.0080           0   0.00000   0.00000
      3394 OAC      29       OAC      H2       HDA3A    0.004000        1.0080           0   0.00000   0.00000
      3395 OAC      29       OAC      H3       HDA3A    0.004000        1.0080           0   0.00000   0.00000
      3396 OAC      29       OAC      O1       OD2C2A   2.054800       15.5994           0   -0.699000   2.39900
      3397 OAC      29       OAC      DO1      DRUD    -2.051800        0.4000           0   0.00000   0.00000
      3398 OAC      29       OAC      O2       OD2C2A   2.054800       15.5994           0   -0.699000   2.39900
      3399 OAC      29       OAC      DO2      DRUD    -2.051800        0.4000           0   0.00000   0.00000
      3400 OAC      29       OAC      H        DUMH     0.000000        1.0080           0   0.00000   0.00000
      3401 OAC      29       OAC      LPO11    LPD     -0.383000        0.0000           -1   0.00000   0.00000
      3402 OAC      29       OAC      LPO12    LPD     -0.383000        0.0000           -1   0.00000   0.00000
      3403 OAC      29       OAC      LPO21    LPD     -0.383000        0.0000           -1   0.00000   0.00000
      3404 OAC      29       OAC      LPO22    LPD     -0.383000        0.0000           -1   0.00000   0.00000
      3405 OAC      30       OAC      C1       CD2O2A   3.181700       11.6110           0   -1.01600   0.899000
      3406 OAC      30       OAC      DC1      DRUD    -2.473700        0.4000           0   0.00000   0.00000
      3407 OAC      30       OAC      C2       CD33A    2.987900       11.6110           0   -1.68100   1.41400
      3408 OAC      30       OAC      DC2      DRUD    -3.181900        0.4000           0   0.00000   0.00000
      3409 OAC      30       OAC      H1       HDA3A    0.004000        1.0080           0   0.00000   0.00000
      3410 OAC      30       OAC      H2       HDA3A    0.004000        1.0080           0   0.00000   0.00000
      3411 OAC      30       OAC      H3       HDA3A    0.004000        1.0080           0   0.00000   0.00000
      3412 OAC      30       OAC      O1       OD2C2A   2.054800       15.5994           0   -0.699000   2.39900
      3413 OAC      30       OAC      DO1      DRUD    -2.051800        0.4000           0   0.00000   0.00000
      3414 OAC      30       OAC      O2       OD2C2A   2.054800       15.5994           0   -0.699000   2.39900
      3415 OAC      30       OAC      DO2      DRUD    -2.051800        0.4000           0   0.00000   0.00000
      3416 OAC      30       OAC      H        DUMH     0.000000        1.0080           0   0.00000   0.00000
      3417 OAC      30       OAC      LPO11    LPD     -0.383000        0.0000           -1   0.00000   0.00000
      3418 OAC      30       OAC      LPO12    LPD     -0.383000        0.0000           -1   0.00000   0.00000
      3419 OAC      30       OAC      LPO21    LPD     -0.383000        0.0000           -1   0.00000   0.00000
      3420 OAC      30       OAC      LPO22    LPD     -0.383000        0.0000           -1   0.00000   0.00000
      3421 OAC      31       OAC      C1       CD2O2A   3.181700       11.6110           0   -1.01600   0.899000
      3422 OAC      31       OAC      DC1      DRUD    -2.473700        0.4000           0   0.00000   0.00000
      3423 OAC      31       OAC      C2       CD33A    2.987900       11.6110           0   -1.68100   1.41400
      3424 OAC      31       OAC      DC2      DRUD    -3.181900        0.4000           0   0.00000   0.00000
      3425 OAC      31       OAC      H1       HDA3A    0.004000        1.0080           0   0.00000   0.00000
      3426 OAC      31       OAC      H2       HDA3A    0.004000        1.0080           0   0.00000   0.00000
      3427 OAC      31       OAC      H3       HDA3A    0.004000        1.0080           0   0.00000   0.00000
      3428 OAC      31       OAC      O1       OD2C2A   2.054800       15.5994           0   -0.699000   2.39900
      3429 OAC      31       OAC      DO1      DRUD    -2.051800        0.4000           0   0.00000   0.00000
      3430 OAC      31       OAC      O2       OD2C2A   2.054800       15.5994           0   -0.699000   2.39900
      3431 OAC      31       OAC      DO2      DRUD    -2.051800        0.4000           0   0.00000   0.00000
      3432 OAC      31       OAC      H        DUMH     0.000000        1.0080           0   0.00000   0.00000
      3433 OAC      31       OAC      LPO11    LPD     -0.383000        0.0000           -1   0.00000   0.00000
      3434 OAC      31       OAC      LPO12    LPD     -0.383000        0.0000           -1   0.00000   0.00000
      3435 OAC      31       OAC      LPO21    LPD     -0.383000        0.0000           -1   0.00000   0.00000
      3436 OAC      31       OAC      LPO22    LPD     -0.383000        0.0000           -1   0.00000   0.00000
      3437 OAC      32       OAC      C1       CD2O2A   3.181700       11.6110           0   -1.01600   0.899000
      3438 OAC      32       OAC      DC1      DRUD    -2.473700        0.4000           0   0.00000   0.00000
      3439 OAC      32       OAC      C2       CD33A    2.987900       11.6110           0   -1.68100   1.41400
      3440 OAC      32       OAC      DC2      DRUD    -3.181900        0.4000           0   0.00000   0.00000
      3441 OAC      32       OAC      H1       HDA3A    0.004000        1.0080           0   0.00000   0.00000
      3442 OAC      32       OAC      H2       HDA3A    0.004000        1.0080           0   0.00000   0.00000
      3443 OAC      32       OAC      H3       HDA3A    0.004000        1.0080           0   0.00000   0.00000
      3444 OAC      32       OAC      O1       OD2C2A   2.054800       15.5994           0   -0.699000   2.39900
      3445 OAC      32       OAC      DO1      DRUD    -2.051800        0.4000           0   0.00000   0.00000
      3446 OAC      32       OAC      O2       OD2C2A   2.054800       15.5994           0   -0.699000   2.39900
      3447 OAC      32       OAC      DO2      DRUD    -2.051800        0.4000           0   0.00000   0.00000
      3448 OAC      32       OAC      H        DUMH     0.000000        1.0080           0   0.00000   0.00000
      3449 OAC      32       OAC      LPO11    LPD     -0.383000        0.0000           -1   0.00000   0.00000
      3450 OAC      32       OAC      LPO12    LPD     -0.383000        0.0000           -1   0.00000   0.00000
      3451 OAC      32       OAC      LPO21    LPD     -0.383000        0.0000           -1   0.00000   0.00000
      3452 OAC      32       OAC      LPO22    LPD     -0.383000        0.0000           -1   0.00000   0.00000
      3453 OAC      33       OAC      C1       CD2O2A   3.181700       11.6110           0   -1.01600   0.899000
      3454 OAC      33       OAC      DC1      DRUD    -2.473700        0.4000           0   0.00000   0.00000
      3455 OAC      33       OAC      C2       CD33A    2.987900       11.6110           0   -1.68100   1.41400
      3456 OAC      33       OAC      DC2      DRUD    -3.181900        0.4000           0   0.00000   0.00000
      3457 OAC      33       OAC      H1       HDA3A    0.004000        1.0080           0   0.00000   0.00000
      3458 OAC      33       OAC      H2       HDA3A    0.004000        1.0080           0   0.00000   0.00000
      3459 OAC      33       OAC      H3       HDA3A    0.004000        1.0080           0   0.00000   0.00000
      3460 OAC      33       OAC      O1       OD2C2A   2.054800       15.5994           0   -0.699000   2.39900
      3461 OAC      33       OAC      DO1      DRUD    -2.051800        0.4000           0   0.00000   0.00000
      3462 OAC      33       OAC      O2       OD2C2A   2.054800       15.5994           0   -0.699000   2.39900
      3463 OAC      33       OAC      DO2      DRUD    -2.051800        0.4000           0   0.00000   0.00000
      3464 OAC      33       OAC      H        DUMH     0.000000        1.0080           0   0.00000   0.00000
      3465 OAC      33       OAC      LPO11    LPD     -0.383000        0.0000           -1   0.00000   0.00000
      3466 OAC      33       OAC      LPO12    LPD     -0.383000        0.0000           -1   0.00000   0.00000
      3467 OAC      33       OAC      LPO21    LPD     -0.383000        0.0000           -1   0.00000   0.00000
      3468 OAC      33       OAC      LPO22    LPD     -0.383000        0.0000           -1   0.00000   0.00000
      3469 OAC      34       OAC      C1       CD2O2A   3.181700       11.6110           0   -1.01600   0.899000
      3470 OAC      34       OAC      DC1      DRUD    -2.473700        0.4000           0   0.00000   0.00000
      3471 OAC      34       OAC      C2       CD33A    2.987900       11.6110           0   -1.68100   1.41400
      3472 OAC      34       OAC      DC2      DRUD    -3.181900        0.4000           0   0.00000   0.00000
      3473 OAC      34       OAC      H1       HDA3A    0.004000        1.0080           0   0.00000   0.00000
      3474 OAC      34       OAC      H2       HDA3A    0.004000        1.0080           0   0.00000   0.00000
      3475 OAC      34       OAC      H3       HDA3A    0.004000        1.0080           0   0.00000   0.00000
      3476 OAC      34       OAC      O1       OD2C2A   2.054800       15.5994           0   -0.699000   2.39900
      3477 OAC      34       OAC      DO1      DRUD    -2.051800        0.4000           0   0.00000   0.00000
      3478 OAC      34       OAC      O2       OD2C2A   2.054800       15.5994           0   -0.699000   2.39900
      3479 OAC      34       OAC      DO2      DRUD    -2.051800        0.4000           0   0.00000   0.00000
      3480 OAC      34       OAC      H        DUMH     0.000000        1.0080           0   0.00000   0.00000
      3481 OAC      34       OAC      LPO11    LPD     -0.383000        0.0000           -1   0.00000   0.00000
      3482 OAC      34       OAC      LPO12    LPD     -0.383000        0.0000           -1   0.00000   0.00000
      3483 OAC      34       OAC      LPO21    LPD     -0.383000        0.0000           -1   0.00000   0.00000
      3484 OAC      34       OAC      LPO22    LPD     -0.383000        0.0000           -1   0.00000   0.00000
      3485 OAC      35       OAC      C1       CD2O2A   3.181700       11.6110           0   -1.01600   0.899000
      3486 OAC      35       OAC      DC1      DRUD    -2.473700        0.4000           0   0.00000   0.00000
      3487 OAC      35       OAC      C2       CD33A    2.987900       11.6110           0   -1.68100   1.41400
      3488 OAC      35       OAC      DC2      DRUD    -3.181900        0.4000           0   0.00000   0.00000
      3489 OAC      35       OAC      H1       HDA3A    0.004000        1.0080           0   0.00000   0.00000
      3490 OAC      35       OAC      H2       HDA3A    0.004000        1.0080           0   0.00000   0.00000
      3491 OAC      35       OAC      H3       HDA3A    0.004000        1.0080           0   0.00000   0.00000
      3492 OAC      35       OAC      O1       OD2C2A   2.054800       15.5994           0   -0.699000   2.39900
      3493 OAC      35       OAC      DO1      DRUD    -2.051800        0.4000           0   0.00000   0.00000
      3494 OAC      35       OAC      O2       OD2C2A   2.054800       15.5994           0   -0.699000   2.39900
      3495 OAC      35       OAC      DO2      DRUD    -2.051800        0.4000           0   0.00000   0.00000
      3496 OAC      35       OAC      H        DUMH     0.000000        1.0080           0   0.00000   0.00000
      3497 OAC      35       OAC      LPO11    LPD     -0.383000        0.0000           -1   0.00000   0.00000
      3498 OAC      35       OAC      LPO12    LPD     -0.383000        0.0000           -1   0.00000   0.00000
      3499 OAC      35       OAC      LPO21    LPD     -0.383000        0.0000           -1   0.00000   0.00000
      3500 OAC      35       OAC      LPO22    LPD     -0.383000        0.0000           -1   0.00000   0.00000
      3501 OAC      36       OAC      C1       CD2O2A   3.181700       11.6110           0   -1.01600   0.899000
      3502 OAC      36       OAC      DC1      DRUD    -2.473700        0.4000           0   0.00000   0.00000
      3503 OAC      36       OAC      C2       CD33A    2.987900       11.6110           0   -1.68100   1.41400
      3504 OAC      36       OAC      DC2      DRUD    -3.181900        0.4000           0   0.00000   0.00000
      3505 OAC      36       OAC      H1       HDA3A    0.004000        1.0080           0   0.00000   0.00000
      3506 OAC      36       OAC      H2       HDA3A    0.004000        1.0080           0   0.00000   0.00000
      3507 OAC      36       OAC      H3       HDA3A    0.004000        1.0080           0   0.00000   0.00000
      3508 OAC      36       OAC      O1       OD2C2A   2.054800       15.5994           0   -0.699000   2.39900
      3509 OAC      36       OAC      DO1      DRUD    -2.051800        0.4000           0   0.00000   0.00000
      3510 OAC      36       OAC      O2       OD2C2A   2.054800       15.5994           0   -0.699000   2.39900
      3511 OAC      36       OAC      DO2      DRUD    -2.051800        0.4000           0   0.00000   0.00000
      3512 OAC      36       OAC      H        DUMH     0.000000        1.0080           0   0.00000   0.00000
      3513 OAC      36       OAC      LPO11    LPD     -0.383000        0.0000           -1   0.00000   0.00000
      3514 OAC      36       OAC      LPO12    LPD     -0.383000        0.0000           -1   0.00000   0.00000
      3515 OAC      36       OAC      LPO21    LPD     -0.383000        0.0000           -1   0.00000   0.00000
      3516 OAC      36       OAC      LPO22    LPD     -0.383000        0.0000           -1   0.00000   0.00000
      3517 OAC      37       OAC      C1       CD2O2A   3.181700       11.6110           0   -1.01600   0.899000
      3518 OAC      37       OAC      DC1      DRUD    -2.473700        0.4000           0   0.00000   0.00000
      3519 OAC      37       OAC      C2       CD33A    2.987900       11.6110           0   -1.68100   1.41400
      3520 OAC      37       OAC      DC2      DRUD    -3.181900        0.4000           0   0.00000   0.00000
      3521 OAC      37       OAC      H1       HDA3A    0.004000        1.0080           0   0.00000   0.00000
      3522 OAC      37       OAC      H2       HDA3A    0.004000        1.0080           0   0.00000   0.00000
      3523 OAC      37       OAC      H3       HDA3A    0.004000        1.0080           0   0.00000   0.00000
      3524 OAC      37       OAC      O1       OD2C2A   2.054800       15.5994           0   -0.699000   2.39900
      3525 OAC      37       OAC      DO1      DRUD    -2.051800        0.4000           0   0.00000   0.00000
      3526 OAC      37       OAC      O2       OD2C2A   2.054800       15.5994           0   -0.699000   2.39900
      3527 OAC      37       OAC      DO2      DRUD    -2.051800        0.4000           0   0.00000   0.00000
      3528 OAC      37       OAC      H        DUMH     0.000000        1.0080           0   0.00000   0.00000
      3529 OAC      37       OAC      LPO11    LPD     -0.383000        0.0000           -1   0.00000   0.00000
      3530 OAC      37       OAC      LPO12    LPD     -0.383000        0.0000           -1   0.00000   0.00000
      3531 OAC      37       OAC      LPO21    LPD     -0.383000        0.0000           -1   0.00000   0.00000
      3532 OAC      37       OAC      LPO22    LPD     -0.383000        0.0000           -1   0.00000   0.00000
      3533 OAC      38       OAC      C1       CD2O2A   3.181700       11.6110           0   -1.01600   0.899000
      3534 OAC      38       OAC      DC1      DRUD    -2.473700        0.4000           0   0.00000   0.00000
      3535 OAC      38       OAC      C2       CD33A    2.987900       11.6110           0   -1.68100   1.41400
      3536 OAC      38       OAC      DC2      DRUD    -3.181900        0.4000           0   0.00000   0.00000
      3537 OAC      38       OAC      H1       HDA3A    0.004000        1.0080           0   0.00000   0.00000
      3538 OAC      38       OAC      H2       HDA3A    0.004000        1.0080           0   0.00000   0.00000
      3539 OAC      38       OAC      H3       HDA3A    0.004000        1.0080           0   0.00000   0.00000
      3540 OAC      38       OAC      O1       OD2C2A   2.054800       15.5994           0   -0.699000   2.39900
      3541 OAC      38       OAC      DO1      DRUD    -2.051800        0.4000           0   0.00000   0.00000
      3542 OAC      38       OAC      O2       OD2C2A   2.054800       15.5994           0   -0.699000   2.39900
      3543 OAC      38       OAC      DO2      DRUD    -2.051800        0.4000           0   0.00000   0.00000
      3544 OAC      38       OAC      H        DUMH     0.000000        1.0080           0   0.00000   0.00000
      3545 OAC      38       OAC      LPO11    LPD     -0.383000        0.0000           -1   0.00000   0.00000
      3546 OAC      38       OAC      LPO12    LPD     -0.383000        0.0000           -1   0.00000   0.00000
      3547 OAC      38       OAC      LPO21    LPD     -0.383000        0.0000           -1   0.00000   0.00000
      3548 OAC      38       OAC      LPO22    LPD     -0.383000        0.0000           -1   0.00000   0.00000
      3549 OAC      39       OAC      C1       CD2O2A   3.181700       11.6110           0   -1.01600   0.899000
      3550 OAC      39       OAC      DC1      DRUD    -2.473700        0.4000           0   0.00000   0.00000
      3551 OAC      39       OAC      C2       CD33A    2.987900       11.6110           0   -1.68100   1.41400
      3552 OAC      39       OAC      DC2      DRUD    -3.181900        0.4000           0   0.00000   0.00000
      3553 OAC      39       OAC      H1       HDA3A    0.004000        1.0080           0   0.00000   0.00000
      3554 OAC      39       OAC      H2       HDA3A    0.004000        1.0080           0   0.00000   0.00000
      3555 OAC      39       OAC      H3       HDA3A    0.004000        1.0080           0   0.00000   0.00000
      3556 OAC      39       OAC      O1       OD2C2A   2.054800       15.5994           0   -0.699000   2.39900
      3557 OAC      39       OAC      DO1      DRUD    -2.051800        0.4000           0   0.00000   0.00000
      3558 OAC      39       OAC      O2       OD2C2A   2.054800       15.5994           0   -0.699000   2.39900
      3559 OAC      39       OAC      DO2      DRUD    -2.051800        0.4000           0   0.00000   0.00000
      3560 OAC      39       OAC      H        DUMH     0.000000        1.0080           0   0.00000   0.00000
      3561 OAC      39       OAC      LPO11    LPD     -0.383000        0.0000           -1   0.00000   0.00000
      3562 OAC      39       OAC      LPO12    LPD     -0.383000        0.0000           -1   0.00000   0.00000
      3563 OAC      39       OAC      LPO21    LPD     -0.383000        0.0000           -1   0.00000   0.00000
      3564 OAC      39       OAC      LPO22    LPD     -0.383000        0.0000           -1   0.00000   0.00000
      3565 OAC      40       OAC      C1       CD2O2A   3.181700       11.6110           0   -1.01600   0.899000
      3566 OAC      40       OAC      DC1      DRUD    -2.473700        0.4000           0   0.00000   0.00000
      3567 OAC      40       OAC      C2       CD33A    2.987900       11.6110           0   -1.68100   1.41400
      3568 OAC      40       OAC      DC2      DRUD    -3.181900        0.4000           0   0.00000   0.00000
      3569 OAC      40       OAC      H1       HDA3A    0.004000        1.0080           0   0.00000   0.00000
      3570 OAC      40       OAC      H2       HDA3A    0.004000        1.0080           0   0.00000   0.00000
      3571 OAC      40       OAC      H3       HDA3A    0.004000        1.0080           0   0.00000   0.00000
      3572 OAC      40       OAC      O1       OD2C2A   2.054800       15.5994           0   -0.699000   2.39900
      3573 OAC      40       OAC      DO1      DRUD    -2.051800        0.4000           0   0.00000   0.00000
      3574 OAC      40       OAC      O2       OD2C2A   2.054800       15.5994           0   -0.699000   2.39900
      3575 OAC      40       OAC      DO2      DRUD    -2.051800        0.4000           0   0.00000   0.00000
      3576 OAC      40       OAC      H        DUMH     0.000000        1.0080           0   0.00000   0.00000
      3577 OAC      40       OAC      LPO11    LPD     -0.383000        0.0000           -1   0.00000   0.00000
      3578 OAC      40       OAC      LPO12    LPD     -0.383000        0.0000           -1   0.00000   0.00000
      3579 OAC      40       OAC      LPO21    LPD     -0.383000        0.0000           -1   0.00000   0.00000
      3580 OAC      40       OAC      LPO22    LPD     -0.383000        0.0000           -1   0.00000   0.00000
      3581 OAC      41       OAC      C1       CD2O2A   3.181700       11.6110           0   -1.01600   0.899000
      3582 OAC      41       OAC      DC1      DRUD    -2.473700        0.4000           0   0.00000   0.00000
      3583 OAC      41       OAC      C2       CD33A    2.987900       11.6110           0   -1.68100   1.41400
      3584 OAC      41       OAC      DC2      DRUD    -3.181900        0.4000           0   0.00000   0.00000
      3585 OAC      41       OAC      H1       HDA3A    0.004000        1.0080           0   0.00000   0.00000
      3586 OAC      41       OAC      H2       HDA3A    0.004000        1.0080           0   0.00000   0.00000
      3587 OAC      41       OAC      H3       HDA3A    0.004000        1.0080           0   0.00000   0.00000
      3588 OAC      41       OAC      O1       OD2C2A   2.054800       15.5994           0   -0.699000   2.39900
      3589 OAC      41       OAC      DO1      DRUD    -2.051800        0.4000           0   0.00000   0.00000
      3590 OAC      41       OAC      O2       OD2C2A   2.054800       15.5994           0   -0.699000   2.39900
      3591 OAC      41       OAC      DO2      DRUD    -2.051800        0.4000           0   0.00000   0.00000
      3592 OAC      41       OAC      H        DUMH     0.000000        1.0080           0   0.00000   0.00000
      3593 OAC      41       OAC      LPO11    LPD     -0.383000        0.0000           -1   0.00000   0.00000
      3594 OAC      41       OAC      LPO12    LPD     -0.383000        0.0000           -1   0.00000   0.00000
      3595 OAC      41       OAC      LPO21    LPD     -0.383000        0.0000           -1   0.00000   0.00000
      3596 OAC      41       OAC      LPO22    LPD     -0.383000        0.0000           -1   0.00000   0.00000
      3597 OAC      42       OAC      C1       CD2O2A   3.181700       11.6110           0   -1.01600   0.899000
      3598 OAC      42       OAC      DC1      DRUD    -2.473700        0.4000           0   0.00000   0.00000
      3599 OAC      42       OAC      C2       CD33A    2.987900       11.6110           0   -1.68100   1.41400
      3600 OAC      42       OAC      DC2      DRUD    -3.181900        0.4000           0   0.00000   0.00000
      3601 OAC      42       OAC      H1       HDA3A    0.004000        1.0080           0   0.00000   0.00000
      3602 OAC      42       OAC      H2       HDA3A    0.004000        1.0080           0   0.00000   0.00000
      3603 OAC      42       OAC      H3       HDA3A    0.004000        1.0080           0   0.00000   0.00000
      3604 OAC      42       OAC      O1       OD2C2A   2.054800       15.5994           0   -0.699000   2.39900
      3605 OAC      42       OAC      DO1      DRUD    -2.051800        0.4000           0   0.00000   0.00000
      3606 OAC      42       OAC      O2       OD2C2A   2.054800       15.5994           0   -0.699000   2.39900
      3607 OAC      42       OAC      DO2      DRUD    -2.051800        0.4000           0   0.00000   0.00000
      3608 OAC      42       OAC      H        DUMH     0.000000        1.0080           0   0.00000   0.00000
      3609 OAC      42       OAC      LPO11    LPD     -0.383000        0.0000           -1   0.00000   0.00000
      3610 OAC      42       OAC      LPO12    LPD     -0.383000        0.0000           -1   0.00000   0.00000
      3611 OAC      42       OAC      LPO21    LPD     -0.383000        0.0000           -1   0.00000   0.00000
      3612 OAC      42       OAC      LPO22    LPD     -0.383000        0.0000           -1   0.00000   0.00000
      3613 OAC      43       OAC      C1       CD2O2A   3.181700       11.6110           0   -1.01600   0.899000
      3614 OAC      43       OAC      DC1      DRUD    -2.473700        0.4000           0   0.00000   0.00000
      3615 OAC      43       OAC      C2       CD33A    2.987900       11.6110           0   -1.68100   1.41400
      3616 OAC      43       OAC      DC2      DRUD    -3.181900        0.4000           0   0.00000   0.00000
      3617 OAC      43       OAC      H1       HDA3A    0.004000        1.0080           0   0.00000   0.00000
      3618 OAC      43       OAC      H2       HDA3A    0.004000        1.0080           0   0.00000   0.00000
      3619 OAC      43       OAC      H3       HDA3A    0.004000        1.0080           0   0.00000   0.00000
      3620 OAC      43       OAC      O1       OD2C2A   2.054800       15.5994           0   -0.699000   2.39900
      3621 OAC      43       OAC      DO1      DRUD    -2.051800        0.4000           0   0.00000   0.00000
      3622 OAC      43       OAC      O2       OD2C2A   2.054800       15.5994           0   -0.699000   2.39900
      3623 OAC      43       OAC      DO2      DRUD    -2.051800        0.4000           0   0.00000   0.00000
      3624 OAC      43       OAC      H        DUMH     0.000000        1.0080           0   0.00000   0.00000
      3625 OAC      43       OAC      LPO11    LPD     -0.383000        0.0000           -1   0.00000   0.00000
      3626 OAC      43       OAC      LPO12    LPD     -0.383000        0.0000           -1   0.00000   0.00000
      3627 OAC      43       OAC      LPO21    LPD     -0.383000        0.0000           -1   0.00000   0.00000
      3628 OAC      43       OAC      LPO22    LPD     -0.383000        0.0000           -1   0.00000   0.00000
      3629 OAC      44       OAC      C1       CD2O2A   3.181700       11.6110           0   -1.01600   0.899000
      3630 OAC      44       OAC      DC1      DRUD    -2.473700        0.4000           0   0.00000   0.00000
      3631 OAC      44       OAC      C2       CD33A    2.987900       11.6110           0   -1.68100   1.41400
      3632 OAC      44       OAC      DC2      DRUD    -3.181900        0.4000           0   0.00000   0.00000
      3633 OAC      44       OAC      H1       HDA3A    0.004000        1.0080           0   0.00000   0.00000
      3634 OAC      44       OAC      H2       HDA3A    0.004000        1.0080           0   0.00000   0.00000
      3635 OAC      44       OAC      H3       HDA3A    0.004000        1.0080           0   0.00000   0.00000
      3636 OAC      44       OAC      O1       OD2C2A   2.054800       15.5994           0   -0.699000   2.39900
      3637 OAC      44       OAC      DO1      DRUD    -2.051800        0.4000           0   0.00000   0.00000
      3638 OAC      44       OAC      O2       OD2C2A   2.054800       15.5994           0   -0.699000   2.39900
      3639 OAC      44       OAC      DO2      DRUD    -2.051800        0.4000           0   0.00000   0.00000
      3640 OAC      44       OAC      H        DUMH     0.000000        1.0080           0   0.00000   0.00000
      3641 OAC      44       OAC      LPO11    LPD     -0.383000        0.0000           -1   0.00000   0.00000
      3642 OAC      44       OAC      LPO12    LPD     -0.383000        0.0000           -1   0.00000   0.00000
      3643 OAC      44       OAC      LPO21    LPD     -0.383000        0.0000           -1   0.00000   0.00000
      3644 OAC      44       OAC      LPO22    LPD     -0.383000        0.0000           -1   0.00000   0.00000
      3645 OAC      45       OAC      C1       CD2O2A   3.181700       11.6110           0   -1.01600   0.899000
      3646 OAC      45       OAC      DC1      DRUD    -2.473700        0.4000           0   0.00000   0.00000
      3647 OAC      45       OAC      C2       CD33A    2.987900       11.6110           0   -1.68100   1.41400
      3648 OAC      45       OAC      DC2      DRUD    -3.181900        0.4000           0   0.00000   0.00000
      3649 OAC      45       OAC      H1       HDA3A    0.004000        1.0080           0   0.00000   0.00000
      3650 OAC      45       OAC      H2       HDA3A    0.004000        1.0080           0   0.00000   0.00000
      3651 OAC      45       OAC      H3       HDA3A    0.004000        1.0080           0   0.00000   0.00000
      3652 OAC      45       OAC      O1       OD2C2A   2.054800       15.5994           0   -0.699000   2.39900
      3653 OAC      45       OAC      DO1      DRUD    -2.051800        0.4000           0   0.00000   0.00000
      3654 OAC      45       OAC      O2       OD2C2A   2.054800       15.5994           0   -0.699000   2.39900
      3655 OAC      45       OAC      DO2      DRUD    -2.051800        0.4000           0   0.00000   0.00000
      3656 OAC      45       OAC      H        DUMH     0.000000        1.0080           0   0.00000   0.00000
      3657 OAC      45       OAC      LPO11    LPD     -0.383000        0.0000           -1   0.00000   0.00000
      3658 OAC      45       OAC      LPO12    LPD     -0.383000        0.0000           -1   0.00000   0.00000
      3659 OAC      45       OAC      LPO21    LPD     -0.383000        0.0000           -1   0.00000   0.00000
      3660 OAC      45       OAC      LPO22    LPD     -0.383000        0.0000           -1   0.00000   0.00000
      3661 OAC      46       OAC      C1       CD2O2A   3.181700       11.6110           0   -1.01600   0.899000
      3662 OAC      46       OAC      DC1      DRUD    -2.473700        0.4000           0   0.00000   0.00000
      3663 OAC      46       OAC      C2       CD33A    2.987900       11.6110           0   -1.68100   1.41400
      3664 OAC      46       OAC      DC2      DRUD    -3.181900        0.4000           0   0.00000   0.00000
      3665 OAC      46       OAC      H1       HDA3A    0.004000        1.0080           0   0.00000   0.00000
      3666 OAC      46       OAC      H2       HDA3A    0.004000        1.0080           0   0.00000   0.00000
      3667 OAC      46       OAC      H3       HDA3A    0.004000        1.0080           0   0.00000   0.00000
      3668 OAC      46       OAC      O1       OD2C2A   2.054800       15.5994           0   -0.699000   2.39900
      3669 OAC      46       OAC      DO1      DRUD    -2.051800        0.4000           0   0.00000   0.00000
      3670 OAC      46       OAC      O2       OD2C2A   2.054800       15.5994           0   -0.699000   2.39900
      3671 OAC      46       OAC      DO2      DRUD    -2.051800        0.4000           0   0.00000   0.00000
      3672 OAC      46       OAC      H        DUMH     0.000000        1.0080           0   0.00000   0.00000
      3673 OAC      46       OAC      LPO11    LPD     -0.383000        0.0000           -1   0.00000   0.00000
      3674 OAC      46       OAC      LPO12    LPD     -0.383000        0.0000           -1   0.00000   0.00000
      3675 OAC      46       OAC      LPO21    LPD     -0.383000        0.0000           -1   0.00000   0.00000
      3676 OAC      46       OAC      LPO22    LPD     -0.383000        0.0000           -1   0.00000   0.00000
      3677 OAC      47       OAC      C1       CD2O2A   3.181700       11.6110           0   -1.01600   0.899000
      3678 OAC      47       OAC      DC1      DRUD    -2.473700        0.4000           0   0.00000   0.00000
      3679 OAC      47       OAC      C2       CD33A    2.987900       11.6110           0   -1.68100   1.41400
      3680 OAC      47       OAC      DC2      DRUD    -3.181900        0.4000           0   0.00000   0.00000
      3681 OAC      47       OAC      H1       HDA3A    0.004000        1.0080           0   0.00000   0.00000
      3682 OAC      47       OAC      H2       HDA3A    0.004000        1.0080           0   0.00000   0.00000
      3683 OAC      47       OAC      H3       HDA3A    0.004000        1.0080           0   0.00000   0.00000
      3684 OAC      47       OAC      O1       OD2C2A   2.054800       15.5994           0   -0.699000   2.39900
      3685 OAC      47       OAC      DO1      DRUD    -2.051800        0.4000           0   0.00000   0.00000
      3686 OAC      47       OAC      O2       OD2C2A   2.054800       15.5994           0   -0.699000   2.39900
      3687 OAC      47       OAC      DO2      DRUD    -2.051800        0.4000           0   0.00000   0.00000
      3688 OAC      47       OAC      H        DUMH     0.000000        1.0080           0   0.00000   0.00000
      3689 OAC      47       OAC      LPO11    LPD     -0.383000        0.0000           -1   0.00000   0.00000
      3690 OAC      47       OAC      LPO12    LPD     -0.383000        0.0000           -1   0.00000   0.00000
      3691 OAC      47       OAC      LPO21    LPD     -0.383000        0.0000           -1   0.00000   0.00000
      3692 OAC      47       OAC      LPO22    LPD     -0.383000        0.0000           -1   0.00000   0.00000
      3693 OAC      48       OAC      C1       CD2O2A   3.181700       11.6110           0   -1.01600   0.899000
      3694 OAC      48       OAC      DC1      DRUD    -2.473700        0.4000           0   0.00000   0.00000
      3695 OAC      48       OAC      C2       CD33A    2.987900       11.6110           0   -1.68100   1.41400
      3696 OAC      48       OAC      DC2      DRUD    -3.181900        0.4000           0   0.00000   0.00000
      3697 OAC      48       OAC      H1       HDA3A    0.004000        1.0080           0   0.00000   0.00000
      3698 OAC      48       OAC      H2       HDA3A    0.004000        1.0080           0   0.00000   0.00000
      3699 OAC      48       OAC      H3       HDA3A    0.004000        1.0080           0   0.00000   0.00000
      3700 OAC      48       OAC      O1       OD2C2A   2.054800       15.5994           0   -0.699000   2.39900
      3701 OAC      48       OAC      DO1      DRUD    -2.051800        0.4000           0   0.00000   0.00000
      3702 OAC      48       OAC      O2       OD2C2A   2.054800       15.5994           0   -0.699000   2.39900
      3703 OAC      48       OAC      DO2      DRUD    -2.051800        0.4000           0   0.00000   0.00000
      3704 OAC      48       OAC      H        DUMH     0.000000        1.0080           0   0.00000   0.00000
      3705 OAC      48       OAC      LPO11    LPD     -0.383000        0.0000           -1   0.00000   0.00000
      3706 OAC      48       OAC      LPO12    LPD     -0.383000        0.0000           -1   0.00000   0.00000
      3707 OAC      48       OAC      LPO21    LPD     -0.383000        0.0000           -1   0.00000   0.00000
      3708 OAC      48       OAC      LPO22    LPD     -0.383000        0.0000           -1   0.00000   0.00000
      3709 OAC      49       OAC      C1       CD2O2A   3.181700       11.6110           0   -1.01600   0.899000
      3710 OAC      49       OAC      DC1      DRUD    -2.473700        0.4000           0   0.00000   0.00000
      3711 OAC      49       OAC      C2       CD33A    2.987900       11.6110           0   -1.68100   1.41400
      3712 OAC      49       OAC      DC2      DRUD    -3.181900        0.4000           0   0.00000   0.00000
      3713 OAC      49       OAC      H1       HDA3A    0.004000        1.0080           0   0.00000   0.00000
      3714 OAC      49       OAC      H2       HDA3A    0.004000        1.0080           0   0.00000   0.00000
      3715 OAC      49       OAC      H3       HDA3A    0.004000        1.0080           0   0.00000   0.00000
      3716 OAC      49       OAC      O1       OD2C2A   2.054800       15.5994           0   -0.699000   2.39900
      3717 OAC      49       OAC      DO1      DRUD    -2.051800        0.4000           0   0.00000   0.00000
      3718 OAC      49       OAC      O2       OD2C2A   2.054800       15.5994           0   -0.699000   2.39900
      3719 OAC      49       OAC      DO2      DRUD    -2.051800        0.4000           0   0.00000   0.00000
      3720 OAC      49       OAC      H        DUMH     0.000000        1.0080           0   0.00000   0.00000
      3721 OAC      49       OAC      LPO11    LPD     -0.383000        0.0000           -1   0.00000   0.00000
      3722 OAC      49       OAC      LPO12    LPD     -0.383000        0.0000           -1   0.00000   0.00000
      3723 OAC      49       OAC      LPO21    LPD     -0.383000        0.0000           -1   0.00000   0.00000
      3724 OAC      49       OAC      LPO22    LPD     -0.383000        0.0000           -1   0.00000   0.00000
      3725 OAC      50       OAC      C1       CD2O2A   3.181700       11.6110           0   -1.01600   0.899000
      3726 OAC      50       OAC      DC1      DRUD    -2.473700        0.4000           0   0.00000   0.00000
      3727 OAC      50       OAC      C2       CD33A    2.987900       11.6110           0   -1.68100   1.41400
      3728 OAC      50       OAC      DC2      DRUD    -3.181900        0.4000           0   0.00000   0.00000
      3729 OAC      50       OAC      H1       HDA3A    0.004000        1.0080           0   0.00000   0.00000
      3730 OAC      50       OAC      H2       HDA3A    0.004000        1.0080           0   0.00000   0.00000
      3731 OAC      50       OAC      H3       HDA3A    0.004000        1.0080           0   0.00000   0.00000
      3732 OAC      50       OAC      O1       OD2C2A   2.054800       15.5994           0   -0.699000   2.39900
      3733 OAC      50       OAC      DO1      DRUD    -2.051800        0.4000           0   0.00000   0.00000
      3734 OAC      50       OAC      O2       OD2C2A   2.054800       15.5994           0   -0.699000   2.39900
      3735 OAC      50       OAC      DO2      DRUD    -2.051800        0.4000           0   0.00000   0.00000
      3736 OAC      50       OAC      H        DUMH     0.000000        1.0080           0   0.00000   0.00000
      3737 OAC      50       OAC      LPO11    LPD     -0.383000        0.0000           -1   0.00000   0.00000
      3738 OAC      50       OAC      LPO12    LPD     -0.383000        0.0000           -1   0.00000   0.00000
      3739 OAC      50       OAC      LPO21    LPD     -0.383000        0.0000           -1   0.00000   0.00000
      3740 OAC      50       OAC      LPO22    LPD     -0.383000        0.0000           -1   0.00000   0.00000
      3741 OAC      51       OAC      C1       CD2O2A   3.181700       11.6110           0   -1.01600   0.899000
      3742 OAC      51       OAC      DC1      DRUD    -2.473700        0.4000           0   0.00000   0.00000
      3743 OAC      51       OAC      C2       CD33A    2.987900       11.6110           0   -1.68100   1.41400
      3744 OAC      51       OAC      DC2      DRUD    -3.181900        0.4000           0   0.00000   0.00000
      3745 OAC      51       OAC      H1       HDA3A    0.004000        1.0080           0   0.00000   0.00000
      3746 OAC      51       OAC      H2       HDA3A    0.004000        1.0080           0   0.00000   0.00000
      3747 OAC      51       OAC      H3       HDA3A    0.004000        1.0080           0   0.00000   0.00000
      3748 OAC      51       OAC      O1       OD2C2A   2.054800       15.5994           0   -0.699000   2.39900
      3749 OAC      51       OAC      DO1      DRUD    -2.051800        0.4000           0   0.00000   0.00000
      3750 OAC      51       OAC      O2       OD2C2A   2.054800       15.5994           0   -0.699000   2.39900
      3751 OAC      51       OAC      DO2      DRUD    -2.051800        0.4000           0   0.00000   0.00000
      3752 OAC      51       OAC      H        DUMH     0.000000        1.0080           0   0.00000   0.00000
      3753 OAC      51       OAC      LPO11    LPD     -0.383000        0.0000           -1   0.00000   0.00000
      3754 OAC      51       OAC      LPO12    LPD     -0.383000        0.0000           -1   0.00000   0.00000
      3755 OAC      51       OAC      LPO21    LPD     -0.383000        0.0000           -1   0.00000   0.00000
      3756 OAC      51       OAC      LPO22    LPD     -0.383000        0.0000           -1   0.00000   0.00000
      3757 OAC      52       OAC      C1       CD2O2A   3.181700       11.6110           0   -1.01600   0.899000
      3758 OAC      52       OAC      DC1      DRUD    -2.473700        0.4000           0   0.00000   0.00000
      3759 OAC      52       OAC      C2       CD33A    2.987900       11.6110           0   -1.68100   1.41400
      3760 OAC      52       OAC      DC2      DRUD    -3.181900        0.4000           0   0.00000   0.00000
      3761 OAC      52       OAC      H1       HDA3A    0.004000        1.0080           0   0.00000   0.00000
      3762 OAC      52       OAC      H2       HDA3A    0.004000        1.0080           0   0.00000   0.00000
      3763 OAC      52       OAC      H3       HDA3A    0.004000        1.0080           0   0.00000   0.00000
      3764 OAC      52       OAC      O1       OD2C2A   2.054800       15.5994           0   -0.699000   2.39900
      3765 OAC      52       OAC      DO1      DRUD    -2.051800        0.4000           0   0.00000   0.00000
      3766 OAC      52       OAC      O2       OD2C2A   2.054800       15.5994           0   -0.699000   2.39900
      3767 OAC      52       OAC      DO2      DRUD    -2.051800        0.4000           0   0.00000   0.00000
      3768 OAC      52       OAC      H        DUMH     0.000000        1.0080           0   0.00000   0.00000
      3769 OAC      52       OAC      LPO11    LPD     -0.383000        0.0000           -1   0.00000   0.00000
      3770 OAC      52       OAC      LPO12    LPD     -0.383000        0.0000           -1   0.00000   0.00000
      3771 OAC      52       OAC      LPO21    LPD     -0.383000        0.0000           -1   0.00000   0.00000
      3772 OAC      52       OAC      LPO22    LPD     -0.383000        0.0000           -1   0.00000   0.00000
      3773 OAC      53       OAC      C1       CD2O2A   3.181700       11.6110           0   -1.01600   0.899000
      3774 OAC      53       OAC      DC1      DRUD    -2.473700        0.4000           0   0.00000   0.00000
      3775 OAC      53       OAC      C2       CD33A    2.987900       11.6110           0   -1.68100   1.41400
      3776 OAC      53       OAC      DC2      DRUD    -3.181900        0.4000           0   0.00000   0.00000
      3777 OAC      53       OAC      H1       HDA3A    0.004000        1.0080           0   0.00000   0.00000
      3778 OAC      53       OAC      H2       HDA3A    0.004000        1.0080           0   0.00000   0.00000
      3779 OAC      53       OAC      H3       HDA3A    0.004000        1.0080           0   0.00000   0.00000
      3780 OAC      53       OAC      O1       OD2C2A   2.054800       15.5994           0   -0.699000   2.39900
      3781 OAC      53       OAC      DO1      DRUD    -2.051800        0.4000           0   0.00000   0.00000
      3782 OAC      53       OAC      O2       OD2C2A   2.054800       15.5994           0   -0.699000   2.39900
      3783 OAC      53       OAC      DO2      DRUD    -2.051800        0.4000           0   0.00000   0.00000
      3784 OAC      53       OAC      H        DUMH     0.000000        1.0080           0   0.00000   0.00000
      3785 OAC      53       OAC      LPO11    LPD     -0.383000        0.0000           -1   0.00000   0.00000
      3786 OAC      53       OAC      LPO12    LPD     -0.383000        0.0000           -1   0.00000   0.00000
      3787 OAC      53       OAC      LPO21    LPD     -0.383000        0.0000           -1   0.00000   0.00000
      3788 OAC      53       OAC      LPO22    LPD     -0.383000        0.0000           -1   0.00000   0.00000
      3789 OAC      54       OAC      C1       CD2O2A   3.181700       11.6110           0   -1.01600   0.899000
      3790 OAC      54       OAC      DC1      DRUD    -2.473700        0.4000           0   0.00000   0.00000
      3791 OAC      54       OAC      C2       CD33A    2.987900       11.6110           0   -1.68100   1.41400
      3792 OAC      54       OAC      DC2      DRUD    -3.181900        0.4000           0   0.00000   0.00000
      3793 OAC      54       OAC      H1       HDA3A    0.004000        1.0080           0   0.00000   0.00000
      3794 OAC      54       OAC      H2       HDA3A    0.004000        1.0080           0   0.00000   0.00000
      3795 OAC      54       OAC      H3       HDA3A    0.004000        1.0080           0   0.00000   0.00000
      3796 OAC      54       OAC      O1       OD2C2A   2.054800       15.5994           0   -0.699000   2.39900
      3797 OAC      54       OAC      DO1      DRUD    -2.051800        0.4000           0   0.00000   0.00000
      3798 OAC      54       OAC      O2       OD2C2A   2.054800       15.5994           0   -0.699000   2.39900
      3799 OAC      54       OAC      DO2      DRUD    -2.051800        0.4000           0   0.00000   0.00000
      3800 OAC      54       OAC      H        DUMH     0.000000        1.0080           0   0.00000   0.00000
      3801 OAC      54       OAC      LPO11    LPD     -0.383000        0.0000           -1   0.00000   0.00000
      3802 OAC      54       OAC      LPO12    LPD     -0.383000        0.0000           -1   0.00000   0.00000
      3803 OAC      54       OAC      LPO21    LPD     -0.383000        0.0000           -1   0.00000   0.00000
      3804 OAC      54       OAC      LPO22    LPD     -0.383000        0.0000           -1   0.00000   0.00000
      3805 OAC      55       OAC      C1       CD2O2A   3.181700       11.6110           0   -1.01600   0.899000
      3806 OAC      55       OAC      DC1      DRUD    -2.473700        0.4000           0   0.00000   0.00000
      3807 OAC      55       OAC      C2       CD33A    2.987900       11.6110           0   -1.68100   1.41400
      3808 OAC      55       OAC      DC2      DRUD    -3.181900        0.4000           0   0.00000   0.00000
      3809 OAC      55       OAC      H1       HDA3A    0.004000        1.0080           0   0.00000   0.00000
      3810 OAC      55       OAC      H2       HDA3A    0.004000        1.0080           0   0.00000   0.00000
      3811 OAC      55       OAC      H3       HDA3A    0.004000        1.0080           0   0.00000   0.00000
      3812 OAC      55       OAC      O1       OD2C2A   2.054800       15.5994           0   -0.699000   2.39900
      3813 OAC      55       OAC      DO1      DRUD    -2.051800        0.4000           0   0.00000   0.00000
      3814 OAC      55       OAC      O2       OD2C2A   2.054800       15.5994           0   -0.699000   2.39900
      3815 OAC      55       OAC      DO2      DRUD    -2.051800        0.4000           0   0.00000   0.00000
      3816 OAC      55       OAC      H        DUMH     0.000000        1.0080           0   0.00000   0.00000
      3817 OAC      55       OAC      LPO11    LPD     -0.383000        0.0000           -1   0.00000   0.00000
      3818 OAC      55       OAC      LPO12    LPD     -0.383000        0.0000           -1   0.00000   0.00000
      3819 OAC      55       OAC      LPO21    LPD     -0.383000        0.0000           -1   0.00000   0.00000
      3820 OAC      55       OAC      LPO22    LPD     -0.383000        0.0000           -1   0.00000   0.00000
      3821 OAC      56       OAC      C1       CD2O2A   3.181700       11.6110           0   -1.01600   0.899000
      3822 OAC      56       OAC      DC1      DRUD    -2.473700        0.4000           0   0.00000   0.00000
      3823 OAC      56       OAC      C2       CD33A    2.987900       11.6110           0   -1.68100   1.41400
      3824 OAC      56       OAC      DC2      DRUD    -3.181900        0.4000           0   0.00000   0.00000
      3825 OAC      56       OAC      H1       HDA3A    0.004000        1.0080           0   0.00000   0.00000
      3826 OAC      56       OAC      H2       HDA3A    0.004000        1.0080           0   0.00000   0.00000
      3827 OAC      56       OAC      H3       HDA3A    0.004000        1.0080           0   0.00000   0.00000
      3828 OAC      56       OAC      O1       OD2C2A   2.054800       15.5994           0   -0.699000   2.39900
      3829 OAC      56       OAC      DO1      DRUD    -2.051800        0.4000           0   0.00000   0.00000
      3830 OAC      56       OAC      O2       OD2C2A   2.054800       15.5994           0   -0.699000   2.39900
      3831 OAC      56       OAC      DO2      DRUD    -2.051800        0.4000           0   0.00000   0.00000
      3832 OAC      56       OAC      H        DUMH     0.000000        1.0080           0   0.00000   0.00000
      3833 OAC      56       OAC      LPO11    LPD     -0.383000        0.0000           -1   0.00000   0.00000
      3834 OAC      56       OAC      LPO12    LPD     -0.383000        0.0000           -1   0.00000   0.00000
      3835 OAC      56       OAC      LPO21    LPD     -0.383000        0.0000           -1   0.00000   0.00000
      3836 OAC      56       OAC      LPO22    LPD     -0.383000        0.0000           -1   0.00000   0.00000
      3837 OAC      57       OAC      C1       CD2O2A   3.181700       11.6110           0   -1.01600   0.899000
      3838 OAC      57       OAC      DC1      DRUD    -2.473700        0.4000           0   0.00000   0.00000
      3839 OAC      57       OAC      C2       CD33A    2.987900       11.6110           0   -1.68100   1.41400
      3840 OAC      57       OAC      DC2      DRUD    -3.181900        0.4000           0   0.00000   0.00000
      3841 OAC      57       OAC      H1       HDA3A    0.004000        1.0080           0   0.00000   0.00000
      3842 OAC      57       OAC      H2       HDA3A    0.004000        1.0080           0   0.00000   0.00000
      3843 OAC      57       OAC      H3       HDA3A    0.004000        1.0080           0   0.00000   0.00000
      3844 OAC      57       OAC      O1       OD2C2A   2.054800       15.5994           0   -0.699000   2.39900
      3845 OAC      57       OAC      DO1      DRUD    -2.051800        0.4000           0   0.00000   0.00000
      3846 OAC      57       OAC      O2       OD2C2A   2.054800       15.5994           0   -0.699000   2.39900
      3847 OAC      57       OAC      DO2      DRUD    -2.051800        0.4000           0   0.00000   0.00000
      3848 OAC      57       OAC      H        DUMH     0.000000        1.0080           0   0.00000   0.00000
      3849 OAC      57       OAC      LPO11    LPD     -0.383000        0.0000           -1   0.00000   0.00000
      3850 OAC      57       OAC      LPO12    LPD     -0.383000        0.0000           -1   0.00000   0.00000
      3851 OAC      57       OAC      LPO21    LPD     -0.383000        0.0000           -1   0.00000   0.00000
      3852 OAC      57       OAC      LPO22    LPD     -0.383000        0.0000           -1   0.00000   0.00000
      3853 OAC      58       OAC      C1       CD2O2A   3.181700       11.6110           0   -1.01600   0.899000
      3854 OAC      58       OAC      DC1      DRUD    -2.473700        0.4000           0   0.00000   0.00000
      3855 OAC      58       OAC      C2       CD33A    2.987900       11.6110           0   -1.68100   1.41400
      3856 OAC      58       OAC      DC2      DRUD    -3.181900        0.4000           0   0.00000   0.00000
      3857 OAC      58       OAC      H1       HDA3A    0.004000        1.0080           0   0.00000   0.00000
      3858 OAC      58       OAC      H2       HDA3A    0.004000        1.0080           0   0.00000   0.00000
      3859 OAC      58       OAC      H3       HDA3A    0.004000        1.0080           0   0.00000   0.00000
      3860 OAC      58       OAC      O1       OD2C2A   2.054800       15.5994           0   -0.699000   2.39900
      3861 OAC      58       OAC      DO1      DRUD    -2.051800        0.4000           0   0.00000   0.00000
      3862 OAC      58       OAC      O2       OD2C2A   2.054800       15.5994           0   -0.699000   2.39900
      3863 OAC      58       OAC      DO2      DRUD    -2.051800        0.4000           0   0.00000   0.00000
      3864 OAC      58       OAC      H        DUMH     0.000000        1.0080           0   0.00000   0.00000
      3865 OAC      58       OAC      LPO11    LPD     -0.383000        0.0000           -1   0.00000   0.00000
      3866 OAC      58       OAC      LPO12    LPD     -0.383000        0.0000           -1   0.00000   0.00000
      3867 OAC      58       OAC      LPO21    LPD     -0.383000        0.0000           -1   0.00000   0.00000
      3868 OAC      58       OAC      LPO22    LPD     -0.383000        0.0000           -1   0.00000   0.00000
      3869 OAC      59       OAC      C1       CD2O2A   3.181700       11.6110           0   -1.01600   0.899000
      3870 OAC      59       OAC      DC1      DRUD    -2.473700        0.4000           0   0.00000   0.00000
      3871 OAC      59       OAC      C2       CD33A    2.987900       11.6110           0   -1.68100   1.41400
      3872 OAC      59       OAC      DC2      DRUD    -3.181900        0.4000           0   0.00000   0.00000
      3873 OAC      59       OAC      H1       HDA3A    0.004000        1.0080           0   0.00000   0.00000
      3874 OAC      59       OAC      H2       HDA3A    0.004000        1.0080           0   0.00000   0.00000
      3875 OAC      59       OAC      H3       HDA3A    0.004000        1.0080           0   0.00000   0.00000
      3876 OAC      59       OAC      O1       OD2C2A   2.054800       15.5994           0   -0.699000   2.39900
      3877 OAC      59       OAC      DO1      DRUD    -2.051800        0.4000           0   0.00000   0.00000
      3878 OAC      59       OAC      O2       OD2C2A   2.054800       15.5994           0   -0.699000   2.39900
      3879 OAC      59       OAC      DO2      DRUD    -2.051800        0.4000           0   0.00000   0.00000
      3880 OAC      59       OAC      H        DUMH     0.000000        1.0080           0   0.00000   0.00000
      3881 OAC      59       OAC      LPO11    LPD     -0.383000        0.0000           -1   0.00000   0.00000
      3882 OAC      59       OAC      LPO12    LPD     -0.383000        0.0000           -1   0.00000   0.00000
      3883 OAC      59       OAC      LPO21    LPD     -0.383000        0.0000           -1   0.00000   0.00000
      3884 OAC      59       OAC      LPO22    LPD     -0.383000        0.0000           -1   0.00000   0.00000
      3885 OAC      60       OAC      C1       CD2O2A   3.181700       11.6110           0   -1.01600   0.899000
      3886 OAC      60       OAC      DC1      DRUD    -2.473700        0.4000           0   0.00000   0.00000
      3887 OAC      60       OAC      C2       CD33A    2.987900       11.6110           0   -1.68100   1.41400
      3888 OAC      60       OAC      DC2      DRUD    -3.181900        0.4000           0   0.00000   0.00000
      3889 OAC      60       OAC      H1       HDA3A    0.004000        1.0080           0   0.00000   0.00000
      3890 OAC      60       OAC      H2       HDA3A    0.004000        1.0080           0   0.00000   0.00000
      3891 OAC      60       OAC      H3       HDA3A    0.004000        1.0080           0   0.00000   0.00000
      3892 OAC      60       OAC      O1       OD2C2A   2.054800       15.5994           0   -0.699000   2.39900
      3893 OAC      60       OAC      DO1      DRUD    -2.051800        0.4000           0   0.00000   0.00000
      3894 OAC      60       OAC      O2       OD2C2A   2.054800       15.5994           0   -0.699000   2.39900
      3895 OAC      60       OAC      DO2      DRUD    -2.051800        0.4000           0   0.00000   0.00000
      3896 OAC      60       OAC      H        DUMH     0.000000        1.0080           0   0.00000   0.00000
      3897 OAC      60       OAC      LPO11    LPD     -0.383000        0.0000           -1   0.00000   0.00000
      3898 OAC      60       OAC      LPO12    LPD     -0.383000        0.0000           -1   0.00000   0.00000
      3899 OAC      60       OAC      LPO21    LPD     -0.383000        0.0000           -1   0.00000   0.00000
      3900 OAC      60       OAC      LPO22    LPD     -0.383000        0.0000           -1   0.00000   0.00000
      3901 OAC      61       OAC      C1       CD2O2A   3.181700       11.6110           0   -1.01600   0.899000
      3902 OAC      61       OAC      DC1      DRUD    -2.473700        0.4000           0   0.00000   0.00000
      3903 OAC      61       OAC      C2       CD33A    2.987900       11.6110           0   -1.68100   1.41400
      3904 OAC      61       OAC      DC2      DRUD    -3.181900        0.4000           0   0.00000   0.00000
      3905 OAC      61       OAC      H1       HDA3A    0.004000        1.0080           0   0.00000   0.00000
      3906 OAC      61       OAC      H2       HDA3A    0.004000        1.0080           0   0.00000   0.00000
      3907 OAC      61       OAC      H3       HDA3A    0.004000        1.0080           0   0.00000   0.00000
      3908 OAC      61       OAC      O1       OD2C2A   2.054800       15.5994           0   -0.699000   2.39900
      3909 OAC      61       OAC      DO1      DRUD    -2.051800        0.4000           0   0.00000   0.00000
      3910 OAC      61       OAC      O2       OD2C2A   2.054800       15.5994           0   -0.699000   2.39900
      3911 OAC      61       OAC      DO2      DRUD    -2.051800        0.4000           0   0.00000   0.00000
      3912 OAC      61       OAC      H        DUMH     0.000000        1.0080           0   0.00000   0.00000
      3913 OAC      61       OAC      LPO11    LPD     -0.383000        0.0000           -1   0.00000   0.00000
      3914 OAC      61       OAC      LPO12    LPD     -0.383000        0.0000           -1   0.00000   0.00000
      3915 OAC      61       OAC      LPO21    LPD     -0.383000        0.0000           -1   0.00000   0.00000
      3916 OAC      61       OAC      LPO22    LPD     -0.383000        0.0000           -1   0.00000   0.00000
      3917 OAC      62       OAC      C1       CD2O2A   3.181700       11.6110           0   -1.01600   0.899000
      3918 OAC      62       OAC      DC1      DRUD    -2.473700        0.4000           0   0.00000   0.00000
      3919 OAC      62       OAC      C2       CD33A    2.987900       11.6110           0   -1.68100   1.41400
      3920 OAC      62       OAC      DC2      DRUD    -3.181900        0.4000           0   0.00000   0.00000
      3921 OAC      62       OAC      H1       HDA3A    0.004000        1.0080           0   0.00000   0.00000
      3922 OAC      62       OAC      H2       HDA3A    0.004000        1.0080           0   0.00000   0.00000
      3923 OAC      62       OAC      H3       HDA3A    0.004000        1.0080           0   0.00000   0.00000
      3924 OAC      62       OAC      O1       OD2C2A   2.054800       15.5994           0   -0.699000   2.39900
      3925 OAC      62       OAC      DO1      DRUD    -2.051800        0.4000           0   0.00000   0.00000
      3926 OAC      62       OAC      O2       OD2C2A   2.054800       15.5994           0   -0.699000   2.39900
      3927 OAC      62       OAC      DO2      DRUD    -2.051800        0.4000           0   0.00000   0.00000
      3928 OAC      62       OAC      H        DUMH     0.000000        1.0080           0   0.00000   0.00000
      3929 OAC      62       OAC      LPO11    LPD     -0.383000        0.0000           -1   0.00000   0.00000
      3930 OAC      62       OAC      LPO12    LPD     -0.383000        0.0000           -1   0.00000   0.00000
      3931 OAC      62       OAC      LPO21    LPD     -0.383000        0.0000           -1   0.00000   0.00000
      3932 OAC      62       OAC      LPO22    LPD     -0.383000        0.0000           -1   0.00000   0.00000
      3933 OAC      63       OAC      C1       CD2O2A   3.181700       11.6110           0   -1.01600   0.899000
      3934 OAC      63       OAC      DC1      DRUD    -2.473700        0.4000           0   0.00000   0.00000
      3935 OAC      63       OAC      C2       CD33A    2.987900       11.6110           0   -1.68100   1.41400
      3936 OAC      63       OAC      DC2      DRUD    -3.181900        0.4000           0   0.00000   0.00000
      3937 OAC      63       OAC      H1       HDA3A    0.004000        1.0080           0   0.00000   0.00000
      3938 OAC      63       OAC      H2       HDA3A    0.004000        1.0080           0   0.00000   0.00000
      3939 OAC      63       OAC      H3       HDA3A    0.004000        1.0080           0   0.00000   0.00000
      3940 OAC      63       OAC      O1       OD2C2A   2.054800       15.5994           0   -0.699000   2.39900
      3941 OAC      63       OAC      DO1      DRUD    -2.051800        0.4000           0   0.00000   0.00000
      3942 OAC      63       OAC      O2       OD2C2A   2.054800       15.5994           0   -0.699000   2.39900
      3943 OAC      63       OAC      DO2      DRUD    -2.051800        0.4000           0   0.00000   0.00000
      3944 OAC      63       OAC      H        DUMH     0.000000        1.0080           0   0.00000   0.00000
      3945 OAC      63       OAC      LPO11    LPD     -0.383000        0.0000           -1   0.00000   0.00000
      3946 OAC      63       OAC      LPO12    LPD     -0.383000        0.0000           -1   0.00000   0.00000
      3947 OAC      63       OAC      LPO21    LPD     -0.383000        0.0000           -1   0.00000   0.00000
      3948 OAC      63       OAC      LPO22    LPD     -0.383000        0.0000           -1   0.00000   0.00000
      3949 OAC      64       OAC      C1       CD2O2A   3.181700       11.6110           0   -1.01600   0.899000
      3950 OAC      64       OAC      DC1      DRUD    -2.473700        0.4000           0   0.00000   0.00000
      3951 OAC      64       OAC      C2       CD33A    2.987900       11.6110           0   -1.68100   1.41400
      3952 OAC      64       OAC      DC2      DRUD    -3.181900        0.4000           0   0.00000   0.00000
      3953 OAC      64       OAC      H1       HDA3A    0.004000        1.0080           0   0.00000   0.00000
      3954 OAC      64       OAC      H2       HDA3A    0.004000        1.0080           0   0.00000   0.00000
      3955 OAC      64       OAC      H3       HDA3A    0.004000        1.0080           0   0.00000   0.00000
      3956 OAC      64       OAC      O1       OD2C2A   2.054800       15.5994           0   -0.699000   2.39900
      3957 OAC      64       OAC      DO1      DRUD    -2.051800        0.4000           0   0.00000   0.00000
      3958 OAC      64       OAC      O2       OD2C2A   2.054800       15.5994           0   -0.699000   2.39900
      3959 OAC      64       OAC      DO2      DRUD    -2.051800        0.4000           0   0.00000   0.00000
      3960 OAC      64       OAC      H        DUMH     0.000000        1.0080           0   0.00000   0.00000
      3961 OAC      64       OAC      LPO11    LPD     -0.383000        0.0000           -1   0.00000   0.00000
      3962 OAC      64       OAC      LPO12    LPD     -0.383000        0.0000           -1   0.00000   0.00000
      3963 OAC      64       OAC      LPO21    LPD     -0.383000        0.0000           -1   0.00000   0.00000
      3964 OAC      64       OAC      LPO22    LPD     -0.383000        0.0000           -1   0.00000   0.00000
      3965 OAC      65       OAC      C1       CD2O2A   3.181700       11.6110           0   -1.01600   0.899000
      3966 OAC      65       OAC      DC1      DRUD    -2.473700        0.4000           0   0.00000   0.00000
      3967 OAC      65       OAC      C2       CD33A    2.987900       11.6110           0   -1.68100   1.41400
      3968 OAC      65       OAC      DC2      DRUD    -3.181900        0.4000           0   0.00000   0.00000
      3969 OAC      65       OAC      H1       HDA3A    0.004000        1.0080           0   0.00000   0.00000
      3970 OAC      65       OAC      H2       HDA3A    0.004000        1.0080           0   0.00000   0.00000
      3971 OAC      65       OAC      H3       HDA3A    0.004000        1.0080           0   0.00000   0.00000
      3972 OAC      65       OAC      O1       OD2C2A   2.054800       15.5994           0   -0.699000   2.39900
      3973 OAC      65       OAC      DO1      DRUD    -2.051800        0.4000           0   0.00000   0.00000
      3974 OAC      65       OAC      O2       OD2C2A   2.054800       15.5994           0   -0.699000   2.39900
      3975 OAC      65       OAC      DO2      DRUD    -2.051800        0.4000           0   0.00000   0.00000
      3976 OAC      65       OAC      H        DUMH     0.000000        1.0080           0   0.00000   0.00000
      3977 OAC      65       OAC      LPO11    LPD     -0.383000        0.0000           -1   0.00000   0.00000
      3978 OAC      65       OAC      LPO12    LPD     -0.383000        0.0000           -1   0.00000   0.00000
      3979 OAC      65       OAC      LPO21    LPD     -0.383000        0.0000           -1   0.00000   0.00000
      3980 OAC      65       OAC      LPO22    LPD     -0.383000        0.0000           -1   0.00000   0.00000
      3981 OAC      66       OAC      C1       CD2O2A   3.181700       11.6110           0   -1.01600   0.899000
      3982 OAC      66       OAC      DC1      DRUD    -2.473700        0.4000           0   0.00000   0.00000
      3983 OAC      66       OAC      C2       CD33A    2.987900       11.6110           0   -1.68100   1.41400
      3984 OAC      66       OAC      DC2      DRUD    -3.181900        0.4000           0   0.00000   0.00000
      3985 OAC      66       OAC      H1       HDA3A    0.004000        1.0080           0   0.00000   0.00000
      3986 OAC      66       OAC      H2       HDA3A    0.004000        1.0080           0   0.00000   0.00000
      3987 OAC      66       OAC      H3       HDA3A    0.004000        1.0080           0   0.00000   0.00000
      3988 OAC      66       OAC      O1       OD2C2A   2.054800       15.5994           0   -0.699000   2.39900
      3989 OAC      66       OAC      DO1      DRUD    -2.051800        0.4000           0   0.00000   0.00000
      3990 OAC      66       OAC      O2       OD2C2A   2.054800       15.5994           0   -0.699000   2.39900
      3991 OAC      66       OAC      DO2      DRUD    -2.051800        0.4000           0   0.00000   0.00000
      3992 OAC      66       OAC      H        DUMH     0.000000        1.0080           0   0.00000   0.00000
      3993 OAC      66       OAC      LPO11    LPD     -0.383000        0.0000           -1   0.00000   0.00000
      3994 OAC      66       OAC      LPO12    LPD     -0.383000        0.0000           -1   0.00000   0.00000
      3995 OAC      66       OAC      LPO21    LPD     -0.383000        0.0000           -1   0.00000   0.00000
      3996 OAC      66       OAC      LPO22    LPD     -0.383000        0.0000           -1   0.00000   0.00000
      3997 OAC      67       OAC      C1       CD2O2A   3.181700       11.6110           0   -1.01600   0.899000
      3998 OAC      67       OAC      DC1      DRUD    -2.473700        0.4000           0   0.00000   0.00000
      3999 OAC      67       OAC      C2       CD33A    2.987900       11.6110           0   -1.68100   1.41400
      4000 OAC      67       OAC      DC2      DRUD    -3.181900        0.4000           0   0.00000   0.00000
      4001 OAC      67       OAC      H1       HDA3A    0.004000        1.0080           0   0.00000   0.00000
      4002 OAC      67       OAC      H2       HDA3A    0.004000        1.0080           0   0.00000   0.00000
      4003 OAC      67       OAC      H3       HDA3A    0.004000        1.0080           0   0.00000   0.00000
      4004 OAC      67       OAC      O1       OD2C2A   2.054800       15.5994           0   -0.699000   2.39900
      4005 OAC      67       OAC      DO1      DRUD    -2.051800        0.4000           0   0.00000   0.00000
      4006 OAC      67       OAC      O2       OD2C2A   2.054800       15.5994           0   -0.699000   2.39900
      4007 OAC      67       OAC      DO2      DRUD    -2.051800        0.4000           0   0.00000   0.00000
      4008 OAC      67       OAC      H        DUMH     0.000000        1.0080           0   0.00000   0.00000
      4009 OAC      67       OAC      LPO11    LPD     -0.383000        0.0000           -1   0.00000   0.00000
      4010 OAC      67       OAC      LPO12    LPD     -0.383000        0.0000           -1   0.00000   0.00000
      4011 OAC      67       OAC      LPO21    LPD     -0.383000        0.0000           -1   0.00000   0.00000
      4012 OAC      67       OAC      LPO22    LPD     -0.383000        0.0000           -1   0.00000   0.00000
      4013 OAC      68       OAC      C1       CD2O2A   3.181700       11.6110           0   -1.01600   0.899000
      4014 OAC      68       OAC      DC1      DRUD    -2.473700        0.4000           0   0.00000   0.00000
      4015 OAC      68       OAC      C2       CD33A    2.987900       11.6110           0   -1.68100   1.41400
      4016 OAC      68       OAC      DC2      DRUD    -3.181900        0.4000           0   0.00000   0.00000
      4017 OAC      68       OAC      H1       HDA3A    0.004000        1.0080           0   0.00000   0.00000
      4018 OAC      68       OAC      H2       HDA3A    0.004000        1.0080           0   0.00000   0.00000
      4019 OAC      68       OAC      H3       HDA3A    0.004000        1.0080           0   0.00000   0.00000
      4020 OAC      68       OAC      O1       OD2C2A   2.054800       15.5994           0   -0.699000   2.39900
      4021 OAC      68       OAC      DO1      DRUD    -2.051800        0.4000           0   0.00000   0.00000
      4022 OAC      68       OAC      O2       OD2C2A   2.054800       15.5994           0   -0.699000   2.39900
      4023 OAC      68       OAC      DO2      DRUD    -2.051800        0.4000           0   0.00000   0.00000
      4024 OAC      68       OAC      H        DUMH     0.000000        1.0080           0   0.00000   0.00000
      4025 OAC      68       OAC      LPO11    LPD     -0.383000        0.0000           -1   0.00000   0.00000
      4026 OAC      68       OAC      LPO12    LPD     -0.383000        0.0000           -1   0.00000   0.00000
      4027 OAC      68       OAC      LPO21    LPD     -0.383000        0.0000           -1   0.00000   0.00000
      4028 OAC      68       OAC      LPO22    LPD     -0.383000        0.0000           -1   0.00000   0.00000
      4029 OAC      69       OAC      C1       CD2O2A   3.181700       11.6110           0   -1.01600   0.899000
      4030 OAC      69       OAC      DC1      DRUD    -2.473700        0.4000           0   0.00000   0.00000
      4031 OAC      69       OAC      C2       CD33A    2.987900       11.6110           0   -1.68100   1.41400
      4032 OAC      69       OAC      DC2      DRUD    -3.181900        0.4000           0   0.00000   0.00000
      4033 OAC      69       OAC      H1       HDA3A    0.004000        1.0080           0   0.00000   0.00000
      4034 OAC      69       OAC      H2       HDA3A    0.004000        1.0080           0   0.00000   0.00000
      4035 OAC      69       OAC      H3       HDA3A    0.004000        1.0080           0   0.00000   0.00000
      4036 OAC      69       OAC      O1       OD2C2A   2.054800       15.5994           0   -0.699000   2.39900
      4037 OAC      69       OAC      DO1      DRUD    -2.051800        0.4000           0   0.00000   0.00000
      4038 OAC      69       OAC      O2       OD2C2A   2.054800       15.5994           0   -0.699000   2.39900
      4039 OAC      69       OAC      DO2      DRUD    -2.051800        0.4000           0   0.00000   0.00000
      4040 OAC      69       OAC      H        DUMH     0.000000        1.0080           0   0.00000   0.00000
      4041 OAC      69       OAC      LPO11    LPD     -0.383000        0.0000           -1   0.00000   0.00000
      4042 OAC      69       OAC      LPO12    LPD     -0.383000        0.0000           -1   0.00000   0.00000
      4043 OAC      69       OAC      LPO21    LPD     -0.383000        0.0000           -1   0.00000   0.00000
      4044 OAC      69       OAC      LPO22    LPD     -0.383000        0.0000           -1   0.00000   0.00000
      4045 OAC      70       OAC      C1       CD2O2A   3.181700       11.6110           0   -1.01600   0.899000
      4046 OAC      70       OAC      DC1      DRUD    -2.473700        0.4000           0   0.00000   0.00000
      4047 OAC      70       OAC      C2       CD33A    2.987900       11.6110           0   -1.68100   1.41400
      4048 OAC      70       OAC      DC2      DRUD    -3.181900        0.4000           0   0.00000   0.00000
      4049 OAC      70       OAC      H1       HDA3A    0.004000        1.0080           0   0.00000   0.00000
      4050 OAC      70       OAC      H2       HDA3A    0.004000        1.0080           0   0.00000   0.00000
      4051 OAC      70       OAC      H3       HDA3A    0.004000        1.0080           0   0.00000   0.00000
      4052 OAC      70       OAC      O1       OD2C2A   2.054800       15.5994           0   -0.699000   2.39900
      4053 OAC      70       OAC      DO1      DRUD    -2.051800        0.4000           0   0.00000   0.00000
      4054 OAC      70       OAC      O2       OD2C2A   2.054800       15.5994           0   -0.699000   2.39900
      4055 OAC      70       OAC      DO2      DRUD    -2.051800        0.4000           0   0.00000   0.00000
      4056 OAC      70       OAC      H        DUMH     0.000000        1.0080           0   0.00000   0.00000
      4057 OAC      70       OAC      LPO11    LPD     -0.383000        0.0000           -1   0.00000   0.00000
      4058 OAC      70       OAC      LPO12    LPD     -0.383000        0.0000           -1   0.00000   0.00000
      4059 OAC      70       OAC      LPO21    LPD     -0.383000        0.0000           -1   0.00000   0.00000
      4060 OAC      70       OAC      LPO22    LPD     -0.383000        0.0000           -1   0.00000   0.00000
      4061 OAC      71       OAC      C1       CD2O2A   3.181700       11.6110           0   -1.01600   0.899000
      4062 OAC      71       OAC      DC1      DRUD    -2.473700        0.4000           0   0.00000   0.00000
      4063 OAC      71       OAC      C2       CD33A    2.987900       11.6110           0   -1.68100   1.41400
      4064 OAC      71       OAC      DC2      DRUD    -3.181900        0.4000           0   0.00000   0.00000
      4065 OAC      71       OAC      H1       HDA3A    0.004000        1.0080           0   0.00000   0.00000
      4066 OAC      71       OAC      H2       HDA3A    0.004000        1.0080           0   0.00000   0.00000
      4067 OAC      71       OAC      H3       HDA3A    0.004000        1.0080           0   0.00000   0.00000
      4068 OAC      71       OAC      O1       OD2C2A   2.054800       15.5994           0   -0.699000   2.39900
      4069 OAC      71       OAC      DO1      DRUD    -2.051800        0.4000           0   0.00000   0.00000
      4070 OAC      71       OAC      O2       OD2C2A   2.054800       15.5994           0   -0.699000   2.39900
      4071 OAC      71       OAC      DO2      DRUD    -2.051800        0.4000           0   0.00000   0.00000
      4072 OAC      71       OAC      H        DUMH     0.000000        1.0080           0   0.00000   0.00000
      4073 OAC      71       OAC      LPO11    LPD     -0.383000        0.0000           -1   0.00000   0.00000
      4074 OAC      71       OAC      LPO12    LPD     -0.383000        0.0000           -1   0.00000   0.00000
      4075 OAC      71       OAC      LPO21    LPD     -0.383000        0.0000           -1   0.00000   0.00000
      4076 OAC      71       OAC      LPO22    LPD     -0.383000        0.0000           -1   0.00000   0.00000
      4077 OAC      72       OAC      C1       CD2O2A   3.181700       11.6110           0   -1.01600   0.899000
      4078 OAC      72       OAC      DC1      DRUD    -2.473700        0.4000           0   0.00000   0.00000
      4079 OAC      72       OAC      C2       CD33A    2.987900       11.6110           0   -1.68100   1.41400
      4080 OAC      72       OAC      DC2      DRUD    -3.181900        0.4000           0   0.00000   0.00000
      4081 OAC      72       OAC      H1       HDA3A    0.004000        1.0080           0   0.00000   0.00000
      4082 OAC      72       OAC      H2       HDA3A    0.004000        1.0080           0   0.00000   0.00000
      4083 OAC      72       OAC      H3       HDA3A    0.004000        1.0080           0   0.00000   0.00000
      4084 OAC      72       OAC      O1       OD2C2A   2.054800       15.5994           0   -0.699000   2.39900
      4085 OAC      72       OAC      DO1      DRUD    -2.051800        0.4000           0   0.00000   0.00000
      4086 OAC      72       OAC      O2       OD2C2A   2.054800       15.5994           0   -0.699000   2.39900
      4087 OAC      72       OAC      DO2      DRUD    -2.051800        0.4000           0   0.00000   0.00000
      4088 OAC      72       OAC      H        DUMH     0.000000        1.0080           0   0.00000   0.00000
      4089 OAC      72       OAC      LPO11    LPD     -0.383000        0.0000           -1   0.00000   0.00000
      4090 OAC      72       OAC      LPO12    LPD     -0.383000        0.0000           -1   0.00000   0.00000
      4091 OAC      72       OAC      LPO21    LPD     -0.383000        0.0000           -1   0.00000   0.00000
      4092 OAC      72       OAC      LPO22    LPD     -0.383000        0.0000           -1   0.00000   0.00000
      4093 OAC      73       OAC      C1       CD2O2A   3.181700       11.6110           0   -1.01600   0.899000
      4094 OAC      73       OAC      DC1      DRUD    -2.473700        0.4000           0   0.00000   0.00000
      4095 OAC      73       OAC      C2       CD33A    2.987900       11.6110           0   -1.68100   1.41400
      4096 OAC      73       OAC      DC2      DRUD    -3.181900        0.4000           0   0.00000   0.00000
      4097 OAC      73       OAC      H1       HDA3A    0.004000        1.0080           0   0.00000   0.00000
      4098 OAC      73       OAC      H2       HDA3A    0.004000        1.0080           0   0.00000   0.00000
      4099 OAC      73       OAC      H3       HDA3A    0.004000        1.0080           0   0.00000   0.00000
      4100 OAC      73       OAC      O1       OD2C2A   2.054800       15.5994           0   -0.699000   2.39900
      4101 OAC      73       OAC      DO1      DRUD    -2.051800        0.4000           0   0.00000   0.00000
      4102 OAC      73       OAC      O2       OD2C2A   2.054800       15.5994           0   -0.699000   2.39900
      4103 OAC      73       OAC      DO2      DRUD    -2.051800        0.4000           0   0.00000   0.00000
      4104 OAC      73       OAC      H        DUMH     0.000000        1.0080           0   0.00000   0.00000
      4105 OAC      73       OAC      LPO11    LPD     -0.383000        0.0000           -1   0.00000   0.00000
      4106 OAC      73       OAC      LPO12    LPD     -0.383000        0.0000           -1   0.00000   0.00000
      4107 OAC      73       OAC      LPO21    LPD     -0.383000        0.0000           -1   0.00000   0.00000
      4108 OAC      73       OAC      LPO22    LPD     -0.383000        0.0000           -1   0.00000   0.00000
      4109 OAC      74       OAC      C1       CD2O2A   3.181700       11.6110           0   -1.01600   0.899000
      4110 OAC      74       OAC      DC1      DRUD    -2.473700        0.4000           0   0.00000   0.00000
      4111 OAC      74       OAC      C2       CD33A    2.987900       11.6110           0   -1.68100   1.41400
      4112 OAC      74       OAC      DC2      DRUD    -3.181900        0.4000           0   0.00000   0.00000
      4113 OAC      74       OAC      H1       HDA3A    0.004000        1.0080           0   0.00000   0.00000
      4114 OAC      74       OAC      H2       HDA3A    0.004000        1.0080           0   0.00000   0.00000
      4115 OAC      74       OAC      H3       HDA3A    0.004000        1.0080           0   0.00000   0.00000
      4116 OAC      74       OAC      O1       OD2C2A   2.054800       15.5994           0   -0.699000   2.39900
      4117 OAC      74       OAC      DO1      DRUD    -2.051800        0.4000           0   0.00000   0.00000
      4118 OAC      74       OAC      O2       OD2C2A   2.054800       15.5994           0   -0.699000   2.39900
      4119 OAC      74       OAC      DO2      DRUD    -2.051800        0.4000           0   0.00000   0.00000
      4120 OAC      74       OAC      H        DUMH     0.000000        1.0080           0   0.00000   0.00000
      4121 OAC      74       OAC      LPO11    LPD     -0.383000        0.0000           -1   0.00000   0.00000
      4122 OAC      74       OAC      LPO12    LPD     -0.383000        0.0000           -1   0.00000   0.00000
      4123 OAC      74       OAC      LPO21    LPD     -0.383000        0.0000           -1   0.00000   0.00000
      4124 OAC      74       OAC      LPO22    LPD     -0.383000        0.0000           -1   0.00000   0.00000
      4125 OAC      75       OAC      C1       CD2O2A   3.181700       11.6110           0   -1.01600   0.899000
      4126 OAC      75       OAC      DC1      DRUD    -2.473700        0.4000           0   0.00000   0.00000
      4127 OAC      75       OAC      C2       CD33A    2.987900       11.6110           0   -1.68100   1.41400
      4128 OAC      75       OAC      DC2      DRUD    -3.181900        0.4000           0   0.00000   0.00000
      4129 OAC      75       OAC      H1       HDA3A    0.004000        1.0080           0   0.00000   0.00000
      4130 OAC      75       OAC      H2       HDA3A    0.004000        1.0080           0   0.00000   0.00000
      4131 OAC      75       OAC      H3       HDA3A    0.004000        1.0080           0   0.00000   0.00000
      4132 OAC      75       OAC      O1       OD2C2A   2.054800       15.5994           0   -0.699000   2.39900
      4133 OAC      75       OAC      DO1      DRUD    -2.051800        0.4000           0   0.00000   0.00000
      4134 OAC      75       OAC      O2       OD2C2A   2.054800       15.5994           0   -0.699000   2.39900
      4135 OAC      75       OAC      DO2      DRUD    -2.051800        0.4000           0   0.00000   0.00000
      4136 OAC      75       OAC      H        DUMH     0.000000        1.0080           0   0.00000   0.00000
      4137 OAC      75       OAC      LPO11    LPD     -0.383000        0.0000           -1   0.00000   0.00000
      4138 OAC      75       OAC      LPO12    LPD     -0.383000        0.0000           -1   0.00000   0.00000
      4139 OAC      75       OAC      LPO21    LPD     -0.383000        0.0000           -1   0.00000   0.00000
      4140 OAC      75       OAC      LPO22    LPD     -0.383000        0.0000           -1   0.00000   0.00000
      4141 OAC      76       OAC      C1       CD2O2A   3.181700       11.6110           0   -1.01600   0.899000
      4142 OAC      76       OAC      DC1      DRUD    -2.473700        0.4000           0   0.00000   0.00000
      4143 OAC      76       OAC      C2       CD33A    2.987900       11.6110           0   -1.68100   1.41400
      4144 OAC      76       OAC      DC2      DRUD    -3.181900        0.4000           0   0.00000   0.00000
      4145 OAC      76       OAC      H1       HDA3A    0.004000        1.0080           0   0.00000   0.00000
      4146 OAC      76       OAC      H2       HDA3A    0.004000        1.0080           0   0.00000   0.00000
      4147 OAC      76       OAC      H3       HDA3A    0.004000        1.0080           0   0.00000   0.00000
      4148 OAC      76       OAC      O1       OD2C2A   2.054800       15.5994           0   -0.699000   2.39900
      4149 OAC      76       OAC      DO1      DRUD    -2.051800        0.4000           0   0.00000   0.00000
      4150 OAC      76       OAC      O2       OD2C2A   2.054800       15.5994           0   -0.699000   2.39900
      4151 OAC      76       OAC      DO2      DRUD    -2.051800        0.4000           0   0.00000   0.00000
      4152 OAC      76       OAC      H        DUMH     0.000000        1.0080           0   0.00000   0.00000
      4153 OAC      76       OAC      LPO11    LPD     -0.383000        0.0000           -1   0.00000   0.00000
      4154 OAC      76       OAC      LPO12    LPD     -0.383000        0.0000           -1   0.00000   0.00000
      4155 OAC      76       OAC      LPO21    LPD     -0.383000        0.0000           -1   0.00000   0.00000
      4156 OAC      76       OAC      LPO22    LPD     -0.383000        0.0000           -1   0.00000   0.00000
      4157 OAC      77       OAC      C1       CD2O2A   3.181700       11.6110           0   -1.01600   0.899000
      4158 OAC      77       OAC      DC1      DRUD    -2.473700        0.4000           0   0.00000   0.00000
      4159 OAC      77       OAC      C2       CD33A    2.987900       11.6110           0   -1.68100   1.41400
      4160 OAC      77       OAC      DC2      DRUD    -3.181900        0.4000           0   0.00000   0.00000
      4161 OAC      77       OAC      H1       HDA3A    0.004000        1.0080           0   0.00000   0.00000
      4162 OAC      77       OAC      H2       HDA3A    0.004000        1.0080           0   0.00000   0.00000
      4163 OAC      77       OAC      H3       HDA3A    0.004000        1.0080           0   0.00000   0.00000
      4164 OAC      77       OAC      O1       OD2C2A   2.054800       15.5994           0   -0.699000   2.39900
      4165 OAC      77       OAC      DO1      DRUD    -2.051800        0.4000           0   0.00000   0.00000
      4166 OAC      77       OAC      O2       OD2C2A   2.054800       15.5994           0   -0.699000   2.39900
      4167 OAC      77       OAC      DO2      DRUD    -2.051800        0.4000           0   0.00000   0.00000
      4168 OAC      77       OAC      H        DUMH     0.000000        1.0080           0   0.00000   0.00000
      4169 OAC      77       OAC      LPO11    LPD     -0.383000        0.0000           -1   0.00000   0.00000
      4170 OAC      77       OAC      LPO12    LPD     -0.383000        0.0000           -1   0.00000   0.00000
      4171 OAC      77       OAC      LPO21    LPD     -0.383000        0.0000           -1   0.00000   0.00000
      4172 OAC      77       OAC      LPO22    LPD     -0.383000        0.0000           -1   0.00000   0.00000
      4173 OAC      78       OAC      C1       CD2O2A   3.181700       11.6110           0   -1.01600   0.899000
      4174 OAC      78       OAC      DC1      DRUD    -2.473700        0.4000           0   0.00000   0.00000
      4175 OAC      78       OAC      C2       CD33A    2.987900       11.6110           0   -1.68100   1.41400
      4176 OAC      78       OAC      DC2      DRUD    -3.181900        0.4000           0   0.00000   0.00000
      4177 OAC      78       OAC      H1       HDA3A    0.004000        1.0080           0   0.00000   0.00000
      4178 OAC      78       OAC      H2       HDA3A    0.004000        1.0080           0   0.00000   0.00000
      4179 OAC      78       OAC      H3       HDA3A    0.004000        1.0080           0   0.00000   0.00000
      4180 OAC      78       OAC      O1       OD2C2A   2.054800       15.5994           0   -0.699000   2.39900
      4181 OAC      78       OAC      DO1      DRUD    -2.051800        0.4000           0   0.00000   0.00000
      4182 OAC      78       OAC      O2       OD2C2A   2.054800       15.5994           0   -0.699000   2.39900
      4183 OAC      78       OAC      DO2      DRUD    -2.051800        0.4000           0   0.00000   0.00000
      4184 OAC      78       OAC      H        DUMH     0.000000        1.0080           0   0.00000   0.00000
      4185 OAC      78       OAC      LPO11    LPD     -0.383000        0.0000           -1   0.00000   0.00000
      4186 OAC      78       OAC      LPO12    LPD     -0.383000        0.0000           -1   0.00000   0.00000
      4187 OAC      78       OAC      LPO21    LPD     -0.383000        0.0000           -1   0.00000   0.00000
      4188 OAC      78       OAC      LPO22    LPD     -0.383000        0.0000           -1   0.00000   0.00000
      4189 OAC      79       OAC      C1       CD2O2A   3.181700       11.6110           0   -1.01600   0.899000
      4190 OAC      79       OAC      DC1      DRUD    -2.473700        0.4000           0   0.00000   0.00000
      4191 OAC      79       OAC      C2       CD33A    2.987900       11.6110           0   -1.68100   1.41400
      4192 OAC      79       OAC      DC2      DRUD    -3.181900        0.4000           0   0.00000   0.00000
      4193 OAC      79       OAC      H1       HDA3A    0.004000        1.0080           0   0.00000   0.00000
      4194 OAC      79       OAC      H2       HDA3A    0.004000        1.0080           0   0.00000   0.00000
      4195 OAC      79       OAC      H3       HDA3A    0.004000        1.0080           0   0.00000   0.00000
      4196 OAC      79       OAC      O1       OD2C2A   2.054800       15.5994           0   -0.699000   2.39900
      4197 OAC      79       OAC      DO1      DRUD    -2.051800        0.4000           0   0.00000   0.00000
      4198 OAC      79       OAC      O2       OD2C2A   2.054800       15.5994           0   -0.699000   2.39900
      4199 OAC      79       OAC      DO2      DRUD    -2.051800        0.4000           0   0.00000   0.00000
      4200 OAC      79       OAC      H        DUMH     0.000000        1.0080           0   0.00000   0.00000
      4201 OAC      79       OAC      LPO11    LPD     -0.383000        0.0000           -1   0.00000   0.00000
      4202 OAC      79       OAC      LPO12    LPD     -0.383000        0.0000           -1   0.00000   0.00000
      4203 OAC      79       OAC      LPO21    LPD     -0.383000        0.0000           -1   0.00000   0.00000
      4204 OAC      79       OAC      LPO22    LPD     -0.383000        0.0000           -1   0.00000   0.00000
      4205 OAC      80       OAC      C1       CD2O2A   3.181700       11.6110           0   -1.01600   0.899000
      4206 OAC      80       OAC      DC1      DRUD    -2.473700        0.4000           0   0.00000   0.00000
      4207 OAC      80       OAC      C2       CD33A    2.987900       11.6110           0   -1.68100   1.41400
      4208 OAC      80       OAC      DC2      DRUD    -3.181900        0.4000           0   0.00000   0.00000
      4209 OAC      80       OAC      H1       HDA3A    0.004000        1.0080           0   0.00000   0.00000
      4210 OAC      80       OAC      H2       HDA3A    0.004000        1.0080           0   0.00000   0.00000
      4211 OAC      80       OAC      H3       HDA3A    0.004000        1.0080           0   0.00000   0.00000
      4212 OAC      80       OAC      O1       OD2C2A   2.054800       15.5994           0   -0.699000   2.39900
      4213 OAC      80       OAC      DO1      DRUD    -2.051800        0.4000           0   0.00000   0.00000
      4214 OAC      80       OAC      O2       OD2C2A   2.054800       15.5994           0   -0.699000   2.39900
      4215 OAC      80       OAC      DO2      DRUD    -2.051800        0.4000           0   0.00000   0.00000
      4216 OAC      80       OAC      H        DUMH     0.000000        1.0080           0   0.00000   0.00000
      4217 OAC      80       OAC      LPO11    LPD     -0.383000        0.0000           -1   0.00000   0.00000
      4218 OAC      80       OAC      LPO12    LPD     -0.383000        0.0000           -1   0.00000   0.00000
      4219 OAC      80       OAC      LPO21    LPD     -0.383000        0.0000           -1   0.00000   0.00000
      4220 OAC      80       OAC      LPO22    LPD     -0.383000        0.0000           -1   0.00000   0.00000
      4221 OAC      81       OAC      C1       CD2O2A   3.181700       11.6110           0   -1.01600   0.899000
      4222 OAC      81       OAC      DC1      DRUD    -2.473700        0.4000           0   0.00000   0.00000
      4223 OAC      81       OAC      C2       CD33A    2.987900       11.6110           0   -1.68100   1.41400
      4224 OAC      81       OAC      DC2      DRUD    -3.181900        0.4000           0   0.00000   0.00000
      4225 OAC      81       OAC      H1       HDA3A    0.004000        1.0080           0   0.00000   0.00000
      4226 OAC      81       OAC      H2       HDA3A    0.004000        1.0080           0   0.00000   0.00000
      4227 OAC      81       OAC      H3       HDA3A    0.004000        1.0080           0   0.00000   0.00000
      4228 OAC      81       OAC      O1       OD2C2A   2.054800       15.5994           0   -0.699000   2.39900
      4229 OAC      81       OAC      DO1      DRUD    -2.051800        0.4000           0   0.00000   0.00000
      4230 OAC      81       OAC      O2       OD2C2A   2.054800       15.5994           0   -0.699000   2.39900
      4231 OAC      81       OAC      DO2      DRUD    -2.051800        0.4000           0   0.00000   0.00000
      4232 OAC      81       OAC      H        DUMH     0.000000        1.0080           0   0.00000   0.00000
      4233 OAC      81       OAC      LPO11    LPD     -0.383000        0.0000           -1   0.00000   0.00000
      4234 OAC      81       OAC      LPO12    LPD     -0.383000        0.0000           -1   0.00000   0.00000
      4235 OAC      81       OAC      LPO21    LPD     -0.383000        0.0000           -1   0.00000   0.00000
      4236 OAC      81       OAC      LPO22    LPD     -0.383000        0.0000           -1   0.00000   0.00000
      4237 OAC      82       OAC      C1       CD2O2A   3.181700       11.6110           0   -1.01600   0.899000
      4238 OAC      82       OAC      DC1      DRUD    -2.473700        0.4000           0   0.00000   0.00000
      4239 OAC      82       OAC      C2       CD33A    2.987900       11.6110           0   -1.68100   1.41400
      4240 OAC      82       OAC      DC2      DRUD    -3.181900        0.4000           0   0.00000   0.00000
      4241 OAC      82       OAC      H1       HDA3A    0.004000        1.0080           0   0.00000   0.00000
      4242 OAC      82       OAC      H2       HDA3A    0.004000        1.0080           0   0.00000   0.00000
      4243 OAC      82       OAC      H3       HDA3A    0.004000        1.0080           0   0.00000   0.00000
      4244 OAC      82       OAC      O1       OD2C2A   2.054800       15.5994           0   -0.699000   2.39900
      4245 OAC      82       OAC      DO1      DRUD    -2.051800        0.4000           0   0.00000   0.00000
      4246 OAC      82       OAC      O2       OD2C2A   2.054800       15.5994           0   -0.699000   2.39900
      4247 OAC      82       OAC      DO2      DRUD    -2.051800        0.4000           0   0.00000   0.00000
      4248 OAC      82       OAC      H        DUMH     0.000000        1.0080           0   0.00000   0.00000
      4249 OAC      82       OAC      LPO11    LPD     -0.383000        0.0000           -1   0.00000   0.00000
      4250 OAC      82       OAC      LPO12    LPD     -0.383000        0.0000           -1   0.00000   0.00000
      4251 OAC      82       OAC      LPO21    LPD     -0.383000        0.0000           -1   0.00000   0.00000
      4252 OAC      82       OAC      LPO22    LPD     -0.383000        0.0000           -1   0.00000   0.00000
      4253 OAC      83       OAC      C1       CD2O2A   3.181700       11.6110           0   -1.01600   0.899000
      4254 OAC      83       OAC      DC1      DRUD    -2.473700        0.4000           0   0.00000   0.00000
      4255 OAC      83       OAC      C2       CD33A    2.987900       11.6110           0   -1.68100   1.41400
      4256 OAC      83       OAC      DC2      DRUD    -3.181900        0.4000           0   0.00000   0.00000
      4257 OAC      83       OAC      H1       HDA3A    0.004000        1.0080           0   0.00000   0.00000
      4258 OAC      83       OAC      H2       HDA3A    0.004000        1.0080           0   0.00000   0.00000
      4259 OAC      83       OAC      H3       HDA3A    0.004000        1.0080           0   0.00000   0.00000
      4260 OAC      83       OAC      O1       OD2C2A   2.054800       15.5994           0   -0.699000   2.39900
      4261 OAC      83       OAC      DO1      DRUD    -2.051800        0.4000           0   0.00000   0.00000
      4262 OAC      83       OAC      O2       OD2C2A   2.054800       15.5994           0   -0.699000   2.39900
      4263 OAC      83       OAC      DO2      DRUD    -2.051800        0.4000           0   0.00000   0.00000
      4264 OAC      83       OAC      H        DUMH     0.000000        1.0080           0   0.00000   0.00000
      4265 OAC      83       OAC      LPO11    LPD     -0.383000        0.0000           -1   0.00000   0.00000
      4266 OAC      83       OAC      LPO12    LPD     -0.383000        0.0000           -1   0.00000   0.00000
      4267 OAC      83       OAC      LPO21    LPD     -0.383000        0.0000           -1   0.00000   0.00000
      4268 OAC      83       OAC      LPO22    LPD     -0.383000        0.0000           -1   0.00000   0.00000
      4269 OAC      84       OAC      C1       CD2O2A   3.181700       11.6110           0   -1.01600   0.899000
      4270 OAC      84       OAC      DC1      DRUD    -2.473700        0.4000           0   0.00000   0.00000
      4271 OAC      84       OAC      C2       CD33A    2.987900       11.6110           0   -1.68100   1.41400
      4272 OAC      84       OAC      DC2      DRUD    -3.181900        0.4000           0   0.00000   0.00000
      4273 OAC      84       OAC      H1       HDA3A    0.004000        1.0080           0   0.00000   0.00000
      4274 OAC      84       OAC      H2       HDA3A    0.004000        1.0080           0   0.00000   0.00000
      4275 OAC      84       OAC      H3       HDA3A    0.004000        1.0080           0   0.00000   0.00000
      4276 OAC      84       OAC      O1       OD2C2A   2.054800       15.5994           0   -0.699000   2.39900
      4277 OAC      84       OAC      DO1      DRUD    -2.051800        0.4000           0   0.00000   0.00000
      4278 OAC      84       OAC      O2       OD2C2A   2.054800       15.5994           0   -0.699000   2.39900
      4279 OAC      84       OAC      DO2      DRUD    -2.051800        0.4000           0   0.00000   0.00000
      4280 OAC      84       OAC      H        DUMH     0.000000        1.0080           0   0.00000   0.00000
      4281 OAC      84       OAC      LPO11    LPD     -0.383000        0.0000           -1   0.00000   0.00000
      4282 OAC      84       OAC      LPO12    LPD     -0.383000        0.0000           -1   0.00000   0.00000
      4283 OAC      84       OAC      LPO21    LPD     -0.383000        0.0000           -1   0.00000   0.00000
      4284 OAC      84       OAC      LPO22    LPD     -0.383000        0.0000           -1   0.00000   0.00000
      4285 OAC      85       OAC      C1       CD2O2A   3.181700       11.6110           0   -1.01600   0.899000
      4286 OAC      85       OAC      DC1      DRUD    -2.473700        0.4000           0   0.00000   0.00000
      4287 OAC      85       OAC      C2       CD33A    2.987900       11.6110           0   -1.68100   1.41400
      4288 OAC      85       OAC      DC2      DRUD    -3.181900        0.4000           0   0.00000   0.00000
      4289 OAC      85       OAC      H1       HDA3A    0.004000        1.0080           0   0.00000   0.00000
      4290 OAC      85       OAC      H2       HDA3A    0.004000        1.0080           0   0.00000   0.00000
      4291 OAC      85       OAC      H3       HDA3A    0.004000        1.0080           0   0.00000   0.00000
      4292 OAC      85       OAC      O1       OD2C2A   2.054800       15.5994           0   -0.699000   2.39900
      4293 OAC      85       OAC      DO1      DRUD    -2.051800        0.4000           0   0.00000   0.00000
      4294 OAC      85       OAC      O2       OD2C2A   2.054800       15.5994           0   -0.699000   2.39900
      4295 OAC      85       OAC      DO2      DRUD    -2.051800        0.4000           0   0.00000   0.00000
      4296 OAC      85       OAC      H        DUMH     0.000000        1.0080           0   0.00000   0.00000
      4297 OAC      85       OAC      LPO11    LPD     -0.383000        0.0000           -1   0.00000   0.00000
      4298 OAC      85       OAC      LPO12    LPD     -0.383000        0.0000           -1   0.00000   0.00000
      4299 OAC      85       OAC      LPO21    LPD     -0.383000        0.0000           -1   0.00000   0.00000
      4300 OAC      85       OAC      LPO22    LPD     -0.383000        0.0000           -1   0.00000   0.00000
      4301 OAC      86       OAC      C1       CD2O2A   3.181700       11.6110           0   -1.01600   0.899000
      4302 OAC      86       OAC      DC1      DRUD    -2.473700        0.4000           0   0.00000   0.00000
      4303 OAC      86       OAC      C2       CD33A    2.987900       11.6110           0   -1.68100   1.41400
      4304 OAC      86       OAC      DC2      DRUD    -3.181900        0.4000           0   0.00000   0.00000
      4305 OAC      86       OAC      H1       HDA3A    0.004000        1.0080           0   0.00000   0.00000
      4306 OAC      86       OAC      H2       HDA3A    0.004000        1.0080           0   0.00000   0.00000
      4307 OAC      86       OAC      H3       HDA3A    0.004000        1.0080           0   0.00000   0.00000
      4308 OAC      86       OAC      O1       OD2C2A   2.054800       15.5994           0   -0.699000   2.39900
      4309 OAC      86       OAC      DO1      DRUD    -2.051800        0.4000           0   0.00000   0.00000
      4310 OAC      86       OAC      O2       OD2C2A   2.054800       15.5994           0   -0.699000   2.39900
      4311 OAC      86       OAC      DO2      DRUD    -2.051800        0.4000           0   0.00000   0.00000
      4312 OAC      86       OAC      H        DUMH     0.000000        1.0080           0   0.00000   0.00000
      4313 OAC      86       OAC      LPO11    LPD     -0.383000        0.0000           -1   0.00000   0.00000
      4314 OAC      86       OAC      LPO12    LPD     -0.383000        0.0000           -1   0.00000   0.00000
      4315 OAC      86       OAC      LPO21    LPD     -0.383000        0.0000           -1   0.00000   0.00000
      4316 OAC      86       OAC      LPO22    LPD     -0.383000        0.0000           -1   0.00000   0.00000
      4317 OAC      87       OAC      C1       CD2O2A   3.181700       11.6110           0   -1.01600   0.899000
      4318 OAC      87       OAC      DC1      DRUD    -2.473700        0.4000           0   0.00000   0.00000
      4319 OAC      87       OAC      C2       CD33A    2.987900       11.6110           0   -1.68100   1.41400
      4320 OAC      87       OAC      DC2      DRUD    -3.181900        0.4000           0   0.00000   0.00000
      4321 OAC      87       OAC      H1       HDA3A    0.004000        1.0080           0   0.00000   0.00000
      4322 OAC      87       OAC      H2       HDA3A    0.004000        1.0080           0   0.00000   0.00000
      4323 OAC      87       OAC      H3       HDA3A    0.004000        1.0080           0   0.00000   0.00000
      4324 OAC      87       OAC      O1       OD2C2A   2.054800       15.5994           0   -0.699000   2.39900
      4325 OAC      87       OAC      DO1      DRUD    -2.051800        0.4000           0   0.00000   0.00000
      4326 OAC      87       OAC      O2       OD2C2A   2.054800       15.5994           0   -0.699000   2.39900
      4327 OAC      87       OAC      DO2      DRUD    -2.051800        0.4000           0   0.00000   0.00000
      4328 OAC      87       OAC      H        DUMH     0.000000        1.0080           0   0.00000   0.00000
      4329 OAC      87       OAC      LPO11    LPD     -0.383000        0.0000           -1   0.00000   0.00000
      4330 OAC      87       OAC      LPO12    LPD     -0.383000        0.0000           -1   0.00000   0.00000
      4331 OAC      87       OAC      LPO21    LPD     -0.383000        0.0000           -1   0.00000   0.00000
      4332 OAC      87       OAC      LPO22    LPD     -0.383000        0.0000           -1   0.00000   0.00000
      4333 OAC      88       OAC      C1       CD2O2A   3.181700       11.6110           0   -1.01600   0.899000
      4334 OAC      88       OAC      DC1      DRUD    -2.473700        0.4000           0   0.00000   0.00000
      4335 OAC      88       OAC      C2       CD33A    2.987900       11.6110           0   -1.68100   1.41400
      4336 OAC      88       OAC      DC2      DRUD    -3.181900        0.4000           0   0.00000   0.00000
      4337 OAC      88       OAC      H1       HDA3A    0.004000        1.0080           0   0.00000   0.00000
      4338 OAC      88       OAC      H2       HDA3A    0.004000        1.0080           0   0.00000   0.00000
      4339 OAC      88       OAC      H3       HDA3A    0.004000        1.0080           0   0.00000   0.00000
      4340 OAC      88       OAC      O1       OD2C2A   2.054800       15.5994           0   -0.699000   2.39900
      4341 OAC      88       OAC      DO1      DRUD    -2.051800        0.4000           0   0.00000   0.00000
      4342 OAC      88       OAC      O2       OD2C2A   2.054800       15.5994           0   -0.699000   2.39900
      4343 OAC      88       OAC      DO2      DRUD    -2.051800        0.4000           0   0.00000   0.00000
      4344 OAC      88       OAC      H        DUMH     0.000000        1.0080           0   0.00000   0.00000
      4345 OAC      88       OAC      LPO11    LPD     -0.383000        0.0000           -1   0.00000   0.00000
      4346 OAC      88       OAC      LPO12    LPD     -0.383000        0.0000           -1   0.00000   0.00000
      4347 OAC      88       OAC      LPO21    LPD     -0.383000        0.0000           -1   0.00000   0.00000
      4348 OAC      88       OAC      LPO22    LPD     -0.383000        0.0000           -1   0.00000   0.00000
      4349 OAC      89       OAC      C1       CD2O2A   3.181700       11.6110           0   -1.01600   0.899000
      4350 OAC      89       OAC      DC1      DRUD    -2.473700        0.4000           0   0.00000   0.00000
      4351 OAC      89       OAC      C2       CD33A    2.987900       11.6110           0   -1.68100   1.41400
      4352 OAC      89       OAC      DC2      DRUD    -3.181900        0.4000           0   0.00000   0.00000
      4353 OAC      89       OAC      H1       HDA3A    0.004000        1.0080           0   0.00000   0.00000
      4354 OAC      89       OAC      H2       HDA3A    0.004000        1.0080           0   0.00000   0.00000
      4355 OAC      89       OAC      H3       HDA3A    0.004000        1.0080           0   0.00000   0.00000
      4356 OAC      89       OAC      O1       OD2C2A   2.054800       15.5994           0   -0.699000   2.39900
      4357 OAC      89       OAC      DO1      DRUD    -2.051800        0.4000           0   0.00000   0.00000
      4358 OAC      89       OAC      O2       OD2C2A   2.054800       15.5994           0   -0.699000   2.39900
      4359 OAC      89       OAC      DO2      DRUD    -2.051800        0.4000           0   0.00000   0.00000
      4360 OAC      89       OAC      H        DUMH     0.000000        1.0080           0   0.00000   0.00000
      4361 OAC      89       OAC      LPO11    LPD     -0.383000        0.0000           -1   0.00000   0.00000
      4362 OAC      89       OAC      LPO12    LPD     -0.383000        0.0000           -1   0.00000   0.00000
      4363 OAC      89       OAC      LPO21    LPD     -0.383000        0.0000           -1   0.00000   0.00000
      4364 OAC      89       OAC      LPO22    LPD     -0.383000        0.0000           -1   0.00000   0.00000
      4365 OAC      90       OAC      C1       CD2O2A   3.181700       11.6110           0   -1.01600   0.899000
      4366 OAC      90       OAC      DC1      DRUD    -2.473700        0.4000           0   0.00000   0.00000
      4367 OAC      90       OAC      C2       CD33A    2.987900       11.6110           0   -1.68100   1.41400
      4368 OAC      90       OAC      DC2      DRUD    -3.181900        0.4000           0   0.00000   0.00000
      4369 OAC      90       OAC      H1       HDA3A    0.004000        1.0080           0   0.00000   0.00000
      4370 OAC      90       OAC      H2       HDA3A    0.004000        1.0080           0   0.00000   0.00000
      4371 OAC      90       OAC      H3       HDA3A    0.004000        1.0080           0   0.00000   0.00000
      4372 OAC      90       OAC      O1       OD2C2A   2.054800       15.5994           0   -0.699000   2.39900
      4373 OAC      90       OAC      DO1      DRUD    -2.051800        0.4000           0   0.00000   0.00000
      4374 OAC      90       OAC      O2       OD2C2A   2.054800       15.5994           0   -0.699000   2.39900
      4375 OAC      90       OAC      DO2      DRUD    -2.051800        0.4000           0   0.00000   0.00000
      4376 OAC      90       OAC      H        DUMH     0.000000        1.0080           0   0.00000   0.00000
      4377 OAC      90       OAC      LPO11    LPD     -0.383000        0.0000           -1   0.00000   0.00000
      4378 OAC      90       OAC      LPO12    LPD     -0.383000        0.0000           -1   0.00000   0.00000
      4379 OAC      90       OAC      LPO21    LPD     -0.383000        0.0000           -1   0.00000   0.00000
      4380 OAC      90       OAC      LPO22    LPD     -0.383000        0.0000           -1   0.00000   0.00000
      4381 OAC      91       OAC      C1       CD2O2A   3.181700       11.6110           0   -1.01600   0.899000
      4382 OAC      91       OAC      DC1      DRUD    -2.473700        0.4000           0   0.00000   0.00000
      4383 OAC      91       OAC      C2       CD33A    2.987900       11.6110           0   -1.68100   1.41400
      4384 OAC      91       OAC      DC2      DRUD    -3.181900        0.4000           0   0.00000   0.00000
      4385 OAC      91       OAC      H1       HDA3A    0.004000        1.0080           0   0.00000   0.00000
      4386 OAC      91       OAC      H2       HDA3A    0.004000        1.0080           0   0.00000   0.00000
      4387 OAC      91       OAC      H3       HDA3A    0.004000        1.0080           0   0.00000   0.00000
      4388 OAC      91       OAC      O1       OD2C2A   2.054800       15.5994           0   -0.699000   2.39900
      4389 OAC      91       OAC      DO1      DRUD    -2.051800        0.4000           0   0.00000   0.00000
      4390 OAC      91       OAC      O2       OD2C2A   2.054800       15.5994           0   -0.699000   2.39900
      4391 OAC      91       OAC      DO2      DRUD    -2.051800        0.4000           0   0.00000   0.00000
      4392 OAC      91       OAC      H        DUMH     0.000000        1.0080           0   0.00000   0.00000
      4393 OAC      91       OAC      LPO11    LPD     -0.383000        0.0000           -1   0.00000   0.00000
      4394 OAC      91       OAC      LPO12    LPD     -0.383000        0.0000           -1   0.00000   0.00000
      4395 OAC      91       OAC      LPO21    LPD     -0.383000        0.0000           -1   0.00000   0.00000
      4396 OAC      91       OAC      LPO22    LPD     -0.383000        0.0000           -1   0.00000   0.00000
      4397 OAC      92       OAC      C1       CD2O2A   3.181700       11.6110           0   -1.01600   0.899000
      4398 OAC      92       OAC      DC1      DRUD    -2.473700        0.4000           0   0.00000   0.00000
      4399 OAC      92       OAC      C2       CD33A    2.987900       11.6110           0   -1.68100   1.41400
      4400 OAC      92       OAC      DC2      DRUD    -3.181900        0.4000           0   0.00000   0.00000
      4401 OAC      92       OAC      H1       HDA3A    0.004000        1.0080           0   0.00000   0.00000
      4402 OAC      92       OAC      H2       HDA3A    0.004000        1.0080           0   0.00000   0.00000
      4403 OAC      92       OAC      H3       HDA3A    0.004000        1.0080           0   0.00000   0.00000
      4404 OAC      92       OAC      O1       OD2C2A   2.054800       15.5994           0   -0.699000   2.39900
      4405 OAC      92       OAC      DO1      DRUD    -2.051800        0.4000           0   0.00000   0.00000
      4406 OAC      92       OAC      O2       OD2C2A   2.054800       15.5994           0   -0.699000   2.39900
      4407 OAC      92       OAC      DO2      DRUD    -2.051800        0.4000           0   0.00000   0.00000
      4408 OAC      92       OAC      H        DUMH     0.000000        1.0080           0   0.00000   0.00000
      4409 OAC      92       OAC      LPO11    LPD     -0.383000        0.0000           -1   0.00000   0.00000
      4410 OAC      92       OAC      LPO12    LPD     -0.383000        0.0000           -1   0.00000   0.00000
      4411 OAC      92       OAC      LPO21    LPD     -0.383000        0.0000           -1   0.00000   0.00000
      4412 OAC      92       OAC      LPO22    LPD     -0.383000        0.0000           -1   0.00000   0.00000
      4413 OAC      93       OAC      C1       CD2O2A   3.181700       11.6110           0   -1.01600   0.899000
      4414 OAC      93       OAC      DC1      DRUD    -2.473700        0.4000           0   0.00000   0.00000
      4415 OAC      93       OAC      C2       CD33A    2.987900       11.6110           0   -1.68100   1.41400
      4416 OAC      93       OAC      DC2      DRUD    -3.181900        0.4000           0   0.00000   0.00000
      4417 OAC      93       OAC      H1       HDA3A    0.004000        1.0080           0   0.00000   0.00000
      4418 OAC      93       OAC      H2       HDA3A    0.004000        1.0080           0   0.00000   0.00000
      4419 OAC      93       OAC      H3       HDA3A    0.004000        1.0080           0   0.00000   0.00000
      4420 OAC      93       OAC      O1       OD2C2A   2.054800       15.5994           0   -0.699000   2.39900
      4421 OAC      93       OAC      DO1      DRUD    -2.051800        0.4000           0   0.00000   0.00000
      4422 OAC      93       OAC      O2       OD2C2A   2.054800       15.5994           0   -0.699000   2.39900
      4423 OAC      93       OAC      DO2      DRUD    -2.051800        0.4000           0   0.00000   0.00000
      4424 OAC      93       OAC      H        DUMH     0.000000        1.0080           0   0.00000   0.00000
      4425 OAC      93       OAC      LPO11    LPD     -0.383000        0.0000           -1   0.00000   0.00000
      4426 OAC      93       OAC      LPO12    LPD     -0.383000        0.0000           -1   0.00000   0.00000
      4427 OAC      93       OAC      LPO21    LPD     -0.383000        0.0000           -1   0.00000   0.00000
      4428 OAC      93       OAC      LPO22    LPD     -0.383000        0.0000           -1   0.00000   0.00000
      4429 IM1      1        IM1      C1       CD33G    2.390600       11.6110           0   -1.08100   1.00000
      4430 IM1      1        IM1      DC1      DRUD    -2.551600        0.4000           0   0.00000   0.00000
      4431 IM1      1        IM1      H1       HDA3A    0.094000        1.0080           0   0.00000   0.00000
      4432 IM1      1        IM1      H2       HDA3A    0.094000        1.0080           0   0.00000   0.00000
      4433 IM1      1        IM1      H3       HDA3A    0.094000        1.0080           0   0.00000   0.00000
      4434 IM1      1        IM1      N1       ND2R5A   2.670300       13.6070           0   -1.06300   1.30000
      4435 IM1      1        IM1      DN1      DRUD    -2.530300        0.4000           0   0.00000   0.00000
      4436 IM1      1        IM1      C2       CD2R5A   2.511900       11.6110           0   -1.37800   1.30000
      4437 IM1      1        IM1      DC2      DRUD    -2.880900        0.4000           0   0.00000   0.00000
      4438 IM1      1        IM1      H4       HDR5A    0.150000        1.0080           0   0.00000   0.00000
      4439 IM1      1        IM1      C3       CD2R5A   3.068900       11.6110           0   -1.37800   1.30000
      4440 IM1      1        IM1      DC3      DRUD    -2.880900        0.4000           0   0.00000   0.00000
      4441 IM1      1        IM1      H5       HDR5A    0.053000        1.0080           0   0.00000   0.00000
      4442 IM1      1        IM1      C4       CD2R5B   2.404400       11.6110           0   -0.868000   1.30000
      4443 IM1      1        IM1      DC4      DRUD    -2.286400        0.4000           0   0.00000   0.00000
      4444 IM1      1        IM1      H6       HDR5B    0.073000        1.0080           0   0.00000   0.00000
      4445 IM1      1        IM1      N2       ND2R5B   2.249300       13.6070           0   -0.840000   1.00000
      4446 IM1      1        IM1      DN2      DRUD    -2.249300        0.4000           0   0.00000   0.00000
      4447 IM1      1        IM1      H7       DUMH     0.000000        1.0080           0   0.00000   0.00000
      4448 IM1      1        IM1      LPN21    LPD     -0.474000        0.0000           -1   0.00000   0.00000
      4449 IM1      2        IM1      C1       CD33G    2.390600       11.6110           0   -1.08100   1.00000
      4450 IM1      2        IM1      DC1      DRUD    -2.551600        0.4000           0   0.00000   0.00000
      4451 IM1      2        IM1      H1       HDA3A    0.094000        1.0080           0   0.00000   0.00000
      4452 IM1      2        IM1      H2       HDA3A    0.094000        1.0080           0   0.00000   0.00000
      4453 IM1      2        IM1      H3       HDA3A    0.094000        1.0080           0   0.00000   0.00000
      4454 IM1      2        IM1      N1       ND2R5A   2.670300       13.6070           0   -1.06300   1.30000
      4455 IM1      2        IM1      DN1      DRUD    -2.530300        0.4000           0   0.00000   0.00000
      4456 IM1      2        IM1      C2       CD2R5A   2.511900       11.6110           0   -1.37800   1.30000
      4457 IM1      2        IM1      DC2      DRUD    -2.880900        0.4000           0   0.00000   0.00000
      4458 IM1      2        IM1      H4       HDR5A    0.150000        1.0080           0   0.00000   0.00000
      4459 IM1      2        IM1      C3       CD2R5A   3.068900       11.6110           0   -1.37800   1.30000
      4460 IM1      2        IM1      DC3      DRUD    -2.880900        0.4000           0   0.00000   0.00000
      4461 IM1      2        IM1      H5       HDR5A    0.053000        1.0080           0   0.00000   0.00000
      4462 IM1      2        IM1      C4       CD2R5B   2.404400       11.6110           0   -0.868000   1.30000
      4463 IM1      2        IM1      DC4      DRUD    -2.286400        0.4000           0   0.00000   0.00000
      4464 IM1      2        IM1      H6       HDR5B    0.073000        1.0080           0   0.00000   0.00000
      4465 IM1      2        IM1      N2       ND2R5B   2.249300       13.6070           0   -0.840000   1.00000
      4466 IM1      2        IM1      DN2      DRUD    -2.249300        0.4000           0   0.00000   0.00000
      4467 IM1      2        IM1      H7       DUMH     0.000000        1.0080           0   0.00000   0.00000
      4468 IM1      2        IM1      LPN21    LPD     -0.474000        0.0000           -1   0.00000   0.00000
      4469 IM1      3        IM1      C1       CD33G    2.390600       11.6110           0   -1.08100   1.00000
      4470 IM1      3        IM1      DC1      DRUD    -2.551600        0.4000           0   0.00000   0.00000
      4471 IM1      3        IM1      H1       HDA3A    0.094000        1.0080           0   0.00000   0.00000
      4472 IM1      3        IM1      H2       HDA3A    0.094000        1.0080           0   0.00000   0.00000
      4473 IM1      3        IM1      H3       HDA3A    0.094000        1.0080           0   0.00000   0.00000
      4474 IM1      3        IM1      N1       ND2R5A   2.670300       13.6070           0   -1.06300   1.30000
      4475 IM1      3        IM1      DN1      DRUD    -2.530300        0.4000           0   0.00000   0.00000
      4476 IM1      3        IM1      C2       CD2R5A   2.511900       11.6110           0   -1.37800   1.30000
      4477 IM1      3        IM1      DC2      DRUD    -2.880900        0.4000           0   0.00000   0.00000
      4478 IM1      3        IM1      H4       HDR5A    0.150000        1.0080           0   0.00000   0.00000
      4479 IM1      3        IM1      C3       CD2R5A   3.068900       11.6110           0   -1.37800   1.30000
      4480 IM1      3        IM1      DC3      DRUD    -2.880900        0.4000           0   0.00000   0.00000
      4481 IM1      3        IM1      H5       HDR5A    0.053000        1.0080           0   0.00000   0.00000
      4482 IM1      3        IM1      C4       CD2R5B   2.404400       11.6110           0   -0.868000   1.30000
      4483 IM1      3        IM1      DC4      DRUD    -2.286400        0.4000           0   0.00000   0.00000
      4484 IM1      3        IM1      H6       HDR5B    0.073000        1.0080           0   0.00000   0.00000
      4485 IM1      3        IM1      N2       ND2R5B   2.249300       13.6070           0   -0.840000   1.00000
      4486 IM1      3        IM1      DN2      DRUD    -2.249300        0.4000           0   0.00000   0.00000
      4487 IM1      3        IM1      H7       DUMH     0.000000        1.0080           0   0.00000   0.00000
      4488 IM1      3        IM1      LPN21    LPD     -0.474000        0.0000           -1   0.00000   0.00000
      4489 IM1      4        IM1      C1       CD33G    2.390600       11.6110           0   -1.08100   1.00000
      4490 IM1      4        IM1      DC1      DRUD    -2.551600        0.4000           0   0.00000   0.00000
      4491 IM1      4        IM1      H1       HDA3A    0.094000        1.0080           0   0.00000   0.00000
      4492 IM1      4        IM1      H2       HDA3A    0.094000        1.0080           0   0.00000   0.00000
      4493 IM1      4        IM1      H3       HDA3A    0.094000        1.0080           0   0.00000   0.00000
      4494 IM1      4        IM1      N1       ND2R5A   2.670300       13.6070           0   -1.06300   1.30000
      4495 IM1      4        IM1      DN1      DRUD    -2.530300        0.4000           0   0.00000   0.00000
      4496 IM1      4        IM1      C2       CD2R5A   2.511900       11.6110           0   -1.37800   1.30000
      4497 IM1      4        IM1      DC2      DRUD    -2.880900        0.4000           0   0.00000   0.00000
      4498 IM1      4        IM1      H4       HDR5A    0.150000        1.0080           0   0.00000   0.00000
      4499 IM1      4        IM1      C3       CD2R5A   3.068900       11.6110           0   -1.37800   1.30000
      4500 IM1      4        IM1      DC3      DRUD    -2.880900        0.4000           0   0.00000   0.00000
      4501 IM1      4        IM1      H5       HDR5A    0.053000        1.0080           0   0.00000   0.00000
      4502 IM1      4        IM1      C4       CD2R5B   2.404400       11.6110           0   -0.868000   1.30000
      4503 IM1      4        IM1      DC4      DRUD    -2.286400        0.4000           0   0.00000   0.00000
      4504 IM1      4        IM1      H6       HDR5B    0.073000        1.0080           0   0.00000   0.00000
      4505 IM1      4        IM1      N2       ND2R5B   2.249300       13.6070           0   -0.840000   1.00000
      4506 IM1      4        IM1      DN2      DRUD    -2.249300        0.4000           0   0.00000   0.00000
      4507 IM1      4        IM1      H7       DUMH     0.000000        1.0080           0   0.00000   0.00000
      4508 IM1      4        IM1      LPN21    LPD     -0.474000        0.0000           -1   0.00000   0.00000
      4509 IM1      5        IM1      C1       CD33G    2.390600       11.6110           0   -1.08100   1.00000
      4510 IM1      5        IM1      DC1      DRUD    -2.551600        0.4000           0   0.00000   0.00000
      4511 IM1      5        IM1      H1       HDA3A    0.094000        1.0080           0   0.00000   0.00000
      4512 IM1      5        IM1      H2       HDA3A    0.094000        1.0080           0   0.00000   0.00000
      4513 IM1      5        IM1      H3       HDA3A    0.094000        1.0080           0   0.00000   0.00000
      4514 IM1      5        IM1      N1       ND2R5A   2.670300       13.6070           0   -1.06300   1.30000
      4515 IM1      5        IM1      DN1      DRUD    -2.530300        0.4000           0   0.00000   0.00000
      4516 IM1      5        IM1      C2       CD2R5A   2.511900       11.6110           0   -1.37800   1.30000
      4517 IM1      5        IM1      DC2      DRUD    -2.880900        0.4000           0   0.00000   0.00000
      4518 IM1      5        IM1      H4       HDR5A    0.150000        1.0080           0   0.00000   0.00000
      4519 IM1      5        IM1      C3       CD2R5A   3.068900       11.6110           0   -1.37800   1.30000
      4520 IM1      5        IM1      DC3      DRUD    -2.880900        0.4000           0   0.00000   0.00000
      4521 IM1      5        IM1      H5       HDR5A    0.053000        1.0080           0   0.00000   0.00000
      4522 IM1      5        IM1      C4       CD2R5B   2.404400       11.6110           0   -0.868000   1.30000
      4523 IM1      5        IM1      DC4      DRUD    -2.286400        0.4000           0   0.00000   0.00000
      4524 IM1      5        IM1      H6       HDR5B    0.073000        1.0080           0   0.00000   0.00000
      4525 IM1      5        IM1      N2       ND2R5B   2.249300       13.6070           0   -0.840000   1.00000
      4526 IM1      5        IM1      DN2      DRUD    -2.249300        0.4000           0   0.00000   0.00000
      4527 IM1      5        IM1      H7       DUMH     0.000000        1.0080           0   0.00000   0.00000
      4528 IM1      5        IM1      LPN21    LPD     -0.474000        0.0000           -1   0.00000   0.00000
      4529 IM1      6        IM1      C1       CD33G    2.390600       11.6110           0   -1.08100   1.00000
      4530 IM1      6        IM1      DC1      DRUD    -2.551600        0.4000           0   0.00000   0.00000
      4531 IM1      6        IM1      H1       HDA3A    0.094000        1.0080           0   0.00000   0.00000
      4532 IM1      6        IM1      H2       HDA3A    0.094000        1.0080           0   0.00000   0.00000
      4533 IM1      6        IM1      H3       HDA3A    0.094000        1.0080           0   0.00000   0.00000
      4534 IM1      6        IM1      N1       ND2R5A   2.670300       13.6070           0   -1.06300   1.30000
      4535 IM1      6        IM1      DN1      DRUD    -2.530300        0.4000           0   0.00000   0.00000
      4536 IM1      6        IM1      C2       CD2R5A   2.511900       11.6110           0   -1.37800   1.30000
      4537 IM1      6        IM1      DC2      DRUD    -2.880900        0.4000           0   0.00000   0.00000
      4538 IM1      6        IM1      H4       HDR5A    0.150000        1.0080           0   0.00000   0.00000
      4539 IM1      6        IM1      C3       CD2R5A   3.068900       11.6110           0   -1.37800   1.30000
      4540 IM1      6        IM1      DC3      DRUD    -2.880900        0.4000           0   0.00000   0.00000
      4541 IM1      6        IM1      H5       HDR5A    0.053000        1.0080           0   0.00000   0.00000
      4542 IM1      6        IM1      C4       CD2R5B   2.404400       11.6110           0   -0.868000   1.30000
      4543 IM1      6        IM1      DC4      DRUD    -2.286400        0.4000           0   0.00000   0.00000
      4544 IM1      6        IM1      H6       HDR5B    0.073000        1.0080           0   0.00000   0.00000
      4545 IM1      6        IM1      N2       ND2R5B   2.249300       13.6070           0   -0.840000   1.00000
      4546 IM1      6        IM1      DN2      DRUD    -2.249300        0.4000           0   0.00000   0.00000
      4547 IM1      6        IM1      H7       DUMH     0.000000        1.0080           0   0.00000   0.00000
      4548 IM1      6        IM1      LPN21    LPD     -0.474000        0.0000           -1   0.00000   0.00000
      4549 IM1      7        IM1      C1       CD33G    2.390600       11.6110           0   -1.08100   1.00000
      4550 IM1      7        IM1      DC1      DRUD    -2.551600        0.4000           0   0.00000   0.00000
      4551 IM1      7        IM1      H1       HDA3A    0.094000        1.0080           0   0.00000   0.00000
      4552 IM1      7        IM1      H2       HDA3A    0.094000        1.0080           0   0.00000   0.00000
      4553 IM1      7        IM1      H3       HDA3A    0.094000        1.0080           0   0.00000   0.00000
      4554 IM1      7        IM1      N1       ND2R5A   2.670300       13.6070           0   -1.06300   1.30000
      4555 IM1      7        IM1      DN1      DRUD    -2.530300        0.4000           0   0.00000   0.00000
      4556 IM1      7        IM1      C2       CD2R5A   2.511900       11.6110           0   -1.37800   1.30000
      4557 IM1      7        IM1      DC2      DRUD    -2.880900        0.4000           0   0.00000   0.00000
      4558 IM1      7        IM1      H4       HDR5A    0.150000        1.0080           0   0.00000   0.00000
      4559 IM1      7        IM1      C3       CD2R5A   3.068900       11.6110           0   -1.37800   1.30000
      4560 IM1      7        IM1      DC3      DRUD    -2.880900        0.4000           0   0.00000   0.00000
      4561 IM1      7        IM1      H5       HDR5A    0.053000        1.0080           0   0.00000   0.00000
      4562 IM1      7        IM1      C4       CD2R5B   2.404400       11.6110           0   -0.868000   1.30000
      4563 IM1      7        IM1      DC4      DRUD    -2.286400        0.4000           0   0.00000   0.00000
      4564 IM1      7        IM1      H6       HDR5B    0.073000        1.0080           0   0.00000   0.00000
      4565 IM1      7        IM1      N2       ND2R5B   2.249300       13.6070           0   -0.840000   1.00000
      4566 IM1      7        IM1      DN2      DRUD    -2.249300        0.4000           0   0.00000   0.00000
      4567 IM1      7        IM1      H7       DUMH     0.000000        1.0080           0   0.00000   0.00000
      4568 IM1      7        IM1      LPN21    LPD     -0.474000        0.0000           -1   0.00000   0.00000
      4569 IM1      8        IM1      C1       CD33G    2.390600       11.6110           0   -1.08100   1.00000
      4570 IM1      8        IM1      DC1      DRUD    -2.551600        0.4000           0   0.00000   0.00000
      4571 IM1      8        IM1      H1       HDA3A    0.094000        1.0080           0   0.00000   0.00000
      4572 IM1      8        IM1      H2       HDA3A    0.094000        1.0080           0   0.00000   0.00000
      4573 IM1      8        IM1      H3       HDA3A    0.094000        1.0080           0   0.00000   0.00000
      4574 IM1      8        IM1      N1       ND2R5A   2.670300       13.6070           0   -1.06300   1.30000
      4575 IM1      8        IM1      DN1      DRUD    -2.530300        0.4000           0   0.00000   0.00000
      4576 IM1      8        IM1      C2       CD2R5A   2.511900       11.6110           0   -1.37800   1.30000
      4577 IM1      8        IM1      DC2      DRUD    -2.880900        0.4000           0   0.00000   0.00000
      4578 IM1      8        IM1      H4       HDR5A    0.150000        1.0080           0   0.00000   0.00000
      4579 IM1      8        IM1      C3       CD2R5A   3.068900       11.6110           0   -1.37800   1.30000
      4580 IM1      8        IM1      DC3      DRUD    -2.880900        0.4000           0   0.00000   0.00000
      4581 IM1      8        IM1      H5       HDR5A    0.053000        1.0080           0   0.00000   0.00000
      4582 IM1      8        IM1      C4       CD2R5B   2.404400       11.6110           0   -0.868000   1.30000
      4583 IM1      8        IM1      DC4      DRUD    -2.286400        0.4000           0   0.00000   0.00000
      4584 IM1      8        IM1      H6       HDR5B    0.073000        1.0080           0   0.00000   0.00000
      4585 IM1      8        IM1      N2       ND2R5B   2.249300       13.6070           0   -0.840000   1.00000
      4586 IM1      8        IM1      DN2      DRUD    -2.249300        0.4000           0   0.00000   0.00000
      4587 IM1      8        IM1      H7       DUMH     0.000000        1.0080           0   0.00000   0.00000
      4588 IM1      8        IM1      LPN21    LPD     -0.474000        0.0000           -1   0.00000   0.00000
      4589 IM1      9        IM1      C1       CD33G    2.390600       11.6110           0   -1.08100   1.00000
      4590 IM1      9        IM1      DC1      DRUD    -2.551600        0.4000           0   0.00000   0.00000
      4591 IM1      9        IM1      H1       HDA3A    0.094000        1.0080           0   0.00000   0.00000
      4592 IM1      9        IM1      H2       HDA3A    0.094000        1.0080           0   0.00000   0.00000
      4593 IM1      9        IM1      H3       HDA3A    0.094000        1.0080           0   0.00000   0.00000
      4594 IM1      9        IM1      N1       ND2R5A   2.670300       13.6070           0   -1.06300   1.30000
      4595 IM1      9        IM1      DN1      DRUD    -2.530300        0.4000           0   0.00000   0.00000
      4596 IM1      9        IM1      C2       CD2R5A   2.511900       11.6110           0   -1.37800   1.30000
      4597 IM1      9        IM1      DC2      DRUD    -2.880900        0.4000           0   0.00000   0.00000
      4598 IM1      9        IM1      H4       HDR5A    0.150000        1.0080           0   0.00000   0.00000
      4599 IM1      9        IM1      C3       CD2R5A   3.068900       11.6110           0   -1.37800   1.30000
      4600 IM1      9        IM1      DC3      DRUD    -2.880900        0.4000           0   0.00000   0.00000
      4601 IM1      9        IM1      H5       HDR5A    0.053000        1.0080           0   0.00000   0.00000
      4602 IM1      9        IM1      C4       CD2R5B   2.404400       11.6110           0   -0.868000   1.30000
      4603 IM1      9        IM1      DC4      DRUD    -2.286400        0.4000           0   0.00000   0.00000
      4604 IM1      9        IM1      H6       HDR5B    0.073000        1.0080           0   0.00000   0.00000
      4605 IM1      9        IM1      N2       ND2R5B   2.249300       13.6070           0   -0.840000   1.00000
      4606 IM1      9        IM1      DN2      DRUD    -2.249300        0.4000           0   0.00000   0.00000
      4607 IM1      9        IM1      H7       DUMH     0.000000        1.0080           0   0.00000   0.00000
      4608 IM1      9        IM1      LPN21    LPD     -0.474000        0.0000           -1   0.00000   0.00000
      4609 IM1      10       IM1      C1       CD33G    2.390600       11.6110           0   -1.08100   1.00000
      4610 IM1      10       IM1      DC1      DRUD    -2.551600        0.4000           0   0.00000   0.00000
      4611 IM1      10       IM1      H1       HDA3A    0.094000        1.0080           0   0.00000   0.00000
      4612 IM1      10       IM1      H2       HDA3A    0.094000        1.0080           0   0.00000   0.00000
      4613 IM1      10       IM1      H3       HDA3A    0.094000        1.0080           0   0.00000   0.00000
      4614 IM1      10       IM1      N1       ND2R5A   2.670300       13.6070           0   -1.06300   1.30000
      4615 IM1      10       IM1      DN1      DRUD    -2.530300        0.4000           0   0.00000   0.00000
      4616 IM1      10       IM1      C2       CD2R5A   2.511900       11.6110           0   -1.37800   1.30000
      4617 IM1      10       IM1      DC2      DRUD    -2.880900        0.4000           0   0.00000   0.00000
      4618 IM1      10       IM1      H4       HDR5A    0.150000        1.0080           0   0.00000   0.00000
      4619 IM1      10       IM1      C3       CD2R5A   3.068900       11.6110           0   -1.37800   1.30000
      4620 IM1      10       IM1      DC3      DRUD    -2.880900        0.4000           0   0.00000   0.00000
      4621 IM1      10       IM1      H5       HDR5A    0.053000        1.0080           0   0.00000   0.00000
      4622 IM1      10       IM1      C4       CD2R5B   2.404400       11.6110           0   -0.868000   1.30000
      4623 IM1      10       IM1      DC4      DRUD    -2.286400        0.4000           0   0.00000   0.00000
      4624 IM1      10       IM1      H6       HDR5B    0.073000        1.0080           0   0.00000   0.00000
      4625 IM1      10       IM1      N2       ND2R5B   2.249300       13.6070           0   -0.840000   1.00000
      4626 IM1      10       IM1      DN2      DRUD    -2.249300        0.4000           0   0.00000   0.00000
      4627 IM1      10       IM1      H7       DUMH     0.000000        1.0080           0   0.00000   0.00000
      4628 IM1      10       IM1      LPN21    LPD     -0.474000        0.0000           -1   0.00000   0.00000
      4629 IM1      11       IM1      C1       CD33G    2.390600       11.6110           0   -1.08100   1.00000
      4630 IM1      11       IM1      DC1      DRUD    -2.551600        0.4000           0   0.00000   0.00000
      4631 IM1      11       IM1      H1       HDA3A    0.094000        1.0080           0   0.00000   0.00000
      4632 IM1      11       IM1      H2       HDA3A    0.094000        1.0080           0   0.00000   0.00000
      4633 IM1      11       IM1      H3       HDA3A    0.094000        1.0080           0   0.00000   0.00000
      4634 IM1      11       IM1      N1       ND2R5A   2.670300       13.6070           0   -1.06300   1.30000
      4635 IM1      11       IM1      DN1      DRUD    -2.530300        0.4000           0   0.00000   0.00000
      4636 IM1      11       IM1      C2       CD2R5A   2.511900       11.6110           0   -1.37800   1.30000
      4637 IM1      11       IM1      DC2      DRUD    -2.880900        0.4000           0   0.00000   0.00000
      4638 IM1      11       IM1      H4       HDR5A    0.150000        1.0080           0   0.00000   0.00000
      4639 IM1      11       IM1      C3       CD2R5A   3.068900       11.6110           0   -1.37800   1.30000
      4640 IM1      11       IM1      DC3      DRUD    -2.880900        0.4000           0   0.00000   0.00000
      4641 IM1      11       IM1      H5       HDR5A    0.053000        1.0080           0   0.00000   0.00000
      4642 IM1      11       IM1      C4       CD2R5B   2.404400       11.6110           0   -0.868000   1.30000
      4643 IM1      11       IM1      DC4      DRUD    -2.286400        0.4000           0   0.00000   0.00000
      4644 IM1      11       IM1      H6       HDR5B    0.073000        1.0080           0   0.00000   0.00000
      4645 IM1      11       IM1      N2       ND2R5B   2.249300       13.6070           0   -0.840000   1.00000
      4646 IM1      11       IM1      DN2      DRUD    -2.249300        0.4000           0   0.00000   0.00000
      4647 IM1      11       IM1      H7       DUMH     0.000000        1.0080           0   0.00000   0.00000
      4648 IM1      11       IM1      LPN21    LPD     -0.474000        0.0000           -1   0.00000   0.00000
      4649 IM1      12       IM1      C1       CD33G    2.390600       11.6110           0   -1.08100   1.00000
      4650 IM1      12       IM1      DC1      DRUD    -2.551600        0.4000           0   0.00000   0.00000
      4651 IM1      12       IM1      H1       HDA3A    0.094000        1.0080           0   0.00000   0.00000
      4652 IM1      12       IM1      H2       HDA3A    0.094000        1.0080           0   0.00000   0.00000
      4653 IM1      12       IM1      H3       HDA3A    0.094000        1.0080           0   0.00000   0.00000
      4654 IM1      12       IM1      N1       ND2R5A   2.670300       13.6070           0   -1.06300   1.30000
      4655 IM1      12       IM1      DN1      DRUD    -2.530300        0.4000           0   0.00000   0.00000
      4656 IM1      12       IM1      C2       CD2R5A   2.511900       11.6110           0   -1.37800   1.30000
      4657 IM1      12       IM1      DC2      DRUD    -2.880900        0.4000           0   0.00000   0.00000
      4658 IM1      12       IM1      H4       HDR5A    0.150000        1.0080           0   0.00000   0.00000
      4659 IM1      12       IM1      C3       CD2R5A   3.068900       11.6110           0   -1.37800   1.30000
      4660 IM1      12       IM1      DC3      DRUD    -2.880900        0.4000           0   0.00000   0.00000
      4661 IM1      12       IM1      H5       HDR5A    0.053000        1.0080           0   0.00000   0.00000
      4662 IM1      12       IM1      C4       CD2R5B   2.404400       11.6110           0   -0.868000   1.30000
      4663 IM1      12       IM1      DC4      DRUD    -2.286400        0.4000           0   0.00000   0.00000
      4664 IM1      12       IM1      H6       HDR5B    0.073000        1.0080           0   0.00000   0.00000
      4665 IM1      12       IM1      N2       ND2R5B   2.249300       13.6070           0   -0.840000   1.00000
      4666 IM1      12       IM1      DN2      DRUD    -2.249300        0.4000           0   0.00000   0.00000
      4667 IM1      12       IM1      H7       DUMH     0.000000        1.0080           0   0.00000   0.00000
      4668 IM1      12       IM1      LPN21    LPD     -0.474000        0.0000           -1   0.00000   0.00000
      4669 IM1      13       IM1      C1       CD33G    2.390600       11.6110           0   -1.08100   1.00000
      4670 IM1      13       IM1      DC1      DRUD    -2.551600        0.4000           0   0.00000   0.00000
      4671 IM1      13       IM1      H1       HDA3A    0.094000        1.0080           0   0.00000   0.00000
      4672 IM1      13       IM1      H2       HDA3A    0.094000        1.0080           0   0.00000   0.00000
      4673 IM1      13       IM1      H3       HDA3A    0.094000        1.0080           0   0.00000   0.00000
      4674 IM1      13       IM1      N1       ND2R5A   2.670300       13.6070           0   -1.06300   1.30000
      4675 IM1      13       IM1      DN1      DRUD    -2.530300        0.4000           0   0.00000   0.00000
      4676 IM1      13       IM1      C2       CD2R5A   2.511900       11.6110           0   -1.37800   1.30000
      4677 IM1      13       IM1      DC2      DRUD    -2.880900        0.4000           0   0.00000   0.00000
      4678 IM1      13       IM1      H4       HDR5A    0.150000        1.0080           0   0.00000   0.00000
      4679 IM1      13       IM1      C3       CD2R5A   3.068900       11.6110           0   -1.37800   1.30000
      4680 IM1      13       IM1      DC3      DRUD    -2.880900        0.4000           0   0.00000   0.00000
      4681 IM1      13       IM1      H5       HDR5A    0.053000        1.0080           0   0.00000   0.00000
      4682 IM1      13       IM1      C4       CD2R5B   2.404400       11.6110           0   -0.868000   1.30000
      4683 IM1      13       IM1      DC4      DRUD    -2.286400        0.4000           0   0.00000   0.00000
      4684 IM1      13       IM1      H6       HDR5B    0.073000        1.0080           0   0.00000   0.00000
      4685 IM1      13       IM1      N2       ND2R5B   2.249300       13.6070           0   -0.840000   1.00000
      4686 IM1      13       IM1      DN2      DRUD    -2.249300        0.4000           0   0.00000   0.00000
      4687 IM1      13       IM1      H7       DUMH     0.000000        1.0080           0   0.00000   0.00000
      4688 IM1      13       IM1      LPN21    LPD     -0.474000        0.0000           -1   0.00000   0.00000
      4689 IM1      14       IM1      C1       CD33G    2.390600       11.6110           0   -1.08100   1.00000
      4690 IM1      14       IM1      DC1      DRUD    -2.551600        0.4000           0   0.00000   0.00000
      4691 IM1      14       IM1      H1       HDA3A    0.094000        1.0080           0   0.00000   0.00000
      4692 IM1      14       IM1      H2       HDA3A    0.094000        1.0080           0   0.00000   0.00000
      4693 IM1      14       IM1      H3       HDA3A    0.094000        1.0080           0   0.00000   0.00000
      4694 IM1      14       IM1      N1       ND2R5A   2.670300       13.6070           0   -1.06300   1.30000
      4695 IM1      14       IM1      DN1      DRUD    -2.530300        0.4000           0   0.00000   0.00000
      4696 IM1      14       IM1      C2       CD2R5A   2.511900       11.6110           0   -1.37800   1.30000
      4697 IM1      14       IM1      DC2      DRUD    -2.880900        0.4000           0   0.00000   0.00000
      4698 IM1      14       IM1      H4       HDR5A    0.150000        1.0080           0   0.00000   0.00000
      4699 IM1      14       IM1      C3       CD2R5A   3.068900       11.6110           0   -1.37800   1.30000
      4700 IM1      14       IM1      DC3      DRUD    -2.880900        0.4000           0   0.00000   0.00000
      4701 IM1      14       IM1      H5       HDR5A    0.053000        1.0080           0   0.00000   0.00000
      4702 IM1      14       IM1      C4       CD2R5B   2.404400       11.6110           0   -0.868000   1.30000
      4703 IM1      14       IM1      DC4      DRUD    -2.286400        0.4000           0   0.00000   0.00000
      4704 IM1      14       IM1      H6       HDR5B    0.073000        1.0080           0   0.00000   0.00000
      4705 IM1      14       IM1      N2       ND2R5B   2.249300       13.6070           0   -0.840000   1.00000
      4706 IM1      14       IM1      DN2      DRUD    -2.249300        0.4000           0   0.00000   0.00000
      4707 IM1      14       IM1      H7       DUMH     0.000000        1.0080           0   0.00000   0.00000
      4708 IM1      14       IM1      LPN21    LPD     -0.474000        0.0000           -1   0.00000   0.00000
      4709 IM1      15       IM1      C1       CD33G    2.390600       11.6110           0   -1.08100   1.00000
      4710 IM1      15       IM1      DC1      DRUD    -2.551600        0.4000           0   0.00000   0.00000
      4711 IM1      15       IM1      H1       HDA3A    0.094000        1.0080           0   0.00000   0.00000
      4712 IM1      15       IM1      H2       HDA3A    0.094000        1.0080           0   0.00000   0.00000
      4713 IM1      15       IM1      H3       HDA3A    0.094000        1.0080           0   0.00000   0.00000
      4714 IM1      15       IM1      N1       ND2R5A   2.670300       13.6070           0   -1.06300   1.30000
      4715 IM1      15       IM1      DN1      DRUD    -2.530300        0.4000           0   0.00000   0.00000
      4716 IM1      15       IM1      C2       CD2R5A   2.511900       11.6110           0   -1.37800   1.30000
      4717 IM1      15       IM1      DC2      DRUD    -2.880900        0.4000           0   0.00000   0.00000
      4718 IM1      15       IM1      H4       HDR5A    0.150000        1.0080           0   0.00000   0.00000
      4719 IM1      15       IM1      C3       CD2R5A   3.068900       11.6110           0   -1.37800   1.30000
      4720 IM1      15       IM1      DC3      DRUD    -2.880900        0.4000           0   0.00000   0.00000
      4721 IM1      15       IM1      H5       HDR5A    0.053000        1.0080           0   0.00000   0.00000
      4722 IM1      15       IM1      C4       CD2R5B   2.404400       11.6110           0   -0.868000   1.30000
      4723 IM1      15       IM1      DC4      DRUD    -2.286400        0.4000           0   0.00000   0.00000
      4724 IM1      15       IM1      H6       HDR5B    0.073000        1.0080           0   0.00000   0.00000
      4725 IM1      15       IM1      N2       ND2R5B   2.249300       13.6070           0   -0.840000   1.00000
      4726 IM1      15       IM1      DN2      DRUD    -2.249300        0.4000           0   0.00000   0.00000
      4727 IM1      15       IM1      H7       DUMH     0.000000        1.0080           0   0.00000   0.00000
      4728 IM1      15       IM1      LPN21    LPD     -0.474000        0.0000           -1   0.00000   0.00000
      4729 IM1      16       IM1      C1       CD33G    2.390600       11.6110           0   -1.08100   1.00000
      4730 IM1      16       IM1      DC1      DRUD    -2.551600        0.4000           0   0.00000   0.00000
      4731 IM1      16       IM1      H1       HDA3A    0.094000        1.0080           0   0.00000   0.00000
      4732 IM1      16       IM1      H2       HDA3A    0.094000        1.0080           0   0.00000   0.00000
      4733 IM1      16       IM1      H3       HDA3A    0.094000        1.0080           0   0.00000   0.00000
      4734 IM1      16       IM1      N1       ND2R5A   2.670300       13.6070           0   -1.06300   1.30000
      4735 IM1      16       IM1      DN1      DRUD    -2.530300        0.4000           0   0.00000   0.00000
      4736 IM1      16       IM1      C2       CD2R5A   2.511900       11.6110           0   -1.37800   1.30000
      4737 IM1      16       IM1      DC2      DRUD    -2.880900        0.4000           0   0.00000   0.00000
      4738 IM1      16       IM1      H4       HDR5A    0.150000        1.0080           0   0.00000   0.00000
      4739 IM1      16       IM1      C3       CD2R5A   3.068900       11.6110           0   -1.37800   1.30000
      4740 IM1      16       IM1      DC3      DRUD    -2.880900        0.4000           0   0.00000   0.00000
      4741 IM1      16       IM1      H5       HDR5A    0.053000        1.0080           0   0.00000   0.00000
      4742 IM1      16       IM1      C4       CD2R5B   2.404400       11.6110           0   -0.868000   1.30000
      4743 IM1      16       IM1      DC4      DRUD    -2.286400        0.4000           0   0.00000   0.00000
      4744 IM1      16       IM1      H6       HDR5B    0.073000        1.0080           0   0.00000   0.00000
      4745 IM1      16       IM1      N2       ND2R5B   2.249300       13.6070           0   -0.840000   1.00000
      4746 IM1      16       IM1      DN2      DRUD    -2.249300        0.4000           0   0.00000   0.00000
      4747 IM1      16       IM1      H7       DUMH     0.000000        1.0080           0   0.00000   0.00000
      4748 IM1      16       IM1      LPN21    LPD     -0.474000        0.0000           -1   0.00000   0.00000
      4749 IM1      17       IM1      C1       CD33G    2.390600       11.6110           0   -1.08100   1.00000
      4750 IM1      17       IM1      DC1      DRUD    -2.551600        0.4000           0   0.00000   0.00000
      4751 IM1      17       IM1      H1       HDA3A    0.094000        1.0080           0   0.00000   0.00000
      4752 IM1      17       IM1      H2       HDA3A    0.094000        1.0080           0   0.00000   0.00000
      4753 IM1      17       IM1      H3       HDA3A    0.094000        1.0080           0   0.00000   0.00000
      4754 IM1      17       IM1      N1       ND2R5A   2.670300       13.6070           0   -1.06300   1.30000
      4755 IM1      17       IM1      DN1      DRUD    -2.530300        0.4000           0   0.00000   0.00000
      4756 IM1      17       IM1      C2       CD2R5A   2.511900       11.6110           0   -1.37800   1.30000
      4757 IM1      17       IM1      DC2      DRUD    -2.880900        0.4000           0   0.00000   0.00000
      4758 IM1      17       IM1      H4       HDR5A    0.150000        1.0080           0   0.00000   0.00000
      4759 IM1      17       IM1      C3       CD2R5A   3.068900       11.6110           0   -1.37800   1.30000
      4760 IM1      17       IM1      DC3      DRUD    -2.880900        0.4000           0   0.00000   0.00000
      4761 IM1      17       IM1      H5       HDR5A    0.053000        1.0080           0   0.00000   0.00000
      4762 IM1      17       IM1      C4       CD2R5B   2.404400       11.6110           0   -0.868000   1.30000
      4763 IM1      17       IM1      DC4      DRUD    -2.286400        0.4000           0   0.00000   0.00000
      4764 IM1      17       IM1      H6       HDR5B    0.073000        1.0080           0   0.00000   0.00000
      4765 IM1      17       IM1      N2       ND2R5B   2.249300       13.6070           0   -0.840000   1.00000
      4766 IM1      17       IM1      DN2      DRUD    -2.249300        0.4000           0   0.00000   0.00000
      4767 IM1      17       IM1      H7       DUMH     0.000000        1.0080           0   0.00000   0.00000
      4768 IM1      17       IM1      LPN21    LPD     -0.474000        0.0000           -1   0.00000   0.00000
      4769 IM1      18       IM1      C1       CD33G    2.390600       11.6110           0   -1.08100   1.00000
      4770 IM1      18       IM1      DC1      DRUD    -2.551600        0.4000           0   0.00000   0.00000
      4771 IM1      18       IM1      H1       HDA3A    0.094000        1.0080           0   0.00000   0.00000
      4772 IM1      18       IM1      H2       HDA3A    0.094000        1.0080           0   0.00000   0.00000
      4773 IM1      18       IM1      H3       HDA3A    0.094000        1.0080           0   0.00000   0.00000
      4774 IM1      18       IM1      N1       ND2R5A   2.670300       13.6070           0   -1.06300   1.30000
      4775 IM1      18       IM1      DN1      DRUD    -2.530300        0.4000           0   0.00000   0.00000
      4776 IM1      18       IM1      C2       CD2R5A   2.511900       11.6110           0   -1.37800   1.30000
      4777 IM1      18       IM1      DC2      DRUD    -2.880900        0.4000           0   0.00000   0.00000
      4778 IM1      18       IM1      H4       HDR5A    0.150000        1.0080           0   0.00000   0.00000
      4779 IM1      18       IM1      C3       CD2R5A   3.068900       11.6110           0   -1.37800   1.30000
      4780 IM1      18       IM1      DC3      DRUD    -2.880900        0.4000           0   0.00000   0.00000
      4781 IM1      18       IM1      H5       HDR5A    0.053000        1.0080           0   0.00000   0.00000
      4782 IM1      18       IM1      C4       CD2R5B   2.404400       11.6110           0   -0.868000   1.30000
      4783 IM1      18       IM1      DC4      DRUD    -2.286400        0.4000           0   0.00000   0.00000
      4784 IM1      18       IM1      H6       HDR5B    0.073000        1.0080           0   0.00000   0.00000
      4785 IM1      18       IM1      N2       ND2R5B   2.249300       13.6070           0   -0.840000   1.00000
      4786 IM1      18       IM1      DN2      DRUD    -2.249300        0.4000           0   0.00000   0.00000
      4787 IM1      18       IM1      H7       DUMH     0.000000        1.0080           0   0.00000   0.00000
      4788 IM1      18       IM1      LPN21    LPD     -0.474000        0.0000           -1   0.00000   0.00000
      4789 IM1      19       IM1      C1       CD33G    2.390600       11.6110           0   -1.08100   1.00000
      4790 IM1      19       IM1      DC1      DRUD    -2.551600        0.4000           0   0.00000   0.00000
      4791 IM1      19       IM1      H1       HDA3A    0.094000        1.0080           0   0.00000   0.00000
      4792 IM1      19       IM1      H2       HDA3A    0.094000        1.0080           0   0.00000   0.00000
      4793 IM1      19       IM1      H3       HDA3A    0.094000        1.0080           0   0.00000   0.00000
      4794 IM1      19       IM1      N1       ND2R5A   2.670300       13.6070           0   -1.06300   1.30000
      4795 IM1      19       IM1      DN1      DRUD    -2.530300        0.4000           0   0.00000   0.00000
      4796 IM1      19       IM1      C2       CD2R5A   2.511900       11.6110           0   -1.37800   1.30000
      4797 IM1      19       IM1      DC2      DRUD    -2.880900        0.4000           0   0.00000   0.00000
      4798 IM1      19       IM1      H4       HDR5A    0.150000        1.0080           0   0.00000   0.00000
      4799 IM1      19       IM1      C3       CD2R5A   3.068900       11.6110           0   -1.37800   1.30000
      4800 IM1      19       IM1      DC3      DRUD    -2.880900        0.4000           0   0.00000   0.00000
      4801 IM1      19       IM1      H5       HDR5A    0.053000        1.0080           0   0.00000   0.00000
      4802 IM1      19       IM1      C4       CD2R5B   2.404400       11.6110           0   -0.868000   1.30000
      4803 IM1      19       IM1      DC4      DRUD    -2.286400        0.4000           0   0.00000   0.00000
      4804 IM1      19       IM1      H6       HDR5B    0.073000        1.0080           0   0.00000   0.00000
      4805 IM1      19       IM1      N2       ND2R5B   2.249300       13.6070           0   -0.840000   1.00000
      4806 IM1      19       IM1      DN2      DRUD    -2.249300        0.4000           0   0.00000   0.00000
      4807 IM1      19       IM1      H7       DUMH     0.000000        1.0080           0   0.00000   0.00000
      4808 IM1      19       IM1      LPN21    LPD     -0.474000        0.0000           -1   0.00000   0.00000
      4809 IM1      20       IM1      C1       CD33G    2.390600       11.6110           0   -1.08100   1.00000
      4810 IM1      20       IM1      DC1      DRUD    -2.551600        0.4000           0   0.00000   0.00000
      4811 IM1      20       IM1      H1       HDA3A    0.094000        1.0080           0   0.00000   0.00000
      4812 IM1      20       IM1      H2       HDA3A    0.094000        1.0080           0   0.00000   0.00000
      4813 IM1      20       IM1      H3       HDA3A    0.094000        1.0080           0   0.00000   0.00000
      4814 IM1      20       IM1      N1       ND2R5A   2.670300       13.6070           0   -1.06300   1.30000
      4815 IM1      20       IM1      DN1      DRUD    -2.530300        0.4000           0   0.00000   0.00000
      4816 IM1      20       IM1      C2       CD2R5A   2.511900       11.6110           0   -1.37800   1.30000
      4817 IM1      20       IM1      DC2      DRUD    -2.880900        0.4000           0   0.00000   0.00000
      4818 IM1      20       IM1      H4       HDR5A    0.150000        1.0080           0   0.00000   0.00000
      4819 IM1      20       IM1      C3       CD2R5A   3.068900       11.6110           0   -1.37800   1.30000
      4820 IM1      20       IM1      DC3      DRUD    -2.880900        0.4000           0   0.00000   0.00000
      4821 IM1      20       IM1      H5       HDR5A    0.053000        1.0080           0   0.00000   0.00000
      4822 IM1      20       IM1      C4       CD2R5B   2.404400       11.6110           0   -0.868000   1.30000
      4823 IM1      20       IM1      DC4      DRUD    -2.286400        0.4000           0   0.00000   0.00000
      4824 IM1      20       IM1      H6       HDR5B    0.073000        1.0080           0   0.00000   0.00000
      4825 IM1      20       IM1      N2       ND2R5B   2.249300       13.6070           0   -0.840000   1.00000
      4826 IM1      20       IM1      DN2      DRUD    -2.249300        0.4000           0   0.00000   0.00000
      4827 IM1      20       IM1      H7       DUMH     0.000000        1.0080           0   0.00000   0.00000
      4828 IM1      20       IM1      LPN21    LPD     -0.474000        0.0000           -1   0.00000   0.00000
      4829 IM1      21       IM1      C1       CD33G    2.390600       11.6110           0   -1.08100   1.00000
      4830 IM1      21       IM1      DC1      DRUD    -2.551600        0.4000           0   0.00000   0.00000
      4831 IM1      21       IM1      H1       HDA3A    0.094000        1.0080           0   0.00000   0.00000
      4832 IM1      21       IM1      H2       HDA3A    0.094000        1.0080           0   0.00000   0.00000
      4833 IM1      21       IM1      H3       HDA3A    0.094000        1.0080           0   0.00000   0.00000
      4834 IM1      21       IM1      N1       ND2R5A   2.670300       13.6070           0   -1.06300   1.30000
      4835 IM1      21       IM1      DN1      DRUD    -2.530300        0.4000           0   0.00000   0.00000
      4836 IM1      21       IM1      C2       CD2R5A   2.511900       11.6110           0   -1.37800   1.30000
      4837 IM1      21       IM1      DC2      DRUD    -2.880900        0.4000           0   0.00000   0.00000
      4838 IM1      21       IM1      H4       HDR5A    0.150000        1.0080           0   0.00000   0.00000
      4839 IM1      21       IM1      C3       CD2R5A   3.068900       11.6110           0   -1.37800   1.30000
      4840 IM1      21       IM1      DC3      DRUD    -2.880900        0.4000           0   0.00000   0.00000
      4841 IM1      21       IM1      H5       HDR5A    0.053000        1.0080           0   0.00000   0.00000
      4842 IM1      21       IM1      C4       CD2R5B   2.404400       11.6110           0   -0.868000   1.30000
      4843 IM1      21       IM1      DC4      DRUD    -2.286400        0.4000           0   0.00000   0.00000
      4844 IM1      21       IM1      H6       HDR5B    0.073000        1.0080           0   0.00000   0.00000
      4845 IM1      21       IM1      N2       ND2R5B   2.249300       13.6070           0   -0.840000   1.00000
      4846 IM1      21       IM1      DN2      DRUD    -2.249300        0.4000           0   0.00000   0.00000
      4847 IM1      21       IM1      H7       DUMH     0.000000        1.0080           0   0.00000   0.00000
      4848 IM1      21       IM1      LPN21    LPD     -0.474000        0.0000           -1   0.00000   0.00000
      4849 IM1      22       IM1      C1       CD33G    2.390600       11.6110           0   -1.08100   1.00000
      4850 IM1      22       IM1      DC1      DRUD    -2.551600        0.4000           0   0.00000   0.00000
      4851 IM1      22       IM1      H1       HDA3A    0.094000        1.0080           0   0.00000   0.00000
      4852 IM1      22       IM1      H2       HDA3A    0.094000        1.0080           0   0.00000   0.00000
      4853 IM1      22       IM1      H3       HDA3A    0.094000        1.0080           0   0.00000   0.00000
      4854 IM1      22       IM1      N1       ND2R5A   2.670300       13.6070           0   -1.06300   1.30000
      4855 IM1      22       IM1      DN1      DRUD    -2.530300        0.4000           0   0.00000   0.00000
      4856 IM1      22       IM1      C2       CD2R5A   2.511900       11.6110           0   -1.37800   1.30000
      4857 IM1      22       IM1      DC2      DRUD    -2.880900        0.4000           0   0.00000   0.00000
      4858 IM1      22       IM1      H4       HDR5A    0.150000        1.0080           0   0.00000   0.00000
      4859 IM1      22       IM1      C3       CD2R5A   3.068900       11.6110           0   -1.37800   1.30000
      4860 IM1      22       IM1      DC3      DRUD    -2.880900        0.4000           0   0.00000   0.00000
      4861 IM1      22       IM1      H5       HDR5A    0.053000        1.0080           0   0.00000   0.00000
      4862 IM1      22       IM1      C4       CD2R5B   2.404400       11.6110           0   -0.868000   1.30000
      4863 IM1      22       IM1      DC4      DRUD    -2.286400        0.4000           0   0.00000   0.00000
      4864 IM1      22       IM1      H6       HDR5B    0.073000        1.0080           0   0.00000   0.00000
      4865 IM1      22       IM1      N2       ND2R5B   2.249300       13.6070           0   -0.840000   1.00000
      4866 IM1      22       IM1      DN2      DRUD    -2.249300        0.4000           0   0.00000   0.00000
      4867 IM1      22       IM1      H7       DUMH     0.000000        1.0080           0   0.00000   0.00000
      4868 IM1      22       IM1      LPN21    LPD     -0.474000        0.0000           -1   0.00000   0.00000
      4869 IM1      23       IM1      C1       CD33G    2.390600       11.6110           0   -1.08100   1.00000
      4870 IM1      23       IM1      DC1      DRUD    -2.551600        0.4000           0   0.00000   0.00000
      4871 IM1      23       IM1      H1       HDA3A    0.094000        1.0080           0   0.00000   0.00000
      4872 IM1      23       IM1      H2       HDA3A    0.094000        1.0080           0   0.00000   0.00000
      4873 IM1      23       IM1      H3       HDA3A    0.094000        1.0080           0   0.00000   0.00000
      4874 IM1      23       IM1      N1       ND2R5A   2.670300       13.6070           0   -1.06300   1.30000
      4875 IM1      23       IM1      DN1      DRUD    -2.530300        0.4000           0   0.00000   0.00000
      4876 IM1      23       IM1      C2       CD2R5A   2.511900       11.6110           0   -1.37800   1.30000
      4877 IM1      23       IM1      DC2      DRUD    -2.880900        0.4000           0   0.00000   0.00000
      4878 IM1      23       IM1      H4       HDR5A    0.150000        1.0080           0   0.00000   0.00000
      4879 IM1      23       IM1      C3       CD2R5A   3.068900       11.6110           0   -1.37800   1.30000
      4880 IM1      23       IM1      DC3      DRUD    -2.880900        0.4000           0   0.00000   0.00000
      4881 IM1      23       IM1      H5       HDR5A    0.053000        1.0080           0   0.00000   0.00000
      4882 IM1      23       IM1      C4       CD2R5B   2.404400       11.6110           0   -0.868000   1.30000
      4883 IM1      23       IM1      DC4      DRUD    -2.286400        0.4000           0   0.00000   0.00000
      4884 IM1      23       IM1      H6       HDR5B    0.073000        1.0080           0   0.00000   0.00000
      4885 IM1      23       IM1      N2       ND2R5B   2.249300       13.6070           0   -0.840000   1.00000
      4886 IM1      23       IM1      DN2      DRUD    -2.249300        0.4000           0   0.00000   0.00000
      4887 IM1      23       IM1      H7       DUMH     0.000000        1.0080           0   0.00000   0.00000
      4888 IM1      23       IM1      LPN21    LPD     -0.474000        0.0000           -1   0.00000   0.00000
      4889 IM1      24       IM1      C1       CD33G    2.390600       11.6110           0   -1.08100   1.00000
      4890 IM1      24       IM1      DC1      DRUD    -2.551600        0.4000           0   0.00000   0.00000
      4891 IM1      24       IM1      H1       HDA3A    0.094000        1.0080           0   0.00000   0.00000
      4892 IM1      24       IM1      H2       HDA3A    0.094000        1.0080           0   0.00000   0.00000
      4893 IM1      24       IM1      H3       HDA3A    0.094000        1.0080           0   0.00000   0.00000
      4894 IM1      24       IM1      N1       ND2R5A   2.670300       13.6070           0   -1.06300   1.30000
      4895 IM1      24       IM1      DN1      DRUD    -2.530300        0.4000           0   0.00000   0.00000
      4896 IM1      24       IM1      C2       CD2R5A   2.511900       11.6110           0   -1.37800   1.30000
      4897 IM1      24       IM1      DC2      DRUD    -2.880900        0.4000           0   0.00000   0.00000
      4898 IM1      24       IM1      H4       HDR5A    0.150000        1.0080           0   0.00000   0.00000
      4899 IM1      24       IM1      C3       CD2R5A   3.068900       11.6110           0   -1.37800   1.30000
      4900 IM1      24       IM1      DC3      DRUD    -2.880900        0.4000           0   0.00000   0.00000
      4901 IM1      24       IM1      H5       HDR5A    0.053000        1.0080           0   0.00000   0.00000
      4902 IM1      24       IM1      C4       CD2R5B   2.404400       11.6110           0   -0.868000   1.30000
      4903 IM1      24       IM1      DC4      DRUD    -2.286400        0.4000           0   0.00000   0.00000
      4904 IM1      24       IM1      H6       HDR5B    0.073000        1.0080           0   0.00000   0.00000
      4905 IM1      24       IM1      N2       ND2R5B   2.249300       13.6070           0   -0.840000   1.00000
      4906 IM1      24       IM1      DN2      DRUD    -2.249300        0.4000           0   0.00000   0.00000
      4907 IM1      24       IM1      H7       DUMH     0.000000        1.0080           0   0.00000   0.00000
      4908 IM1      24       IM1      LPN21    LPD     -0.474000        0.0000           -1   0.00000   0.00000
      4909 IM1      25       IM1      C1       CD33G    2.390600       11.6110           0   -1.08100   1.00000
      4910 IM1      25       IM1      DC1      DRUD    -2.551600        0.4000           0   0.00000   0.00000
      4911 IM1      25       IM1      H1       HDA3A    0.094000        1.0080           0   0.00000   0.00000
      4912 IM1      25       IM1      H2       HDA3A    0.094000        1.0080           0   0.00000   0.00000
      4913 IM1      25       IM1      H3       HDA3A    0.094000        1.0080           0   0.00000   0.00000
      4914 IM1      25       IM1      N1       ND2R5A   2.670300       13.6070           0   -1.06300   1.30000
      4915 IM1      25       IM1      DN1      DRUD    -2.530300        0.4000           0   0.00000   0.00000
      4916 IM1      25       IM1      C2       CD2R5A   2.511900       11.6110           0   -1.37800   1.30000
      4917 IM1      25       IM1      DC2      DRUD    -2.880900        0.4000           0   0.00000   0.00000
      4918 IM1      25       IM1      H4       HDR5A    0.150000        1.0080           0   0.00000   0.00000
      4919 IM1      25       IM1      C3       CD2R5A   3.068900       11.6110           0   -1.37800   1.30000
      4920 IM1      25       IM1      DC3      DRUD    -2.880900        0.4000           0   0.00000   0.00000
      4921 IM1      25       IM1      H5       HDR5A    0.053000        1.0080           0   0.00000   0.00000
      4922 IM1      25       IM1      C4       CD2R5B   2.404400       11.6110           0   -0.868000   1.30000
      4923 IM1      25       IM1      DC4      DRUD    -2.286400        0.4000           0   0.00000   0.00000
      4924 IM1      25       IM1      H6       HDR5B    0.073000        1.0080           0   0.00000   0.00000
      4925 IM1      25       IM1      N2       ND2R5B   2.249300       13.6070           0   -0.840000   1.00000
      4926 IM1      25       IM1      DN2      DRUD    -2.249300        0.4000           0   0.00000   0.00000
      4927 IM1      25       IM1      H7       DUMH     0.000000        1.0080           0   0.00000   0.00000
      4928 IM1      25       IM1      LPN21    LPD     -0.474000        0.0000           -1   0.00000   0.00000
      4929 IM1      26       IM1      C1       CD33G    2.390600       11.6110           0   -1.08100   1.00000
      4930 IM1      26       IM1      DC1      DRUD    -2.551600        0.4000           0   0.00000   0.00000
      4931 IM1      26       IM1      H1       HDA3A    0.094000        1.0080           0   0.00000   0.00000
      4932 IM1      26       IM1      H2       HDA3A    0.094000        1.0080           0   0.00000   0.00000
      4933 IM1      26       IM1      H3       HDA3A    0.094000        1.0080           0   0.00000   0.00000
      4934 IM1      26       IM1      N1       ND2R5A   2.670300       13.6070           0   -1.06300   1.30000
      4935 IM1      26       IM1      DN1      DRUD    -2.530300        0.4000           0   0.00000   0.00000
      4936 IM1      26       IM1      C2       CD2R5A   2.511900       11.6110           0   -1.37800   1.30000
      4937 IM1      26       IM1      DC2      DRUD    -2.880900        0.4000           0   0.00000   0.00000
      4938 IM1      26       IM1      H4       HDR5A    0.150000        1.0080           0   0.00000   0.00000
      4939 IM1      26       IM1      C3       CD2R5A   3.068900       11.6110           0   -1.37800   1.30000
      4940 IM1      26       IM1      DC3      DRUD    -2.880900        0.4000           0   0.00000   0.00000
      4941 IM1      26       IM1      H5       HDR5A    0.053000        1.0080           0   0.00000   0.00000
      4942 IM1      26       IM1      C4       CD2R5B   2.404400       11.6110           0   -0.868000   1.30000
      4943 IM1      26       IM1      DC4      DRUD    -2.286400        0.4000           0   0.00000   0.00000
      4944 IM1      26       IM1      H6       HDR5B    0.073000        1.0080           0   0.00000   0.00000
      4945 IM1      26       IM1      N2       ND2R5B   2.249300       13.6070           0   -0.840000   1.00000
      4946 IM1      26       IM1      DN2      DRUD    -2.249300        0.4000           0   0.00000   0.00000
      4947 IM1      26       IM1      H7       DUMH     0.000000        1.0080           0   0.00000   0.00000
      4948 IM1      26       IM1      LPN21    LPD     -0.474000        0.0000           -1   0.00000   0.00000
      4949 IM1      27       IM1      C1       CD33G    2.390600       11.6110           0   -1.08100   1.00000
      4950 IM1      27       IM1      DC1      DRUD    -2.551600        0.4000           0   0.00000   0.00000
      4951 IM1      27       IM1      H1       HDA3A    0.094000        1.0080           0   0.00000   0.00000
      4952 IM1      27       IM1      H2       HDA3A    0.094000        1.0080           0   0.00000   0.00000
      4953 IM1      27       IM1      H3       HDA3A    0.094000        1.0080           0   0.00000   0.00000
      4954 IM1      27       IM1      N1       ND2R5A   2.670300       13.6070           0   -1.06300   1.30000
      4955 IM1      27       IM1      DN1      DRUD    -2.530300        0.4000           0   0.00000   0.00000
      4956 IM1      27       IM1      C2       CD2R5A   2.511900       11.6110           0   -1.37800   1.30000
      4957 IM1      27       IM1      DC2      DRUD    -2.880900        0.4000           0   0.00000   0.00000
      4958 IM1      27       IM1      H4       HDR5A    0.150000        1.0080           0   0.00000   0.00000
      4959 IM1      27       IM1      C3       CD2R5A   3.068900       11.6110           0   -1.37800   1.30000
      4960 IM1      27       IM1      DC3      DRUD    -2.880900        0.4000           0   0.00000   0.00000
      4961 IM1      27       IM1      H5       HDR5A    0.053000        1.0080           0   0.00000   0.00000
      4962 IM1      27       IM1      C4       CD2R5B   2.404400       11.6110           0   -0.868000   1.30000
      4963 IM1      27       IM1      DC4      DRUD    -2.286400        0.4000           0   0.00000   0.00000
      4964 IM1      27       IM1      H6       HDR5B    0.073000        1.0080           0   0.00000   0.00000
      4965 IM1      27       IM1      N2       ND2R5B   2.249300       13.6070           0   -0.840000   1.00000
      4966 IM1      27       IM1      DN2      DRUD    -2.249300        0.4000           0   0.00000   0.00000
      4967 IM1      27       IM1      H7       DUMH     0.000000        1.0080           0   0.00000   0.00000
      4968 IM1      27       IM1      LPN21    LPD     -0.474000        0.0000           -1   0.00000   0.00000
      4969 IM1      28       IM1      C1       CD33G    2.390600       11.6110           0   -1.08100   1.00000
      4970 IM1      28       IM1      DC1      DRUD    -2.551600        0.4000           0   0.00000   0.00000
      4971 IM1      28       IM1      H1       HDA3A    0.094000        1.0080           0   0.00000   0.00000
      4972 IM1      28       IM1      H2       HDA3A    0.094000        1.0080           0   0.00000   0.00000
      4973 IM1      28       IM1      H3       HDA3A    0.094000        1.0080           0   0.00000   0.00000
      4974 IM1      28       IM1      N1       ND2R5A   2.670300       13.6070           0   -1.06300   1.30000
      4975 IM1      28       IM1      DN1      DRUD    -2.530300        0.4000           0   0.00000   0.00000
      4976 IM1      28       IM1      C2       CD2R5A   2.511900       11.6110           0   -1.37800   1.30000
      4977 IM1      28       IM1      DC2      DRUD    -2.880900        0.4000           0   0.00000   0.00000
      4978 IM1      28       IM1      H4       HDR5A    0.150000        1.0080           0   0.00000   0.00000
      4979 IM1      28       IM1      C3       CD2R5A   3.068900       11.6110           0   -1.37800   1.30000
      4980 IM1      28       IM1      DC3      DRUD    -2.880900        0.4000           0   0.00000   0.00000
      4981 IM1      28       IM1      H5       HDR5A    0.053000        1.0080           0   0.00000   0.00000
      4982 IM1      28       IM1      C4       CD2R5B   2.404400       11.6110           0   -0.868000   1.30000
      4983 IM1      28       IM1      DC4      DRUD    -2.286400        0.4000           0   0.00000   0.00000
      4984 IM1      28       IM1      H6       HDR5B    0.073000        1.0080           0   0.00000   0.00000
      4985 IM1      28       IM1      N2       ND2R5B   2.249300       13.6070           0   -0.840000   1.00000
      4986 IM1      28       IM1      DN2      DRUD    -2.249300        0.4000           0   0.00000   0.00000
      4987 IM1      28       IM1      H7       DUMH     0.000000        1.0080           0   0.00000   0.00000
      4988 IM1      28       IM1      LPN21    LPD     -0.474000        0.0000           -1   0.00000   0.00000
      4989 IM1      29       IM1      C1       CD33G    2.390600       11.6110           0   -1.08100   1.00000
      4990 IM1      29       IM1      DC1      DRUD    -2.551600        0.4000           0   0.00000   0.00000
      4991 IM1      29       IM1      H1       HDA3A    0.094000        1.0080           0   0.00000   0.00000
      4992 IM1      29       IM1      H2       HDA3A    0.094000        1.0080           0   0.00000   0.00000
      4993 IM1      29       IM1      H3       HDA3A    0.094000        1.0080           0   0.00000   0.00000
      4994 IM1      29       IM1      N1       ND2R5A   2.670300       13.6070           0   -1.06300   1.30000
      4995 IM1      29       IM1      DN1      DRUD    -2.530300        0.4000           0   0.00000   0.00000
      4996 IM1      29       IM1      C2       CD2R5A   2.511900       11.6110           0   -1.37800   1.30000
      4997 IM1      29       IM1      DC2      DRUD    -2.880900        0.4000           0   0.00000   0.00000
      4998 IM1      29       IM1      H4       HDR5A    0.150000        1.0080           0   0.00000   0.00000
      4999 IM1      29       IM1      C3       CD2R5A   3.068900       11.6110           0   -1.37800   1.30000
      5000 IM1      29       IM1      DC3      DRUD    -2.880900        0.4000           0   0.00000   0.00000
      5001 IM1      29       IM1      H5       HDR5A    0.053000        1.0080           0   0.00000   0.00000
      5002 IM1      29       IM1      C4       CD2R5B   2.404400       11.6110           0   -0.868000   1.30000
      5003 IM1      29       IM1      DC4      DRUD    -2.286400        0.4000           0   0.00000   0.00000
      5004 IM1      29       IM1      H6       HDR5B    0.073000        1.0080           0   0.00000   0.00000
      5005 IM1      29       IM1      N2       ND2R5B   2.249300       13.6070           0   -0.840000   1.00000
      5006 IM1      29       IM1      DN2      DRUD    -2.249300        0.4000           0   0.00000   0.00000
      5007 IM1      29       IM1      H7       DUMH     0.000000        1.0080           0   0.00000   0.00000
      5008 IM1      29       IM1      LPN21    LPD     -0.474000        0.0000           -1   0.00000   0.00000
      5009 IM1      30       IM1      C1       CD33G    2.390600       11.6110           0   -1.08100   1.00000
      5010 IM1      30       IM1      DC1      DRUD    -2.551600        0.4000           0   0.00000   0.00000
      5011 IM1      30       IM1      H1       HDA3A    0.094000        1.0080           0   0.00000   0.00000
      5012 IM1      30       IM1      H2       HDA3A    0.094000        1.0080           0   0.00000   0.00000
      5013 IM1      30       IM1      H3       HDA3A    0.094000        1.0080           0   0.00000   0.00000
      5014 IM1      30       IM1      N1       ND2R5A   2.670300       13.6070           0   -1.06300   1.30000
      5015 IM1      30       IM1      DN1      DRUD    -2.530300        0.4000           0   0.00000   0.00000
      5016 IM1      30       IM1      C2       CD2R5A   2.511900       11.6110           0   -1.37800   1.30000
      5017 IM1      30       IM1      DC2      DRUD    -2.880900        0.4000           0   0.00000   0.00000
      5018 IM1      30       IM1      H4       HDR5A    0.150000        1.0080           0   0.00000   0.00000
      5019 IM1      30       IM1      C3       CD2R5A   3.068900       11.6110           0   -1.37800   1.30000
      5020 IM1      30       IM1      DC3      DRUD    -2.880900        0.4000           0   0.00000   0.00000
      5021 IM1      30       IM1      H5       HDR5A    0.053000        1.0080           0   0.00000   0.00000
      5022 IM1      30       IM1      C4       CD2R5B   2.404400       11.6110           0   -0.868000   1.30000
      5023 IM1      30       IM1      DC4      DRUD    -2.286400        0.4000           0   0.00000   0.00000
      5024 IM1      30       IM1      H6       HDR5B    0.073000        1.0080           0   0.00000   0.00000
      5025 IM1      30       IM1      N2       ND2R5B   2.249300       13.6070           0   -0.840000   1.00000
      5026 IM1      30       IM1      DN2      DRUD    -2.249300        0.4000           0   0.00000   0.00000
      5027 IM1      30       IM1      H7       DUMH     0.000000        1.0080           0   0.00000   0.00000
      5028 IM1      30       IM1      LPN21    LPD     -0.474000        0.0000           -1   0.00000   0.00000
      5029 IM1      31       IM1      C1       CD33G    2.390600       11.6110           0   -1.08100   1.00000
      5030 IM1      31       IM1      DC1      DRUD    -2.551600        0.4000           0   0.00000   0.00000
      5031 IM1      31       IM1      H1       HDA3A    0.094000        1.0080           0   0.00000   0.00000
      5032 IM1      31       IM1      H2       HDA3A    0.094000        1.0080           0   0.00000   0.00000
      5033 IM1      31       IM1      H3       HDA3A    0.094000        1.0080           0   0.00000   0.00000
      5034 IM1      31       IM1      N1       ND2R5A   2.670300       13.6070           0   -1.06300   1.30000
      5035 IM1      31       IM1      DN1      DRUD    -2.530300        0.4000           0   0.00000   0.00000
      5036 IM1      31       IM1      C2       CD2R5A   2.511900       11.6110           0   -1.37800   1.30000
      5037 IM1      31       IM1      DC2      DRUD    -2.880900        0.4000           0   0.00000   0.00000
      5038 IM1      31       IM1      H4       HDR5A    0.150000        1.0080           0   0.00000   0.00000
      5039 IM1      31       IM1      C3       CD2R5A   3.068900       11.6110           0   -1.37800   1.30000
      5040 IM1      31       IM1      DC3      DRUD    -2.880900        0.4000           0   0.00000   0.00000
      5041 IM1      31       IM1      H5       HDR5A    0.053000        1.0080           0   0.00000   0.00000
      5042 IM1      31       IM1      C4       CD2R5B   2.404400       11.6110           0   -0.868000   1.30000
      5043 IM1      31       IM1      DC4      DRUD    -2.286400        0.4000           0   0.00000   0.00000
      5044 IM1      31       IM1      H6       HDR5B    0.073000        1.0080           0   0.00000   0.00000
      5045 IM1      31       IM1      N2       ND2R5B   2.249300       13.6070           0   -0.840000   1.00000
      5046 IM1      31       IM1      DN2      DRUD    -2.249300        0.4000           0   0.00000   0.00000
      5047 IM1      31       IM1      H7       DUMH     0.000000        1.0080           0   0.00000   0.00000
      5048 IM1      31       IM1      LPN21    LPD     -0.474000        0.0000           -1   0.00000   0.00000
      5049 IM1      32       IM1      C1       CD33G    2.390600       11.6110           0   -1.08100   1.00000
      5050 IM1      32       IM1      DC1      DRUD    -2.551600        0.4000           0   0.00000   0.00000
      5051 IM1      32       IM1      H1       HDA3A    0.094000        1.0080           0   0.00000   0.00000
      5052 IM1      32       IM1      H2       HDA3A    0.094000        1.0080           0   0.00000   0.00000
      5053 IM1      32       IM1      H3       HDA3A    0.094000        1.0080           0   0.00000   0.00000
      5054 IM1      32       IM1      N1       ND2R5A   2.670300       13.6070           0   -1.06300   1.30000
      5055 IM1      32       IM1      DN1      DRUD    -2.530300        0.4000           0   0.00000   0.00000
      5056 IM1      32       IM1      C2       CD2R5A   2.511900       11.6110           0   -1.37800   1.30000
      5057 IM1      32       IM1      DC2      DRUD    -2.880900        0.4000           0   0.00000   0.00000
      5058 IM1      32       IM1      H4       HDR5A    0.150000        1.0080           0   0.00000   0.00000
      5059 IM1      32       IM1      C3       CD2R5A   3.068900       11.6110           0   -1.37800   1.30000
      5060 IM1      32       IM1      DC3      DRUD    -2.880900        0.4000           0   0.00000   0.00000
      5061 IM1      32       IM1      H5       HDR5A    0.053000        1.0080           0   0.00000   0.00000
      5062 IM1      32       IM1      C4       CD2R5B   2.404400       11.6110           0   -0.868000   1.30000
      5063 IM1      32       IM1      DC4      DRUD    -2.286400        0.4000           0   0.00000   0.00000
      5064 IM1      32       IM1      H6       HDR5B    0.073000        1.0080           0   0.00000   0.00000
      5065 IM1      32       IM1      N2       ND2R5B   2.249300       13.6070           0   -0.840000   1.00000
      5066 IM1      32       IM1      DN2      DRUD    -2.249300        0.4000           0   0.00000   0.00000
      5067 IM1      32       IM1      H7       DUMH     0.000000        1.0080           0   0.00000   0.00000
      5068 IM1      32       IM1      LPN21    LPD     -0.474000        0.0000           -1   0.00000   0.00000
      5069 IM1      33       IM1      C1       CD33G    2.390600       11.6110           0   -1.08100   1.00000
      5070 IM1      33       IM1      DC1      DRUD    -2.551600        0.4000           0   0.00000   0.00000
      5071 IM1      33       IM1      H1       HDA3A    0.094000        1.0080           0   0.00000   0.00000
      5072 IM1      33       IM1      H2       HDA3A    0.094000        1.0080           0   0.00000   0.00000
      5073 IM1      33       IM1      H3       HDA3A    0.094000        1.0080           0   0.00000   0.00000
      5074 IM1      33       IM1      N1       ND2R5A   2.670300       13.6070           0   -1.06300   1.30000
      5075 IM1      33       IM1      DN1      DRUD    -2.530300        0.4000           0   0.00000   0.00000
      5076 IM1      33       IM1      C2       CD2R5A   2.511900       11.6110           0   -1.37800   1.30000
      5077 IM1      33       IM1      DC2      DRUD    -2.880900        0.4000           0   0.00000   0.00000
      5078 IM1      33       IM1      H4       HDR5A    0.150000        1.0080           0   0.00000   0.00000
      5079 IM1      33       IM1      C3       CD2R5A   3.068900       11.6110           0   -1.37800   1.30000
      5080 IM1      33       IM1      DC3      DRUD    -2.880900        0.4000           0   0.00000   0.00000
      5081 IM1      33       IM1      H5       HDR5A    0.053000        1.0080           0   0.00000   0.00000
      5082 IM1      33       IM1      C4       CD2R5B   2.404400       11.6110           0   -0.868000   1.30000
      5083 IM1      33       IM1      DC4      DRUD    -2.286400        0.4000           0   0.00000   0.00000
      5084 IM1      33       IM1      H6       HDR5B    0.073000        1.0080           0   0.00000   0.00000
      5085 IM1      33       IM1      N2       ND2R5B   2.249300       13.6070           0   -0.840000   1.00000
      5086 IM1      33       IM1      DN2      DRUD    -2.249300        0.4000           0   0.00000   0.00000
      5087 IM1      33       IM1      H7       DUMH     0.000000        1.0080           0   0.00000   0.00000
      5088 IM1      33       IM1      LPN21    LPD     -0.474000        0.0000           -1   0.00000   0.00000
      5089 IM1      34       IM1      C1       CD33G    2.390600       11.6110           0   -1.08100   1.00000
      5090 IM1      34       IM1      DC1      DRUD    -2.551600        0.4000           0   0.00000   0.00000
      5091 IM1      34       IM1      H1       HDA3A    0.094000        1.0080           0   0.00000   0.00000
      5092 IM1      34       IM1      H2       HDA3A    0.094000        1.0080           0   0.00000   0.00000
      5093 IM1      34       IM1      H3       HDA3A    0.094000        1.0080           0   0.00000   0.00000
      5094 IM1      34       IM1      N1       ND2R5A   2.670300       13.6070           0   -1.06300   1.30000
      5095 IM1      34       IM1      DN1      DRUD    -2.530300        0.4000           0   0.00000   0.00000
      5096 IM1      34       IM1      C2       CD2R5A   2.511900       11.6110           0   -1.37800   1.30000
      5097 IM1      34       IM1      DC2      DRUD    -2.880900        0.4000           0   0.00000   0.00000
      5098 IM1      34       IM1      H4       HDR5A    0.150000        1.0080           0   0.00000   0.00000
      5099 IM1      34       IM1      C3       CD2R5A   3.068900       11.6110           0   -1.37800   1.30000
      5100 IM1      34       IM1      DC3      DRUD    -2.880900        0.4000           0   0.00000   0.00000
      5101 IM1      34       IM1      H5       HDR5A    0.053000        1.0080           0   0.00000   0.00000
      5102 IM1      34       IM1      C4       CD2R5B   2.404400       11.6110           0   -0.868000   1.30000
      5103 IM1      34       IM1      DC4      DRUD    -2.286400        0.4000           0   0.00000   0.00000
      5104 IM1      34       IM1      H6       HDR5B    0.073000        1.0080           0   0.00000   0.00000
      5105 IM1      34       IM1      N2       ND2R5B   2.249300       13.6070           0   -0.840000   1.00000
      5106 IM1      34       IM1      DN2      DRUD    -2.249300        0.4000           0   0.00000   0.00000
      5107 IM1      34       IM1      H7       DUMH     0.000000        1.0080           0   0.00000   0.00000
      5108 IM1      34       IM1      LPN21    LPD     -0.474000        0.0000           -1   0.00000   0.00000
      5109 IM1      35       IM1      C1       CD33G    2.390600       11.6110           0   -1.08100   1.00000
      5110 IM1      35       IM1      DC1      DRUD    -2.551600        0.4000           0   0.00000   0.00000
      5111 IM1      35       IM1      H1       HDA3A    0.094000        1.0080           0   0.00000   0.00000
      5112 IM1      35       IM1      H2       HDA3A    0.094000        1.0080           0   0.00000   0.00000
      5113 IM1      35       IM1      H3       HDA3A    0.094000        1.0080           0   0.00000   0.00000
      5114 IM1      35       IM1      N1       ND2R5A   2.670300       13.6070           0   -1.06300   1.30000
      5115 IM1      35       IM1      DN1      DRUD    -2.530300        0.4000           0   0.00000   0.00000
      5116 IM1      35       IM1      C2       CD2R5A   2.511900       11.6110           0   -1.37800   1.30000
      5117 IM1      35       IM1      DC2      DRUD    -2.880900        0.4000           0   0.00000   0.00000
      5118 IM1      35       IM1      H4       HDR5A    0.150000        1.0080           0   0.00000   0.00000
      5119 IM1      35       IM1      C3       CD2R5A   3.068900       11.6110           0   -1.37800   1.30000
      5120 IM1      35       IM1      DC3      DRUD    -2.880900        0.4000           0   0.00000   0.00000
      5121 IM1      35       IM1      H5       HDR5A    0.053000        1.0080           0   0.00000   0.00000
      5122 IM1      35       IM1      C4       CD2R5B   2.404400       11.6110           0   -0.868000   1.30000
      5123 IM1      35       IM1      DC4      DRUD    -2.286400        0.4000           0   0.00000   0.00000
      5124 IM1      35       IM1      H6       HDR5B    0.073000        1.0080           0   0.00000   0.00000
      5125 IM1      35       IM1      N2       ND2R5B   2.249300       13.6070           0   -0.840000   1.00000
      5126 IM1      35       IM1      DN2      DRUD    -2.249300        0.4000           0   0.00000   0.00000
      5127 IM1      35       IM1      H7       DUMH     0.000000        1.0080           0   0.00000   0.00000
      5128 IM1      35       IM1      LPN21    LPD     -0.474000        0.0000           -1   0.00000   0.00000
      5129 IM1      36       IM1      C1       CD33G    2.390600       11.6110           0   -1.08100   1.00000
      5130 IM1      36       IM1      DC1      DRUD    -2.551600        0.4000           0   0.00000   0.00000
      5131 IM1      36       IM1      H1       HDA3A    0.094000        1.0080           0   0.00000   0.00000
      5132 IM1      36       IM1      H2       HDA3A    0.094000        1.0080           0   0.00000   0.00000
      5133 IM1      36       IM1      H3       HDA3A    0.094000        1.0080           0   0.00000   0.00000
      5134 IM1      36       IM1      N1       ND2R5A   2.670300       13.6070           0   -1.06300   1.30000
      5135 IM1      36       IM1      DN1      DRUD    -2.530300        0.4000           0   0.00000   0.00000
      5136 IM1      36       IM1      C2       CD2R5A   2.511900       11.6110           0   -1.37800   1.30000
      5137 IM1      36       IM1      DC2      DRUD    -2.880900        0.4000           0   0.00000   0.00000
      5138 IM1      36       IM1      H4       HDR5A    0.150000        1.0080           0   0.00000   0.00000
      5139 IM1      36       IM1      C3       CD2R5A   3.068900       11.6110           0   -1.37800   1.30000
      5140 IM1      36       IM1      DC3      DRUD    -2.880900        0.4000           0   0.00000   0.00000
      5141 IM1      36       IM1      H5       HDR5A    0.053000        1.0080           0   0.00000   0.00000
      5142 IM1      36       IM1      C4       CD2R5B   2.404400       11.6110           0   -0.868000   1.30000
      5143 IM1      36       IM1      DC4      DRUD    -2.286400        0.4000           0   0.00000   0.00000
      5144 IM1      36       IM1      H6       HDR5B    0.073000        1.0080           0   0.00000   0.00000
      5145 IM1      36       IM1      N2       ND2R5B   2.249300       13.6070           0   -0.840000   1.00000
      5146 IM1      36       IM1      DN2      DRUD    -2.249300        0.4000           0   0.00000   0.00000
      5147 IM1      36       IM1      H7       DUMH     0.000000        1.0080           0   0.00000   0.00000
      5148 IM1      36       IM1      LPN21    LPD     -0.474000        0.0000           -1   0.00000   0.00000
      5149 IM1      37       IM1      C1       CD33G    2.390600       11.6110           0   -1.08100   1.00000
      5150 IM1      37       IM1      DC1      DRUD    -2.551600        0.4000           0   0.00000   0.00000
      5151 IM1      37       IM1      H1       HDA3A    0.094000        1.0080           0   0.00000   0.00000
      5152 IM1      37       IM1      H2       HDA3A    0.094000        1.0080           0   0.00000   0.00000
      5153 IM1      37       IM1      H3       HDA3A    0.094000        1.0080           0   0.00000   0.00000
      5154 IM1      37       IM1      N1       ND2R5A   2.670300       13.6070           0   -1.06300   1.30000
      5155 IM1      37       IM1      DN1      DRUD    -2.530300        0.4000           0   0.00000   0.00000
      5156 IM1      37       IM1      C2       CD2R5A   2.511900       11.6110           0   -1.37800   1.30000
      5157 IM1      37       IM1      DC2      DRUD    -2.880900        0.4000           0   0.00000   0.00000
      5158 IM1      37       IM1      H4       HDR5A    0.150000        1.0080           0   0.00000   0.00000
      5159 IM1      37       IM1      C3       CD2R5A   3.068900       11.6110           0   -1.37800   1.30000
      5160 IM1      37       IM1      DC3      DRUD    -2.880900        0.4000           0   0.00000   0.00000
      5161 IM1      37       IM1      H5       HDR5A    0.053000        1.0080           0   0.00000   0.00000
      5162 IM1      37       IM1      C4       CD2R5B   2.404400       11.6110           0   -0.868000   1.30000
      5163 IM1      37       IM1      DC4      DRUD    -2.286400        0.4000           0   0.00000   0.00000
      5164 IM1      37       IM1      H6       HDR5B    0.073000        1.0080           0   0.00000   0.00000
      5165 IM1      37       IM1      N2       ND2R5B   2.249300       13.6070           0   -0.840000   1.00000
      5166 IM1      37       IM1      DN2      DRUD    -2.249300        0.4000           0   0.00000   0.00000
      5167 IM1      37       IM1      H7       DUMH     0.000000        1.0080           0   0.00000   0.00000
      5168 IM1      37       IM1      LPN21    LPD     -0.474000        0.0000           -1   0.00000   0.00000
      5169 IM1      38       IM1      C1       CD33G    2.390600       11.6110           0   -1.08100   1.00000
      5170 IM1      38       IM1      DC1      DRUD    -2.551600        0.4000           0   0.00000   0.00000
      5171 IM1      38       IM1      H1       HDA3A    0.094000        1.0080           0   0.00000   0.00000
      5172 IM1      38       IM1      H2       HDA3A    0.094000        1.0080           0   0.00000   0.00000
      5173 IM1      38       IM1      H3       HDA3A    0.094000        1.0080           0   0.00000   0.00000
      5174 IM1      38       IM1      N1       ND2R5A   2.670300       13.6070           0   -1.06300   1.30000
      5175 IM1      38       IM1      DN1      DRUD    -2.530300        0.4000           0   0.00000   0.00000
      5176 IM1      38       IM1      C2       CD2R5A   2.511900       11.6110           0   -1.37800   1.30000
      5177 IM1      38       IM1      DC2      DRUD    -2.880900        0.4000           0   0.00000   0.00000
      5178 IM1      38       IM1      H4       HDR5A    0.150000        1.0080           0   0.00000   0.00000
      5179 IM1      38       IM1      C3       CD2R5A   3.068900       11.6110           0   -1.37800   1.30000
      5180 IM1      38       IM1      DC3      DRUD    -2.880900        0.4000           0   0.00000   0.00000
      5181 IM1      38       IM1      H5       HDR5A    0.053000        1.0080           0   0.00000   0.00000
      5182 IM1      38       IM1      C4       CD2R5B   2.404400       11.6110           0   -0.868000   1.30000
      5183 IM1      38       IM1      DC4      DRUD    -2.286400        0.4000           0   0.00000   0.00000
      5184 IM1      38       IM1      H6       HDR5B    0.073000        1.0080           0   0.00000   0.00000
      5185 IM1      38       IM1      N2       ND2R5B   2.249300       13.6070           0   -0.840000   1.00000
      5186 IM1      38       IM1      DN2      DRUD    -2.249300        0.4000           0   0.00000   0.00000
      5187 IM1      38       IM1      H7       DUMH     0.000000        1.0080           0   0.00000   0.00000
      5188 IM1      38       IM1      LPN21    LPD     -0.474000        0.0000           -1   0.00000   0.00000
      5189 IM1      39       IM1      C1       CD33G    2.390600       11.6110           0   -1.08100   1.00000
      5190 IM1      39       IM1      DC1      DRUD    -2.551600        0.4000           0   0.00000   0.00000
      5191 IM1      39       IM1      H1       HDA3A    0.094000        1.0080           0   0.00000   0.00000
      5192 IM1      39       IM1      H2       HDA3A    0.094000        1.0080           0   0.00000   0.00000
      5193 IM1      39       IM1      H3       HDA3A    0.094000        1.0080           0   0.00000   0.00000
      5194 IM1      39       IM1      N1       ND2R5A   2.670300       13.6070           0   -1.06300   1.30000
      5195 IM1      39       IM1      DN1      DRUD    -2.530300        0.4000           0   0.00000   0.00000
      5196 IM1      39       IM1      C2       CD2R5A   2.511900       11.6110           0   -1.37800   1.30000
      5197 IM1      39       IM1      DC2      DRUD    -2.880900        0.4000           0   0.00000   0.00000
      5198 IM1      39       IM1      H4       HDR5A    0.150000        1.0080           0   0.00000   0.00000
      5199 IM1      39       IM1      C3       CD2R5A   3.068900       11.6110           0   -1.37800   1.30000
      5200 IM1      39       IM1      DC3      DRUD    -2.880900        0.4000           0   0.00000   0.00000
      5201 IM1      39       IM1      H5       HDR5A    0.053000        1.0080           0   0.00000   0.00000
      5202 IM1      39       IM1      C4       CD2R5B   2.404400       11.6110           0   -0.868000   1.30000
      5203 IM1      39       IM1      DC4      DRUD    -2.286400        0.4000           0   0.00000   0.00000
      5204 IM1      39       IM1      H6       HDR5B    0.073000        1.0080           0   0.00000   0.00000
      5205 IM1      39       IM1      N2       ND2R5B   2.249300       13.6070           0   -0.840000   1.00000
      5206 IM1      39       IM1      DN2      DRUD    -2.249300        0.4000           0   0.00000   0.00000
      5207 IM1      39       IM1      H7       DUMH     0.000000        1.0080           0   0.00000   0.00000
      5208 IM1      39       IM1      LPN21    LPD     -0.474000        0.0000           -1   0.00000   0.00000
      5209 IM1      40       IM1      C1       CD33G    2.390600       11.6110           0   -1.08100   1.00000
      5210 IM1      40       IM1      DC1      DRUD    -2.551600        0.4000           0   0.00000   0.00000
      5211 IM1      40       IM1      H1       HDA3A    0.094000        1.0080           0   0.00000   0.00000
      5212 IM1      40       IM1      H2       HDA3A    0.094000        1.0080           0   0.00000   0.00000
      5213 IM1      40       IM1      H3       HDA3A    0.094000        1.0080           0   0.00000   0.00000
      5214 IM1      40       IM1      N1       ND2R5A   2.670300       13.6070           0   -1.06300   1.30000
      5215 IM1      40       IM1      DN1      DRUD    -2.530300        0.4000           0   0.00000   0.00000
      5216 IM1      40       IM1      C2       CD2R5A   2.511900       11.6110           0   -1.37800   1.30000
      5217 IM1      40       IM1      DC2      DRUD    -2.880900        0.4000           0   0.00000   0.00000
      5218 IM1      40       IM1      H4       HDR5A    0.150000        1.0080           0   0.00000   0.00000
      5219 IM1      40       IM1      C3       CD2R5A   3.068900       11.6110           0   -1.37800   1.30000
      5220 IM1      40       IM1      DC3      DRUD    -2.880900        0.4000           0   0.00000   0.00000
      5221 IM1      40       IM1      H5       HDR5A    0.053000        1.0080           0   0.00000   0.00000
      5222 IM1      40       IM1      C4       CD2R5B   2.404400       11.6110           0   -0.868000   1.30000
      5223 IM1      40       IM1      DC4      DRUD    -2.286400        0.4000           0   0.00000   0.00000
      5224 IM1      40       IM1      H6       HDR5B    0.073000        1.0080           0   0.00000   0.00000
      5225 IM1      40       IM1      N2       ND2R5B   2.249300       13.6070           0   -0.840000   1.00000
      5226 IM1      40       IM1      DN2      DRUD    -2.249300        0.4000           0   0.00000   0.00000
      5227 IM1      40       IM1      H7       DUMH     0.000000        1.0080           0   0.00000   0.00000
      5228 IM1      40       IM1      LPN21    LPD     -0.474000        0.0000           -1   0.00000   0.00000
      5229 IM1      41       IM1      C1       CD33G    2.390600       11.6110           0   -1.08100   1.00000
      5230 IM1      41       IM1      DC1      DRUD    -2.551600        0.4000           0   0.00000   0.00000
      5231 IM1      41       IM1      H1       HDA3A    0.094000        1.0080           0   0.00000   0.00000
      5232 IM1      41       IM1      H2       HDA3A    0.094000        1.0080           0   0.00000   0.00000
      5233 IM1      41       IM1      H3       HDA3A    0.094000        1.0080           0   0.00000   0.00000
      5234 IM1      41       IM1      N1       ND2R5A   2.670300       13.6070           0   -1.06300   1.30000
      5235 IM1      41       IM1      DN1      DRUD    -2.530300        0.4000           0   0.00000   0.00000
      5236 IM1      41       IM1      C2       CD2R5A   2.511900       11.6110           0   -1.37800   1.30000
      5237 IM1      41       IM1      DC2      DRUD    -2.880900        0.4000           0   0.00000   0.00000
      5238 IM1      41       IM1      H4       HDR5A    0.150000        1.0080           0   0.00000   0.00000
      5239 IM1      41       IM1      C3       CD2R5A   3.068900       11.6110           0   -1.37800   1.30000
      5240 IM1      41       IM1      DC3      DRUD    -2.880900        0.4000           0   0.00000   0.00000
      5241 IM1      41       IM1      H5       HDR5A    0.053000        1.0080           0   0.00000   0.00000
      5242 IM1      41       IM1      C4       CD2R5B   2.404400       11.6110           0   -0.868000   1.30000
      5243 IM1      41       IM1      DC4      DRUD    -2.286400        0.4000           0   0.00000   0.00000
      5244 IM1      41       IM1      H6       HDR5B    0.073000        1.0080           0   0.00000   0.00000
      5245 IM1      41       IM1      N2       ND2R5B   2.249300       13.6070           0   -0.840000   1.00000
      5246 IM1      41       IM1      DN2      DRUD    -2.249300        0.4000           0   0.00000   0.00000
      5247 IM1      41       IM1      H7       DUMH     0.000000        1.0080           0   0.00000   0.00000
      5248 IM1      41       IM1      LPN21    LPD     -0.474000        0.0000           -1   0.00000   0.00000
      5249 IM1      42       IM1      C1       CD33G    2.390600       11.6110           0   -1.08100   1.00000
      5250 IM1      42       IM1      DC1      DRUD    -2.551600        0.4000           0   0.00000   0.00000
      5251 IM1      42       IM1      H1       HDA3A    0.094000        1.0080           0   0.00000   0.00000
      5252 IM1      42       IM1      H2       HDA3A    0.094000        1.0080           0   0.00000   0.00000
      5253 IM1      42       IM1      H3       HDA3A    0.094000        1.0080           0   0.00000   0.00000
      5254 IM1      42       IM1      N1       ND2R5A   2.670300       13.6070           0   -1.06300   1.30000
      5255 IM1      42       IM1      DN1      DRUD    -2.530300        0.4000           0   0.00000   0.00000
      5256 IM1      42       IM1      C2       CD2R5A   2.511900       11.6110           0   -1.37800   1.30000
      5257 IM1      42       IM1      DC2      DRUD    -2.880900        0.4000           0   0.00000   0.00000
      5258 IM1      42       IM1      H4       HDR5A    0.150000        1.0080           0   0.00000   0.00000
      5259 IM1      42       IM1      C3       CD2R5A   3.068900       11.6110           0   -1.37800   1.30000
      5260 IM1      42       IM1      DC3      DRUD    -2.880900        0.4000           0   0.00000   0.00000
      5261 IM1      42       IM1      H5       HDR5A    0.053000        1.0080           0   0.00000   0.00000
      5262 IM1      42       IM1      C4       CD2R5B   2.404400       11.6110           0   -0.868000   1.30000
      5263 IM1      42       IM1      DC4      DRUD    -2.286400        0.4000           0   0.00000   0.00000
      5264 IM1      42       IM1      H6       HDR5B    0.073000        1.0080           0   0.00000   0.00000
      5265 IM1      42       IM1      N2       ND2R5B   2.249300       13.6070           0   -0.840000   1.00000
      5266 IM1      42       IM1      DN2      DRUD    -2.249300        0.4000           0   0.00000   0.00000
      5267 IM1      42       IM1      H7       DUMH     0.000000        1.0080           0   0.00000   0.00000
      5268 IM1      42       IM1      LPN21    LPD     -0.474000        0.0000           -1   0.00000   0.00000
      5269 IM1      43       IM1      C1       CD33G    2.390600       11.6110           0   -1.08100   1.00000
      5270 IM1      43       IM1      DC1      DRUD    -2.551600        0.4000           0   0.00000   0.00000
      5271 IM1      43       IM1      H1       HDA3A    0.094000        1.0080           0   0.00000   0.00000
      5272 IM1      43       IM1      H2       HDA3A    0.094000        1.0080           0   0.00000   0.00000
      5273 IM1      43       IM1      H3       HDA3A    0.094000        1.0080           0   0.00000   0.00000
      5274 IM1      43       IM1      N1       ND2R5A   2.670300       13.6070           0   -1.06300   1.30000
      5275 IM1      43       IM1      DN1      DRUD    -2.530300        0.4000           0   0.00000   0.00000
      5276 IM1      43       IM1      C2       CD2R5A   2.511900       11.6110           0   -1.37800   1.30000
      5277 IM1      43       IM1      DC2      DRUD    -2.880900        0.4000           0   0.00000   0.00000
      5278 IM1      43       IM1      H4       HDR5A    0.150000        1.0080           0   0.00000   0.00000
      5279 IM1      43       IM1      C3       CD2R5A   3.068900       11.6110           0   -1.37800   1.30000
      5280 IM1      43       IM1      DC3      DRUD    -2.880900        0.4000           0   0.00000   0.00000
      5281 IM1      43       IM1      H5       HDR5A    0.053000        1.0080           0   0.00000   0.00000
      5282 IM1      43       IM1      C4       CD2R5B   2.404400       11.6110           0   -0.868000   1.30000
      5283 IM1      43       IM1      DC4      DRUD    -2.286400        0.4000           0   0.00000   0.00000
      5284 IM1      43       IM1      H6       HDR5B    0.073000        1.0080           0   0.00000   0.00000
      5285 IM1      43       IM1      N2       ND2R5B   2.249300       13.6070           0   -0.840000   1.00000
      5286 IM1      43       IM1      DN2      DRUD    -2.249300        0.4000           0   0.00000   0.00000
      5287 IM1      43       IM1      H7       DUMH     0.000000        1.0080           0   0.00000   0.00000
      5288 IM1      43       IM1      LPN21    LPD     -0.474000        0.0000           -1   0.00000   0.00000
      5289 IM1      44       IM1      C1       CD33G    2.390600       11.6110           0   -1.08100   1.00000
      5290 IM1      44       IM1      DC1      DRUD    -2.551600        0.4000           0   0.00000   0.00000
      5291 IM1      44       IM1      H1       HDA3A    0.094000        1.0080           0   0.00000   0.00000
      5292 IM1      44       IM1      H2       HDA3A    0.094000        1.0080           0   0.00000   0.00000
      5293 IM1      44       IM1      H3       HDA3A    0.094000        1.0080           0   0.00000   0.00000
      5294 IM1      44       IM1      N1       ND2R5A   2.670300       13.6070           0   -1.06300   1.30000
      5295 IM1      44       IM1      DN1      DRUD    -2.530300        0.4000           0   0.00000   0.00000
      5296 IM1      44       IM1      C2       CD2R5A   2.511900       11.6110           0   -1.37800   1.30000
      5297 IM1      44       IM1      DC2      DRUD    -2.880900        0.4000           0   0.00000   0.00000
      5298 IM1      44       IM1      H4       HDR5A    0.150000        1.0080           0   0.00000   0.00000
      5299 IM1      44       IM1      C3       CD2R5A   3.068900       11.6110           0   -1.37800   1.30000
      5300 IM1      44       IM1      DC3      DRUD    -2.880900        0.4000           0   0.00000   0.00000
      5301 IM1      44       IM1      H5       HDR5A    0.053000        1.0080           0   0.00000   0.00000
      5302 IM1      44       IM1      C4       CD2R5B   2.404400       11.6110           0   -0.868000   1.30000
      5303 IM1      44       IM1      DC4      DRUD    -2.286400        0.4000           0   0.00000   0.00000
      5304 IM1      44       IM1      H6       HDR5B    0.073000        1.0080           0   0.00000   0.00000
      5305 IM1      44       IM1      N2       ND2R5B   2.249300       13.6070           0   -0.840000   1.00000
      5306 IM1      44       IM1      DN2      DRUD    -2.249300        0.4000           0   0.00000   0.00000
      5307 IM1      44       IM1      H7       DUMH     0.000000        1.0080           0   0.00000   0.00000
      5308 IM1      44       IM1      LPN21    LPD     -0.474000        0.0000           -1   0.00000   0.00000
      5309 IM1      45       IM1      C1       CD33G    2.390600       11.6110           0   -1.08100   1.00000
      5310 IM1      45       IM1      DC1      DRUD    -2.551600        0.4000           0   0.00000   0.00000
      5311 IM1      45       IM1      H1       HDA3A    0.094000        1.0080           0   0.00000   0.00000
      5312 IM1      45       IM1      H2       HDA3A    0.094000        1.0080           0   0.00000   0.00000
      5313 IM1      45       IM1      H3       HDA3A    0.094000        1.0080           0   0.00000   0.00000
      5314 IM1      45       IM1      N1       ND2R5A   2.670300       13.6070           0   -1.06300   1.30000
      5315 IM1      45       IM1      DN1      DRUD    -2.530300        0.4000           0   0.00000   0.00000
      5316 IM1      45       IM1      C2       CD2R5A   2.511900       11.6110           0   -1.37800   1.30000
      5317 IM1      45       IM1      DC2      DRUD    -2.880900        0.4000           0   0.00000   0.00000
      5318 IM1      45       IM1      H4       HDR5A    0.150000        1.0080           0   0.00000   0.00000
      5319 IM1      45       IM1      C3       CD2R5A   3.068900       11.6110           0   -1.37800   1.30000
      5320 IM1      45       IM1      DC3      DRUD    -2.880900        0.4000           0   0.00000   0.00000
      5321 IM1      45       IM1      H5       HDR5A    0.053000        1.0080           0   0.00000   0.00000
      5322 IM1      45       IM1      C4       CD2R5B   2.404400       11.6110           0   -0.868000   1.30000
      5323 IM1      45       IM1      DC4      DRUD    -2.286400        0.4000           0   0.00000   0.00000
      5324 IM1      45       IM1      H6       HDR5B    0.073000        1.0080           0   0.00000   0.00000
      5325 IM1      45       IM1      N2       ND2R5B   2.249300       13.6070           0   -0.840000   1.00000
      5326 IM1      45       IM1      DN2      DRUD    -2.249300        0.4000           0   0.00000   0.00000
      5327 IM1      45       IM1      H7       DUMH     0.000000        1.0080           0   0.00000   0.00000
      5328 IM1      45       IM1      LPN21    LPD     -0.474000        0.0000           -1   0.00000   0.00000
      5329 IM1      46       IM1      C1       CD33G    2.390600       11.6110           0   -1.08100   1.00000
      5330 IM1      46       IM1      DC1      DRUD    -2.551600        0.4000           0   0.00000   0.00000
      5331 IM1      46       IM1      H1       HDA3A    0.094000        1.0080           0   0.00000   0.00000
      5332 IM1      46       IM1      H2       HDA3A    0.094000        1.0080           0   0.00000   0.00000
      5333 IM1      46       IM1      H3       HDA3A    0.094000        1.0080           0   0.00000   0.00000
      5334 IM1      46       IM1      N1       ND2R5A   2.670300       13.6070           0   -1.06300   1.30000
      5335 IM1      46       IM1      DN1      DRUD    -2.530300        0.4000           0   0.00000   0.00000
      5336 IM1      46       IM1      C2       CD2R5A   2.511900       11.6110           0   -1.37800   1.30000
      5337 IM1      46       IM1      DC2      DRUD    -2.880900        0.4000           0   0.00000   0.00000
      5338 IM1      46       IM1      H4       HDR5A    0.150000        1.0080           0   0.00000   0.00000
      5339 IM1      46       IM1      C3       CD2R5A   3.068900       11.6110           0   -1.37800   1.30000
      5340 IM1      46       IM1      DC3      DRUD    -2.880900        0.4000           0   0.00000   0.00000
      5341 IM1      46       IM1      H5       HDR5A    0.053000        1.0080           0   0.00000   0.00000
      5342 IM1      46       IM1      C4       CD2R5B   2.404400       11.6110           0   -0.868000   1.30000
      5343 IM1      46       IM1      DC4      DRUD    -2.286400        0.4000           0   0.00000   0.00000
      5344 IM1      46       IM1      H6       HDR5B    0.073000        1.0080           0   0.00000   0.00000
      5345 IM1      46       IM1      N2       ND2R5B   2.249300       13.6070           0   -0.840000   1.00000
      5346 IM1      46       IM1      DN2      DRUD    -2.249300        0.4000           0   0.00000   0.00000
      5347 IM1      46       IM1      H7       DUMH     0.000000        1.0080           0   0.00000   0.00000
      5348 IM1      46       IM1      LPN21    LPD     -0.474000        0.0000           -1   0.00000   0.00000
      5349 IM1      47       IM1      C1       CD33G    2.390600       11.6110           0   -1.08100   1.00000
      5350 IM1      47       IM1      DC1      DRUD    -2.551600        0.4000           0   0.00000   0.00000
      5351 IM1      47       IM1      H1       HDA3A    0.094000        1.0080           0   0.00000   0.00000
      5352 IM1      47       IM1      H2       HDA3A    0.094000        1.0080           0   0.00000   0.00000
      5353 IM1      47       IM1      H3       HDA3A    0.094000        1.0080           0   0.00000   0.00000
      5354 IM1      47       IM1      N1       ND2R5A   2.670300       13.6070           0   -1.06300   1.30000
      5355 IM1      47       IM1      DN1      DRUD    -2.530300        0.4000           0   0.00000   0.00000
      5356 IM1      47       IM1      C2       CD2R5A   2.511900       11.6110           0   -1.37800   1.30000
      5357 IM1      47       IM1      DC2      DRUD    -2.880900        0.4000           0   0.00000   0.00000
      5358 IM1      47       IM1      H4       HDR5A    0.150000        1.0080           0   0.00000   0.00000
      5359 IM1      47       IM1      C3       CD2R5A   3.068900       11.6110           0   -1.37800   1.30000
      5360 IM1      47       IM1      DC3      DRUD    -2.880900        0.4000           0   0.00000   0.00000
      5361 IM1      47       IM1      H5       HDR5A    0.053000        1.0080           0   0.00000   0.00000
      5362 IM1      47       IM1      C4       CD2R5B   2.404400       11.6110           0   -0.868000   1.30000
      5363 IM1      47       IM1      DC4      DRUD    -2.286400        0.4000           0   0.00000   0.00000
      5364 IM1      47       IM1      H6       HDR5B    0.073000        1.0080           0   0.00000   0.00000
      5365 IM1      47       IM1      N2       ND2R5B   2.249300       13.6070           0   -0.840000   1.00000
      5366 IM1      47       IM1      DN2      DRUD    -2.249300        0.4000           0   0.00000   0.00000
      5367 IM1      47       IM1      H7       DUMH     0.000000        1.0080           0   0.00000   0.00000
      5368 IM1      47       IM1      LPN21    LPD     -0.474000        0.0000           -1   0.00000   0.00000
      5369 IM1      48       IM1      C1       CD33G    2.390600       11.6110           0   -1.08100   1.00000
      5370 IM1      48       IM1      DC1      DRUD    -2.551600        0.4000           0   0.00000   0.00000
      5371 IM1      48       IM1      H1       HDA3A    0.094000        1.0080           0   0.00000   0.00000
      5372 IM1      48       IM1      H2       HDA3A    0.094000        1.0080           0   0.00000   0.00000
      5373 IM1      48       IM1      H3       HDA3A    0.094000        1.0080           0   0.00000   0.00000
      5374 IM1      48       IM1      N1       ND2R5A   2.670300       13.6070           0   -1.06300   1.30000
      5375 IM1      48       IM1      DN1      DRUD    -2.530300        0.4000           0   0.00000   0.00000
      5376 IM1      48       IM1      C2       CD2R5A   2.511900       11.6110           0   -1.37800   1.30000
      5377 IM1      48       IM1      DC2      DRUD    -2.880900        0.4000           0   0.00000   0.00000
      5378 IM1      48       IM1      H4       HDR5A    0.150000        1.0080           0   0.00000   0.00000
      5379 IM1      48       IM1      C3       CD2R5A   3.068900       11.6110           0   -1.37800   1.30000
      5380 IM1      48       IM1      DC3      DRUD    -2.880900        0.4000           0   0.00000   0.00000
      5381 IM1      48       IM1      H5       HDR5A    0.053000        1.0080           0   0.00000   0.00000
      5382 IM1      48       IM1      C4       CD2R5B   2.404400       11.6110           0   -0.868000   1.30000
      5383 IM1      48       IM1      DC4      DRUD    -2.286400        0.4000           0   0.00000   0.00000
      5384 IM1      48       IM1      H6       HDR5B    0.073000        1.0080           0   0.00000   0.00000
      5385 IM1      48       IM1      N2       ND2R5B   2.249300       13.6070           0   -0.840000   1.00000
      5386 IM1      48       IM1      DN2      DRUD    -2.249300        0.4000           0   0.00000   0.00000
      5387 IM1      48       IM1      H7       DUMH     0.000000        1.0080           0   0.00000   0.00000
      5388 IM1      48       IM1      LPN21    LPD     -0.474000        0.0000           -1   0.00000   0.00000
      5389 IM1      49       IM1      C1       CD33G    2.390600       11.6110           0   -1.08100   1.00000
      5390 IM1      49       IM1      DC1      DRUD    -2.551600        0.4000           0   0.00000   0.00000
      5391 IM1      49       IM1      H1       HDA3A    0.094000        1.0080           0   0.00000   0.00000
      5392 IM1      49       IM1      H2       HDA3A    0.094000        1.0080           0   0.00000   0.00000
      5393 IM1      49       IM1      H3       HDA3A    0.094000        1.0080           0   0.00000   0.00000
      5394 IM1      49       IM1      N1       ND2R5A   2.670300       13.6070           0   -1.06300   1.30000
      5395 IM1      49       IM1      DN1      DRUD    -2.530300        0.4000           0   0.00000   0.00000
      5396 IM1      49       IM1      C2       CD2R5A   2.511900       11.6110           0   -1.37800   1.30000
      5397 IM1      49       IM1      DC2      DRUD    -2.880900        0.4000           0   0.00000   0.00000
      5398 IM1      49       IM1      H4       HDR5A    0.150000        1.0080           0   0.00000   0.00000
      5399 IM1      49       IM1      C3       CD2R5A   3.068900       11.6110           0   -1.37800   1.30000
      5400 IM1      49       IM1      DC3      DRUD    -2.880900        0.4000           0   0.00000   0.00000
      5401 IM1      49       IM1      H5       HDR5A    0.053000        1.0080           0   0.00000   0.00000
      5402 IM1      49       IM1      C4       CD2R5B   2.404400       11.6110           0   -0.868000   1.30000
      5403 IM1      49       IM1      DC4      DRUD    -2.286400        0.4000           0   0.00000   0.00000
      5404 IM1      49       IM1      H6       HDR5B    0.073000        1.0080           0   0.00000   0.00000
      5405 IM1      49       IM1      N2       ND2R5B   2.249300       13.6070           0   -0.840000   1.00000
      5406 IM1      49       IM1      DN2      DRUD    -2.249300        0.4000           0   0.00000   0.00000
      5407 IM1      49       IM1      H7       DUMH     0.000000        1.0080           0   0.00000   0.00000
      5408 IM1      49       IM1      LPN21    LPD     -0.474000        0.0000           -1   0.00000   0.00000
      5409 IM1      50       IM1      C1       CD33G    2.390600       11.6110           0   -1.08100   1.00000
      5410 IM1      50       IM1      DC1      DRUD    -2.551600        0.4000           0   0.00000   0.00000
      5411 IM1      50       IM1      H1       HDA3A    0.094000        1.0080           0   0.00000   0.00000
      5412 IM1      50       IM1      H2       HDA3A    0.094000        1.0080           0   0.00000   0.00000
      5413 IM1      50       IM1      H3       HDA3A    0.094000        1.0080           0   0.00000   0.00000
      5414 IM1      50       IM1      N1       ND2R5A   2.670300       13.6070           0   -1.06300   1.30000
      5415 IM1      50       IM1      DN1      DRUD    -2.530300        0.4000           0   0.00000   0.00000
      5416 IM1      50       IM1      C2       CD2R5A   2.511900       11.6110           0   -1.37800   1.30000
      5417 IM1      50       IM1      DC2      DRUD    -2.880900        0.4000           0   0.00000   0.00000
      5418 IM1      50       IM1      H4       HDR5A    0.150000        1.0080           0   0.00000   0.00000
      5419 IM1      50       IM1      C3       CD2R5A   3.068900       11.6110           0   -1.37800   1.30000
      5420 IM1      50       IM1      DC3      DRUD    -2.880900        0.4000           0   0.00000   0.00000
      5421 IM1      50       IM1      H5       HDR5A    0.053000        1.0080           0   0.00000   0.00000
      5422 IM1      50       IM1      C4       CD2R5B   2.404400       11.6110           0   -0.868000   1.30000
      5423 IM1      50       IM1      DC4      DRUD    -2.286400        0.4000           0   0.00000   0.00000
      5424 IM1      50       IM1      H6       HDR5B    0.073000        1.0080           0   0.00000   0.00000
      5425 IM1      50       IM1      N2       ND2R5B   2.249300       13.6070           0   -0.840000   1.00000
      5426 IM1      50       IM1      DN2      DRUD    -2.249300        0.4000           0   0.00000   0.00000
      5427 IM1      50       IM1      H7       DUMH     0.000000        1.0080           0   0.00000   0.00000
      5428 IM1      50       IM1      LPN21    LPD     -0.474000        0.0000           -1   0.00000   0.00000
      5429 IM1      51       IM1      C1       CD33G    2.390600       11.6110           0   -1.08100   1.00000
      5430 IM1      51       IM1      DC1      DRUD    -2.551600        0.4000           0   0.00000   0.00000
      5431 IM1      51       IM1      H1       HDA3A    0.094000        1.0080           0   0.00000   0.00000
      5432 IM1      51       IM1      H2       HDA3A    0.094000        1.0080           0   0.00000   0.00000
      5433 IM1      51       IM1      H3       HDA3A    0.094000        1.0080           0   0.00000   0.00000
      5434 IM1      51       IM1      N1       ND2R5A   2.670300       13.6070           0   -1.06300   1.30000
      5435 IM1      51       IM1      DN1      DRUD    -2.530300        0.4000           0   0.00000   0.00000
      5436 IM1      51       IM1      C2       CD2R5A   2.511900       11.6110           0   -1.37800   1.30000
      5437 IM1      51       IM1      DC2      DRUD    -2.880900        0.4000           0   0.00000   0.00000
      5438 IM1      51       IM1      H4       HDR5A    0.150000        1.0080           0   0.00000   0.00000
      5439 IM1      51       IM1      C3       CD2R5A   3.068900       11.6110           0   -1.37800   1.30000
      5440 IM1      51       IM1      DC3      DRUD    -2.880900        0.4000           0   0.00000   0.00000
      5441 IM1      51       IM1      H5       HDR5A    0.053000        1.0080           0   0.00000   0.00000
      5442 IM1      51       IM1      C4       CD2R5B   2.404400       11.6110           0   -0.868000   1.30000
      5443 IM1      51       IM1      DC4      DRUD    -2.286400        0.4000           0   0.00000   0.00000
      5444 IM1      51       IM1      H6       HDR5B    0.073000        1.0080           0   0.00000   0.00000
      5445 IM1      51       IM1      N2       ND2R5B   2.249300       13.6070           0   -0.840000   1.00000
      5446 IM1      51       IM1      DN2      DRUD    -2.249300        0.4000           0   0.00000   0.00000
      5447 IM1      51       IM1      H7       DUMH     0.000000        1.0080           0   0.00000   0.00000
      5448 IM1      51       IM1      LPN21    LPD     -0.474000        0.0000           -1   0.00000   0.00000
      5449 IM1      52       IM1      C1       CD33G    2.390600       11.6110           0   -1.08100   1.00000
      5450 IM1      52       IM1      DC1      DRUD    -2.551600        0.4000           0   0.00000   0.00000
      5451 IM1      52       IM1      H1       HDA3A    0.094000        1.0080           0   0.00000   0.00000
      5452 IM1      52       IM1      H2       HDA3A    0.094000        1.0080           0   0.00000   0.00000
      5453 IM1      52       IM1      H3       HDA3A    0.094000        1.0080           0   0.00000   0.00000
      5454 IM1      52       IM1      N1       ND2R5A   2.670300       13.6070           0   -1.06300   1.30000
      5455 IM1      52       IM1      DN1      DRUD    -2.530300        0.4000           0   0.00000   0.00000
      5456 IM1      52       IM1      C2       CD2R5A   2.511900       11.6110           0   -1.37800   1.30000
      5457 IM1      52       IM1      DC2      DRUD    -2.880900        0.4000           0   0.00000   0.00000
      5458 IM1      52       IM1      H4       HDR5A    0.150000        1.0080           0   0.00000   0.00000
      5459 IM1      52       IM1      C3       CD2R5A   3.068900       11.6110           0   -1.37800   1.30000
      5460 IM1      52       IM1      DC3      DRUD    -2.880900        0.4000           0   0.00000   0.00000
      5461 IM1      52       IM1      H5       HDR5A    0.053000        1.0080           0   0.00000   0.00000
      5462 IM1      52       IM1      C4       CD2R5B   2.404400       11.6110           0   -0.868000   1.30000
      5463 IM1      52       IM1      DC4      DRUD    -2.286400        0.4000           0   0.00000   0.00000
      5464 IM1      52       IM1      H6       HDR5B    0.073000        1.0080           0   0.00000   0.00000
      5465 IM1      52       IM1      N2       ND2R5B   2.249300       13.6070           0   -0.840000   1.00000
      5466 IM1      52       IM1      DN2      DRUD    -2.249300        0.4000           0   0.00000   0.00000
      5467 IM1      52       IM1      H7       DUMH     0.000000        1.0080           0   0.00000   0.00000
      5468 IM1      52       IM1      LPN21    LPD     -0.474000        0.0000           -1   0.00000   0.00000
      5469 IM1      53       IM1      C1       CD33G    2.390600       11.6110           0   -1.08100   1.00000
      5470 IM1      53       IM1      DC1      DRUD    -2.551600        0.4000           0   0.00000   0.00000
      5471 IM1      53       IM1      H1       HDA3A    0.094000        1.0080           0   0.00000   0.00000
      5472 IM1      53       IM1      H2       HDA3A    0.094000        1.0080           0   0.00000   0.00000
      5473 IM1      53       IM1      H3       HDA3A    0.094000        1.0080           0   0.00000   0.00000
      5474 IM1      53       IM1      N1       ND2R5A   2.670300       13.6070           0   -1.06300   1.30000
      5475 IM1      53       IM1      DN1      DRUD    -2.530300        0.4000           0   0.00000   0.00000
      5476 IM1      53       IM1      C2       CD2R5A   2.511900       11.6110           0   -1.37800   1.30000
      5477 IM1      53       IM1      DC2      DRUD    -2.880900        0.4000           0   0.00000   0.00000
      5478 IM1      53       IM1      H4       HDR5A    0.150000        1.0080           0   0.00000   0.00000
      5479 IM1      53       IM1      C3       CD2R5A   3.068900       11.6110           0   -1.37800   1.30000
      5480 IM1      53       IM1      DC3      DRUD    -2.880900        0.4000           0   0.00000   0.00000
      5481 IM1      53       IM1      H5       HDR5A    0.053000        1.0080           0   0.00000   0.00000
      5482 IM1      53       IM1      C4       CD2R5B   2.404400       11.6110           0   -0.868000   1.30000
      5483 IM1      53       IM1      DC4      DRUD    -2.286400        0.4000           0   0.00000   0.00000
      5484 IM1      53       IM1      H6       HDR5B    0.073000        1.0080           0   0.00000   0.00000
      5485 IM1      53       IM1      N2       ND2R5B   2.249300       13.6070           0   -0.840000   1.00000
      5486 IM1      53       IM1      DN2      DRUD    -2.249300        0.4000           0   0.00000   0.00000
      5487 IM1      53       IM1      H7       DUMH     0.000000        1.0080           0   0.00000   0.00000
      5488 IM1      53       IM1      LPN21    LPD     -0.474000        0.0000           -1   0.00000   0.00000
      5489 IM1      54       IM1      C1       CD33G    2.390600       11.6110           0   -1.08100   1.00000
      5490 IM1      54       IM1      DC1      DRUD    -2.551600        0.4000           0   0.00000   0.00000
      5491 IM1      54       IM1      H1       HDA3A    0.094000        1.0080           0   0.00000   0.00000
      5492 IM1      54       IM1      H2       HDA3A    0.094000        1.0080           0   0.00000   0.00000
      5493 IM1      54       IM1      H3       HDA3A    0.094000        1.0080           0   0.00000   0.00000
      5494 IM1      54       IM1      N1       ND2R5A   2.670300       13.6070           0   -1.06300   1.30000
      5495 IM1      54       IM1      DN1      DRUD    -2.530300        0.4000           0   0.00000   0.00000
      5496 IM1      54       IM1      C2       CD2R5A   2.511900       11.6110           0   -1.37800   1.30000
      5497 IM1      54       IM1      DC2      DRUD    -2.880900        0.4000           0   0.00000   0.00000
      5498 IM1      54       IM1      H4       HDR5A    0.150000        1.0080           0   0.00000   0.00000
      5499 IM1      54       IM1      C3       CD2R5A   3.068900       11.6110           0   -1.37800   1.30000
      5500 IM1      54       IM1      DC3      DRUD    -2.880900        0.4000           0   0.00000   0.00000
      5501 IM1      54       IM1      H5       HDR5A    0.053000        1.0080           0   0.00000   0.00000
      5502 IM1      54       IM1      C4       CD2R5B   2.404400       11.6110           0   -0.868000   1.30000
      5503 IM1      54       IM1      DC4      DRUD    -2.286400        0.4000           0   0.00000   0.00000
      5504 IM1      54       IM1      H6       HDR5B    0.073000        1.0080           0   0.00000   0.00000
      5505 IM1      54       IM1      N2       ND2R5B   2.249300       13.6070           0   -0.840000   1.00000
      5506 IM1      54       IM1      DN2      DRUD    -2.249300        0.4000           0   0.00000   0.00000
      5507 IM1      54       IM1      H7       DUMH     0.000000        1.0080           0   0.00000   0.00000
      5508 IM1      54       IM1      LPN21    LPD     -0.474000        0.0000           -1   0.00000   0.00000
      5509 IM1      55       IM1      C1       CD33G    2.390600       11.6110           0   -1.08100   1.00000
      5510 IM1      55       IM1      DC1      DRUD    -2.551600        0.4000           0   0.00000   0.00000
      5511 IM1      55       IM1      H1       HDA3A    0.094000        1.0080           0   0.00000   0.00000
      5512 IM1      55       IM1      H2       HDA3A    0.094000        1.0080           0   0.00000   0.00000
      5513 IM1      55       IM1      H3       HDA3A    0.094000        1.0080           0   0.00000   0.00000
      5514 IM1      55       IM1      N1       ND2R5A   2.670300       13.6070           0   -1.06300   1.30000
      5515 IM1      55       IM1      DN1      DRUD    -2.530300        0.4000           0   0.00000   0.00000
      5516 IM1      55       IM1      C2       CD2R5A   2.511900       11.6110           0   -1.37800   1.30000
      5517 IM1      55       IM1      DC2      DRUD    -2.880900        0.4000           0   0.00000   0.00000
      5518 IM1      55       IM1      H4       HDR5A    0.150000        1.0080           0   0.00000   0.00000
      5519 IM1      55       IM1      C3       CD2R5A   3.068900       11.6110           0   -1.37800   1.30000
      5520 IM1      55       IM1      DC3      DRUD    -2.880900        0.4000           0   0.00000   0.00000
      5521 IM1      55       IM1      H5       HDR5A    0.053000        1.0080           0   0.00000   0.00000
      5522 IM1      55       IM1      C4       CD2R5B   2.404400       11.6110           0   -0.868000   1.30000
      5523 IM1      55       IM1      DC4      DRUD    -2.286400        0.4000           0   0.00000   0.00000
      5524 IM1      55       IM1      H6       HDR5B    0.073000        1.0080           0   0.00000   0.00000
      5525 IM1      55       IM1      N2       ND2R5B   2.249300       13.6070           0   -0.840000   1.00000
      5526 IM1      55       IM1      DN2      DRUD    -2.249300        0.4000           0   0.00000   0.00000
      5527 IM1      55       IM1      H7       DUMH     0.000000        1.0080           0   0.00000   0.00000
      5528 IM1      55       IM1      LPN21    LPD     -0.474000        0.0000           -1   0.00000   0.00000
      5529 IM1      56       IM1      C1       CD33G    2.390600       11.6110           0   -1.08100   1.00000
      5530 IM1      56       IM1      DC1      DRUD    -2.551600        0.4000           0   0.00000   0.00000
      5531 IM1      56       IM1      H1       HDA3A    0.094000        1.0080           0   0.00000   0.00000
      5532 IM1      56       IM1      H2       HDA3A    0.094000        1.0080           0   0.00000   0.00000
      5533 IM1      56       IM1      H3       HDA3A    0.094000        1.0080           0   0.00000   0.00000
      5534 IM1      56       IM1      N1       ND2R5A   2.670300       13.6070           0   -1.06300   1.30000
      5535 IM1      56       IM1      DN1      DRUD    -2.530300        0.4000           0   0.00000   0.00000
      5536 IM1      56       IM1      C2       CD2R5A   2.511900       11.6110           0   -1.37800   1.30000
      5537 IM1      56       IM1      DC2      DRUD    -2.880900        0.4000           0   0.00000   0.00000
      5538 IM1      56       IM1      H4       HDR5A    0.150000        1.0080           0   0.00000   0.00000
      5539 IM1      56       IM1      C3       CD2R5A   3.068900       11.6110           0   -1.37800   1.30000
      5540 IM1      56       IM1      DC3      DRUD    -2.880900        0.4000           0   0.00000   0.00000
      5541 IM1      56       IM1      H5       HDR5A    0.053000        1.0080           0   0.00000   0.00000
      5542 IM1      56       IM1      C4       CD2R5B   2.404400       11.6110           0   -0.868000   1.30000
      5543 IM1      56       IM1      DC4      DRUD    -2.286400        0.4000           0   0.00000   0.00000
      5544 IM1      56       IM1      H6       HDR5B    0.073000        1.0080           0   0.00000   0.00000
      5545 IM1      56       IM1      N2       ND2R5B   2.249300       13.6070           0   -0.840000   1.00000
      5546 IM1      56       IM1      DN2      DRUD    -2.249300        0.4000           0   0.00000   0.00000
      5547 IM1      56       IM1      H7       DUMH     0.000000        1.0080           0   0.00000   0.00000
      5548 IM1      56       IM1      LPN21    LPD     -0.474000        0.0000           -1   0.00000   0.00000
      5549 IM1      57       IM1      C1       CD33G    2.390600       11.6110           0   -1.08100   1.00000
      5550 IM1      57       IM1      DC1      DRUD    -2.551600        0.4000           0   0.00000   0.00000
      5551 IM1      57       IM1      H1       HDA3A    0.094000        1.0080           0   0.00000   0.00000
      5552 IM1      57       IM1      H2       HDA3A    0.094000        1.0080           0   0.00000   0.00000
      5553 IM1      57       IM1      H3       HDA3A    0.094000        1.0080           0   0.00000   0.00000
      5554 IM1      57       IM1      N1       ND2R5A   2.670300       13.6070           0   -1.06300   1.30000
      5555 IM1      57       IM1      DN1      DRUD    -2.530300        0.4000           0   0.00000   0.00000
      5556 IM1      57       IM1      C2       CD2R5A   2.511900       11.6110           0   -1.37800   1.30000
      5557 IM1      57       IM1      DC2      DRUD    -2.880900        0.4000           0   0.00000   0.00000
      5558 IM1      57       IM1      H4       HDR5A    0.150000        1.0080           0   0.00000   0.00000
      5559 IM1      57       IM1      C3       CD2R5A   3.068900       11.6110           0   -1.37800   1.30000
      5560 IM1      57       IM1      DC3      DRUD    -2.880900        0.4000           0   0.00000   0.00000
      5561 IM1      57       IM1      H5       HDR5A    0.053000        1.0080           0   0.00000   0.00000
      5562 IM1      57       IM1      C4       CD2R5B   2.404400       11.6110           0   -0.868000   1.30000
      5563 IM1      57       IM1      DC4      DRUD    -2.286400        0.4000           0   0.00000   0.00000
      5564 IM1      57       IM1      H6       HDR5B    0.073000        1.0080           0   0.00000   0.00000
      5565 IM1      57       IM1      N2       ND2R5B   2.249300       13.6070           0   -0.840000   1.00000
      5566 IM1      57       IM1      DN2      DRUD    -2.249300        0.4000           0   0.00000   0.00000
      5567 IM1      57       IM1      H7       DUMH     0.000000        1.0080           0   0.00000   0.00000
      5568 IM1      57       IM1      LPN21    LPD     -0.474000        0.0000           -1   0.00000   0.00000
      5569 IM1      58       IM1      C1       CD33G    2.390600       11.6110           0   -1.08100   1.00000
      5570 IM1      58       IM1      DC1      DRUD    -2.551600        0.4000           0   0.00000   0.00000
      5571 IM1      58       IM1      H1       HDA3A    0.094000        1.0080           0   0.00000   0.00000
      5572 IM1      58       IM1      H2       HDA3A    0.094000        1.0080           0   0.00000   0.00000
      5573 IM1      58       IM1      H3       HDA3A    0.094000        1.0080           0   0.00000   0.00000
      5574 IM1      58       IM1      N1       ND2R5A   2.670300       13.6070           0   -1.06300   1.30000
      5575 IM1      58       IM1      DN1      DRUD    -2.530300        0.4000           0   0.00000   0.00000
      5576 IM1      58       IM1      C2       CD2R5A   2.511900       11.6110           0   -1.37800   1.30000
      5577 IM1      58       IM1      DC2      DRUD    -2.880900        0.4000           0   0.00000   0.00000
      5578 IM1      58       IM1      H4       HDR5A    0.150000        1.0080           0   0.00000   0.00000
      5579 IM1      58       IM1      C3       CD2R5A   3.068900       11.6110           0   -1.37800   1.30000
      5580 IM1      58       IM1      DC3      DRUD    -2.880900        0.4000           0   0.00000   0.00000
      5581 IM1      58       IM1      H5       HDR5A    0.053000        1.0080           0   0.00000   0.00000
      5582 IM1      58       IM1      C4       CD2R5B   2.404400       11.6110           0   -0.868000   1.30000
      5583 IM1      58       IM1      DC4      DRUD    -2.286400        0.4000           0   0.00000   0.00000
      5584 IM1      58       IM1      H6       HDR5B    0.073000        1.0080           0   0.00000   0.00000
      5585 IM1      58       IM1      N2       ND2R5B   2.249300       13.6070           0   -0.840000   1.00000
      5586 IM1      58       IM1      DN2      DRUD    -2.249300        0.4000           0   0.00000   0.00000
      5587 IM1      58       IM1      H7       DUMH     0.000000        1.0080           0   0.00000   0.00000
      5588 IM1      58       IM1      LPN21    LPD     -0.474000        0.0000           -1   0.00000   0.00000
      5589 IM1      59       IM1      C1       CD33G    2.390600       11.6110           0   -1.08100   1.00000
      5590 IM1      59       IM1      DC1      DRUD    -2.551600        0.4000           0   0.00000   0.00000
      5591 IM1      59       IM1      H1       HDA3A    0.094000        1.0080           0   0.00000   0.00000
      5592 IM1      59       IM1      H2       HDA3A    0.094000        1.0080           0   0.00000   0.00000
      5593 IM1      59       IM1      H3       HDA3A    0.094000        1.0080           0   0.00000   0.00000
      5594 IM1      59       IM1      N1       ND2R5A   2.670300       13.6070           0   -1.06300   1.30000
      5595 IM1      59       IM1      DN1      DRUD    -2.530300        0.4000           0   0.00000   0.00000
      5596 IM1      59       IM1      C2       CD2R5A   2.511900       11.6110           0   -1.37800   1.30000
      5597 IM1      59       IM1      DC2      DRUD    -2.880900        0.4000           0   0.00000   0.00000
      5598 IM1      59       IM1      H4       HDR5A    0.150000        1.0080           0   0.00000   0.00000
      5599 IM1      59       IM1      C3       CD2R5A   3.068900       11.6110           0   -1.37800   1.30000
      5600 IM1      59       IM1      DC3      DRUD    -2.880900        0.4000           0   0.00000   0.00000
      5601 IM1      59       IM1      H5       HDR5A    0.053000        1.0080           0   0.00000   0.00000
      5602 IM1      59       IM1      C4       CD2R5B   2.404400       11.6110           0   -0.868000   1.30000
      5603 IM1      59       IM1      DC4      DRUD    -2.286400        0.4000           0   0.00000   0.00000
      5604 IM1      59       IM1      H6       HDR5B    0.073000        1.0080           0   0.00000   0.00000
      5605 IM1      59       IM1      N2       ND2R5B   2.249300       13.6070           0   -0.840000   1.00000
      5606 IM1      59       IM1      DN2      DRUD    -2.249300        0.4000           0   0.00000   0.00000
      5607 IM1      59       IM1      H7       DUMH     0.000000        1.0080           0   0.00000   0.00000
      5608 IM1      59       IM1      LPN21    LPD     -0.474000        0.0000           -1   0.00000   0.00000
      5609 IM1      60       IM1      C1       CD33G    2.390600       11.6110           0   -1.08100   1.00000
      5610 IM1      60       IM1      DC1      DRUD    -2.551600        0.4000           0   0.00000   0.00000
      5611 IM1      60       IM1      H1       HDA3A    0.094000        1.0080           0   0.00000   0.00000
      5612 IM1      60       IM1      H2       HDA3A    0.094000        1.0080           0   0.00000   0.00000
      5613 IM1      60       IM1      H3       HDA3A    0.094000        1.0080           0   0.00000   0.00000
      5614 IM1      60       IM1      N1       ND2R5A   2.670300       13.6070           0   -1.06300   1.30000
      5615 IM1      60       IM1      DN1      DRUD    -2.530300        0.4000           0   0.00000   0.00000
      5616 IM1      60       IM1      C2       CD2R5A   2.511900       11.6110           0   -1.37800   1.30000
      5617 IM1      60       IM1      DC2      DRUD    -2.880900        0.4000           0   0.00000   0.00000
      5618 IM1      60       IM1      H4       HDR5A    0.150000        1.0080           0   0.00000   0.00000
      5619 IM1      60       IM1      C3       CD2R5A   3.068900       11.6110           0   -1.37800   1.30000
      5620 IM1      60       IM1      DC3      DRUD    -2.880900        0.4000           0   0.00000   0.00000
      5621 IM1      60       IM1      H5       HDR5A    0.053000        1.0080           0   0.00000   0.00000
      5622 IM1      60       IM1      C4       CD2R5B   2.404400       11.6110           0   -0.868000   1.30000
      5623 IM1      60       IM1      DC4      DRUD    -2.286400        0.4000           0   0.00000   0.00000
      5624 IM1      60       IM1      H6       HDR5B    0.073000        1.0080           0   0.00000   0.00000
      5625 IM1      60       IM1      N2       ND2R5B   2.249300       13.6070           0   -0.840000   1.00000
      5626 IM1      60       IM1      DN2      DRUD    -2.249300        0.4000           0   0.00000   0.00000
      5627 IM1      60       IM1      H7       DUMH     0.000000        1.0080           0   0.00000   0.00000
      5628 IM1      60       IM1      LPN21    LPD     -0.474000        0.0000           -1   0.00000   0.00000
      5629 IM1      61       IM1      C1       CD33G    2.390600       11.6110           0   -1.08100   1.00000
      5630 IM1      61       IM1      DC1      DRUD    -2.551600        0.4000           0   0.00000   0.00000
      5631 IM1      61       IM1      H1       HDA3A    0.094000        1.0080           0   0.00000   0.00000
      5632 IM1      61       IM1      H2       HDA3A    0.094000        1.0080           0   0.00000   0.00000
      5633 IM1      61       IM1      H3       HDA3A    0.094000        1.0080           0   0.00000   0.00000
      5634 IM1      61       IM1      N1       ND2R5A   2.670300       13.6070           0   -1.06300   1.30000
      5635 IM1      61       IM1      DN1      DRUD    -2.530300        0.4000           0   0.00000   0.00000
      5636 IM1      61       IM1      C2       CD2R5A   2.511900       11.6110           0   -1.37800   1.30000
      5637 IM1      61       IM1      DC2      DRUD    -2.880900        0.4000           0   0.00000   0.00000
      5638 IM1      61       IM1      H4       HDR5A    0.150000        1.0080           0   0.00000   0.00000
      5639 IM1      61       IM1      C3       CD2R5A   3.068900       11.6110           0   -1.37800   1.30000
      5640 IM1      61       IM1      DC3      DRUD    -2.880900        0.4000           0   0.00000   0.00000
      5641 IM1      61       IM1      H5       HDR5A    0.053000        1.0080           0   0.00000   0.00000
      5642 IM1      61       IM1      C4       CD2R5B   2.404400       11.6110           0   -0.868000   1.30000
      5643 IM1      61       IM1      DC4      DRUD    -2.286400        0.4000           0   0.00000   0.00000
      5644 IM1      61       IM1      H6       HDR5B    0.073000        1.0080           0   0.00000   0.00000
      5645 IM1      61       IM1      N2       ND2R5B   2.249300       13.6070           0   -0.840000   1.00000
      5646 IM1      61       IM1      DN2      DRUD    -2.249300        0.4000           0   0.00000   0.00000
      5647 IM1      61       IM1      H7       DUMH     0.000000        1.0080           0   0.00000   0.00000
      5648 IM1      61       IM1      LPN21    LPD     -0.474000        0.0000           -1   0.00000   0.00000
      5649 IM1      62       IM1      C1       CD33G    2.390600       11.6110           0   -1.08100   1.00000
      5650 IM1      62       IM1      DC1      DRUD    -2.551600        0.4000           0   0.00000   0.00000
      5651 IM1      62       IM1      H1       HDA3A    0.094000        1.0080           0   0.00000   0.00000
      5652 IM1      62       IM1      H2       HDA3A    0.094000        1.0080           0   0.00000   0.00000
      5653 IM1      62       IM1      H3       HDA3A    0.094000        1.0080           0   0.00000   0.00000
      5654 IM1      62       IM1      N1       ND2R5A   2.670300       13.6070           0   -1.06300   1.30000
      5655 IM1      62       IM1      DN1      DRUD    -2.530300        0.4000           0   0.00000   0.00000
      5656 IM1      62       IM1      C2       CD2R5A   2.511900       11.6110           0   -1.37800   1.30000
      5657 IM1      62       IM1      DC2      DRUD    -2.880900        0.4000           0   0.00000   0.00000
      5658 IM1      62       IM1      H4       HDR5A    0.150000        1.0080           0   0.00000   0.00000
      5659 IM1      62       IM1      C3       CD2R5A   3.068900       11.6110           0   -1.37800   1.30000
      5660 IM1      62       IM1      DC3      DRUD    -2.880900        0.4000           0   0.00000   0.00000
      5661 IM1      62       IM1      H5       HDR5A    0.053000        1.0080           0   0.00000   0.00000
      5662 IM1      62       IM1      C4       CD2R5B   2.404400       11.6110           0   -0.868000   1.30000
      5663 IM1      62       IM1      DC4      DRUD    -2.286400        0.4000           0   0.00000   0.00000
      5664 IM1      62       IM1      H6       HDR5B    0.073000        1.0080           0   0.00000   0.00000
      5665 IM1      62       IM1      N2       ND2R5B   2.249300       13.6070           0   -0.840000   1.00000
      5666 IM1      62       IM1      DN2      DRUD    -2.249300        0.4000           0   0.00000   0.00000
      5667 IM1      62       IM1      H7       DUMH     0.000000        1.0080           0   0.00000   0.00000
      5668 IM1      62       IM1      LPN21    LPD     -0.474000        0.0000           -1   0.00000   0.00000
      5669 IM1      63       IM1      C1       CD33G    2.390600       11.6110           0   -1.08100   1.00000
      5670 IM1      63       IM1      DC1      DRUD    -2.551600        0.4000           0   0.00000   0.00000
      5671 IM1      63       IM1      H1       HDA3A    0.094000        1.0080           0   0.00000   0.00000
      5672 IM1      63       IM1      H2       HDA3A    0.094000        1.0080           0   0.00000   0.00000
      5673 IM1      63       IM1      H3       HDA3A    0.094000        1.0080           0   0.00000   0.00000
      5674 IM1      63       IM1      N1       ND2R5A   2.670300       13.6070           0   -1.06300   1.30000
      5675 IM1      63       IM1      DN1      DRUD    -2.530300        0.4000           0   0.00000   0.00000
      5676 IM1      63       IM1      C2       CD2R5A   2.511900       11.6110           0   -1.37800   1.30000
      5677 IM1      63       IM1      DC2      DRUD    -2.880900        0.4000           0   0.00000   0.00000
      5678 IM1      63       IM1      H4       HDR5A    0.150000        1.0080           0   0.00000   0.00000
      5679 IM1      63       IM1      C3       CD2R5A   3.068900       11.6110           0   -1.37800   1.30000
      5680 IM1      63       IM1      DC3      DRUD    -2.880900        0.4000           0   0.00000   0.00000
      5681 IM1      63       IM1      H5       HDR5A    0.053000        1.0080           0   0.00000   0.00000
      5682 IM1      63       IM1      C4       CD2R5B   2.404400       11.6110           0   -0.868000   1.30000
      5683 IM1      63       IM1      DC4      DRUD    -2.286400        0.4000           0   0.00000   0.00000
      5684 IM1      63       IM1      H6       HDR5B    0.073000        1.0080           0   0.00000   0.00000
      5685 IM1      63       IM1      N2       ND2R5B   2.249300       13.6070           0   -0.840000   1.00000
      5686 IM1      63       IM1      DN2      DRUD    -2.249300        0.4000           0   0.00000   0.00000
      5687 IM1      63       IM1      H7       DUMH     0.000000        1.0080           0   0.00000   0.00000
      5688 IM1      63       IM1      LPN21    LPD     -0.474000        0.0000           -1   0.00000   0.00000
      5689 IM1      64       IM1      C1       CD33G    2.390600       11.6110           0   -1.08100   1.00000
      5690 IM1      64       IM1      DC1      DRUD    -2.551600        0.4000           0   0.00000   0.00000
      5691 IM1      64       IM1      H1       HDA3A    0.094000        1.0080           0   0.00000   0.00000
      5692 IM1      64       IM1      H2       HDA3A    0.094000        1.0080           0   0.00000   0.00000
      5693 IM1      64       IM1      H3       HDA3A    0.094000        1.0080           0   0.00000   0.00000
      5694 IM1      64       IM1      N1       ND2R5A   2.670300       13.6070           0   -1.06300   1.30000
      5695 IM1      64       IM1      DN1      DRUD    -2.530300        0.4000           0   0.00000   0.00000
      5696 IM1      64       IM1      C2       CD2R5A   2.511900       11.6110           0   -1.37800   1.30000
      5697 IM1      64       IM1      DC2      DRUD    -2.880900        0.4000           0   0.00000   0.00000
      5698 IM1      64       IM1      H4       HDR5A    0.150000        1.0080           0   0.00000   0.00000
      5699 IM1      64       IM1      C3       CD2R5A   3.068900       11.6110           0   -1.37800   1.30000
      5700 IM1      64       IM1      DC3      DRUD    -2.880900        0.4000           0   0.00000   0.00000
      5701 IM1      64       IM1      H5       HDR5A    0.053000        1.0080           0   0.00000   0.00000
      5702 IM1      64       IM1      C4       CD2R5B   2.404400       11.6110           0   -0.868000   1.30000
      5703 IM1      64       IM1      DC4      DRUD    -2.286400        0.4000           0   0.00000   0.00000
      5704 IM1      64       IM1      H6       HDR5B    0.073000        1.0080           0   0.00000   0.00000
      5705 IM1      64       IM1      N2       ND2R5B   2.249300       13.6070           0   -0.840000   1.00000
      5706 IM1      64       IM1      DN2      DRUD    -2.249300        0.4000           0   0.00000   0.00000
      5707 IM1      64       IM1      H7       DUMH     0.000000        1.0080           0   0.00000   0.00000
      5708 IM1      64       IM1      LPN21    LPD     -0.474000        0.0000           -1   0.00000   0.00000
      5709 IM1      65       IM1      C1       CD33G    2.390600       11.6110           0   -1.08100   1.00000
      5710 IM1      65       IM1      DC1      DRUD    -2.551600        0.4000           0   0.00000   0.00000
      5711 IM1      65       IM1      H1       HDA3A    0.094000        1.0080           0   0.00000   0.00000
      5712 IM1      65       IM1      H2       HDA3A    0.094000        1.0080           0   0.00000   0.00000
      5713 IM1      65       IM1      H3       HDA3A    0.094000        1.0080           0   0.00000   0.00000
      5714 IM1      65       IM1      N1       ND2R5A   2.670300       13.6070           0   -1.06300   1.30000
      5715 IM1      65       IM1      DN1      DRUD    -2.530300        0.4000           0   0.00000   0.00000
      5716 IM1      65       IM1      C2       CD2R5A   2.511900       11.6110           0   -1.37800   1.30000
      5717 IM1      65       IM1      DC2      DRUD    -2.880900        0.4000           0   0.00000   0.00000
      5718 IM1      65       IM1      H4       HDR5A    0.150000        1.0080           0   0.00000   0.00000
      5719 IM1      65       IM1      C3       CD2R5A   3.068900       11.6110           0   -1.37800   1.30000
      5720 IM1      65       IM1      DC3      DRUD    -2.880900        0.4000           0   0.00000   0.00000
      5721 IM1      65       IM1      H5       HDR5A    0.053000        1.0080           0   0.00000   0.00000
      5722 IM1      65       IM1      C4       CD2R5B   2.404400       11.6110           0   -0.868000   1.30000
      5723 IM1      65       IM1      DC4      DRUD    -2.286400        0.4000           0   0.00000   0.00000
      5724 IM1      65       IM1      H6       HDR5B    0.073000        1.0080           0   0.00000   0.00000
      5725 IM1      65       IM1      N2       ND2R5B   2.249300       13.6070           0   -0.840000   1.00000
      5726 IM1      65       IM1      DN2      DRUD    -2.249300        0.4000           0   0.00000   0.00000
      5727 IM1      65       IM1      H7       DUMH     0.000000        1.0080           0   0.00000   0.00000
      5728 IM1      65       IM1      LPN21    LPD     -0.474000        0.0000           -1   0.00000   0.00000
      5729 IM1      66       IM1      C1       CD33G    2.390600       11.6110           0   -1.08100   1.00000
      5730 IM1      66       IM1      DC1      DRUD    -2.551600        0.4000           0   0.00000   0.00000
      5731 IM1      66       IM1      H1       HDA3A    0.094000        1.0080           0   0.00000   0.00000
      5732 IM1      66       IM1      H2       HDA3A    0.094000        1.0080           0   0.00000   0.00000
      5733 IM1      66       IM1      H3       HDA3A    0.094000        1.0080           0   0.00000   0.00000
      5734 IM1      66       IM1      N1       ND2R5A   2.670300       13.6070           0   -1.06300   1.30000
      5735 IM1      66       IM1      DN1      DRUD    -2.530300        0.4000           0   0.00000   0.00000
      5736 IM1      66       IM1      C2       CD2R5A   2.511900       11.6110           0   -1.37800   1.30000
      5737 IM1      66       IM1      DC2      DRUD    -2.880900        0.4000           0   0.00000   0.00000
      5738 IM1      66       IM1      H4       HDR5A    0.150000        1.0080           0   0.00000   0.00000
      5739 IM1      66       IM1      C3       CD2R5A   3.068900       11.6110           0   -1.37800   1.30000
      5740 IM1      66       IM1      DC3      DRUD    -2.880900        0.4000           0   0.00000   0.00000
      5741 IM1      66       IM1      H5       HDR5A    0.053000        1.0080           0   0.00000   0.00000
      5742 IM1      66       IM1      C4       CD2R5B   2.404400       11.6110           0   -0.868000   1.30000
      5743 IM1      66       IM1      DC4      DRUD    -2.286400        0.4000           0   0.00000   0.00000
      5744 IM1      66       IM1      H6       HDR5B    0.073000        1.0080           0   0.00000   0.00000
      5745 IM1      66       IM1      N2       ND2R5B   2.249300       13.6070           0   -0.840000   1.00000
      5746 IM1      66       IM1      DN2      DRUD    -2.249300        0.4000           0   0.00000   0.00000
      5747 IM1      66       IM1      H7       DUMH     0.000000        1.0080           0   0.00000   0.00000
      5748 IM1      66       IM1      LPN21    LPD     -0.474000        0.0000           -1   0.00000   0.00000
      5749 IM1      67       IM1      C1       CD33G    2.390600       11.6110           0   -1.08100   1.00000
      5750 IM1      67       IM1      DC1      DRUD    -2.551600        0.4000           0   0.00000   0.00000
      5751 IM1      67       IM1      H1       HDA3A    0.094000        1.0080           0   0.00000   0.00000
      5752 IM1      67       IM1      H2       HDA3A    0.094000        1.0080           0   0.00000   0.00000
      5753 IM1      67       IM1      H3       HDA3A    0.094000        1.0080           0   0.00000   0.00000
      5754 IM1      67       IM1      N1       ND2R5A   2.670300       13.6070           0   -1.06300   1.30000
      5755 IM1      67       IM1      DN1      DRUD    -2.530300        0.4000           0   0.00000   0.00000
      5756 IM1      67       IM1      C2       CD2R5A   2.511900       11.6110           0   -1.37800   1.30000
      5757 IM1      67       IM1      DC2      DRUD    -2.880900        0.4000           0   0.00000   0.00000
      5758 IM1      67       IM1      H4       HDR5A    0.150000        1.0080           0   0.00000   0.00000
      5759 IM1      67       IM1      C3       CD2R5A   3.068900       11.6110           0   -1.37800   1.30000
      5760 IM1      67       IM1      DC3      DRUD    -2.880900        0.4000           0   0.00000   0.00000
      5761 IM1      67       IM1      H5       HDR5A    0.053000        1.0080           0   0.00000   0.00000
      5762 IM1      67       IM1      C4       CD2R5B   2.404400       11.6110           0   -0.868000   1.30000
      5763 IM1      67       IM1      DC4      DRUD    -2.286400        0.4000           0   0.00000   0.00000
      5764 IM1      67       IM1      H6       HDR5B    0.073000        1.0080           0   0.00000   0.00000
      5765 IM1      67       IM1      N2       ND2R5B   2.249300       13.6070           0   -0.840000   1.00000
      5766 IM1      67       IM1      DN2      DRUD    -2.249300        0.4000           0   0.00000   0.00000
      5767 IM1      67       IM1      H7       DUMH     0.000000        1.0080           0   0.00000   0.00000
      5768 IM1      67       IM1      LPN21    LPD     -0.474000        0.0000           -1   0.00000   0.00000
      5769 IM1      68       IM1      C1       CD33G    2.390600       11.6110           0   -1.08100   1.00000
      5770 IM1      68       IM1      DC1      DRUD    -2.551600        0.4000           0   0.00000   0.00000
      5771 IM1      68       IM1      H1       HDA3A    0.094000        1.0080           0   0.00000   0.00000
      5772 IM1      68       IM1      H2       HDA3A    0.094000        1.0080           0   0.00000   0.00000
      5773 IM1      68       IM1      H3       HDA3A    0.094000        1.0080           0   0.00000   0.00000
      5774 IM1      68       IM1      N1       ND2R5A   2.670300       13.6070           0   -1.06300   1.30000
      5775 IM1      68       IM1      DN1      DRUD    -2.530300        0.4000           0   0.00000   0.00000
      5776 IM1      68       IM1      C2       CD2R5A   2.511900       11.6110           0   -1.37800   1.30000
      5777 IM1      68       IM1      DC2      DRUD    -2.880900        0.4000           0   0.00000   0.00000
      5778 IM1      68       IM1      H4       HDR5A    0.150000        1.0080           0   0.00000   0.00000
      5779 IM1      68       IM1      C3       CD2R5A   3.068900       11.6110           0   -1.37800   1.30000
      5780 IM1      68       IM1      DC3      DRUD    -2.880900        0.4000           0   0.00000   0.00000
      5781 IM1      68       IM1      H5       HDR5A    0.053000        1.0080           0   0.00000   0.00000
      5782 IM1      68       IM1      C4       CD2R5B   2.404400       11.6110           0   -0.868000   1.30000
      5783 IM1      68       IM1      DC4      DRUD    -2.286400        0.4000           0   0.00000   0.00000
      5784 IM1      68       IM1      H6       HDR5B    0.073000        1.0080           0   0.00000   0.00000
      5785 IM1      68       IM1      N2       ND2R5B   2.249300       13.6070           0   -0.840000   1.00000
      5786 IM1      68       IM1      DN2      DRUD    -2.249300        0.4000           0   0.00000   0.00000
      5787 IM1      68       IM1      H7       DUMH     0.000000        1.0080           0   0.00000   0.00000
      5788 IM1      68       IM1      LPN21    LPD     -0.474000        0.0000           -1   0.00000   0.00000
      5789 IM1      69       IM1      C1       CD33G    2.390600       11.6110           0   -1.08100   1.00000
      5790 IM1      69       IM1      DC1      DRUD    -2.551600        0.4000           0   0.00000   0.00000
      5791 IM1      69       IM1      H1       HDA3A    0.094000        1.0080           0   0.00000   0.00000
      5792 IM1      69       IM1      H2       HDA3A    0.094000        1.0080           0   0.00000   0.00000
      5793 IM1      69       IM1      H3       HDA3A    0.094000        1.0080           0   0.00000   0.00000
      5794 IM1      69       IM1      N1       ND2R5A   2.670300       13.6070           0   -1.06300   1.30000
      5795 IM1      69       IM1      DN1      DRUD    -2.530300        0.4000           0   0.00000   0.00000
      5796 IM1      69       IM1      C2       CD2R5A   2.511900       11.6110           0   -1.37800   1.30000
      5797 IM1      69       IM1      DC2      DRUD    -2.880900        0.4000           0   0.00000   0.00000
      5798 IM1      69       IM1      H4       HDR5A    0.150000        1.0080           0   0.00000   0.00000
      5799 IM1      69       IM1      C3       CD2R5A   3.068900       11.6110           0   -1.37800   1.30000
      5800 IM1      69       IM1      DC3      DRUD    -2.880900        0.4000           0   0.00000   0.00000
      5801 IM1      69       IM1      H5       HDR5A    0.053000        1.0080           0   0.00000   0.00000
      5802 IM1      69       IM1      C4       CD2R5B   2.404400       11.6110           0   -0.868000   1.30000
      5803 IM1      69       IM1      DC4      DRUD    -2.286400        0.4000           0   0.00000   0.00000
      5804 IM1      69       IM1      H6       HDR5B    0.073000        1.0080           0   0.00000   0.00000
      5805 IM1      69       IM1      N2       ND2R5B   2.249300       13.6070           0   -0.840000   1.00000
      5806 IM1      69       IM1      DN2      DRUD    -2.249300        0.4000           0   0.00000   0.00000
      5807 IM1      69       IM1      H7       DUMH     0.000000        1.0080           0   0.00000   0.00000
      5808 IM1      69       IM1      LPN21    LPD     -0.474000        0.0000           -1   0.00000   0.00000
      5809 IM1      70       IM1      C1       CD33G    2.390600       11.6110           0   -1.08100   1.00000
      5810 IM1      70       IM1      DC1      DRUD    -2.551600        0.4000           0   0.00000   0.00000
      5811 IM1      70       IM1      H1       HDA3A    0.094000        1.0080           0   0.00000   0.00000
      5812 IM1      70       IM1      H2       HDA3A    0.094000        1.0080           0   0.00000   0.00000
      5813 IM1      70       IM1      H3       HDA3A    0.094000        1.0080           0   0.00000   0.00000
      5814 IM1      70       IM1      N1       ND2R5A   2.670300       13.6070           0   -1.06300   1.30000
      5815 IM1      70       IM1      DN1      DRUD    -2.530300        0.4000           0   0.00000   0.00000
      5816 IM1      70       IM1      C2       CD2R5A   2.511900       11.6110           0   -1.37800   1.30000
      5817 IM1      70       IM1      DC2      DRUD    -2.880900        0.4000           0   0.00000   0.00000
      5818 IM1      70       IM1      H4       HDR5A    0.150000        1.0080           0   0.00000   0.00000
      5819 IM1      70       IM1      C3       CD2R5A   3.068900       11.6110           0   -1.37800   1.30000
      5820 IM1      70       IM1      DC3      DRUD    -2.880900        0.4000           0   0.00000   0.00000
      5821 IM1      70       IM1      H5       HDR5A    0.053000        1.0080           0   0.00000   0.00000
      5822 IM1      70       IM1      C4       CD2R5B   2.404400       11.6110           0   -0.868000   1.30000
      5823 IM1      70       IM1      DC4      DRUD    -2.286400        0.4000           0   0.00000   0.00000
      5824 IM1      70       IM1      H6       HDR5B    0.073000        1.0080           0   0.00000   0.00000
      5825 IM1      70       IM1      N2       ND2R5B   2.249300       13.6070           0   -0.840000   1.00000
      5826 IM1      70       IM1      DN2      DRUD    -2.249300        0.4000           0   0.00000   0.00000
      5827 IM1      70       IM1      H7       DUMH     0.000000        1.0080           0   0.00000   0.00000
      5828 IM1      70       IM1      LPN21    LPD     -0.474000        0.0000           -1   0.00000   0.00000
      5829 IM1      71       IM1      C1       CD33G    2.390600       11.6110           0   -1.08100   1.00000
      5830 IM1      71       IM1      DC1      DRUD    -2.551600        0.4000           0   0.00000   0.00000
      5831 IM1      71       IM1      H1       HDA3A    0.094000        1.0080           0   0.00000   0.00000
      5832 IM1      71       IM1      H2       HDA3A    0.094000        1.0080           0   0.00000   0.00000
      5833 IM1      71       IM1      H3       HDA3A    0.094000        1.0080           0   0.00000   0.00000
      5834 IM1      71       IM1      N1       ND2R5A   2.670300       13.6070           0   -1.06300   1.30000
      5835 IM1      71       IM1      DN1      DRUD    -2.530300        0.4000           0   0.00000   0.00000
      5836 IM1      71       IM1      C2       CD2R5A   2.511900       11.6110           0   -1.37800   1.30000
      5837 IM1      71       IM1      DC2      DRUD    -2.880900        0.4000           0   0.00000   0.00000
      5838 IM1      71       IM1      H4       HDR5A    0.150000        1.0080           0   0.00000   0.00000
      5839 IM1      71       IM1      C3       CD2R5A   3.068900       11.6110           0   -1.37800   1.30000
      5840 IM1      71       IM1      DC3      DRUD    -2.880900        0.4000           0   0.00000   0.00000
      5841 IM1      71       IM1      H5       HDR5A    0.053000        1.0080           0   0.00000   0.00000
      5842 IM1      71       IM1      C4       CD2R5B   2.404400       11.6110           0   -0.868000   1.30000
      5843 IM1      71       IM1      DC4      DRUD    -2.286400        0.4000           0   0.00000   0.00000
      5844 IM1      71       IM1      H6       HDR5B    0.073000        1.0080           0   0.00000   0.00000
      5845 IM1      71       IM1      N2       ND2R5B   2.249300       13.6070           0   -0.840000   1.00000
      5846 IM1      71       IM1      DN2      DRUD    -2.249300        0.4000           0   0.00000   0.00000
      5847 IM1      71       IM1      H7       DUMH     0.000000        1.0080           0   0.00000   0.00000
      5848 IM1      71       IM1      LPN21    LPD     -0.474000        0.0000           -1   0.00000   0.00000
      5849 IM1      72       IM1      C1       CD33G    2.390600       11.6110           0   -1.08100   1.00000
      5850 IM1      72       IM1      DC1      DRUD    -2.551600        0.4000           0   0.00000   0.00000
      5851 IM1      72       IM1      H1       HDA3A    0.094000        1.0080           0   0.00000   0.00000
      5852 IM1      72       IM1      H2       HDA3A    0.094000        1.0080           0   0.00000   0.00000
      5853 IM1      72       IM1      H3       HDA3A    0.094000        1.0080           0   0.00000   0.00000
      5854 IM1      72       IM1      N1       ND2R5A   2.670300       13.6070           0   -1.06300   1.30000
      5855 IM1      72       IM1      DN1      DRUD    -2.530300        0.4000           0   0.00000   0.00000
      5856 IM1      72       IM1      C2       CD2R5A   2.511900       11.6110           0   -1.37800   1.30000
      5857 IM1      72       IM1      DC2      DRUD    -2.880900        0.4000           0   0.00000   0.00000
      5858 IM1      72       IM1      H4       HDR5A    0.150000        1.0080           0   0.00000   0.00000
      5859 IM1      72       IM1      C3       CD2R5A   3.068900       11.6110           0   -1.37800   1.30000
      5860 IM1      72       IM1      DC3      DRUD    -2.880900        0.4000           0   0.00000   0.00000
      5861 IM1      72       IM1      H5       HDR5A    0.053000        1.0080           0   0.00000   0.00000
      5862 IM1      72       IM1      C4       CD2R5B   2.404400       11.6110           0   -0.868000   1.30000
      5863 IM1      72       IM1      DC4      DRUD    -2.286400        0.4000           0   0.00000   0.00000
      5864 IM1      72       IM1      H6       HDR5B    0.073000        1.0080           0   0.00000   0.00000
      5865 IM1      72       IM1      N2       ND2R5B   2.249300       13.6070           0   -0.840000   1.00000
      5866 IM1      72       IM1      DN2      DRUD    -2.249300        0.4000           0   0.00000   0.00000
      5867 IM1      72       IM1      H7       DUMH     0.000000        1.0080           0   0.00000   0.00000
      5868 IM1      72       IM1      LPN21    LPD     -0.474000        0.0000           -1   0.00000   0.00000
      5869 IM1      73       IM1      C1       CD33G    2.390600       11.6110           0   -1.08100   1.00000
      5870 IM1      73       IM1      DC1      DRUD    -2.551600        0.4000           0   0.00000   0.00000
      5871 IM1      73       IM1      H1       HDA3A    0.094000        1.0080           0   0.00000   0.00000
      5872 IM1      73       IM1      H2       HDA3A    0.094000        1.0080           0   0.00000   0.00000
      5873 IM1      73       IM1      H3       HDA3A    0.094000        1.0080           0   0.00000   0.00000
      5874 IM1      73       IM1      N1       ND2R5A   2.670300       13.6070           0   -1.06300   1.30000
      5875 IM1      73       IM1      DN1      DRUD    -2.530300        0.4000           0   0.00000   0.00000
      5876 IM1      73       IM1      C2       CD2R5A   2.511900       11.6110           0   -1.37800   1.30000
      5877 IM1      73       IM1      DC2      DRUD    -2.880900        0.4000           0   0.00000   0.00000
      5878 IM1      73       IM1      H4       HDR5A    0.150000        1.0080           0   0.00000   0.00000
      5879 IM1      73       IM1      C3       CD2R5A   3.068900       11.6110           0   -1.37800   1.30000
      5880 IM1      73       IM1      DC3      DRUD    -2.880900        0.4000           0   0.00000   0.00000
      5881 IM1      73       IM1      H5       HDR5A    0.053000        1.0080           0   0.00000   0.00000
      5882 IM1      73       IM1      C4       CD2R5B   2.404400       11.6110           0   -0.868000   1.30000
      5883 IM1      73       IM1      DC4      DRUD    -2.286400        0.4000           0   0.00000   0.00000
      5884 IM1      73       IM1      H6       HDR5B    0.073000        1.0080           0   0.00000   0.00000
      5885 IM1      73       IM1      N2       ND2R5B   2.249300       13.6070           0   -0.840000   1.00000
      5886 IM1      73       IM1      DN2      DRUD    -2.249300        0.4000           0   0.00000   0.00000
      5887 IM1      73       IM1      H7       DUMH     0.000000        1.0080           0   0.00000   0.00000
      5888 IM1      73       IM1      LPN21    LPD     -0.474000        0.0000           -1   0.00000   0.00000
      5889 IM1      74       IM1      C1       CD33G    2.390600       11.6110           0   -1.08100   1.00000
      5890 IM1      74       IM1      DC1      DRUD    -2.551600        0.4000           0   0.00000   0.00000
      5891 IM1      74       IM1      H1       HDA3A    0.094000        1.0080           0   0.00000   0.00000
      5892 IM1      74       IM1      H2       HDA3A    0.094000        1.0080           0   0.00000   0.00000
      5893 IM1      74       IM1      H3       HDA3A    0.094000        1.0080           0   0.00000   0.00000
      5894 IM1      74       IM1      N1       ND2R5A   2.670300       13.6070           0   -1.06300   1.30000
      5895 IM1      74       IM1      DN1      DRUD    -2.530300        0.4000           0   0.00000   0.00000
      5896 IM1      74       IM1      C2       CD2R5A   2.511900       11.6110           0   -1.37800   1.30000
      5897 IM1      74       IM1      DC2      DRUD    -2.880900        0.4000           0   0.00000   0.00000
      5898 IM1      74       IM1      H4       HDR5A    0.150000        1.0080           0   0.00000   0.00000
      5899 IM1      74       IM1      C3       CD2R5A   3.068900       11.6110           0   -1.37800   1.30000
      5900 IM1      74       IM1      DC3      DRUD    -2.880900        0.4000           0   0.00000   0.00000
      5901 IM1      74       IM1      H5       HDR5A    0.053000        1.0080           0   0.00000   0.00000
      5902 IM1      74       IM1      C4       CD2R5B   2.404400       11.6110           0   -0.868000   1.30000
      5903 IM1      74       IM1      DC4      DRUD    -2.286400        0.4000           0   0.00000   0.00000
      5904 IM1      74       IM1      H6       HDR5B    0.073000        1.0080           0   0.00000   0.00000
      5905 IM1      74       IM1      N2       ND2R5B   2.249300       13.6070           0   -0.840000   1.00000
      5906 IM1      74       IM1      DN2      DRUD    -2.249300        0.4000           0   0.00000   0.00000
      5907 IM1      74       IM1      H7       DUMH     0.000000        1.0080           0   0.00000   0.00000
      5908 IM1      74       IM1      LPN21    LPD     -0.474000        0.0000           -1   0.00000   0.00000
      5909 IM1      75       IM1      C1       CD33G    2.390600       11.6110           0   -1.08100   1.00000
      5910 IM1      75       IM1      DC1      DRUD    -2.551600        0.4000           0   0.00000   0.00000
      5911 IM1      75       IM1      H1       HDA3A    0.094000        1.0080           0   0.00000   0.00000
      5912 IM1      75       IM1      H2       HDA3A    0.094000        1.0080           0   0.00000   0.00000
      5913 IM1      75       IM1      H3       HDA3A    0.094000        1.0080           0   0.00000   0.00000
      5914 IM1      75       IM1      N1       ND2R5A   2.670300       13.6070           0   -1.06300   1.30000
      5915 IM1      75       IM1      DN1      DRUD    -2.530300        0.4000           0   0.00000   0.00000
      5916 IM1      75       IM1      C2       CD2R5A   2.511900       11.6110           0   -1.37800   1.30000
      5917 IM1      75       IM1      DC2      DRUD    -2.880900        0.4000           0   0.00000   0.00000
      5918 IM1      75       IM1      H4       HDR5A    0.150000        1.0080           0   0.00000   0.00000
      5919 IM1      75       IM1      C3       CD2R5A   3.068900       11.6110           0   -1.37800   1.30000
      5920 IM1      75       IM1      DC3      DRUD    -2.880900        0.4000           0   0.00000   0.00000
      5921 IM1      75       IM1      H5       HDR5A    0.053000        1.0080           0   0.00000   0.00000
      5922 IM1      75       IM1      C4       CD2R5B   2.404400       11.6110           0   -0.868000   1.30000
      5923 IM1      75       IM1      DC4      DRUD    -2.286400        0.4000           0   0.00000   0.00000
      5924 IM1      75       IM1      H6       HDR5B    0.073000        1.0080           0   0.00000   0.00000
      5925 IM1      75       IM1      N2       ND2R5B   2.249300       13.6070           0   -0.840000   1.00000
      5926 IM1      75       IM1      DN2      DRUD    -2.249300        0.4000           0   0.00000   0.00000
      5927 IM1      75       IM1      H7       DUMH     0.000000        1.0080           0   0.00000   0.00000
      5928 IM1      75       IM1      LPN21    LPD     -0.474000        0.0000           -1   0.00000   0.00000
      5929 IM1      76       IM1      C1       CD33G    2.390600       11.6110           0   -1.08100   1.00000
      5930 IM1      76       IM1      DC1      DRUD    -2.551600        0.4000           0   0.00000   0.00000
      5931 IM1      76       IM1      H1       HDA3A    0.094000        1.0080           0   0.00000   0.00000
      5932 IM1      76       IM1      H2       HDA3A    0.094000        1.0080           0   0.00000   0.00000
      5933 IM1      76       IM1      H3       HDA3A    0.094000        1.0080           0   0.00000   0.00000
      5934 IM1      76       IM1      N1       ND2R5A   2.670300       13.6070           0   -1.06300   1.30000
      5935 IM1      76       IM1      DN1      DRUD    -2.530300        0.4000           0   0.00000   0.00000
      5936 IM1      76       IM1      C2       CD2R5A   2.511900       11.6110           0   -1.37800   1.30000
      5937 IM1      76       IM1      DC2      DRUD    -2.880900        0.4000           0   0.00000   0.00000
      5938 IM1      76       IM1      H4       HDR5A    0.150000        1.0080           0   0.00000   0.00000
      5939 IM1      76       IM1      C3       CD2R5A   3.068900       11.6110           0   -1.37800   1.30000
      5940 IM1      76       IM1      DC3      DRUD    -2.880900        0.4000           0   0.00000   0.00000
      5941 IM1      76       IM1      H5       HDR5A    0.053000        1.0080           0   0.00000   0.00000
      5942 IM1      76       IM1      C4       CD2R5B   2.404400       11.6110           0   -0.868000   1.30000
      5943 IM1      76       IM1      DC4      DRUD    -2.286400        0.4000           0   0.00000   0.00000
      5944 IM1      76       IM1      H6       HDR5B    0.073000        1.0080           0   0.00000   0.00000
      5945 IM1      76       IM1      N2       ND2R5B   2.249300       13.6070           0   -0.840000   1.00000
      5946 IM1      76       IM1      DN2      DRUD    -2.249300        0.4000           0   0.00000   0.00000
      5947 IM1      76       IM1      H7       DUMH     0.000000        1.0080           0   0.00000   0.00000
      5948 IM1      76       IM1      LPN21    LPD     -0.474000        0.0000           -1   0.00000   0.00000
      5949 IM1      77       IM1      C1       CD33G    2.390600       11.6110           0   -1.08100   1.00000
      5950 IM1      77       IM1      DC1      DRUD    -2.551600        0.4000           0   0.00000   0.00000
      5951 IM1      77       IM1      H1       HDA3A    0.094000        1.0080           0   0.00000   0.00000
      5952 IM1      77       IM1      H2       HDA3A    0.094000        1.0080           0   0.00000   0.00000
      5953 IM1      77       IM1      H3       HDA3A    0.094000        1.0080           0   0.00000   0.00000
      5954 IM1      77       IM1      N1       ND2R5A   2.670300       13.6070           0   -1.06300   1.30000
      5955 IM1      77       IM1      DN1      DRUD    -2.530300        0.4000           0   0.00000   0.00000
      5956 IM1      77       IM1      C2       CD2R5A   2.511900       11.6110           0   -1.37800   1.30000
      5957 IM1      77       IM1      DC2      DRUD    -2.880900        0.4000           0   0.00000   0.00000
      5958 IM1      77       IM1      H4       HDR5A    0.150000        1.0080           0   0.00000   0.00000
      5959 IM1      77       IM1      C3       CD2R5A   3.068900       11.6110           0   -1.37800   1.30000
      5960 IM1      77       IM1      DC3      DRUD    -2.880900        0.4000           0   0.00000   0.00000
      5961 IM1      77       IM1      H5       HDR5A    0.053000        1.0080           0   0.00000   0.00000
      5962 IM1      77       IM1      C4       CD2R5B   2.404400       11.6110           0   -0.868000   1.30000
      5963 IM1      77       IM1      DC4      DRUD    -2.286400        0.4000           0   0.00000   0.00000
      5964 IM1      77       IM1      H6       HDR5B    0.073000        1.0080           0   0.00000   0.00000
      5965 IM1      77       IM1      N2       ND2R5B   2.249300       13.6070           0   -0.840000   1.00000
      5966 IM1      77       IM1      DN2      DRUD    -2.249300        0.4000           0   0.00000   0.00000
      5967 IM1      77       IM1      H7       DUMH     0.000000        1.0080           0   0.00000   0.00000
      5968 IM1      77       IM1      LPN21    LPD     -0.474000        0.0000           -1   0.00000   0.00000
      5969 IM1      78       IM1      C1       CD33G    2.390600       11.6110           0   -1.08100   1.00000
      5970 IM1      78       IM1      DC1      DRUD    -2.551600        0.4000           0   0.00000   0.00000
      5971 IM1      78       IM1      H1       HDA3A    0.094000        1.0080           0   0.00000   0.00000
      5972 IM1      78       IM1      H2       HDA3A    0.094000        1.0080           0   0.00000   0.00000
      5973 IM1      78       IM1      H3       HDA3A    0.094000        1.0080           0   0.00000   0.00000
      5974 IM1      78       IM1      N1       ND2R5A   2.670300       13.6070           0   -1.06300   1.30000
      5975 IM1      78       IM1      DN1      DRUD    -2.530300        0.4000           0   0.00000   0.00000
      5976 IM1      78       IM1      C2       CD2R5A   2.511900       11.6110           0   -1.37800   1.30000
      5977 IM1      78       IM1      DC2      DRUD    -2.880900        0.4000           0   0.00000   0.00000
      5978 IM1      78       IM1      H4       HDR5A    0.150000        1.0080           0   0.00000   0.00000
      5979 IM1      78       IM1      C3       CD2R5A   3.068900       11.6110           0   -1.37800   1.30000
      5980 IM1      78       IM1      DC3      DRUD    -2.880900        0.4000           0   0.00000   0.00000
      5981 IM1      78       IM1      H5       HDR5A    0.053000        1.0080           0   0.00000   0.00000
      5982 IM1      78       IM1      C4       CD2R5B   2.404400       11.6110           0   -0.868000   1.30000
      5983 IM1      78       IM1      DC4      DRUD    -2.286400        0.4000           0   0.00000   0.00000
      5984 IM1      78       IM1      H6       HDR5B    0.073000        1.0080           0   0.00000   0.00000
      5985 IM1      78       IM1      N2       ND2R5B   2.249300       13.6070           0   -0.840000   1.00000
      5986 IM1      78       IM1      DN2      DRUD    -2.249300        0.4000           0   0.00000   0.00000
      5987 IM1      78       IM1      H7       DUMH     0.000000        1.0080           0   0.00000   0.00000
      5988 IM1      78       IM1      LPN21    LPD     -0.474000        0.0000           -1   0.00000   0.00000
      5989 IM1      79       IM1      C1       CD33G    2.390600       11.6110           0   -1.08100   1.00000
      5990 IM1      79       IM1      DC1      DRUD    -2.551600        0.4000           0   0.00000   0.00000
      5991 IM1      79       IM1      H1       HDA3A    0.094000        1.0080           0   0.00000   0.00000
      5992 IM1      79       IM1      H2       HDA3A    0.094000        1.0080           0   0.00000   0.00000
      5993 IM1      79       IM1      H3       HDA3A    0.094000        1.0080           0   0.00000   0.00000
      5994 IM1      79       IM1      N1       ND2R5A   2.670300       13.6070           0   -1.06300   1.30000
      5995 IM1      79       IM1      DN1      DRUD    -2.530300        0.4000           0   0.00000   0.00000
      5996 IM1      79       IM1      C2       CD2R5A   2.511900       11.6110           0   -1.37800   1.30000
      5997 IM1      79       IM1      DC2      DRUD    -2.880900        0.4000           0   0.00000   0.00000
      5998 IM1      79       IM1      H4       HDR5A    0.150000        1.0080           0   0.00000   0.00000
      5999 IM1      79       IM1      C3       CD2R5A   3.068900       11.6110           0   -1.37800   1.30000
      6000 IM1      79       IM1      DC3      DRUD    -2.880900        0.4000           0   0.00000   0.00000
      6001 IM1      79       IM1      H5       HDR5A    0.053000        1.0080           0   0.00000   0.00000
      6002 IM1      79       IM1      C4       CD2R5B   2.404400       11.6110           0   -0.868000   1.30000
      6003 IM1      79       IM1      DC4      DRUD    -2.286400        0.4000           0   0.00000   0.00000
      6004 IM1      79       IM1      H6       HDR5B    0.073000        1.0080           0   0.00000   0.00000
      6005 IM1      79       IM1      N2       ND2R5B   2.249300       13.6070           0   -0.840000   1.00000
      6006 IM1      79       IM1      DN2      DRUD    -2.249300        0.4000           0   0.00000   0.00000
      6007 IM1      79       IM1      H7       DUMH     0.000000        1.0080           0   0.00000   0.00000
      6008 IM1      79       IM1      LPN21    LPD     -0.474000        0.0000           -1   0.00000   0.00000
      6009 IM1      80       IM1      C1       CD33G    2.390600       11.6110           0   -1.08100   1.00000
      6010 IM1      80       IM1      DC1      DRUD    -2.551600        0.4000           0   0.00000   0.00000
      6011 IM1      80       IM1      H1       HDA3A    0.094000        1.0080           0   0.00000   0.00000
      6012 IM1      80       IM1      H2       HDA3A    0.094000        1.0080           0   0.00000   0.00000
      6013 IM1      80       IM1      H3       HDA3A    0.094000        1.0080           0   0.00000   0.00000
      6014 IM1      80       IM1      N1       ND2R5A   2.670300       13.6070           0   -1.06300   1.30000
      6015 IM1      80       IM1      DN1      DRUD    -2.530300        0.4000           0   0.00000   0.00000
      6016 IM1      80       IM1      C2       CD2R5A   2.511900       11.6110           0   -1.37800   1.30000
      6017 IM1      80       IM1      DC2      DRUD    -2.880900        0.4000           0   0.00000   0.00000
      6018 IM1      80       IM1      H4       HDR5A    0.150000        1.0080           0   0.00000   0.00000
      6019 IM1      80       IM1      C3       CD2R5A   3.068900       11.6110           0   -1.37800   1.30000
      6020 IM1      80       IM1      DC3      DRUD    -2.880900        0.4000           0   0.00000   0.00000
      6021 IM1      80       IM1      H5       HDR5A    0.053000        1.0080           0   0.00000   0.00000
      6022 IM1      80       IM1      C4       CD2R5B   2.404400       11.6110           0   -0.868000   1.30000
      6023 IM1      80       IM1      DC4      DRUD    -2.286400        0.4000           0   0.00000   0.00000
      6024 IM1      80       IM1      H6       HDR5B    0.073000        1.0080           0   0.00000   0.00000
      6025 IM1      80       IM1      N2       ND2R5B   2.249300       13.6070           0   -0.840000   1.00000
      6026 IM1      80       IM1      DN2      DRUD    -2.249300        0.4000           0   0.00000   0.00000
      6027 IM1      80       IM1      H7       DUMH     0.000000        1.0080           0   0.00000   0.00000
      6028 IM1      80       IM1      LPN21    LPD     -0.474000        0.0000           -1   0.00000   0.00000
      6029 IM1      81       IM1      C1       CD33G    2.390600       11.6110           0   -1.08100   1.00000
      6030 IM1      81       IM1      DC1      DRUD    -2.551600        0.4000           0   0.00000   0.00000
      6031 IM1      81       IM1      H1       HDA3A    0.094000        1.0080           0   0.00000   0.00000
      6032 IM1      81       IM1      H2       HDA3A    0.094000        1.0080           0   0.00000   0.00000
      6033 IM1      81       IM1      H3       HDA3A    0.094000        1.0080           0   0.00000   0.00000
      6034 IM1      81       IM1      N1       ND2R5A   2.670300       13.6070           0   -1.06300   1.30000
      6035 IM1      81       IM1      DN1      DRUD    -2.530300        0.4000           0   0.00000   0.00000
      6036 IM1      81       IM1      C2       CD2R5A   2.511900       11.6110           0   -1.37800   1.30000
      6037 IM1      81       IM1      DC2      DRUD    -2.880900        0.4000           0   0.00000   0.00000
      6038 IM1      81       IM1      H4       HDR5A    0.150000        1.0080           0   0.00000   0.00000
      6039 IM1      81       IM1      C3       CD2R5A   3.068900       11.6110           0   -1.37800   1.30000
      6040 IM1      81       IM1      DC3      DRUD    -2.880900        0.4000           0   0.00000   0.00000
      6041 IM1      81       IM1      H5       HDR5A    0.053000        1.0080           0   0.00000   0.00000
      6042 IM1      81       IM1      C4       CD2R5B   2.404400       11.6110           0   -0.868000   1.30000
      6043 IM1      81       IM1      DC4      DRUD    -2.286400        0.4000           0   0.00000   0.00000
      6044 IM1      81       IM1      H6       HDR5B    0.073000        1.0080           0   0.00000   0.00000
      6045 IM1      81       IM1      N2       ND2R5B   2.249300       13.6070           0   -0.840000   1.00000
      6046 IM1      81       IM1      DN2      DRUD    -2.249300        0.4000           0   0.00000   0.00000
      6047 IM1      81       IM1      H7       DUMH     0.000000        1.0080           0   0.00000   0.00000
      6048 IM1      81       IM1      LPN21    LPD     -0.474000        0.0000           -1   0.00000   0.00000
      6049 IM1      82       IM1      C1       CD33G    2.390600       11.6110           0   -1.08100   1.00000
      6050 IM1      82       IM1      DC1      DRUD    -2.551600        0.4000           0   0.00000   0.00000
      6051 IM1      82       IM1      H1       HDA3A    0.094000        1.0080           0   0.00000   0.00000
      6052 IM1      82       IM1      H2       HDA3A    0.094000        1.0080           0   0.00000   0.00000
      6053 IM1      82       IM1      H3       HDA3A    0.094000        1.0080           0   0.00000   0.00000
      6054 IM1      82       IM1      N1       ND2R5A   2.670300       13.6070           0   -1.06300   1.30000
      6055 IM1      82       IM1      DN1      DRUD    -2.530300        0.4000           0   0.00000   0.00000
      6056 IM1      82       IM1      C2       CD2R5A   2.511900       11.6110           0   -1.37800   1.30000
      6057 IM1      82       IM1      DC2      DRUD    -2.880900        0.4000           0   0.00000   0.00000
      6058 IM1      82       IM1      H4       HDR5A    0.150000        1.0080           0   0.00000   0.00000
      6059 IM1      82       IM1      C3       CD2R5A   3.068900       11.6110           0   -1.37800   1.30000
      6060 IM1      82       IM1      DC3      DRUD    -2.880900        0.4000           0   0.00000   0.00000
      6061 IM1      82       IM1      H5       HDR5A    0.053000        1.0080           0   0.00000   0.00000
      6062 IM1      82       IM1      C4       CD2R5B   2.404400       11.6110           0   -0.868000   1.30000
      6063 IM1      82       IM1      DC4      DRUD    -2.286400        0.4000           0   0.00000   0.00000
      6064 IM1      82       IM1      H6       HDR5B    0.073000        1.0080           0   0.00000   0.00000
      6065 IM1      82       IM1      N2       ND2R5B   2.249300       13.6070           0   -0.840000   1.00000
      6066 IM1      82       IM1      DN2      DRUD    -2.249300        0.4000           0   0.00000   0.00000
      6067 IM1      82       IM1      H7       DUMH     0.000000        1.0080           0   0.00000   0.00000
      6068 IM1      82       IM1      LPN21    LPD     -0.474000        0.0000           -1   0.00000   0.00000
      6069 IM1      83       IM1      C1       CD33G    2.390600       11.6110           0   -1.08100   1.00000
      6070 IM1      83       IM1      DC1      DRUD    -2.551600        0.4000           0   0.00000   0.00000
      6071 IM1      83       IM1      H1       HDA3A    0.094000        1.0080           0   0.00000   0.00000
      6072 IM1      83       IM1      H2       HDA3A    0.094000        1.0080           0   0.00000   0.00000
      6073 IM1      83       IM1      H3       HDA3A    0.094000        1.0080           0   0.00000   0.00000
      6074 IM1      83       IM1      N1       ND2R5A   2.670300       13.6070           0   -1.06300   1.30000
      6075 IM1      83       IM1      DN1      DRUD    -2.530300        0.4000           0   0.00000   0.00000
      6076 IM1      83       IM1      C2       CD2R5A   2.511900       11.6110           0   -1.37800   1.30000
      6077 IM1      83       IM1      DC2      DRUD    -2.880900        0.4000           0   0.00000   0.00000
      6078 IM1      83       IM1      H4       HDR5A    0.150000        1.0080           0   0.00000   0.00000
      6079 IM1      83       IM1      C3       CD2R5A   3.068900       11.6110           0   -1.37800   1.30000
      6080 IM1      83       IM1      DC3      DRUD    -2.880900        0.4000           0   0.00000   0.00000
      6081 IM1      83       IM1      H5       HDR5A    0.053000        1.0080           0   0.00000   0.00000
      6082 IM1      83       IM1      C4       CD2R5B   2.404400       11.6110           0   -0.868000   1.30000
      6083 IM1      83       IM1      DC4      DRUD    -2.286400        0.4000           0   0.00000   0.00000
      6084 IM1      83       IM1      H6       HDR5B    0.073000        1.0080           0   0.00000   0.00000
      6085 IM1      83       IM1      N2       ND2R5B   2.249300       13.6070           0   -0.840000   1.00000
      6086 IM1      83       IM1      DN2      DRUD    -2.249300        0.4000           0   0.00000   0.00000
      6087 IM1      83       IM1      H7       DUMH     0.000000        1.0080           0   0.00000   0.00000
      6088 IM1      83       IM1      LPN21    LPD     -0.474000        0.0000           -1   0.00000   0.00000
      6089 IM1      84       IM1      C1       CD33G    2.390600       11.6110           0   -1.08100   1.00000
      6090 IM1      84       IM1      DC1      DRUD    -2.551600        0.4000           0   0.00000   0.00000
      6091 IM1      84       IM1      H1       HDA3A    0.094000        1.0080           0   0.00000   0.00000
      6092 IM1      84       IM1      H2       HDA3A    0.094000        1.0080           0   0.00000   0.00000
      6093 IM1      84       IM1      H3       HDA3A    0.094000        1.0080           0   0.00000   0.00000
      6094 IM1      84       IM1      N1       ND2R5A   2.670300       13.6070           0   -1.06300   1.30000
      6095 IM1      84       IM1      DN1      DRUD    -2.530300        0.4000           0   0.00000   0.00000
      6096 IM1      84       IM1      C2       CD2R5A   2.511900       11.6110           0   -1.37800   1.30000
      6097 IM1      84       IM1      DC2      DRUD    -2.880900        0.4000           0   0.00000   0.00000
      6098 IM1      84       IM1      H4       HDR5A    0.150000        1.0080           0   0.00000   0.00000
      6099 IM1      84       IM1      C3       CD2R5A   3.068900       11.6110           0   -1.37800   1.30000
      6100 IM1      84       IM1      DC3      DRUD    -2.880900        0.4000           0   0.00000   0.00000
      6101 IM1      84       IM1      H5       HDR5A    0.053000        1.0080           0   0.00000   0.00000
      6102 IM1      84       IM1      C4       CD2R5B   2.404400       11.6110           0   -0.868000   1.30000
      6103 IM1      84       IM1      DC4      DRUD    -2.286400        0.4000           0   0.00000   0.00000
      6104 IM1      84       IM1      H6       HDR5B    0.073000        1.0080           0   0.00000   0.00000
      6105 IM1      84       IM1      N2       ND2R5B   2.249300       13.6070           0   -0.840000   1.00000
      6106 IM1      84       IM1      DN2      DRUD    -2.249300        0.4000           0   0.00000   0.00000
      6107 IM1      84       IM1      H7       DUMH     0.000000        1.0080           0   0.00000   0.00000
      6108 IM1      84       IM1      LPN21    LPD     -0.474000        0.0000           -1   0.00000   0.00000
      6109 IM1      85       IM1      C1       CD33G    2.390600       11.6110           0   -1.08100   1.00000
      6110 IM1      85       IM1      DC1      DRUD    -2.551600        0.4000           0   0.00000   0.00000
      6111 IM1      85       IM1      H1       HDA3A    0.094000        1.0080           0   0.00000   0.00000
      6112 IM1      85       IM1      H2       HDA3A    0.094000        1.0080           0   0.00000   0.00000
      6113 IM1      85       IM1      H3       HDA3A    0.094000        1.0080           0   0.00000   0.00000
      6114 IM1      85       IM1      N1       ND2R5A   2.670300       13.6070           0   -1.06300   1.30000
      6115 IM1      85       IM1      DN1      DRUD    -2.530300        0.4000           0   0.00000   0.00000
      6116 IM1      85       IM1      C2       CD2R5A   2.511900       11.6110           0   -1.37800   1.30000
      6117 IM1      85       IM1      DC2      DRUD    -2.880900        0.4000           0   0.00000   0.00000
      6118 IM1      85       IM1      H4       HDR5A    0.150000        1.0080           0   0.00000   0.00000
      6119 IM1      85       IM1      C3       CD2R5A   3.068900       11.6110           0   -1.37800   1.30000
      6120 IM1      85       IM1      DC3      DRUD    -2.880900        0.4000           0   0.00000   0.00000
      6121 IM1      85       IM1      H5       HDR5A    0.053000        1.0080           0   0.00000   0.00000
      6122 IM1      85       IM1      C4       CD2R5B   2.404400       11.6110           0   -0.868000   1.30000
      6123 IM1      85       IM1      DC4      DRUD    -2.286400        0.4000           0   0.00000   0.00000
      6124 IM1      85       IM1      H6       HDR5B    0.073000        1.0080           0   0.00000   0.00000
      6125 IM1      85       IM1      N2       ND2R5B   2.249300       13.6070           0   -0.840000   1.00000
      6126 IM1      85       IM1      DN2      DRUD    -2.249300        0.4000           0   0.00000   0.00000
      6127 IM1      85       IM1      H7       DUMH     0.000000        1.0080           0   0.00000   0.00000
      6128 IM1      85       IM1      LPN21    LPD     -0.474000        0.0000           -1   0.00000   0.00000
      6129 IM1      86       IM1      C1       CD33G    2.390600       11.6110           0   -1.08100   1.00000
      6130 IM1      86       IM1      DC1      DRUD    -2.551600        0.4000           0   0.00000   0.00000
      6131 IM1      86       IM1      H1       HDA3A    0.094000        1.0080           0   0.00000   0.00000
      6132 IM1      86       IM1      H2       HDA3A    0.094000        1.0080           0   0.00000   0.00000
      6133 IM1      86       IM1      H3       HDA3A    0.094000        1.0080           0   0.00000   0.00000
      6134 IM1      86       IM1      N1       ND2R5A   2.670300       13.6070           0   -1.06300   1.30000
      6135 IM1      86       IM1      DN1      DRUD    -2.530300        0.4000           0   0.00000   0.00000
      6136 IM1      86       IM1      C2       CD2R5A   2.511900       11.6110           0   -1.37800   1.30000
      6137 IM1      86       IM1      DC2      DRUD    -2.880900        0.4000           0   0.00000   0.00000
      6138 IM1      86       IM1      H4       HDR5A    0.150000        1.0080           0   0.00000   0.00000
      6139 IM1      86       IM1      C3       CD2R5A   3.068900       11.6110           0   -1.37800   1.30000
      6140 IM1      86       IM1      DC3      DRUD    -2.880900        0.4000           0   0.00000   0.00000
      6141 IM1      86       IM1      H5       HDR5A    0.053000        1.0080           0   0.00000   0.00000
      6142 IM1      86       IM1      C4       CD2R5B   2.404400       11.6110           0   -0.868000   1.30000
      6143 IM1      86       IM1      DC4      DRUD    -2.286400        0.4000           0   0.00000   0.00000
      6144 IM1      86       IM1      H6       HDR5B    0.073000        1.0080           0   0.00000   0.00000
      6145 IM1      86       IM1      N2       ND2R5B   2.249300       13.6070           0   -0.840000   1.00000
      6146 IM1      86       IM1      DN2      DRUD    -2.249300        0.4000           0   0.00000   0.00000
      6147 IM1      86       IM1      H7       DUMH     0.000000        1.0080           0   0.00000   0.00000
      6148 IM1      86       IM1      LPN21    LPD     -0.474000        0.0000           -1   0.00000   0.00000
      6149 IM1      87       IM1      C1       CD33G    2.390600       11.6110           0   -1.08100   1.00000
      6150 IM1      87       IM1      DC1      DRUD    -2.551600        0.4000           0   0.00000   0.00000
      6151 IM1      87       IM1      H1       HDA3A    0.094000        1.0080           0   0.00000   0.00000
      6152 IM1      87       IM1      H2       HDA3A    0.094000        1.0080           0   0.00000   0.00000
      6153 IM1      87       IM1      H3       HDA3A    0.094000        1.0080           0   0.00000   0.00000
      6154 IM1      87       IM1      N1       ND2R5A   2.670300       13.6070           0   -1.06300   1.30000
      6155 IM1      87       IM1      DN1      DRUD    -2.530300        0.4000           0   0.00000   0.00000
      6156 IM1      87       IM1      C2       CD2R5A   2.511900       11.6110           0   -1.37800   1.30000
      6157 IM1      87       IM1      DC2      DRUD    -2.880900        0.4000           0   0.00000   0.00000
      6158 IM1      87       IM1      H4       HDR5A    0.150000        1.0080           0   0.00000   0.00000
      6159 IM1      87       IM1      C3       CD2R5A   3.068900       11.6110           0   -1.37800   1.30000
      6160 IM1      87       IM1      DC3      DRUD    -2.880900        0.4000           0   0.00000   0.00000
      6161 IM1      87       IM1      H5       HDR5A    0.053000        1.0080           0   0.00000   0.00000
      6162 IM1      87       IM1      C4       CD2R5B   2.404400       11.6110           0   -0.868000   1.30000
      6163 IM1      87       IM1      DC4      DRUD    -2.286400        0.4000           0   0.00000   0.00000
      6164 IM1      87       IM1      H6       HDR5B    0.073000        1.0080           0   0.00000   0.00000
      6165 IM1      87       IM1      N2       ND2R5B   2.249300       13.6070           0   -0.840000   1.00000
      6166 IM1      87       IM1      DN2      DRUD    -2.249300        0.4000           0   0.00000   0.00000
      6167 IM1      87       IM1      H7       DUMH     0.000000        1.0080           0   0.00000   0.00000
      6168 IM1      87       IM1      LPN21    LPD     -0.474000        0.0000           -1   0.00000   0.00000
      6169 IM1      88       IM1      C1       CD33G    2.390600       11.6110           0   -1.08100   1.00000
      6170 IM1      88       IM1      DC1      DRUD    -2.551600        0.4000           0   0.00000   0.00000
      6171 IM1      88       IM1      H1       HDA3A    0.094000        1.0080           0   0.00000   0.00000
      6172 IM1      88       IM1      H2       HDA3A    0.094000        1.0080           0   0.00000   0.00000
      6173 IM1      88       IM1      H3       HDA3A    0.094000        1.0080           0   0.00000   0.00000
      6174 IM1      88       IM1      N1       ND2R5A   2.670300       13.6070           0   -1.06300   1.30000
      6175 IM1      88       IM1      DN1      DRUD    -2.530300        0.4000           0   0.00000   0.00000
      6176 IM1      88       IM1      C2       CD2R5A   2.511900       11.6110           0   -1.37800   1.30000
      6177 IM1      88       IM1      DC2      DRUD    -2.880900        0.4000           0   0.00000   0.00000
      6178 IM1      88       IM1      H4       HDR5A    0.150000        1.0080           0   0.00000   0.00000
      6179 IM1      88       IM1      C3       CD2R5A   3.068900       11.6110           0   -1.37800   1.30000
      6180 IM1      88       IM1      DC3      DRUD    -2.880900        0.4000           0   0.00000   0.00000
      6181 IM1      88       IM1      H5       HDR5A    0.053000        1.0080           0   0.00000   0.00000
      6182 IM1      88       IM1      C4       CD2R5B   2.404400       11.6110           0   -0.868000   1.30000
      6183 IM1      88       IM1      DC4      DRUD    -2.286400        0.4000           0   0.00000   0.00000
      6184 IM1      88       IM1      H6       HDR5B    0.073000        1.0080           0   0.00000   0.00000
      6185 IM1      88       IM1      N2       ND2R5B   2.249300       13.6070           0   -0.840000   1.00000
      6186 IM1      88       IM1      DN2      DRUD    -2.249300        0.4000           0   0.00000   0.00000
      6187 IM1      88       IM1      H7       DUMH     0.000000        1.0080           0   0.00000   0.00000
      6188 IM1      88       IM1      LPN21    LPD     -0.474000        0.0000           -1   0.00000   0.00000
      6189 IM1      89       IM1      C1       CD33G    2.390600       11.6110           0   -1.08100   1.00000
      6190 IM1      89       IM1      DC1      DRUD    -2.551600        0.4000           0   0.00000   0.00000
      6191 IM1      89       IM1      H1       HDA3A    0.094000        1.0080           0   0.00000   0.00000
      6192 IM1      89       IM1      H2       HDA3A    0.094000        1.0080           0   0.00000   0.00000
      6193 IM1      89       IM1      H3       HDA3A    0.094000        1.0080           0   0.00000   0.00000
      6194 IM1      89       IM1      N1       ND2R5A   2.670300       13.6070           0   -1.06300   1.30000
      6195 IM1      89       IM1      DN1      DRUD    -2.530300        0.4000           0   0.00000   0.00000
      6196 IM1      89       IM1      C2       CD2R5A   2.511900       11.6110           0   -1.37800   1.30000
      6197 IM1      89       IM1      DC2      DRUD    -2.880900        0.4000           0   0.00000   0.00000
      6198 IM1      89       IM1      H4       HDR5A    0.150000        1.0080           0   0.00000   0.00000
      6199 IM1      89       IM1      C3       CD2R5A   3.068900       11.6110           0   -1.37800   1.30000
      6200 IM1      89       IM1      DC3      DRUD    -2.880900        0.4000           0   0.00000   0.00000
      6201 IM1      89       IM1      H5       HDR5A    0.053000        1.0080           0   0.00000   0.00000
      6202 IM1      89       IM1      C4       CD2R5B   2.404400       11.6110           0   -0.868000   1.30000
      6203 IM1      89       IM1      DC4      DRUD    -2.286400        0.4000           0   0.00000   0.00000
      6204 IM1      89       IM1      H6       HDR5B    0.073000        1.0080           0   0.00000   0.00000
      6205 IM1      89       IM1      N2       ND2R5B   2.249300       13.6070           0   -0.840000   1.00000
      6206 IM1      89       IM1      DN2      DRUD    -2.249300        0.4000           0   0.00000   0.00000
      6207 IM1      89       IM1      H7       DUMH     0.000000        1.0080           0   0.00000   0.00000
      6208 IM1      89       IM1      LPN21    LPD     -0.474000        0.0000           -1   0.00000   0.00000
      6209 IM1      90       IM1      C1       CD33G    2.390600       11.6110           0   -1.08100   1.00000
      6210 IM1      90       IM1      DC1      DRUD    -2.551600        0.4000           0   0.00000   0.00000
      6211 IM1      90       IM1      H1       HDA3A    0.094000        1.0080           0   0.00000   0.00000
      6212 IM1      90       IM1      H2       HDA3A    0.094000        1.0080           0   0.00000   0.00000
      6213 IM1      90       IM1      H3       HDA3A    0.094000        1.0080           0   0.00000   0.00000
      6214 IM1      90       IM1      N1       ND2R5A   2.670300       13.6070           0   -1.06300   1.30000
      6215 IM1      90       IM1      DN1      DRUD    -2.530300        0.4000           0   0.00000   0.00000
      6216 IM1      90       IM1      C2       CD2R5A   2.511900       11.6110           0   -1.37800   1.30000
      6217 IM1      90       IM1      DC2      DRUD    -2.880900        0.4000           0   0.00000   0.00000
      6218 IM1      90       IM1      H4       HDR5A    0.150000        1.0080           0   0.00000   0.00000
      6219 IM1      90       IM1      C3       CD2R5A   3.068900       11.6110           0   -1.37800   1.30000
      6220 IM1      90       IM1      DC3      DRUD    -2.880900        0.4000           0   0.00000   0.00000
      6221 IM1      90       IM1      H5       HDR5A    0.053000        1.0080           0   0.00000   0.00000
      6222 IM1      90       IM1      C4       CD2R5B   2.404400       11.6110           0   -0.868000   1.30000
      6223 IM1      90       IM1      DC4      DRUD    -2.286400        0.4000           0   0.00000   0.00000
      6224 IM1      90       IM1      H6       HDR5B    0.073000        1.0080           0   0.00000   0.00000
      6225 IM1      90       IM1      N2       ND2R5B   2.249300       13.6070           0   -0.840000   1.00000
      6226 IM1      90       IM1      DN2      DRUD    -2.249300        0.4000           0   0.00000   0.00000
      6227 IM1      90       IM1      H7       DUMH     0.000000        1.0080           0   0.00000   0.00000
      6228 IM1      90       IM1      LPN21    LPD     -0.474000        0.0000           -1   0.00000   0.00000
      6229 IM1      91       IM1      C1       CD33G    2.390600       11.6110           0   -1.08100   1.00000
      6230 IM1      91       IM1      DC1      DRUD    -2.551600        0.4000           0   0.00000   0.00000
      6231 IM1      91       IM1      H1       HDA3A    0.094000        1.0080           0   0.00000   0.00000
      6232 IM1      91       IM1      H2       HDA3A    0.094000        1.0080           0   0.00000   0.00000
      6233 IM1      91       IM1      H3       HDA3A    0.094000        1.0080           0   0.00000   0.00000
      6234 IM1      91       IM1      N1       ND2R5A   2.670300       13.6070           0   -1.06300   1.30000
      6235 IM1      91       IM1      DN1      DRUD    -2.530300        0.4000           0   0.00000   0.00000
      6236 IM1      91       IM1      C2       CD2R5A   2.511900       11.6110           0   -1.37800   1.30000
      6237 IM1      91       IM1      DC2      DRUD    -2.880900        0.4000           0   0.00000   0.00000
      6238 IM1      91       IM1      H4       HDR5A    0.150000        1.0080           0   0.00000   0.00000
      6239 IM1      91       IM1      C3       CD2R5A   3.068900       11.6110           0   -1.37800   1.30000
      6240 IM1      91       IM1      DC3      DRUD    -2.880900        0.4000           0   0.00000   0.00000
      6241 IM1      91       IM1      H5       HDR5A    0.053000        1.0080           0   0.00000   0.00000
      6242 IM1      91       IM1      C4       CD2R5B   2.404400       11.6110           0   -0.868000   1.30000
      6243 IM1      91       IM1      DC4      DRUD    -2.286400        0.4000           0   0.00000   0.00000
      6244 IM1      91       IM1      H6       HDR5B    0.073000        1.0080           0   0.00000   0.00000
      6245 IM1      91       IM1      N2       ND2R5B   2.249300       13.6070           0   -0.840000   1.00000
      6246 IM1      91       IM1      DN2      DRUD    -2.249300        0.4000           0   0.00000   0.00000
      6247 IM1      91       IM1      H7       DUMH     0.000000        1.0080           0   0.00000   0.00000
      6248 IM1      91       IM1      LPN21    LPD     -0.474000        0.0000           -1   0.00000   0.00000
      6249 IM1      92       IM1      C1       CD33G    2.390600       11.6110           0   -1.08100   1.00000
      6250 IM1      92       IM1      DC1      DRUD    -2.551600        0.4000           0   0.00000   0.00000
      6251 IM1      92       IM1      H1       HDA3A    0.094000        1.0080           0   0.00000   0.00000
      6252 IM1      92       IM1      H2       HDA3A    0.094000        1.0080           0   0.00000   0.00000
      6253 IM1      92       IM1      H3       HDA3A    0.094000        1.0080           0   0.00000   0.00000
      6254 IM1      92       IM1      N1       ND2R5A   2.670300       13.6070           0   -1.06300   1.30000
      6255 IM1      92       IM1      DN1      DRUD    -2.530300        0.4000           0   0.00000   0.00000
      6256 IM1      92       IM1      C2       CD2R5A   2.511900       11.6110           0   -1.37800   1.30000
      6257 IM1      92       IM1      DC2      DRUD    -2.880900        0.4000           0   0.00000   0.00000
      6258 IM1      92       IM1      H4       HDR5A    0.150000        1.0080           0   0.00000   0.00000
      6259 IM1      92       IM1      C3       CD2R5A   3.068900       11.6110           0   -1.37800   1.30000
      6260 IM1      92       IM1      DC3      DRUD    -2.880900        0.4000           0   0.00000   0.00000
      6261 IM1      92       IM1      H5       HDR5A    0.053000        1.0080           0   0.00000   0.00000
      6262 IM1      92       IM1      C4       CD2R5B   2.404400       11.6110           0   -0.868000   1.30000
      6263 IM1      92       IM1      DC4      DRUD    -2.286400        0.4000           0   0.00000   0.00000
      6264 IM1      92       IM1      H6       HDR5B    0.073000        1.0080           0   0.00000   0.00000
      6265 IM1      92       IM1      N2       ND2R5B   2.249300       13.6070           0   -0.840000   1.00000
      6266 IM1      92       IM1      DN2      DRUD    -2.249300        0.4000           0   0.00000   0.00000
      6267 IM1      92       IM1      H7       DUMH     0.000000        1.0080           0   0.00000   0.00000
      6268 IM1      92       IM1      LPN21    LPD     -0.474000        0.0000           -1   0.00000   0.00000
      6269 IM1      93       IM1      C1       CD33G    2.390600       11.6110           0   -1.08100   1.00000
      6270 IM1      93       IM1      DC1      DRUD    -2.551600        0.4000           0   0.00000   0.00000
      6271 IM1      93       IM1      H1       HDA3A    0.094000        1.0080           0   0.00000   0.00000
      6272 IM1      93       IM1      H2       HDA3A    0.094000        1.0080           0   0.00000   0.00000
      6273 IM1      93       IM1      H3       HDA3A    0.094000        1.0080           0   0.00000   0.00000
      6274 IM1      93       IM1      N1       ND2R5A   2.670300       13.6070           0   -1.06300   1.30000
      6275 IM1      93       IM1      DN1      DRUD    -2.530300        0.4000           0   0.00000   0.00000
      6276 IM1      93       IM1      C2       CD2R5A   2.511900       11.6110           0   -1.37800   1.30000
      6277 IM1      93       IM1      DC2      DRUD    -2.880900        0.4000           0   0.00000   0.00000
      6278 IM1      93       IM1      H4       HDR5A    0.150000        1.0080           0   0.00000   0.00000
      6279 IM1      93       IM1      C3       CD2R5A   3.068900       11.6110           0   -1.37800   1.30000
      6280 IM1      93       IM1      DC3      DRUD    -2.880900        0.4000           0   0.00000   0.00000
      6281 IM1      93       IM1      H5       HDR5A    0.053000        1.0080           0   0.00000   0.00000
      6282 IM1      93       IM1      C4       CD2R5B   2.404400       11.6110           0   -0.868000   1.30000
      6283 IM1      93       IM1      DC4      DRUD    -2.286400        0.4000           0   0.00000   0.00000
      6284 IM1      93       IM1      H6       HDR5B    0.073000        1.0080           0   0.00000   0.00000
      6285 IM1      93       IM1      N2       ND2R5B   2.249300       13.6070           0   -0.840000   1.00000
      6286 IM1      93       IM1      DN2      DRUD    -2.249300        0.4000           0   0.00000   0.00000
      6287 IM1      93       IM1      H7       DUMH     0.000000        1.0080           0   0.00000   0.00000
      6288 IM1      93       IM1      LPN21    LPD     -0.474000        0.0000           -1   0.00000   0.00000
      6289 IM1      94       IM1      C1       CD33G    2.390600       11.6110           0   -1.08100   1.00000
      6290 IM1      94       IM1      DC1      DRUD    -2.551600        0.4000           0   0.00000   0.00000
      6291 IM1      94       IM1      H1       HDA3A    0.094000        1.0080           0   0.00000   0.00000
      6292 IM1      94       IM1      H2       HDA3A    0.094000        1.0080           0   0.00000   0.00000
      6293 IM1      94       IM1      H3       HDA3A    0.094000        1.0080           0   0.00000   0.00000
      6294 IM1      94       IM1      N1       ND2R5A   2.670300       13.6070           0   -1.06300   1.30000
      6295 IM1      94       IM1      DN1      DRUD    -2.530300        0.4000           0   0.00000   0.00000
      6296 IM1      94       IM1      C2       CD2R5A   2.511900       11.6110           0   -1.37800   1.30000
      6297 IM1      94       IM1      DC2      DRUD    -2.880900        0.4000           0   0.00000   0.00000
      6298 IM1      94       IM1      H4       HDR5A    0.150000        1.0080           0   0.00000   0.00000
      6299 IM1      94       IM1      C3       CD2R5A   3.068900       11.6110           0   -1.37800   1.30000
      6300 IM1      94       IM1      DC3      DRUD    -2.880900        0.4000           0   0.00000   0.00000
      6301 IM1      94       IM1      H5       HDR5A    0.053000        1.0080           0   0.00000   0.00000
      6302 IM1      94       IM1      C4       CD2R5B   2.404400       11.6110           0   -0.868000   1.30000
      6303 IM1      94       IM1      DC4      DRUD    -2.286400        0.4000           0   0.00000   0.00000
      6304 IM1      94       IM1      H6       HDR5B    0.073000        1.0080           0   0.00000   0.00000
      6305 IM1      94       IM1      N2       ND2R5B   2.249300       13.6070           0   -0.840000   1.00000
      6306 IM1      94       IM1      DN2      DRUD    -2.249300        0.4000           0   0.00000   0.00000
      6307 IM1      94       IM1      H7       DUMH     0.000000        1.0080           0   0.00000   0.00000
      6308 IM1      94       IM1      LPN21    LPD     -0.474000        0.0000           -1   0.00000   0.00000
      6309 IM1      95       IM1      C1       CD33G    2.390600       11.6110           0   -1.08100   1.00000
      6310 IM1      95       IM1      DC1      DRUD    -2.551600        0.4000           0   0.00000   0.00000
      6311 IM1      95       IM1      H1       HDA3A    0.094000        1.0080           0   0.00000   0.00000
      6312 IM1      95       IM1      H2       HDA3A    0.094000        1.0080           0   0.00000   0.00000
      6313 IM1      95       IM1      H3       HDA3A    0.094000        1.0080           0   0.00000   0.00000
      6314 IM1      95       IM1      N1       ND2R5A   2.670300       13.6070           0   -1.06300   1.30000
      6315 IM1      95       IM1      DN1      DRUD    -2.530300        0.4000           0   0.00000   0.00000
      6316 IM1      95       IM1      C2       CD2R5A   2.511900       11.6110           0   -1.37800   1.30000
      6317 IM1      95       IM1      DC2      DRUD    -2.880900        0.4000           0   0.00000   0.00000
      6318 IM1      95       IM1      H4       HDR5A    0.150000        1.0080           0   0.00000   0.00000
      6319 IM1      95       IM1      C3       CD2R5A   3.068900       11.6110           0   -1.37800   1.30000
      6320 IM1      95       IM1      DC3      DRUD    -2.880900        0.4000           0   0.00000   0.00000
      6321 IM1      95       IM1      H5       HDR5A    0.053000        1.0080           0   0.00000   0.00000
      6322 IM1      95       IM1      C4       CD2R5B   2.404400       11.6110           0   -0.868000   1.30000
      6323 IM1      95       IM1      DC4      DRUD    -2.286400        0.4000           0   0.00000   0.00000
      6324 IM1      95       IM1      H6       HDR5B    0.073000        1.0080           0   0.00000   0.00000
      6325 IM1      95       IM1      N2       ND2R5B   2.249300       13.6070           0   -0.840000   1.00000
      6326 IM1      95       IM1      DN2      DRUD    -2.249300        0.4000           0   0.00000   0.00000
      6327 IM1      95       IM1      H7       DUMH     0.000000        1.0080           0   0.00000   0.00000
      6328 IM1      95       IM1      LPN21    LPD     -0.474000        0.0000           -1   0.00000   0.00000
      6329 IM1      96       IM1      C1       CD33G    2.390600       11.6110           0   -1.08100   1.00000
      6330 IM1      96       IM1      DC1      DRUD    -2.551600        0.4000           0   0.00000   0.00000
      6331 IM1      96       IM1      H1       HDA3A    0.094000        1.0080           0   0.00000   0.00000
      6332 IM1      96       IM1      H2       HDA3A    0.094000        1.0080           0   0.00000   0.00000
      6333 IM1      96       IM1      H3       HDA3A    0.094000        1.0080           0   0.00000   0.00000
      6334 IM1      96       IM1      N1       ND2R5A   2.670300       13.6070           0   -1.06300   1.30000
      6335 IM1      96       IM1      DN1      DRUD    -2.530300        0.4000           0   0.00000   0.00000
      6336 IM1      96       IM1      C2       CD2R5A   2.511900       11.6110           0   -1.37800   1.30000
      6337 IM1      96       IM1      DC2      DRUD    -2.880900        0.4000           0   0.00000   0.00000
      6338 IM1      96       IM1      H4       HDR5A    0.150000        1.0080           0   0.00000   0.00000
      6339 IM1      96       IM1      C3       CD2R5A   3.068900       11.6110           0   -1.37800   1.30000
      6340 IM1      96       IM1      DC3      DRUD    -2.880900        0.4000           0   0.00000   0.00000
      6341 IM1      96       IM1      H5       HDR5A    0.053000        1.0080           0   0.00000   0.00000
      6342 IM1      96       IM1      C4       CD2R5B   2.404400       11.6110           0   -0.868000   1.30000
      6343 IM1      96       IM1      DC4      DRUD    -2.286400        0.4000           0   0.00000   0.00000
      6344 IM1      96       IM1      H6       HDR5B    0.073000        1.0080           0   0.00000   0.00000
      6345 IM1      96       IM1      N2       ND2R5B   2.249300       13.6070           0   -0.840000   1.00000
      6346 IM1      96       IM1      DN2      DRUD    -2.249300        0.4000           0   0.00000   0.00000
      6347 IM1      96       IM1      H7       DUMH     0.000000        1.0080           0   0.00000   0.00000
      6348 IM1      96       IM1      LPN21    LPD     -0.474000        0.0000           -1   0.00000   0.00000
      6349 IM1      97       IM1      C1       CD33G    2.390600       11.6110           0   -1.08100   1.00000
      6350 IM1      97       IM1      DC1      DRUD    -2.551600        0.4000           0   0.00000   0.00000
      6351 IM1      97       IM1      H1       HDA3A    0.094000        1.0080           0   0.00000   0.00000
      6352 IM1      97       IM1      H2       HDA3A    0.094000        1.0080           0   0.00000   0.00000
      6353 IM1      97       IM1      H3       HDA3A    0.094000        1.0080           0   0.00000   0.00000
      6354 IM1      97       IM1      N1       ND2R5A   2.670300       13.6070           0   -1.06300   1.30000
      6355 IM1      97       IM1      DN1      DRUD    -2.530300        0.4000           0   0.00000   0.00000
      6356 IM1      97       IM1      C2       CD2R5A   2.511900       11.6110           0   -1.37800   1.30000
      6357 IM1      97       IM1      DC2      DRUD    -2.880900        0.4000           0   0.00000   0.00000
      6358 IM1      97       IM1      H4       HDR5A    0.150000        1.0080           0   0.00000   0.00000
      6359 IM1      97       IM1      C3       CD2R5A   3.068900       11.6110           0   -1.37800   1.30000
      6360 IM1      97       IM1      DC3      DRUD    -2.880900        0.4000           0   0.00000   0.00000
      6361 IM1      97       IM1      H5       HDR5A    0.053000        1.0080           0   0.00000   0.00000
      6362 IM1      97       IM1      C4       CD2R5B   2.404400       11.6110           0   -0.868000   1.30000
      6363 IM1      97       IM1      DC4      DRUD    -2.286400        0.4000           0   0.00000   0.00000
      6364 IM1      97       IM1      H6       HDR5B    0.073000        1.0080           0   0.00000   0.00000
      6365 IM1      97       IM1      N2       ND2R5B   2.249300       13.6070           0   -0.840000   1.00000
      6366 IM1      97       IM1      DN2      DRUD    -2.249300        0.4000           0   0.00000   0.00000
      6367 IM1      97       IM1      H7       DUMH     0.000000        1.0080           0   0.00000   0.00000
      6368 IM1      97       IM1      LPN21    LPD     -0.474000        0.0000           -1   0.00000   0.00000
      6369 IM1      98       IM1      C1       CD33G    2.390600       11.6110           0   -1.08100   1.00000
      6370 IM1      98       IM1      DC1      DRUD    -2.551600        0.4000           0   0.00000   0.00000
      6371 IM1      98       IM1      H1       HDA3A    0.094000        1.0080           0   0.00000   0.00000
      6372 IM1      98       IM1      H2       HDA3A    0.094000        1.0080           0   0.00000   0.00000
      6373 IM1      98       IM1      H3       HDA3A    0.094000        1.0080           0   0.00000   0.00000
      6374 IM1      98       IM1      N1       ND2R5A   2.670300       13.6070           0   -1.06300   1.30000
      6375 IM1      98       IM1      DN1      DRUD    -2.530300        0.4000           0   0.00000   0.00000
      6376 IM1      98       IM1      C2       CD2R5A   2.511900       11.6110           0   -1.37800   1.30000
      6377 IM1      98       IM1      DC2      DRUD    -2.880900        0.4000           0   0.00000   0.00000
      6378 IM1      98       IM1      H4       HDR5A    0.150000        1.0080           0   0.00000   0.00000
      6379 IM1      98       IM1      C3       CD2R5A   3.068900       11.6110           0   -1.37800   1.30000
      6380 IM1      98       IM1      DC3      DRUD    -2.880900        0.4000           0   0.00000   0.00000
      6381 IM1      98       IM1      H5       HDR5A    0.053000        1.0080           0   0.00000   0.00000
      6382 IM1      98       IM1      C4       CD2R5B   2.404400       11.6110           0   -0.868000   1.30000
      6383 IM1      98       IM1      DC4      DRUD    -2.286400        0.4000           0   0.00000   0.00000
      6384 IM1      98       IM1      H6       HDR5B    0.073000        1.0080           0   0.00000   0.00000
      6385 IM1      98       IM1      N2       ND2R5B   2.249300       13.6070           0   -0.840000   1.00000
      6386 IM1      98       IM1      DN2      DRUD    -2.249300        0.4000           0   0.00000   0.00000
      6387 IM1      98       IM1      H7       DUMH     0.000000        1.0080           0   0.00000   0.00000
      6388 IM1      98       IM1      LPN21    LPD     -0.474000        0.0000           -1   0.00000   0.00000
      6389 IM1      99       IM1      C1       CD33G    2.390600       11.6110           0   -1.08100   1.00000
      6390 IM1      99       IM1      DC1      DRUD    -2.551600        0.4000           0   0.00000   0.00000
      6391 IM1      99       IM1      H1       HDA3A    0.094000        1.0080           0   0.00000   0.00000
      6392 IM1      99       IM1      H2       HDA3A    0.094000        1.0080           0   0.00000   0.00000
      6393 IM1      99       IM1      H3       HDA3A    0.094000        1.0080           0   0.00000   0.00000
      6394 IM1      99       IM1      N1       ND2R5A   2.670300       13.6070           0   -1.06300   1.30000
      6395 IM1      99       IM1      DN1      DRUD    -2.530300        0.4000           0   0.00000   0.00000
      6396 IM1      99       IM1      C2       CD2R5A   2.511900       11.6110           0   -1.37800   1.30000
      6397 IM1      99       IM1      DC2      DRUD    -2.880900        0.4000           0   0.00000   0.00000
      6398 IM1      99       IM1      H4       HDR5A    0.150000        1.0080           0   0.00000   0.00000
      6399 IM1      99       IM1      C3       CD2R5A   3.068900       11.6110           0   -1.37800   1.30000
      6400 IM1      99       IM1      DC3      DRUD    -2.880900        0.4000           0   0.00000   0.00000
      6401 IM1      99       IM1      H5       HDR5A    0.053000        1.0080           0   0.00000   0.00000
      6402 IM1      99       IM1      C4       CD2R5B   2.404400       11.6110           0   -0.868000   1.30000
      6403 IM1      99       IM1      DC4      DRUD    -2.286400        0.4000           0   0.00000   0.00000
      6404 IM1      99       IM1      H6       HDR5B    0.073000        1.0080           0   0.00000   0.00000
      6405 IM1      99       IM1      N2       ND2R5B   2.249300       13.6070           0   -0.840000   1.00000
      6406 IM1      99       IM1      DN2      DRUD    -2.249300        0.4000           0   0.00000   0.00000
      6407 IM1      99       IM1      H7       DUMH     0.000000        1.0080           0   0.00000   0.00000
      6408 IM1      99       IM1      LPN21    LPD     -0.474000        0.0000           -1   0.00000   0.00000
      6409 IM1      100      IM1      C1       CD33G    2.390600       11.6110           0   -1.08100   1.00000
      6410 IM1      100      IM1      DC1      DRUD    -2.551600        0.4000           0   0.00000   0.00000
      6411 IM1      100      IM1      H1       HDA3A    0.094000        1.0080           0   0.00000   0.00000
      6412 IM1      100      IM1      H2       HDA3A    0.094000        1.0080           0   0.00000   0.00000
      6413 IM1      100      IM1      H3       HDA3A    0.094000        1.0080           0   0.00000   0.00000
      6414 IM1      100      IM1      N1       ND2R5A   2.670300       13.6070           0   -1.06300   1.30000
      6415 IM1      100      IM1      DN1      DRUD    -2.530300        0.4000           0   0.00000   0.00000
      6416 IM1      100      IM1      C2       CD2R5A   2.511900       11.6110           0   -1.37800   1.30000
      6417 IM1      100      IM1      DC2      DRUD    -2.880900        0.4000           0   0.00000   0.00000
      6418 IM1      100      IM1      H4       HDR5A    0.150000        1.0080           0   0.00000   0.00000
      6419 IM1      100      IM1      C3       CD2R5A   3.068900       11.6110           0   -1.37800   1.30000
      6420 IM1      100      IM1      DC3      DRUD    -2.880900        0.4000           0   0.00000   0.00000
      6421 IM1      100      IM1      H5       HDR5A    0.053000        1.0080           0   0.00000   0.00000
      6422 IM1      100      IM1      C4       CD2R5B   2.404400       11.6110           0   -0.868000   1.30000
      6423 IM1      100      IM1      DC4      DRUD    -2.286400        0.4000           0   0.00000   0.00000
      6424 IM1      100      IM1      H6       HDR5B    0.073000        1.0080           0   0.00000   0.00000
      6425 IM1      100      IM1      N2       ND2R5B   2.249300       13.6070           0   -0.840000   1.00000
      6426 IM1      100      IM1      DN2      DRUD    -2.249300        0.4000           0   0.00000   0.00000
      6427 IM1      100      IM1      H7       DUMH     0.000000        1.0080           0   0.00000   0.00000
      6428 IM1      100      IM1      LPN21    LPD     -0.474000        0.0000           -1   0.00000   0.00000
      6429 IM1      101      IM1      C1       CD33G    2.390600       11.6110           0   -1.08100   1.00000
      6430 IM1      101      IM1      DC1      DRUD    -2.551600        0.4000           0   0.00000   0.00000
      6431 IM1      101      IM1      H1       HDA3A    0.094000        1.0080           0   0.00000   0.00000
      6432 IM1      101      IM1      H2       HDA3A    0.094000        1.0080           0   0.00000   0.00000
      6433 IM1      101      IM1      H3       HDA3A    0.094000        1.0080           0   0.00000   0.00000
      6434 IM1      101      IM1      N1       ND2R5A   2.670300       13.6070           0   -1.06300   1.30000
      6435 IM1      101      IM1      DN1      DRUD    -2.530300        0.4000           0   0.00000   0.00000
      6436 IM1      101      IM1      C2       CD2R5A   2.511900       11.6110           0   -1.37800   1.30000
      6437 IM1      101      IM1      DC2      DRUD    -2.880900        0.4000           0   0.00000   0.00000
      6438 IM1      101      IM1      H4       HDR5A    0.150000        1.0080           0   0.00000   0.00000
      6439 IM1      101      IM1      C3       CD2R5A   3.068900       11.6110           0   -1.37800   1.30000
      6440 IM1      101      IM1      DC3      DRUD    -2.880900        0.4000           0   0.00000   0.00000
      6441 IM1      101      IM1      H5       HDR5A    0.053000        1.0080           0   0.00000   0.00000
      6442 IM1      101      IM1      C4       CD2R5B   2.404400       11.6110           0   -0.868000   1.30000
      6443 IM1      101      IM1      DC4      DRUD    -2.286400        0.4000           0   0.00000   0.00000
      6444 IM1      101      IM1      H6       HDR5B    0.073000        1.0080           0   0.00000   0.00000
      6445 IM1      101      IM1      N2       ND2R5B   2.249300       13.6070           0   -0.840000   1.00000
      6446 IM1      101      IM1      DN2      DRUD    -2.249300        0.4000           0   0.00000   0.00000
      6447 IM1      101      IM1      H7       DUMH     0.000000        1.0080           0   0.00000   0.00000
      6448 IM1      101      IM1      LPN21    LPD     -0.474000        0.0000           -1   0.00000   0.00000
      6449 IM1      102      IM1      C1       CD33G    2.390600       11.6110           0   -1.08100   1.00000
      6450 IM1      102      IM1      DC1      DRUD    -2.551600        0.4000           0   0.00000   0.00000
      6451 IM1      102      IM1      H1       HDA3A    0.094000        1.0080           0   0.00000   0.00000
      6452 IM1      102      IM1      H2       HDA3A    0.094000        1.0080           0   0.00000   0.00000
      6453 IM1      102      IM1      H3       HDA3A    0.094000        1.0080           0   0.00000   0.00000
      6454 IM1      102      IM1      N1       ND2R5A   2.670300       13.6070           0   -1.06300   1.30000
      6455 IM1      102      IM1      DN1      DRUD    -2.530300        0.4000           0   0.00000   0.00000
      6456 IM1      102      IM1      C2       CD2R5A   2.511900       11.6110           0   -1.37800   1.30000
      6457 IM1      102      IM1      DC2      DRUD    -2.880900        0.4000           0   0.00000   0.00000
      6458 IM1      102      IM1      H4       HDR5A    0.150000        1.0080           0   0.00000   0.00000
      6459 IM1      102      IM1      C3       CD2R5A   3.068900       11.6110           0   -1.37800   1.30000
      6460 IM1      102      IM1      DC3      DRUD    -2.880900        0.4000           0   0.00000   0.00000
      6461 IM1      102      IM1      H5       HDR5A    0.053000        1.0080           0   0.00000   0.00000
      6462 IM1      102      IM1      C4       CD2R5B   2.404400       11.6110           0   -0.868000   1.30000
      6463 IM1      102      IM1      DC4      DRUD    -2.286400        0.4000           0   0.00000   0.00000
      6464 IM1      102      IM1      H6       HDR5B    0.073000        1.0080           0   0.00000   0.00000
      6465 IM1      102      IM1      N2       ND2R5B   2.249300       13.6070           0   -0.840000   1.00000
      6466 IM1      102      IM1      DN2      DRUD    -2.249300        0.4000           0   0.00000   0.00000
      6467 IM1      102      IM1      H7       DUMH     0.000000        1.0080           0   0.00000   0.00000
      6468 IM1      102      IM1      LPN21    LPD     -0.474000        0.0000           -1   0.00000   0.00000
      6469 IM1      103      IM1      C1       CD33G    2.390600       11.6110           0   -1.08100   1.00000
      6470 IM1      103      IM1      DC1      DRUD    -2.551600        0.4000           0   0.00000   0.00000
      6471 IM1      103      IM1      H1       HDA3A    0.094000        1.0080           0   0.00000   0.00000
      6472 IM1      103      IM1      H2       HDA3A    0.094000        1.0080           0   0.00000   0.00000
      6473 IM1      103      IM1      H3       HDA3A    0.094000        1.0080           0   0.00000   0.00000
      6474 IM1      103      IM1      N1       ND2R5A   2.670300       13.6070           0   -1.06300   1.30000
      6475 IM1      103      IM1      DN1      DRUD    -2.530300        0.4000           0   0.00000   0.00000
      6476 IM1      103      IM1      C2       CD2R5A   2.511900       11.6110           0   -1.37800   1.30000
      6477 IM1      103      IM1      DC2      DRUD    -2.880900        0.4000           0   0.00000   0.00000
      6478 IM1      103      IM1      H4       HDR5A    0.150000        1.0080           0   0.00000   0.00000
      6479 IM1      103      IM1      C3       CD2R5A   3.068900       11.6110           0   -1.37800   1.30000
      6480 IM1      103      IM1      DC3      DRUD    -2.880900        0.4000           0   0.00000   0.00000
      6481 IM1      103      IM1      H5       HDR5A    0.053000        1.0080           0   0.00000   0.00000
      6482 IM1      103      IM1      C4       CD2R5B   2.404400       11.6110           0   -0.868000   1.30000
      6483 IM1      103      IM1      DC4      DRUD    -2.286400        0.4000           0   0.00000   0.00000
      6484 IM1      103      IM1      H6       HDR5B    0.073000        1.0080           0   0.00000   0.00000
      6485 IM1      103      IM1      N2       ND2R5B   2.249300       13.6070           0   -0.840000   1.00000
      6486 IM1      103      IM1      DN2      DRUD    -2.249300        0.4000           0   0.00000   0.00000
      6487 IM1      103      IM1      H7       DUMH     0.000000        1.0080           0   0.00000   0.00000
      6488 IM1      103      IM1      LPN21    LPD     -0.474000        0.0000           -1   0.00000   0.00000
      6489 IM1      104      IM1      C1       CD33G    2.390600       11.6110           0   -1.08100   1.00000
      6490 IM1      104      IM1      DC1      DRUD    -2.551600        0.4000           0   0.00000   0.00000
      6491 IM1      104      IM1      H1       HDA3A    0.094000        1.0080           0   0.00000   0.00000
      6492 IM1      104      IM1      H2       HDA3A    0.094000        1.0080           0   0.00000   0.00000
      6493 IM1      104      IM1      H3       HDA3A    0.094000        1.0080           0   0.00000   0.00000
      6494 IM1      104      IM1      N1       ND2R5A   2.670300       13.6070           0   -1.06300   1.30000
      6495 IM1      104      IM1      DN1      DRUD    -2.530300        0.4000           0   0.00000   0.00000
      6496 IM1      104      IM1      C2       CD2R5A   2.511900       11.6110           0   -1.37800   1.30000
      6497 IM1      104      IM1      DC2      DRUD    -2.880900        0.4000           0   0.00000   0.00000
      6498 IM1      104      IM1      H4       HDR5A    0.150000        1.0080           0   0.00000   0.00000
      6499 IM1      104      IM1      C3       CD2R5A   3.068900       11.6110           0   -1.37800   1.30000
      6500 IM1      104      IM1      DC3      DRUD    -2.880900        0.4000           0   0.00000   0.00000
      6501 IM1      104      IM1      H5       HDR5A    0.053000        1.0080           0   0.00000   0.00000
      6502 IM1      104      IM1      C4       CD2R5B   2.404400       11.6110           0   -0.868000   1.30000
      6503 IM1      104      IM1      DC4      DRUD    -2.286400        0.4000           0   0.00000   0.00000
      6504 IM1      104      IM1      H6       HDR5B    0.073000        1.0080           0   0.00000   0.00000
      6505 IM1      104      IM1      N2       ND2R5B   2.249300       13.6070           0   -0.840000   1.00000
      6506 IM1      104      IM1      DN2      DRUD    -2.249300        0.4000           0   0.00000   0.00000
      6507 IM1      104      IM1      H7       DUMH     0.000000        1.0080           0   0.00000   0.00000
      6508 IM1      104      IM1      LPN21    LPD     -0.474000        0.0000           -1   0.00000   0.00000
      6509 IM1      105      IM1      C1       CD33G    2.390600       11.6110           0   -1.08100   1.00000
      6510 IM1      105      IM1      DC1      DRUD    -2.551600        0.4000           0   0.00000   0.00000
      6511 IM1      105      IM1      H1       HDA3A    0.094000        1.0080           0   0.00000   0.00000
      6512 IM1      105      IM1      H2       HDA3A    0.094000        1.0080           0   0.00000   0.00000
      6513 IM1      105      IM1      H3       HDA3A    0.094000        1.0080           0   0.00000   0.00000
      6514 IM1      105      IM1      N1       ND2R5A   2.670300       13.6070           0   -1.06300   1.30000
      6515 IM1      105      IM1      DN1      DRUD    -2.530300        0.4000           0   0.00000   0.00000
      6516 IM1      105      IM1      C2       CD2R5A   2.511900       11.6110           0   -1.37800   1.30000
      6517 IM1      105      IM1      DC2      DRUD    -2.880900        0.4000           0   0.00000   0.00000
      6518 IM1      105      IM1      H4       HDR5A    0.150000        1.0080           0   0.00000   0.00000
      6519 IM1      105      IM1      C3       CD2R5A   3.068900       11.6110           0   -1.37800   1.30000
      6520 IM1      105      IM1      DC3      DRUD    -2.880900        0.4000           0   0.00000   0.00000
      6521 IM1      105      IM1      H5       HDR5A    0.053000        1.0080           0   0.00000   0.00000
      6522 IM1      105      IM1      C4       CD2R5B   2.404400       11.6110           0   -0.868000   1.30000
      6523 IM1      105      IM1      DC4      DRUD    -2.286400        0.4000           0   0.00000   0.00000
      6524 IM1      105      IM1      H6       HDR5B    0.073000        1.0080           0   0.00000   0.00000
      6525 IM1      105      IM1      N2       ND2R5B   2.249300       13.6070           0   -0.840000   1.00000
      6526 IM1      105      IM1      DN2      DRUD    -2.249300        0.4000           0   0.00000   0.00000
      6527 IM1      105      IM1      H7       DUMH     0.000000        1.0080           0   0.00000   0.00000
      6528 IM1      105      IM1      LPN21    LPD     -0.474000        0.0000           -1   0.00000   0.00000
      6529 IM1      106      IM1      C1       CD33G    2.390600       11.6110           0   -1.08100   1.00000
      6530 IM1      106      IM1      DC1      DRUD    -2.551600        0.4000           0   0.00000   0.00000
      6531 IM1      106      IM1      H1       HDA3A    0.094000        1.0080           0   0.00000   0.00000
      6532 IM1      106      IM1      H2       HDA3A    0.094000        1.0080           0   0.00000   0.00000
      6533 IM1      106      IM1      H3       HDA3A    0.094000        1.0080           0   0.00000   0.00000
      6534 IM1      106      IM1      N1       ND2R5A   2.670300       13.6070           0   -1.06300   1.30000
      6535 IM1      106      IM1      DN1      DRUD    -2.530300        0.4000           0   0.00000   0.00000
      6536 IM1      106      IM1      C2       CD2R5A   2.511900       11.6110           0   -1.37800   1.30000
      6537 IM1      106      IM1      DC2      DRUD    -2.880900        0.4000           0   0.00000   0.00000
      6538 IM1      106      IM1      H4       HDR5A    0.150000        1.0080           0   0.00000   0.00000
      6539 IM1      106      IM1      C3       CD2R5A   3.068900       11.6110           0   -1.37800   1.30000
      6540 IM1      106      IM1      DC3      DRUD    -2.880900        0.4000           0   0.00000   0.00000
      6541 IM1      106      IM1      H5       HDR5A    0.053000        1.0080           0   0.00000   0.00000
      6542 IM1      106      IM1      C4       CD2R5B   2.404400       11.6110           0   -0.868000   1.30000
      6543 IM1      106      IM1      DC4      DRUD    -2.286400        0.4000           0   0.00000   0.00000
      6544 IM1      106      IM1      H6       HDR5B    0.073000        1.0080           0   0.00000   0.00000
      6545 IM1      106      IM1      N2       ND2R5B   2.249300       13.6070           0   -0.840000   1.00000
      6546 IM1      106      IM1      DN2      DRUD    -2.249300        0.4000           0   0.00000   0.00000
      6547 IM1      106      IM1      H7       DUMH     0.000000        1.0080           0   0.00000   0.00000
      6548 IM1      106      IM1      LPN21    LPD     -0.474000        0.0000           -1   0.00000   0.00000
      6549 IM1      107      IM1      C1       CD33G    2.390600       11.6110           0   -1.08100   1.00000
      6550 IM1      107      IM1      DC1      DRUD    -2.551600        0.4000           0   0.00000   0.00000
      6551 IM1      107      IM1      H1       HDA3A    0.094000        1.0080           0   0.00000   0.00000
      6552 IM1      107      IM1      H2       HDA3A    0.094000        1.0080           0   0.00000   0.00000
      6553 IM1      107      IM1      H3       HDA3A    0.094000        1.0080           0   0.00000   0.00000
      6554 IM1      107      IM1      N1       ND2R5A   2.670300       13.6070           0   -1.06300   1.30000
      6555 IM1      107      IM1      DN1      DRUD    -2.530300        0.4000           0   0.00000   0.00000
      6556 IM1      107      IM1      C2       CD2R5A   2.511900       11.6110           0   -1.37800   1.30000
      6557 IM1      107      IM1      DC2      DRUD    -2.880900        0.4000           0   0.00000   0.00000
      6558 IM1      107      IM1      H4       HDR5A    0.150000        1.0080           0   0.00000   0.00000
      6559 IM1      107      IM1      C3       CD2R5A   3.068900       11.6110           0   -1.37800   1.30000
      6560 IM1      107      IM1      DC3      DRUD    -2.880900        0.4000           0   0.00000   0.00000
      6561 IM1      107      IM1      H5       HDR5A    0.053000        1.0080           0   0.00000   0.00000
      6562 IM1      107      IM1      C4       CD2R5B   2.404400       11.6110           0   -0.868000   1.30000
      6563 IM1      107      IM1      DC4      DRUD    -2.286400        0.4000           0   0.00000   0.00000
      6564 IM1      107      IM1      H6       HDR5B    0.073000        1.0080           0   0.00000   0.00000
      6565 IM1      107      IM1      N2       ND2R5B   2.249300       13.6070           0   -0.840000   1.00000
      6566 IM1      107      IM1      DN2      DRUD    -2.249300        0.4000           0   0.00000   0.00000
      6567 IM1      107      IM1      H7       DUMH     0.000000        1.0080           0   0.00000   0.00000
      6568 IM1      107      IM1      LPN21    LPD     -0.474000        0.0000           -1   0.00000   0.00000
      6569 IM1      108      IM1      C1       CD33G    2.390600       11.6110           0   -1.08100   1.00000
      6570 IM1      108      IM1      DC1      DRUD    -2.551600        0.4000           0   0.00000   0.00000
      6571 IM1      108      IM1      H1       HDA3A    0.094000        1.0080           0   0.00000   0.00000
      6572 IM1      108      IM1      H2       HDA3A    0.094000        1.0080           0   0.00000   0.00000
      6573 IM1      108      IM1      H3       HDA3A    0.094000        1.0080           0   0.00000   0.00000
      6574 IM1      108      IM1      N1       ND2R5A   2.670300       13.6070           0   -1.06300   1.30000
      6575 IM1      108      IM1      DN1      DRUD    -2.530300        0.4000           0   0.00000   0.00000
      6576 IM1      108      IM1      C2       CD2R5A   2.511900       11.6110           0   -1.37800   1.30000
      6577 IM1      108      IM1      DC2      DRUD    -2.880900        0.4000           0   0.00000   0.00000
      6578 IM1      108      IM1      H4       HDR5A    0.150000        1.0080           0   0.00000   0.00000
      6579 IM1      108      IM1      C3       CD2R5A   3.068900       11.6110           0   -1.37800   1.30000
      6580 IM1      108      IM1      DC3      DRUD    -2.880900        0.4000           0   0.00000   0.00000
      6581 IM1      108      IM1      H5       HDR5A    0.053000        1.0080           0   0.00000   0.00000
      6582 IM1      108      IM1      C4       CD2R5B   2.404400       11.6110           0   -0.868000   1.30000
      6583 IM1      108      IM1      DC4      DRUD    -2.286400        0.4000           0   0.00000   0.00000
      6584 IM1      108      IM1      H6       HDR5B    0.073000        1.0080           0   0.00000   0.00000
      6585 IM1      108      IM1      N2       ND2R5B   2.249300       13.6070           0   -0.840000   1.00000
      6586 IM1      108      IM1      DN2      DRUD    -2.249300        0.4000           0   0.00000   0.00000
      6587 IM1      108      IM1      H7       DUMH     0.000000        1.0080           0   0.00000   0.00000
      6588 IM1      108      IM1      LPN21    LPD     -0.474000        0.0000           -1   0.00000   0.00000
      6589 IM1      109      IM1      C1       CD33G    2.390600       11.6110           0   -1.08100   1.00000
      6590 IM1      109      IM1      DC1      DRUD    -2.551600        0.4000           0   0.00000   0.00000
      6591 IM1      109      IM1      H1       HDA3A    0.094000        1.0080           0   0.00000   0.00000
      6592 IM1      109      IM1      H2       HDA3A    0.094000        1.0080           0   0.00000   0.00000
      6593 IM1      109      IM1      H3       HDA3A    0.094000        1.0080           0   0.00000   0.00000
      6594 IM1      109      IM1      N1       ND2R5A   2.670300       13.6070           0   -1.06300   1.30000
      6595 IM1      109      IM1      DN1      DRUD    -2.530300        0.4000           0   0.00000   0.00000
      6596 IM1      109      IM1      C2       CD2R5A   2.511900       11.6110           0   -1.37800   1.30000
      6597 IM1      109      IM1      DC2      DRUD    -2.880900        0.4000           0   0.00000   0.00000
      6598 IM1      109      IM1      H4       HDR5A    0.150000        1.0080           0   0.00000   0.00000
      6599 IM1      109      IM1      C3       CD2R5A   3.068900       11.6110           0   -1.37800   1.30000
      6600 IM1      109      IM1      DC3      DRUD    -2.880900        0.4000           0   0.00000   0.00000
      6601 IM1      109      IM1      H5       HDR5A    0.053000        1.0080           0   0.00000   0.00000
      6602 IM1      109      IM1      C4       CD2R5B   2.404400       11.6110           0   -0.868000   1.30000
      6603 IM1      109      IM1      DC4      DRUD    -2.286400        0.4000           0   0.00000   0.00000
      6604 IM1      109      IM1      H6       HDR5B    0.073000        1.0080           0   0.00000   0.00000
      6605 IM1      109      IM1      N2       ND2R5B   2.249300       13.6070           0   -0.840000   1.00000
      6606 IM1      109      IM1      DN2      DRUD    -2.249300        0.4000           0   0.00000   0.00000
      6607 IM1      109      IM1      H7       DUMH     0.000000        1.0080           0   0.00000   0.00000
      6608 IM1      109      IM1      LPN21    LPD     -0.474000        0.0000           -1   0.00000   0.00000
      6609 IM1      110      IM1      C1       CD33G    2.390600       11.6110           0   -1.08100   1.00000
      6610 IM1      110      IM1      DC1      DRUD    -2.551600        0.4000           0   0.00000   0.00000
      6611 IM1      110      IM1      H1       HDA3A    0.094000        1.0080           0   0.00000   0.00000
      6612 IM1      110      IM1      H2       HDA3A    0.094000        1.0080           0   0.00000   0.00000
      6613 IM1      110      IM1      H3       HDA3A    0.094000        1.0080           0   0.00000   0.00000
      6614 IM1      110      IM1      N1       ND2R5A   2.670300       13.6070           0   -1.06300   1.30000
      6615 IM1      110      IM1      DN1      DRUD    -2.530300        0.4000           0   0.00000   0.00000
      6616 IM1      110      IM1      C2       CD2R5A   2.511900       11.6110           0   -1.37800   1.30000
      6617 IM1      110      IM1      DC2      DRUD    -2.880900        0.4000           0   0.00000   0.00000
      6618 IM1      110      IM1      H4       HDR5A    0.150000        1.0080           0   0.00000   0.00000
      6619 IM1      110      IM1      C3       CD2R5A   3.068900       11.6110           0   -1.37800   1.30000
      6620 IM1      110      IM1      DC3      DRUD    -2.880900        0.4000           0   0.00000   0.00000
      6621 IM1      110      IM1      H5       HDR5A    0.053000        1.0080           0   0.00000   0.00000
      6622 IM1      110      IM1      C4       CD2R5B   2.404400       11.6110           0   -0.868000   1.30000
      6623 IM1      110      IM1      DC4      DRUD    -2.286400        0.4000           0   0.00000   0.00000
      6624 IM1      110      IM1      H6       HDR5B    0.073000        1.0080           0   0.00000   0.00000
      6625 IM1      110      IM1      N2       ND2R5B   2.249300       13.6070           0   -0.840000   1.00000
      6626 IM1      110      IM1      DN2      DRUD    -2.249300        0.4000           0   0.00000   0.00000
      6627 IM1      110      IM1      H7       DUMH     0.000000        1.0080           0   0.00000   0.00000
      6628 IM1      110      IM1      LPN21    LPD     -0.474000        0.0000           -1   0.00000   0.00000
      6629 IM1      111      IM1      C1       CD33G    2.390600       11.6110           0   -1.08100   1.00000
      6630 IM1      111      IM1      DC1      DRUD    -2.551600        0.4000           0   0.00000   0.00000
      6631 IM1      111      IM1      H1       HDA3A    0.094000        1.0080           0   0.00000   0.00000
      6632 IM1      111      IM1      H2       HDA3A    0.094000        1.0080           0   0.00000   0.00000
      6633 IM1      111      IM1      H3       HDA3A    0.094000        1.0080           0   0.00000   0.00000
      6634 IM1      111      IM1      N1       ND2R5A   2.670300       13.6070           0   -1.06300   1.30000
      6635 IM1      111      IM1      DN1      DRUD    -2.530300        0.4000           0   0.00000   0.00000
      6636 IM1      111      IM1      C2       CD2R5A   2.511900       11.6110           0   -1.37800   1.30000
      6637 IM1      111      IM1      DC2      DRUD    -2.880900        0.4000           0   0.00000   0.00000
      6638 IM1      111      IM1      H4       HDR5A    0.150000        1.0080           0   0.00000   0.00000
      6639 IM1      111      IM1      C3       CD2R5A   3.068900       11.6110           0   -1.37800   1.30000
      6640 IM1      111      IM1      DC3      DRUD    -2.880900        0.4000           0   0.00000   0.00000
      6641 IM1      111      IM1      H5       HDR5A    0.053000        1.0080           0   0.00000   0.00000
      6642 IM1      111      IM1      C4       CD2R5B   2.404400       11.6110           0   -0.868000   1.30000
      6643 IM1      111      IM1      DC4      DRUD    -2.286400        0.4000           0   0.00000   0.00000
      6644 IM1      111      IM1      H6       HDR5B    0.073000        1.0080           0   0.00000   0.00000
      6645 IM1      111      IM1      N2       ND2R5B   2.249300       13.6070           0   -0.840000   1.00000
      6646 IM1      111      IM1      DN2      DRUD    -2.249300        0.4000           0   0.00000   0.00000
      6647 IM1      111      IM1      H7       DUMH     0.000000        1.0080           0   0.00000   0.00000
      6648 IM1      111      IM1      LPN21    LPD     -0.474000        0.0000           -1   0.00000   0.00000
      6649 IM1      112      IM1      C1       CD33G    2.390600       11.6110           0   -1.08100   1.00000
      6650 IM1      112      IM1      DC1      DRUD    -2.551600        0.4000           0   0.00000   0.00000
      6651 IM1      112      IM1      H1       HDA3A    0.094000        1.0080           0   0.00000   0.00000
      6652 IM1      112      IM1      H2       HDA3A    0.094000        1.0080           0   0.00000   0.00000
      6653 IM1      112      IM1      H3       HDA3A    0.094000        1.0080           0   0.00000   0.00000
      6654 IM1      112      IM1      N1       ND2R5A   2.670300       13.6070           0   -1.06300   1.30000
      6655 IM1      112      IM1      DN1      DRUD    -2.530300        0.4000           0   0.00000   0.00000
      6656 IM1      112      IM1      C2       CD2R5A   2.511900       11.6110           0   -1.37800   1.30000
      6657 IM1      112      IM1      DC2      DRUD    -2.880900        0.4000           0   0.00000   0.00000
      6658 IM1      112      IM1      H4       HDR5A    0.150000        1.0080           0   0.00000   0.00000
      6659 IM1      112      IM1      C3       CD2R5A   3.068900       11.6110           0   -1.37800   1.30000
      6660 IM1      112      IM1      DC3      DRUD    -2.880900        0.4000           0   0.00000   0.00000
      6661 IM1      112      IM1      H5       HDR5A    0.053000        1.0080           0   0.00000   0.00000
      6662 IM1      112      IM1      C4       CD2R5B   2.404400       11.6110           0   -0.868000   1.30000
      6663 IM1      112      IM1      DC4      DRUD    -2.286400        0.4000           0   0.00000   0.00000
      6664 IM1      112      IM1      H6       HDR5B    0.073000        1.0080           0   0.00000   0.00000
      6665 IM1      112      IM1      N2       ND2R5B   2.249300       13.6070           0   -0.840000   1.00000
      6666 IM1      112      IM1      DN2      DRUD    -2.249300        0.4000           0   0.00000   0.00000
      6667 IM1      112      IM1      H7       DUMH     0.000000        1.0080           0   0.00000   0.00000
      6668 IM1      112      IM1      LPN21    LPD     -0.474000        0.0000           -1   0.00000   0.00000
      6669 IM1      113      IM1      C1       CD33G    2.390600       11.6110           0   -1.08100   1.00000
      6670 IM1      113      IM1      DC1      DRUD    -2.551600        0.4000           0   0.00000   0.00000
      6671 IM1      113      IM1      H1       HDA3A    0.094000        1.0080           0   0.00000   0.00000
      6672 IM1      113      IM1      H2       HDA3A    0.094000        1.0080           0   0.00000   0.00000
      6673 IM1      113      IM1      H3       HDA3A    0.094000        1.0080           0   0.00000   0.00000
      6674 IM1      113      IM1      N1       ND2R5A   2.670300       13.6070           0   -1.06300   1.30000
      6675 IM1      113      IM1      DN1      DRUD    -2.530300        0.4000           0   0.00000   0.00000
      6676 IM1      113      IM1      C2       CD2R5A   2.511900       11.6110           0   -1.37800   1.30000
      6677 IM1      113      IM1      DC2      DRUD    -2.880900        0.4000           0   0.00000   0.00000
      6678 IM1      113      IM1      H4       HDR5A    0.150000        1.0080           0   0.00000   0.00000
      6679 IM1      113      IM1      C3       CD2R5A   3.068900       11.6110           0   -1.37800   1.30000
      6680 IM1      113      IM1      DC3      DRUD    -2.880900        0.4000           0   0.00000   0.00000
      6681 IM1      113      IM1      H5       HDR5A    0.053000        1.0080           0   0.00000   0.00000
      6682 IM1      113      IM1      C4       CD2R5B   2.404400       11.6110           0   -0.868000   1.30000
      6683 IM1      113      IM1      DC4      DRUD    -2.286400        0.4000           0   0.00000   0.00000
      6684 IM1      113      IM1      H6       HDR5B    0.073000        1.0080           0   0.00000   0.00000
      6685 IM1      113      IM1      N2       ND2R5B   2.249300       13.6070           0   -0.840000   1.00000
      6686 IM1      113      IM1      DN2      DRUD    -2.249300        0.4000           0   0.00000   0.00000
      6687 IM1      113      IM1      H7       DUMH     0.000000        1.0080           0   0.00000   0.00000
      6688 IM1      113      IM1      LPN21    LPD     -0.474000        0.0000           -1   0.00000   0.00000
      6689 IM1      114      IM1      C1       CD33G    2.390600       11.6110           0   -1.08100   1.00000
      6690 IM1      114      IM1      DC1      DRUD    -2.551600        0.4000           0   0.00000   0.00000
      6691 IM1      114      IM1      H1       HDA3A    0.094000        1.0080           0   0.00000   0.00000
      6692 IM1      114      IM1      H2       HDA3A    0.094000        1.0080           0   0.00000   0.00000
      6693 IM1      114      IM1      H3       HDA3A    0.094000        1.0080           0   0.00000   0.00000
      6694 IM1      114      IM1      N1       ND2R5A   2.670300       13.6070           0   -1.06300   1.30000
      6695 IM1      114      IM1      DN1      DRUD    -2.530300        0.4000           0   0.00000   0.00000
      6696 IM1      114      IM1      C2       CD2R5A   2.511900       11.6110           0   -1.37800   1.30000
      6697 IM1      114      IM1      DC2      DRUD    -2.880900        0.4000           0   0.00000   0.00000
      6698 IM1      114      IM1      H4       HDR5A    0.150000        1.0080           0   0.00000   0.00000
      6699 IM1      114      IM1      C3       CD2R5A   3.068900       11.6110           0   -1.37800   1.30000
      6700 IM1      114      IM1      DC3      DRUD    -2.880900        0.4000           0   0.00000   0.00000
      6701 IM1      114      IM1      H5       HDR5A    0.053000        1.0080           0   0.00000   0.00000
      6702 IM1      114      IM1      C4       CD2R5B   2.404400       11.6110           0   -0.868000   1.30000
      6703 IM1      114      IM1      DC4      DRUD    -2.286400        0.4000           0   0.00000   0.00000
      6704 IM1      114      IM1      H6       HDR5B    0.073000        1.0080           0   0.00000   0.00000
      6705 IM1      114      IM1      N2       ND2R5B   2.249300       13.6070           0   -0.840000   1.00000
      6706 IM1      114      IM1      DN2      DRUD    -2.249300        0.4000           0   0.00000   0.00000
      6707 IM1      114      IM1      H7       DUMH     0.000000        1.0080           0   0.00000   0.00000
      6708 IM1      114      IM1      LPN21    LPD     -0.474000        0.0000           -1   0.00000   0.00000
      6709 IM1      115      IM1      C1       CD33G    2.390600       11.6110           0   -1.08100   1.00000
      6710 IM1      115      IM1      DC1      DRUD    -2.551600        0.4000           0   0.00000   0.00000
      6711 IM1      115      IM1      H1       HDA3A    0.094000        1.0080           0   0.00000   0.00000
      6712 IM1      115      IM1      H2       HDA3A    0.094000        1.0080           0   0.00000   0.00000
      6713 IM1      115      IM1      H3       HDA3A    0.094000        1.0080           0   0.00000   0.00000
      6714 IM1      115      IM1      N1       ND2R5A   2.670300       13.6070           0   -1.06300   1.30000
      6715 IM1      115      IM1      DN1      DRUD    -2.530300        0.4000           0   0.00000   0.00000
      6716 IM1      115      IM1      C2       CD2R5A   2.511900       11.6110           0   -1.37800   1.30000
      6717 IM1      115      IM1      DC2      DRUD    -2.880900        0.4000           0   0.00000   0.00000
      6718 IM1      115      IM1      H4       HDR5A    0.150000        1.0080           0   0.00000   0.00000
      6719 IM1      115      IM1      C3       CD2R5A   3.068900       11.6110           0   -1.37800   1.30000
      6720 IM1      115      IM1      DC3      DRUD    -2.880900        0.4000           0   0.00000   0.00000
      6721 IM1      115      IM1      H5       HDR5A    0.053000        1.0080           0   0.00000   0.00000
      6722 IM1      115      IM1      C4       CD2R5B   2.404400       11.6110           0   -0.868000   1.30000
      6723 IM1      115      IM1      DC4      DRUD    -2.286400        0.4000           0   0.00000   0.00000
      6724 IM1      115      IM1      H6       HDR5B    0.073000        1.0080           0   0.00000   0.00000
      6725 IM1      115      IM1      N2       ND2R5B   2.249300       13.6070           0   -0.840000   1.00000
      6726 IM1      115      IM1      DN2      DRUD    -2.249300        0.4000           0   0.00000   0.00000
      6727 IM1      115      IM1      H7       DUMH     0.000000        1.0080           0   0.00000   0.00000
      6728 IM1      115      IM1      LPN21    LPD     -0.474000        0.0000           -1   0.00000   0.00000
      6729 IM1      116      IM1      C1       CD33G    2.390600       11.6110           0   -1.08100   1.00000
      6730 IM1      116      IM1      DC1      DRUD    -2.551600        0.4000           0   0.00000   0.00000
      6731 IM1      116      IM1      H1       HDA3A    0.094000        1.0080           0   0.00000   0.00000
      6732 IM1      116      IM1      H2       HDA3A    0.094000        1.0080           0   0.00000   0.00000
      6733 IM1      116      IM1      H3       HDA3A    0.094000        1.0080           0   0.00000   0.00000
      6734 IM1      116      IM1      N1       ND2R5A   2.670300       13.6070           0   -1.06300   1.30000
      6735 IM1      116      IM1      DN1      DRUD    -2.530300        0.4000           0   0.00000   0.00000
      6736 IM1      116      IM1      C2       CD2R5A   2.511900       11.6110           0   -1.37800   1.30000
      6737 IM1      116      IM1      DC2      DRUD    -2.880900        0.4000           0   0.00000   0.00000
      6738 IM1      116      IM1      H4       HDR5A    0.150000        1.0080           0   0.00000   0.00000
      6739 IM1      116      IM1      C3       CD2R5A   3.068900       11.6110           0   -1.37800   1.30000
      6740 IM1      116      IM1      DC3      DRUD    -2.880900        0.4000           0   0.00000   0.00000
      6741 IM1      116      IM1      H5       HDR5A    0.053000        1.0080           0   0.00000   0.00000
      6742 IM1      116      IM1      C4       CD2R5B   2.404400       11.6110           0   -0.868000   1.30000
      6743 IM1      116      IM1      DC4      DRUD    -2.286400        0.4000           0   0.00000   0.00000
      6744 IM1      116      IM1      H6       HDR5B    0.073000        1.0080           0   0.00000   0.00000
      6745 IM1      116      IM1      N2       ND2R5B   2.249300       13.6070           0   -0.840000   1.00000
      6746 IM1      116      IM1      DN2      DRUD    -2.249300        0.4000           0   0.00000   0.00000
      6747 IM1      116      IM1      H7       DUMH     0.000000        1.0080           0   0.00000   0.00000
      6748 IM1      116      IM1      LPN21    LPD     -0.474000        0.0000           -1   0.00000   0.00000
      6749 IM1      117      IM1      C1       CD33G    2.390600       11.6110           0   -1.08100   1.00000
      6750 IM1      117      IM1      DC1      DRUD    -2.551600        0.4000           0   0.00000   0.00000
      6751 IM1      117      IM1      H1       HDA3A    0.094000        1.0080           0   0.00000   0.00000
      6752 IM1      117      IM1      H2       HDA3A    0.094000        1.0080           0   0.00000   0.00000
      6753 IM1      117      IM1      H3       HDA3A    0.094000        1.0080           0   0.00000   0.00000
      6754 IM1      117      IM1      N1       ND2R5A   2.670300       13.6070           0   -1.06300   1.30000
      6755 IM1      117      IM1      DN1      DRUD    -2.530300        0.4000           0   0.00000   0.00000
      6756 IM1      117      IM1      C2       CD2R5A   2.511900       11.6110           0   -1.37800   1.30000
      6757 IM1      117      IM1      DC2      DRUD    -2.880900        0.4000           0   0.00000   0.00000
      6758 IM1      117      IM1      H4       HDR5A    0.150000        1.0080           0   0.00000   0.00000
      6759 IM1      117      IM1      C3       CD2R5A   3.068900       11.6110           0   -1.37800   1.30000
      6760 IM1      117      IM1      DC3      DRUD    -2.880900        0.4000           0   0.00000   0.00000
      6761 IM1      117      IM1      H5       HDR5A    0.053000        1.0080           0   0.00000   0.00000
      6762 IM1      117      IM1      C4       CD2R5B   2.404400       11.6110           0   -0.868000   1.30000
      6763 IM1      117      IM1      DC4      DRUD    -2.286400        0.4000           0   0.00000   0.00000
      6764 IM1      117      IM1      H6       HDR5B    0.073000        1.0080           0   0.00000   0.00000
      6765 IM1      117      IM1      N2       ND2R5B   2.249300       13.6070           0   -0.840000   1.00000
      6766 IM1      117      IM1      DN2      DRUD    -2.249300        0.4000           0   0.00000   0.00000
      6767 IM1      117      IM1      H7       DUMH     0.000000        1.0080           0   0.00000   0.00000
      6768 IM1      117      IM1      LPN21    LPD     -0.474000        0.0000           -1   0.00000   0.00000
      6769 IM1      118      IM1      C1       CD33G    2.390600       11.6110           0   -1.08100   1.00000
      6770 IM1      118      IM1      DC1      DRUD    -2.551600        0.4000           0   0.00000   0.00000
      6771 IM1      118      IM1      H1       HDA3A    0.094000        1.0080           0   0.00000   0.00000
      6772 IM1      118      IM1      H2       HDA3A    0.094000        1.0080           0   0.00000   0.00000
      6773 IM1      118      IM1      H3       HDA3A    0.094000        1.0080           0   0.00000   0.00000
      6774 IM1      118      IM1      N1       ND2R5A   2.670300       13.6070           0   -1.06300   1.30000
      6775 IM1      118      IM1      DN1      DRUD    -2.530300        0.4000           0   0.00000   0.00000
      6776 IM1      118      IM1      C2       CD2R5A   2.511900       11.6110           0   -1.37800   1.30000
      6777 IM1      118      IM1      DC2      DRUD    -2.880900        0.4000           0   0.00000   0.00000
      6778 IM1      118      IM1      H4       HDR5A    0.150000        1.0080           0   0.00000   0.00000
      6779 IM1      118      IM1      C3       CD2R5A   3.068900       11.6110           0   -1.37800   1.30000
      6780 IM1      118      IM1      DC3      DRUD    -2.880900        0.4000           0   0.00000   0.00000
      6781 IM1      118      IM1      H5       HDR5A    0.053000        1.0080           0   0.00000   0.00000
      6782 IM1      118      IM1      C4       CD2R5B   2.404400       11.6110           0   -0.868000   1.30000
      6783 IM1      118      IM1      DC4      DRUD    -2.286400        0.4000           0   0.00000   0.00000
      6784 IM1      118      IM1      H6       HDR5B    0.073000        1.0080           0   0.00000   0.00000
      6785 IM1      118      IM1      N2       ND2R5B   2.249300       13.6070           0   -0.840000   1.00000
      6786 IM1      118      IM1      DN2      DRUD    -2.249300        0.4000           0   0.00000   0.00000
      6787 IM1      118      IM1      H7       DUMH     0.000000        1.0080           0   0.00000   0.00000
      6788 IM1      118      IM1      LPN21    LPD     -0.474000        0.0000           -1   0.00000   0.00000
      6789 IM1      119      IM1      C1       CD33G    2.390600       11.6110           0   -1.08100   1.00000
      6790 IM1      119      IM1      DC1      DRUD    -2.551600        0.4000           0   0.00000   0.00000
      6791 IM1      119      IM1      H1       HDA3A    0.094000        1.0080           0   0.00000   0.00000
      6792 IM1      119      IM1      H2       HDA3A    0.094000        1.0080           0   0.00000   0.00000
      6793 IM1      119      IM1      H3       HDA3A    0.094000        1.0080           0   0.00000   0.00000
      6794 IM1      119      IM1      N1       ND2R5A   2.670300       13.6070           0   -1.06300   1.30000
      6795 IM1      119      IM1      DN1      DRUD    -2.530300        0.4000           0   0.00000   0.00000
      6796 IM1      119      IM1      C2       CD2R5A   2.511900       11.6110           0   -1.37800   1.30000
      6797 IM1      119      IM1      DC2      DRUD    -2.880900        0.4000           0   0.00000   0.00000
      6798 IM1      119      IM1      H4       HDR5A    0.150000        1.0080           0   0.00000   0.00000
      6799 IM1      119      IM1      C3       CD2R5A   3.068900       11.6110           0   -1.37800   1.30000
      6800 IM1      119      IM1      DC3      DRUD    -2.880900        0.4000           0   0.00000   0.00000
      6801 IM1      119      IM1      H5       HDR5A    0.053000        1.0080           0   0.00000   0.00000
      6802 IM1      119      IM1      C4       CD2R5B   2.404400       11.6110           0   -0.868000   1.30000
      6803 IM1      119      IM1      DC4      DRUD    -2.286400        0.4000           0   0.00000   0.00000
      6804 IM1      119      IM1      H6       HDR5B    0.073000        1.0080           0   0.00000   0.00000
      6805 IM1      119      IM1      N2       ND2R5B   2.249300       13.6070           0   -0.840000   1.00000
      6806 IM1      119      IM1      DN2      DRUD    -2.249300        0.4000           0   0.00000   0.00000
      6807 IM1      119      IM1      H7       DUMH     0.000000        1.0080           0   0.00000   0.00000
      6808 IM1      119      IM1      LPN21    LPD     -0.474000        0.0000           -1   0.00000   0.00000
      6809 IM1      120      IM1      C1       CD33G    2.390600       11.6110           0   -1.08100   1.00000
      6810 IM1      120      IM1      DC1      DRUD    -2.551600        0.4000           0   0.00000   0.00000
      6811 IM1      120      IM1      H1       HDA3A    0.094000        1.0080           0   0.00000   0.00000
      6812 IM1      120      IM1      H2       HDA3A    0.094000        1.0080           0   0.00000   0.00000
      6813 IM1      120      IM1      H3       HDA3A    0.094000        1.0080           0   0.00000   0.00000
      6814 IM1      120      IM1      N1       ND2R5A   2.670300       13.6070           0   -1.06300   1.30000
      6815 IM1      120      IM1      DN1      DRUD    -2.530300        0.4000           0   0.00000   0.00000
      6816 IM1      120      IM1      C2       CD2R5A   2.511900       11.6110           0   -1.37800   1.30000
      6817 IM1      120      IM1      DC2      DRUD    -2.880900        0.4000           0   0.00000   0.00000
      6818 IM1      120      IM1      H4       HDR5A    0.150000        1.0080           0   0.00000   0.00000
      6819 IM1      120      IM1      C3       CD2R5A   3.068900       11.6110           0   -1.37800   1.30000
      6820 IM1      120      IM1      DC3      DRUD    -2.880900        0.4000           0   0.00000   0.00000
      6821 IM1      120      IM1      H5       HDR5A    0.053000        1.0080           0   0.00000   0.00000
      6822 IM1      120      IM1      C4       CD2R5B   2.404400       11.6110           0   -0.868000   1.30000
      6823 IM1      120      IM1      DC4      DRUD    -2.286400        0.4000           0   0.00000   0.00000
      6824 IM1      120      IM1      H6       HDR5B    0.073000        1.0080           0   0.00000   0.00000
      6825 IM1      120      IM1      N2       ND2R5B   2.249300       13.6070           0   -0.840000   1.00000
      6826 IM1      120      IM1      DN2      DRUD    -2.249300        0.4000           0   0.00000   0.00000
      6827 IM1      120      IM1      H7       DUMH     0.000000        1.0080           0   0.00000   0.00000
      6828 IM1      120      IM1      LPN21    LPD     -0.474000        0.0000           -1   0.00000   0.00000
      6829 IM1      121      IM1      C1       CD33G    2.390600       11.6110           0   -1.08100   1.00000
      6830 IM1      121      IM1      DC1      DRUD    -2.551600        0.4000           0   0.00000   0.00000
      6831 IM1      121      IM1      H1       HDA3A    0.094000        1.0080           0   0.00000   0.00000
      6832 IM1      121      IM1      H2       HDA3A    0.094000        1.0080           0   0.00000   0.00000
      6833 IM1      121      IM1      H3       HDA3A    0.094000        1.0080           0   0.00000   0.00000
      6834 IM1      121      IM1      N1       ND2R5A   2.670300       13.6070           0   -1.06300   1.30000
      6835 IM1      121      IM1      DN1      DRUD    -2.530300        0.4000           0   0.00000   0.00000
      6836 IM1      121      IM1      C2       CD2R5A   2.511900       11.6110           0   -1.37800   1.30000
      6837 IM1      121      IM1      DC2      DRUD    -2.880900        0.4000           0   0.00000   0.00000
      6838 IM1      121      IM1      H4       HDR5A    0.150000        1.0080           0   0.00000   0.00000
      6839 IM1      121      IM1      C3       CD2R5A   3.068900       11.6110           0   -1.37800   1.30000
      6840 IM1      121      IM1      DC3      DRUD    -2.880900        0.4000           0   0.00000   0.00000
      6841 IM1      121      IM1      H5       HDR5A    0.053000        1.0080           0   0.00000   0.00000
      6842 IM1      121      IM1      C4       CD2R5B   2.404400       11.6110           0   -0.868000   1.30000
      6843 IM1      121      IM1      DC4      DRUD    -2.286400        0.4000           0   0.00000   0.00000
      6844 IM1      121      IM1      H6       HDR5B    0.073000        1.0080           0   0.00000   0.00000
      6845 IM1      121      IM1      N2       ND2R5B   2.249300       13.6070           0   -0.840000   1.00000
      6846 IM1      121      IM1      DN2      DRUD    -2.249300        0.4000           0   0.00000   0.00000
      6847 IM1      121      IM1      H7       DUMH     0.000000        1.0080           0   0.00000   0.00000
      6848 IM1      121      IM1      LPN21    LPD     -0.474000        0.0000           -1   0.00000   0.00000
      6849 IM1      122      IM1      C1       CD33G    2.390600       11.6110           0   -1.08100   1.00000
      6850 IM1      122      IM1      DC1      DRUD    -2.551600        0.4000           0   0.00000   0.00000
      6851 IM1      122      IM1      H1       HDA3A    0.094000        1.0080           0   0.00000   0.00000
      6852 IM1      122      IM1      H2       HDA3A    0.094000        1.0080           0   0.00000   0.00000
      6853 IM1      122      IM1      H3       HDA3A    0.094000        1.0080           0   0.00000   0.00000
      6854 IM1      122      IM1      N1       ND2R5A   2.670300       13.6070           0   -1.06300   1.30000
      6855 IM1      122      IM1      DN1      DRUD    -2.530300        0.4000           0   0.00000   0.00000
      6856 IM1      122      IM1      C2       CD2R5A   2.511900       11.6110           0   -1.37800   1.30000
      6857 IM1      122      IM1      DC2      DRUD    -2.880900        0.4000           0   0.00000   0.00000
      6858 IM1      122      IM1      H4       HDR5A    0.150000        1.0080           0   0.00000   0.00000
      6859 IM1      122      IM1      C3       CD2R5A   3.068900       11.6110           0   -1.37800   1.30000
      6860 IM1      122      IM1      DC3      DRUD    -2.880900        0.4000           0   0.00000   0.00000
      6861 IM1      122      IM1      H5       HDR5A    0.053000        1.0080           0   0.00000   0.00000
      6862 IM1      122      IM1      C4       CD2R5B   2.404400       11.6110           0   -0.868000   1.30000
      6863 IM1      122      IM1      DC4      DRUD    -2.286400        0.4000           0   0.00000   0.00000
      6864 IM1      122      IM1      H6       HDR5B    0.073000        1.0080           0   0.00000   0.00000
      6865 IM1      122      IM1      N2       ND2R5B   2.249300       13.6070           0   -0.840000   1.00000
      6866 IM1      122      IM1      DN2      DRUD    -2.249300        0.4000           0   0.00000   0.00000
      6867 IM1      122      IM1      H7       DUMH     0.000000        1.0080           0   0.00000   0.00000
      6868 IM1      122      IM1      LPN21    LPD     -0.474000        0.0000           -1   0.00000   0.00000
      6869 IM1      123      IM1      C1       CD33G    2.390600       11.6110           0   -1.08100   1.00000
      6870 IM1      123      IM1      DC1      DRUD    -2.551600        0.4000           0   0.00000   0.00000
      6871 IM1      123      IM1      H1       HDA3A    0.094000        1.0080           0   0.00000   0.00000
      6872 IM1      123      IM1      H2       HDA3A    0.094000        1.0080           0   0.00000   0.00000
      6873 IM1      123      IM1      H3       HDA3A    0.094000        1.0080           0   0.00000   0.00000
      6874 IM1      123      IM1      N1       ND2R5A   2.670300       13.6070           0   -1.06300   1.30000
      6875 IM1      123      IM1      DN1      DRUD    -2.530300        0.4000           0   0.00000   0.00000
      6876 IM1      123      IM1      C2       CD2R5A   2.511900       11.6110           0   -1.37800   1.30000
      6877 IM1      123      IM1      DC2      DRUD    -2.880900        0.4000           0   0.00000   0.00000
      6878 IM1      123      IM1      H4       HDR5A    0.150000        1.0080           0   0.00000   0.00000
      6879 IM1      123      IM1      C3       CD2R5A   3.068900       11.6110           0   -1.37800   1.30000
      6880 IM1      123      IM1      DC3      DRUD    -2.880900        0.4000           0   0.00000   0.00000
      6881 IM1      123      IM1      H5       HDR5A    0.053000        1.0080           0   0.00000   0.00000
      6882 IM1      123      IM1      C4       CD2R5B   2.404400       11.6110           0   -0.868000   1.30000
      6883 IM1      123      IM1      DC4      DRUD    -2.286400        0.4000           0   0.00000   0.00000
      6884 IM1      123      IM1      H6       HDR5B    0.073000        1.0080           0   0.00000   0.00000
      6885 IM1      123      IM1      N2       ND2R5B   2.249300       13.6070           0   -0.840000   1.00000
      6886 IM1      123      IM1      DN2      DRUD    -2.249300        0.4000           0   0.00000   0.00000
      6887 IM1      123      IM1      H7       DUMH     0.000000        1.0080           0   0.00000   0.00000
      6888 IM1      123      IM1      LPN21    LPD     -0.474000        0.0000           -1   0.00000   0.00000
      6889 IM1      124      IM1      C1       CD33G    2.390600       11.6110           0   -1.08100   1.00000
      6890 IM1      124      IM1      DC1      DRUD    -2.551600        0.4000           0   0.00000   0.00000
      6891 IM1      124      IM1      H1       HDA3A    0.094000        1.0080           0   0.00000   0.00000
      6892 IM1      124      IM1      H2       HDA3A    0.094000        1.0080           0   0.00000   0.00000
      6893 IM1      124      IM1      H3       HDA3A    0.094000        1.0080           0   0.00000   0.00000
      6894 IM1      124      IM1      N1       ND2R5A   2.670300       13.6070           0   -1.06300   1.30000
      6895 IM1      124      IM1      DN1      DRUD    -2.530300        0.4000           0   0.00000   0.00000
      6896 IM1      124      IM1      C2       CD2R5A   2.511900       11.6110           0   -1.37800   1.30000
      6897 IM1      124      IM1      DC2      DRUD    -2.880900        0.4000           0   0.00000   0.00000
      6898 IM1      124      IM1      H4       HDR5A    0.150000        1.0080           0   0.00000   0.00000
      6899 IM1      124      IM1      C3       CD2R5A   3.068900       11.6110           0   -1.37800   1.30000
      6900 IM1      124      IM1      DC3      DRUD    -2.880900        0.4000           0   0.00000   0.00000
      6901 IM1      124      IM1      H5       HDR5A    0.053000        1.0080           0   0.00000   0.00000
      6902 IM1      124      IM1      C4       CD2R5B   2.404400       11.6110           0   -0.868000   1.30000
      6903 IM1      124      IM1      DC4      DRUD    -2.286400        0.4000           0   0.00000   0.00000
      6904 IM1      124      IM1      H6       HDR5B    0.073000        1.0080           0   0.00000   0.00000
      6905 IM1      124      IM1      N2       ND2R5B   2.249300       13.6070           0   -0.840000   1.00000
      6906 IM1      124      IM1      DN2      DRUD    -2.249300        0.4000           0   0.00000   0.00000
      6907 IM1      124      IM1      H7       DUMH     0.000000        1.0080           0   0.00000   0.00000
      6908 IM1      124      IM1      LPN21    LPD     -0.474000        0.0000           -1   0.00000   0.00000
      6909 IM1      125      IM1      C1       CD33G    2.390600       11.6110           0   -1.08100   1.00000
      6910 IM1      125      IM1      DC1      DRUD    -2.551600        0.4000           0   0.00000   0.00000
      6911 IM1      125      IM1      H1       HDA3A    0.094000        1.0080           0   0.00000   0.00000
      6912 IM1      125      IM1      H2       HDA3A    0.094000        1.0080           0   0.00000   0.00000
      6913 IM1      125      IM1      H3       HDA3A    0.094000        1.0080           0   0.00000   0.00000
      6914 IM1      125      IM1      N1       ND2R5A   2.670300       13.6070           0   -1.06300   1.30000
      6915 IM1      125      IM1      DN1      DRUD    -2.530300        0.4000           0   0.00000   0.00000
      6916 IM1      125      IM1      C2       CD2R5A   2.511900       11.6110           0   -1.37800   1.30000
      6917 IM1      125      IM1      DC2      DRUD    -2.880900        0.4000           0   0.00000   0.00000
      6918 IM1      125      IM1      H4       HDR5A    0.150000        1.0080           0   0.00000   0.00000
      6919 IM1      125      IM1      C3       CD2R5A   3.068900       11.6110           0   -1.37800   1.30000
      6920 IM1      125      IM1      DC3      DRUD    -2.880900        0.4000           0   0.00000   0.00000
      6921 IM1      125      IM1      H5       HDR5A    0.053000        1.0080           0   0.00000   0.00000
      6922 IM1      125      IM1      C4       CD2R5B   2.404400       11.6110           0   -0.868000   1.30000
      6923 IM1      125      IM1      DC4      DRUD    -2.286400        0.4000           0   0.00000   0.00000
      6924 IM1      125      IM1      H6       HDR5B    0.073000        1.0080           0   0.00000   0.00000
      6925 IM1      125      IM1      N2       ND2R5B   2.249300       13.6070           0   -0.840000   1.00000
      6926 IM1      125      IM1      DN2      DRUD    -2.249300        0.4000           0   0.00000   0.00000
      6927 IM1      125      IM1      H7       DUMH     0.000000        1.0080           0   0.00000   0.00000
      6928 IM1      125      IM1      LPN21    LPD     -0.474000        0.0000           -1   0.00000   0.00000
      6929 IM1      126      IM1      C1       CD33G    2.390600       11.6110           0   -1.08100   1.00000
      6930 IM1      126      IM1      DC1      DRUD    -2.551600        0.4000           0   0.00000   0.00000
      6931 IM1      126      IM1      H1       HDA3A    0.094000        1.0080           0   0.00000   0.00000
      6932 IM1      126      IM1      H2       HDA3A    0.094000        1.0080           0   0.00000   0.00000
      6933 IM1      126      IM1      H3       HDA3A    0.094000        1.0080           0   0.00000   0.00000
      6934 IM1      126      IM1      N1       ND2R5A   2.670300       13.6070           0   -1.06300   1.30000
      6935 IM1      126      IM1      DN1      DRUD    -2.530300        0.4000           0   0.00000   0.00000
      6936 IM1      126      IM1      C2       CD2R5A   2.511900       11.6110           0   -1.37800   1.30000
      6937 IM1      126      IM1      DC2      DRUD    -2.880900        0.4000           0   0.00000   0.00000
      6938 IM1      126      IM1      H4       HDR5A    0.150000        1.0080           0   0.00000   0.00000
      6939 IM1      126      IM1      C3       CD2R5A   3.068900       11.6110           0   -1.37800   1.30000
      6940 IM1      126      IM1      DC3      DRUD    -2.880900        0.4000           0   0.00000   0.00000
      6941 IM1      126      IM1      H5       HDR5A    0.053000        1.0080           0   0.00000   0.00000
      6942 IM1      126      IM1      C4       CD2R5B   2.404400       11.6110           0   -0.868000   1.30000
      6943 IM1      126      IM1      DC4      DRUD    -2.286400        0.4000           0   0.00000   0.00000
      6944 IM1      126      IM1      H6       HDR5B    0.073000        1.0080           0   0.00000   0.00000
      6945 IM1      126      IM1      N2       ND2R5B   2.249300       13.6070           0   -0.840000   1.00000
      6946 IM1      126      IM1      DN2      DRUD    -2.249300        0.4000           0   0.00000   0.00000
      6947 IM1      126      IM1      H7       DUMH     0.000000        1.0080           0   0.00000   0.00000
      6948 IM1      126      IM1      LPN21    LPD     -0.474000        0.0000           -1   0.00000   0.00000
      6949 IM1      127      IM1      C1       CD33G    2.390600       11.6110           0   -1.08100   1.00000
      6950 IM1      127      IM1      DC1      DRUD    -2.551600        0.4000           0   0.00000   0.00000
      6951 IM1      127      IM1      H1       HDA3A    0.094000        1.0080           0   0.00000   0.00000
      6952 IM1      127      IM1      H2       HDA3A    0.094000        1.0080           0   0.00000   0.00000
      6953 IM1      127      IM1      H3       HDA3A    0.094000        1.0080           0   0.00000   0.00000
      6954 IM1      127      IM1      N1       ND2R5A   2.670300       13.6070           0   -1.06300   1.30000
      6955 IM1      127      IM1      DN1      DRUD    -2.530300        0.4000           0   0.00000   0.00000
      6956 IM1      127      IM1      C2       CD2R5A   2.511900       11.6110           0   -1.37800   1.30000
      6957 IM1      127      IM1      DC2      DRUD    -2.880900        0.4000           0   0.00000   0.00000
      6958 IM1      127      IM1      H4       HDR5A    0.150000        1.0080           0   0.00000   0.00000
      6959 IM1      127      IM1      C3       CD2R5A   3.068900       11.6110           0   -1.37800   1.30000
      6960 IM1      127      IM1      DC3      DRUD    -2.880900        0.4000           0   0.00000   0.00000
      6961 IM1      127      IM1      H5       HDR5A    0.053000        1.0080           0   0.00000   0.00000
      6962 IM1      127      IM1      C4       CD2R5B   2.404400       11.6110           0   -0.868000   1.30000
      6963 IM1      127      IM1      DC4      DRUD    -2.286400        0.4000           0   0.00000   0.00000
      6964 IM1      127      IM1      H6       HDR5B    0.073000        1.0080           0   0.00000   0.00000
      6965 IM1      127      IM1      N2       ND2R5B   2.249300       13.6070           0   -0.840000   1.00000
      6966 IM1      127      IM1      DN2      DRUD    -2.249300        0.4000           0   0.00000   0.00000
      6967 IM1      127      IM1      H7       DUMH     0.000000        1.0080           0   0.00000   0.00000
      6968 IM1      127      IM1      LPN21    LPD     -0.474000        0.0000           -1   0.00000   0.00000
      6969 IM1      128      IM1      C1       CD33G    2.390600       11.6110           0   -1.08100   1.00000
      6970 IM1      128      IM1      DC1      DRUD    -2.551600        0.4000           0   0.00000   0.00000
      6971 IM1      128      IM1      H1       HDA3A    0.094000        1.0080           0   0.00000   0.00000
      6972 IM1      128      IM1      H2       HDA3A    0.094000        1.0080           0   0.00000   0.00000
      6973 IM1      128      IM1      H3       HDA3A    0.094000        1.0080           0   0.00000   0.00000
      6974 IM1      128      IM1      N1       ND2R5A   2.670300       13.6070           0   -1.06300   1.30000
      6975 IM1      128      IM1      DN1      DRUD    -2.530300        0.4000           0   0.00000   0.00000
      6976 IM1      128      IM1      C2       CD2R5A   2.511900       11.6110           0   -1.37800   1.30000
      6977 IM1      128      IM1      DC2      DRUD    -2.880900        0.4000           0   0.00000   0.00000
      6978 IM1      128      IM1      H4       HDR5A    0.150000        1.0080           0   0.00000   0.00000
      6979 IM1      128      IM1      C3       CD2R5A   3.068900       11.6110           0   -1.37800   1.30000
      6980 IM1      128      IM1      DC3      DRUD    -2.880900        0.4000           0   0.00000   0.00000
      6981 IM1      128      IM1      H5       HDR5A    0.053000        1.0080           0   0.00000   0.00000
      6982 IM1      128      IM1      C4       CD2R5B   2.404400       11.6110           0   -0.868000   1.30000
      6983 IM1      128      IM1      DC4      DRUD    -2.286400        0.4000           0   0.00000   0.00000
      6984 IM1      128      IM1      H6       HDR5B    0.073000        1.0080           0   0.00000   0.00000
      6985 IM1      128      IM1      N2       ND2R5B   2.249300       13.6070           0   -0.840000   1.00000
      6986 IM1      128      IM1      DN2      DRUD    -2.249300        0.4000           0   0.00000   0.00000
      6987 IM1      128      IM1      H7       DUMH     0.000000        1.0080           0   0.00000   0.00000
      6988 IM1      128      IM1      LPN21    LPD     -0.474000        0.0000           -1   0.00000   0.00000
      6989 IM1      129      IM1      C1       CD33G    2.390600       11.6110           0   -1.08100   1.00000
      6990 IM1      129      IM1      DC1      DRUD    -2.551600        0.4000           0   0.00000   0.00000
      6991 IM1      129      IM1      H1       HDA3A    0.094000        1.0080           0   0.00000   0.00000
      6992 IM1      129      IM1      H2       HDA3A    0.094000        1.0080           0   0.00000   0.00000
      6993 IM1      129      IM1      H3       HDA3A    0.094000        1.0080           0   0.00000   0.00000
      6994 IM1      129      IM1      N1       ND2R5A   2.670300       13.6070           0   -1.06300   1.30000
      6995 IM1      129      IM1      DN1      DRUD    -2.530300        0.4000           0   0.00000   0.00000
      6996 IM1      129      IM1      C2       CD2R5A   2.511900       11.6110           0   -1.37800   1.30000
      6997 IM1      129      IM1      DC2      DRUD    -2.880900        0.4000           0   0.00000   0.00000
      6998 IM1      129      IM1      H4       HDR5A    0.150000        1.0080           0   0.00000   0.00000
      6999 IM1      129      IM1      C3       CD2R5A   3.068900       11.6110           0   -1.37800   1.30000
      7000 IM1      129      IM1      DC3      DRUD    -2.880900        0.4000           0   0.00000   0.00000
      7001 IM1      129      IM1      H5       HDR5A    0.053000        1.0080           0   0.00000   0.00000
      7002 IM1      129      IM1      C4       CD2R5B   2.404400       11.6110           0   -0.868000   1.30000
      7003 IM1      129      IM1      DC4      DRUD    -2.286400        0.4000           0   0.00000   0.00000
      7004 IM1      129      IM1      H6       HDR5B    0.073000        1.0080           0   0.00000   0.00000
      7005 IM1      129      IM1      N2       ND2R5B   2.249300       13.6070           0   -0.840000   1.00000
      7006 IM1      129      IM1      DN2      DRUD    -2.249300        0.4000           0   0.00000   0.00000
      7007 IM1      129      IM1      H7       DUMH     0.000000        1.0080           0   0.00000   0.00000
      7008 IM1      129      IM1      LPN21    LPD     -0.474000        0.0000           -1   0.00000   0.00000
      7009 IM1      130      IM1      C1       CD33G    2.390600       11.6110           0   -1.08100   1.00000
      7010 IM1      130      IM1      DC1      DRUD    -2.551600        0.4000           0   0.00000   0.00000
      7011 IM1      130      IM1      H1       HDA3A    0.094000        1.0080           0   0.00000   0.00000
      7012 IM1      130      IM1      H2       HDA3A    0.094000        1.0080           0   0.00000   0.00000
      7013 IM1      130      IM1      H3       HDA3A    0.094000        1.0080           0   0.00000   0.00000
      7014 IM1      130      IM1      N1       ND2R5A   2.670300       13.6070           0   -1.06300   1.30000
      7015 IM1      130      IM1      DN1      DRUD    -2.530300        0.4000           0   0.00000   0.00000
      7016 IM1      130      IM1      C2       CD2R5A   2.511900       11.6110           0   -1.37800   1.30000
      7017 IM1      130      IM1      DC2      DRUD    -2.880900        0.4000           0   0.00000   0.00000
      7018 IM1      130      IM1      H4       HDR5A    0.150000        1.0080           0   0.00000   0.00000
      7019 IM1      130      IM1      C3       CD2R5A   3.068900       11.6110           0   -1.37800   1.30000
      7020 IM1      130      IM1      DC3      DRUD    -2.880900        0.4000           0   0.00000   0.00000
      7021 IM1      130      IM1      H5       HDR5A    0.053000        1.0080           0   0.00000   0.00000
      7022 IM1      130      IM1      C4       CD2R5B   2.404400       11.6110           0   -0.868000   1.30000
      7023 IM1      130      IM1      DC4      DRUD    -2.286400        0.4000           0   0.00000   0.00000
      7024 IM1      130      IM1      H6       HDR5B    0.073000        1.0080           0   0.00000   0.00000
      7025 IM1      130      IM1      N2       ND2R5B   2.249300       13.6070           0   -0.840000   1.00000
      7026 IM1      130      IM1      DN2      DRUD    -2.249300        0.4000           0   0.00000   0.00000
      7027 IM1      130      IM1      H7       DUMH     0.000000        1.0080           0   0.00000   0.00000
      7028 IM1      130      IM1      LPN21    LPD     -0.474000        0.0000           -1   0.00000   0.00000
      7029 IM1      131      IM1      C1       CD33G    2.390600       11.6110           0   -1.08100   1.00000
      7030 IM1      131      IM1      DC1      DRUD    -2.551600        0.4000           0   0.00000   0.00000
      7031 IM1      131      IM1      H1       HDA3A    0.094000        1.0080           0   0.00000   0.00000
      7032 IM1      131      IM1      H2       HDA3A    0.094000        1.0080           0   0.00000   0.00000
      7033 IM1      131      IM1      H3       HDA3A    0.094000        1.0080           0   0.00000   0.00000
      7034 IM1      131      IM1      N1       ND2R5A   2.670300       13.6070           0   -1.06300   1.30000
      7035 IM1      131      IM1      DN1      DRUD    -2.530300        0.4000           0   0.00000   0.00000
      7036 IM1      131      IM1      C2       CD2R5A   2.511900       11.6110           0   -1.37800   1.30000
      7037 IM1      131      IM1      DC2      DRUD    -2.880900        0.4000           0   0.00000   0.00000
      7038 IM1      131      IM1      H4       HDR5A    0.150000        1.0080           0   0.00000   0.00000
      7039 IM1      131      IM1      C3       CD2R5A   3.068900       11.6110           0   -1.37800   1.30000
      7040 IM1      131      IM1      DC3      DRUD    -2.880900        0.4000           0   0.00000   0.00000
      7041 IM1      131      IM1      H5       HDR5A    0.053000        1.0080           0   0.00000   0.00000
      7042 IM1      131      IM1      C4       CD2R5B   2.404400       11.6110           0   -0.868000   1.30000
      7043 IM1      131      IM1      DC4      DRUD    -2.286400        0.4000           0   0.00000   0.00000
      7044 IM1      131      IM1      H6       HDR5B    0.073000        1.0080           0   0.00000   0.00000
      7045 IM1      131      IM1      N2       ND2R5B   2.249300       13.6070           0   -0.840000   1.00000
      7046 IM1      131      IM1      DN2      DRUD    -2.249300        0.4000           0   0.00000   0.00000
      7047 IM1      131      IM1      H7       DUMH     0.000000        1.0080           0   0.00000   0.00000
      7048 IM1      131      IM1      LPN21    LPD     -0.474000        0.0000           -1   0.00000   0.00000
      7049 IM1      132      IM1      C1       CD33G    2.390600       11.6110           0   -1.08100   1.00000
      7050 IM1      132      IM1      DC1      DRUD    -2.551600        0.4000           0   0.00000   0.00000
      7051 IM1      132      IM1      H1       HDA3A    0.094000        1.0080           0   0.00000   0.00000
      7052 IM1      132      IM1      H2       HDA3A    0.094000        1.0080           0   0.00000   0.00000
      7053 IM1      132      IM1      H3       HDA3A    0.094000        1.0080           0   0.00000   0.00000
      7054 IM1      132      IM1      N1       ND2R5A   2.670300       13.6070           0   -1.06300   1.30000
      7055 IM1      132      IM1      DN1      DRUD    -2.530300        0.4000           0   0.00000   0.00000
      7056 IM1      132      IM1      C2       CD2R5A   2.511900       11.6110           0   -1.37800   1.30000
      7057 IM1      132      IM1      DC2      DRUD    -2.880900        0.4000           0   0.00000   0.00000
      7058 IM1      132      IM1      H4       HDR5A    0.150000        1.0080           0   0.00000   0.00000
      7059 IM1      132      IM1      C3       CD2R5A   3.068900       11.6110           0   -1.37800   1.30000
      7060 IM1      132      IM1      DC3      DRUD    -2.880900        0.4000           0   0.00000   0.00000
      7061 IM1      132      IM1      H5       HDR5A    0.053000        1.0080           0   0.00000   0.00000
      7062 IM1      132      IM1      C4       CD2R5B   2.404400       11.6110           0   -0.868000   1.30000
      7063 IM1      132      IM1      DC4      DRUD    -2.286400        0.4000           0   0.00000   0.00000
      7064 IM1      132      IM1      H6       HDR5B    0.073000        1.0080           0   0.00000   0.00000
      7065 IM1      132      IM1      N2       ND2R5B   2.249300       13.6070           0   -0.840000   1.00000
      7066 IM1      132      IM1      DN2      DRUD    -2.249300        0.4000           0   0.00000   0.00000
      7067 IM1      132      IM1      H7       DUMH     0.000000        1.0080           0   0.00000   0.00000
      7068 IM1      132      IM1      LPN21    LPD     -0.474000        0.0000           -1   0.00000   0.00000
      7069 IM1      133      IM1      C1       CD33G    2.390600       11.6110           0   -1.08100   1.00000
      7070 IM1      133      IM1      DC1      DRUD    -2.551600        0.4000           0   0.00000   0.00000
      7071 IM1      133      IM1      H1       HDA3A    0.094000        1.0080           0   0.00000   0.00000
      7072 IM1      133      IM1      H2       HDA3A    0.094000        1.0080           0   0.00000   0.00000
      7073 IM1      133      IM1      H3       HDA3A    0.094000        1.0080           0   0.00000   0.00000
      7074 IM1      133      IM1      N1       ND2R5A   2.670300       13.6070           0   -1.06300   1.30000
      7075 IM1      133      IM1      DN1      DRUD    -2.530300        0.4000           0   0.00000   0.00000
      7076 IM1      133      IM1      C2       CD2R5A   2.511900       11.6110           0   -1.37800   1.30000
      7077 IM1      133      IM1      DC2      DRUD    -2.880900        0.4000           0   0.00000   0.00000
      7078 IM1      133      IM1      H4       HDR5A    0.150000        1.0080           0   0.00000   0.00000
      7079 IM1      133      IM1      C3       CD2R5A   3.068900       11.6110           0   -1.37800   1.30000
      7080 IM1      133      IM1      DC3      DRUD    -2.880900        0.4000           0   0.00000   0.00000
      7081 IM1      133      IM1      H5       HDR5A    0.053000        1.0080           0   0.00000   0.00000
      7082 IM1      133      IM1      C4       CD2R5B   2.404400       11.6110           0   -0.868000   1.30000
      7083 IM1      133      IM1      DC4      DRUD    -2.286400        0.4000           0   0.00000   0.00000
      7084 IM1      133      IM1      H6       HDR5B    0.073000        1.0080           0   0.00000   0.00000
      7085 IM1      133      IM1      N2       ND2R5B   2.249300       13.6070           0   -0.840000   1.00000
      7086 IM1      133      IM1      DN2      DRUD    -2.249300        0.4000           0   0.00000   0.00000
      7087 IM1      133      IM1      H7       DUMH     0.000000        1.0080           0   0.00000   0.00000
      7088 IM1      133      IM1      LPN21    LPD     -0.474000        0.0000           -1   0.00000   0.00000
      7089 IM1      134      IM1      C1       CD33G    2.390600       11.6110           0   -1.08100   1.00000
      7090 IM1      134      IM1      DC1      DRUD    -2.551600        0.4000           0   0.00000   0.00000
      7091 IM1      134      IM1      H1       HDA3A    0.094000        1.0080           0   0.00000   0.00000
      7092 IM1      134      IM1      H2       HDA3A    0.094000        1.0080           0   0.00000   0.00000
      7093 IM1      134      IM1      H3       HDA3A    0.094000        1.0080           0   0.00000   0.00000
      7094 IM1      134      IM1      N1       ND2R5A   2.670300       13.6070           0   -1.06300   1.30000
      7095 IM1      134      IM1      DN1      DRUD    -2.530300        0.4000           0   0.00000   0.00000
      7096 IM1      134      IM1      C2       CD2R5A   2.511900       11.6110           0   -1.37800   1.30000
      7097 IM1      134      IM1      DC2      DRUD    -2.880900        0.4000           0   0.00000   0.00000
      7098 IM1      134      IM1      H4       HDR5A    0.150000        1.0080           0   0.00000   0.00000
      7099 IM1      134      IM1      C3       CD2R5A   3.068900       11.6110           0   -1.37800   1.30000
      7100 IM1      134      IM1      DC3      DRUD    -2.880900        0.4000           0   0.00000   0.00000
      7101 IM1      134      IM1      H5       HDR5A    0.053000        1.0080           0   0.00000   0.00000
      7102 IM1      134      IM1      C4       CD2R5B   2.404400       11.6110           0   -0.868000   1.30000
      7103 IM1      134      IM1      DC4      DRUD    -2.286400        0.4000           0   0.00000   0.00000
      7104 IM1      134      IM1      H6       HDR5B    0.073000        1.0080           0   0.00000   0.00000
      7105 IM1      134      IM1      N2       ND2R5B   2.249300       13.6070           0   -0.840000   1.00000
      7106 IM1      134      IM1      DN2      DRUD    -2.249300        0.4000           0   0.00000   0.00000
      7107 IM1      134      IM1      H7       DUMH     0.000000        1.0080           0   0.00000   0.00000
      7108 IM1      134      IM1      LPN21    LPD     -0.474000        0.0000           -1   0.00000   0.00000
      7109 IM1      135      IM1      C1       CD33G    2.390600       11.6110           0   -1.08100   1.00000
      7110 IM1      135      IM1      DC1      DRUD    -2.551600        0.4000           0   0.00000   0.00000
      7111 IM1      135      IM1      H1       HDA3A    0.094000        1.0080           0   0.00000   0.00000
      7112 IM1      135      IM1      H2       HDA3A    0.094000        1.0080           0   0.00000   0.00000
      7113 IM1      135      IM1      H3       HDA3A    0.094000        1.0080           0   0.00000   0.00000
      7114 IM1      135      IM1      N1       ND2R5A   2.670300       13.6070           0   -1.06300   1.30000
      7115 IM1      135      IM1      DN1      DRUD    -2.530300        0.4000           0   0.00000   0.00000
      7116 IM1      135      IM1      C2       CD2R5A   2.511900       11.6110           0   -1.37800   1.30000
      7117 IM1      135      IM1      DC2      DRUD    -2.880900        0.4000           0   0.00000   0.00000
      7118 IM1      135      IM1      H4       HDR5A    0.150000        1.0080           0   0.00000   0.00000
      7119 IM1      135      IM1      C3       CD2R5A   3.068900       11.6110           0   -1.37800   1.30000
      7120 IM1      135      IM1      DC3      DRUD    -2.880900        0.4000           0   0.00000   0.00000
      7121 IM1      135      IM1      H5       HDR5A    0.053000        1.0080           0   0.00000   0.00000
      7122 IM1      135      IM1      C4       CD2R5B   2.404400       11.6110           0   -0.868000   1.30000
      7123 IM1      135      IM1      DC4      DRUD    -2.286400        0.4000           0   0.00000   0.00000
      7124 IM1      135      IM1      H6       HDR5B    0.073000        1.0080           0   0.00000   0.00000
      7125 IM1      135      IM1      N2       ND2R5B   2.249300       13.6070           0   -0.840000   1.00000
      7126 IM1      135      IM1      DN2      DRUD    -2.249300        0.4000           0   0.00000   0.00000
      7127 IM1      135      IM1      H7       DUMH     0.000000        1.0080           0   0.00000   0.00000
      7128 IM1      135      IM1      LPN21    LPD     -0.474000        0.0000           -1   0.00000   0.00000
      7129 IM1      136      IM1      C1       CD33G    2.390600       11.6110           0   -1.08100   1.00000
      7130 IM1      136      IM1      DC1      DRUD    -2.551600        0.4000           0   0.00000   0.00000
      7131 IM1      136      IM1      H1       HDA3A    0.094000        1.0080           0   0.00000   0.00000
      7132 IM1      136      IM1      H2       HDA3A    0.094000        1.0080           0   0.00000   0.00000
      7133 IM1      136      IM1      H3       HDA3A    0.094000        1.0080           0   0.00000   0.00000
      7134 IM1      136      IM1      N1       ND2R5A   2.670300       13.6070           0   -1.06300   1.30000
      7135 IM1      136      IM1      DN1      DRUD    -2.530300        0.4000           0   0.00000   0.00000
      7136 IM1      136      IM1      C2       CD2R5A   2.511900       11.6110           0   -1.37800   1.30000
      7137 IM1      136      IM1      DC2      DRUD    -2.880900        0.4000           0   0.00000   0.00000
      7138 IM1      136      IM1      H4       HDR5A    0.150000        1.0080           0   0.00000   0.00000
      7139 IM1      136      IM1      C3       CD2R5A   3.068900       11.6110           0   -1.37800   1.30000
      7140 IM1      136      IM1      DC3      DRUD    -2.880900        0.4000           0   0.00000   0.00000
      7141 IM1      136      IM1      H5       HDR5A    0.053000        1.0080           0   0.00000   0.00000
      7142 IM1      136      IM1      C4       CD2R5B   2.404400       11.6110           0   -0.868000   1.30000
      7143 IM1      136      IM1      DC4      DRUD    -2.286400        0.4000           0   0.00000   0.00000
      7144 IM1      136      IM1      H6       HDR5B    0.073000        1.0080           0   0.00000   0.00000
      7145 IM1      136      IM1      N2       ND2R5B   2.249300       13.6070           0   -0.840000   1.00000
      7146 IM1      136      IM1      DN2      DRUD    -2.249300        0.4000           0   0.00000   0.00000
      7147 IM1      136      IM1      H7       DUMH     0.000000        1.0080           0   0.00000   0.00000
      7148 IM1      136      IM1      LPN21    LPD     -0.474000        0.0000           -1   0.00000   0.00000
      7149 IM1      137      IM1      C1       CD33G    2.390600       11.6110           0   -1.08100   1.00000
      7150 IM1      137      IM1      DC1      DRUD    -2.551600        0.4000           0   0.00000   0.00000
      7151 IM1      137      IM1      H1       HDA3A    0.094000        1.0080           0   0.00000   0.00000
      7152 IM1      137      IM1      H2       HDA3A    0.094000        1.0080           0   0.00000   0.00000
      7153 IM1      137      IM1      H3       HDA3A    0.094000        1.0080           0   0.00000   0.00000
      7154 IM1      137      IM1      N1       ND2R5A   2.670300       13.6070           0   -1.06300   1.30000
      7155 IM1      137      IM1      DN1      DRUD    -2.530300        0.4000           0   0.00000   0.00000
      7156 IM1      137      IM1      C2       CD2R5A   2.511900       11.6110           0   -1.37800   1.30000
      7157 IM1      137      IM1      DC2      DRUD    -2.880900        0.4000           0   0.00000   0.00000
      7158 IM1      137      IM1      H4       HDR5A    0.150000        1.0080           0   0.00000   0.00000
      7159 IM1      137      IM1      C3       CD2R5A   3.068900       11.6110           0   -1.37800   1.30000
      7160 IM1      137      IM1      DC3      DRUD    -2.880900        0.4000           0   0.00000   0.00000
      7161 IM1      137      IM1      H5       HDR5A    0.053000        1.0080           0   0.00000   0.00000
      7162 IM1      137      IM1      C4       CD2R5B   2.404400       11.6110           0   -0.868000   1.30000
      7163 IM1      137      IM1      DC4      DRUD    -2.286400        0.4000           0   0.00000   0.00000
      7164 IM1      137      IM1      H6       HDR5B    0.073000        1.0080           0   0.00000   0.00000
      7165 IM1      137      IM1      N2       ND2R5B   2.249300       13.6070           0   -0.840000   1.00000
      7166 IM1      137      IM1      DN2      DRUD    -2.249300        0.4000           0   0.00000   0.00000
      7167 IM1      137      IM1      H7       DUMH     0.000000        1.0080           0   0.00000   0.00000
      7168 IM1      137      IM1      LPN21    LPD     -0.474000        0.0000           -1   0.00000   0.00000
      7169 IM1      138      IM1      C1       CD33G    2.390600       11.6110           0   -1.08100   1.00000
      7170 IM1      138      IM1      DC1      DRUD    -2.551600        0.4000           0   0.00000   0.00000
      7171 IM1      138      IM1      H1       HDA3A    0.094000        1.0080           0   0.00000   0.00000
      7172 IM1      138      IM1      H2       HDA3A    0.094000        1.0080           0   0.00000   0.00000
      7173 IM1      138      IM1      H3       HDA3A    0.094000        1.0080           0   0.00000   0.00000
      7174 IM1      138      IM1      N1       ND2R5A   2.670300       13.6070           0   -1.06300   1.30000
      7175 IM1      138      IM1      DN1      DRUD    -2.530300        0.4000           0   0.00000   0.00000
      7176 IM1      138      IM1      C2       CD2R5A   2.511900       11.6110           0   -1.37800   1.30000
      7177 IM1      138      IM1      DC2      DRUD    -2.880900        0.4000           0   0.00000   0.00000
      7178 IM1      138      IM1      H4       HDR5A    0.150000        1.0080           0   0.00000   0.00000
      7179 IM1      138      IM1      C3       CD2R5A   3.068900       11.6110           0   -1.37800   1.30000
      7180 IM1      138      IM1      DC3      DRUD    -2.880900        0.4000           0   0.00000   0.00000
      7181 IM1      138      IM1      H5       HDR5A    0.053000        1.0080           0   0.00000   0.00000
      7182 IM1      138      IM1      C4       CD2R5B   2.404400       11.6110           0   -0.868000   1.30000
      7183 IM1      138      IM1      DC4      DRUD    -2.286400        0.4000           0   0.00000   0.00000
      7184 IM1      138      IM1      H6       HDR5B    0.073000        1.0080           0   0.00000   0.00000
      7185 IM1      138      IM1      N2       ND2R5B   2.249300       13.6070           0   -0.840000   1.00000
      7186 IM1      138      IM1      DN2      DRUD    -2.249300        0.4000           0   0.00000   0.00000
      7187 IM1      138      IM1      H7       DUMH     0.000000        1.0080           0   0.00000   0.00000
      7188 IM1      138      IM1      LPN21    LPD     -0.474000        0.0000           -1   0.00000   0.00000
      7189 IM1      139      IM1      C1       CD33G    2.390600       11.6110           0   -1.08100   1.00000
      7190 IM1      139      IM1      DC1      DRUD    -2.551600        0.4000           0   0.00000   0.00000
      7191 IM1      139      IM1      H1       HDA3A    0.094000        1.0080           0   0.00000   0.00000
      7192 IM1      139      IM1      H2       HDA3A    0.094000        1.0080           0   0.00000   0.00000
      7193 IM1      139      IM1      H3       HDA3A    0.094000        1.0080           0   0.00000   0.00000
      7194 IM1      139      IM1      N1       ND2R5A   2.670300       13.6070           0   -1.06300   1.30000
      7195 IM1      139      IM1      DN1      DRUD    -2.530300        0.4000           0   0.00000   0.00000
      7196 IM1      139      IM1      C2       CD2R5A   2.511900       11.6110           0   -1.37800   1.30000
      7197 IM1      139      IM1      DC2      DRUD    -2.880900        0.4000           0   0.00000   0.00000
      7198 IM1      139      IM1      H4       HDR5A    0.150000        1.0080           0   0.00000   0.00000
      7199 IM1      139      IM1      C3       CD2R5A   3.068900       11.6110           0   -1.37800   1.30000
      7200 IM1      139      IM1      DC3      DRUD    -2.880900        0.4000           0   0.00000   0.00000
      7201 IM1      139      IM1      H5       HDR5A    0.053000        1.0080           0   0.00000   0.00000
      7202 IM1      139      IM1      C4       CD2R5B   2.404400       11.6110           0   -0.868000   1.30000
      7203 IM1      139      IM1      DC4      DRUD    -2.286400        0.4000           0   0.00000   0.00000
      7204 IM1      139      IM1      H6       HDR5B    0.073000        1.0080           0   0.00000   0.00000
      7205 IM1      139      IM1      N2       ND2R5B   2.249300       13.6070           0   -0.840000   1.00000
      7206 IM1      139      IM1      DN2      DRUD    -2.249300        0.4000           0   0.00000   0.00000
      7207 IM1      139      IM1      H7       DUMH     0.000000        1.0080           0   0.00000   0.00000
      7208 IM1      139      IM1      LPN21    LPD     -0.474000        0.0000           -1   0.00000   0.00000
      7209 IM1      140      IM1      C1       CD33G    2.390600       11.6110           0   -1.08100   1.00000
      7210 IM1      140      IM1      DC1      DRUD    -2.551600        0.4000           0   0.00000   0.00000
      7211 IM1      140      IM1      H1       HDA3A    0.094000        1.0080           0   0.00000   0.00000
      7212 IM1      140      IM1      H2       HDA3A    0.094000        1.0080           0   0.00000   0.00000
      7213 IM1      140      IM1      H3       HDA3A    0.094000        1.0080           0   0.00000   0.00000
      7214 IM1      140      IM1      N1       ND2R5A   2.670300       13.6070           0   -1.06300   1.30000
      7215 IM1      140      IM1      DN1      DRUD    -2.530300        0.4000           0   0.00000   0.00000
      7216 IM1      140      IM1      C2       CD2R5A   2.511900       11.6110           0   -1.37800   1.30000
      7217 IM1      140      IM1      DC2      DRUD    -2.880900        0.4000           0   0.00000   0.00000
      7218 IM1      140      IM1      H4       HDR5A    0.150000        1.0080           0   0.00000   0.00000
      7219 IM1      140      IM1      C3       CD2R5A   3.068900       11.6110           0   -1.37800   1.30000
      7220 IM1      140      IM1      DC3      DRUD    -2.880900        0.4000           0   0.00000   0.00000
      7221 IM1      140      IM1      H5       HDR5A    0.053000        1.0080           0   0.00000   0.00000
      7222 IM1      140      IM1      C4       CD2R5B   2.404400       11.6110           0   -0.868000   1.30000
      7223 IM1      140      IM1      DC4      DRUD    -2.286400        0.4000           0   0.00000   0.00000
      7224 IM1      140      IM1      H6       HDR5B    0.073000        1.0080           0   0.00000   0.00000
      7225 IM1      140      IM1      N2       ND2R5B   2.249300       13.6070           0   -0.840000   1.00000
      7226 IM1      140      IM1      DN2      DRUD    -2.249300        0.4000           0   0.00000   0.00000
      7227 IM1      140      IM1      H7       DUMH     0.000000        1.0080           0   0.00000   0.00000
      7228 IM1      140      IM1      LPN21    LPD     -0.474000        0.0000           -1   0.00000   0.00000
      7229 IM1      141      IM1      C1       CD33G    2.390600       11.6110           0   -1.08100   1.00000
      7230 IM1      141      IM1      DC1      DRUD    -2.551600        0.4000           0   0.00000   0.00000
      7231 IM1      141      IM1      H1       HDA3A    0.094000        1.0080           0   0.00000   0.00000
      7232 IM1      141      IM1      H2       HDA3A    0.094000        1.0080           0   0.00000   0.00000
      7233 IM1      141      IM1      H3       HDA3A    0.094000        1.0080           0   0.00000   0.00000
      7234 IM1      141      IM1      N1       ND2R5A   2.670300       13.6070           0   -1.06300   1.30000
      7235 IM1      141      IM1      DN1      DRUD    -2.530300        0.4000           0   0.00000   0.00000
      7236 IM1      141      IM1      C2       CD2R5A   2.511900       11.6110           0   -1.37800   1.30000
      7237 IM1      141      IM1      DC2      DRUD    -2.880900        0.4000           0   0.00000   0.00000
      7238 IM1      141      IM1      H4       HDR5A    0.150000        1.0080           0   0.00000   0.00000
      7239 IM1      141      IM1      C3       CD2R5A   3.068900       11.6110           0   -1.37800   1.30000
      7240 IM1      141      IM1      DC3      DRUD    -2.880900        0.4000           0   0.00000   0.00000
      7241 IM1      141      IM1      H5       HDR5A    0.053000        1.0080           0   0.00000   0.00000
      7242 IM1      141      IM1      C4       CD2R5B   2.404400       11.6110           0   -0.868000   1.30000
      7243 IM1      141      IM1      DC4      DRUD    -2.286400        0.4000           0   0.00000   0.00000
      7244 IM1      141      IM1      H6       HDR5B    0.073000        1.0080           0   0.00000   0.00000
      7245 IM1      141      IM1      N2       ND2R5B   2.249300       13.6070           0   -0.840000   1.00000
      7246 IM1      141      IM1      DN2      DRUD    -2.249300        0.4000           0   0.00000   0.00000
      7247 IM1      141      IM1      H7       DUMH     0.000000        1.0080           0   0.00000   0.00000
      7248 IM1      141      IM1      LPN21    LPD     -0.474000        0.0000           -1   0.00000   0.00000
      7249 IM1      142      IM1      C1       CD33G    2.390600       11.6110           0   -1.08100   1.00000
      7250 IM1      142      IM1      DC1      DRUD    -2.551600        0.4000           0   0.00000   0.00000
      7251 IM1      142      IM1      H1       HDA3A    0.094000        1.0080           0   0.00000   0.00000
      7252 IM1      142      IM1      H2       HDA3A    0.094000        1.0080           0   0.00000   0.00000
      7253 IM1      142      IM1      H3       HDA3A    0.094000        1.0080           0   0.00000   0.00000
      7254 IM1      142      IM1      N1       ND2R5A   2.670300       13.6070           0   -1.06300   1.30000
      7255 IM1      142      IM1      DN1      DRUD    -2.530300        0.4000           0   0.00000   0.00000
      7256 IM1      142      IM1      C2       CD2R5A   2.511900       11.6110           0   -1.37800   1.30000
      7257 IM1      142      IM1      DC2      DRUD    -2.880900        0.4000           0   0.00000   0.00000
      7258 IM1      142      IM1      H4       HDR5A    0.150000        1.0080           0   0.00000   0.00000
      7259 IM1      142      IM1      C3       CD2R5A   3.068900       11.6110           0   -1.37800   1.30000
      7260 IM1      142      IM1      DC3      DRUD    -2.880900        0.4000           0   0.00000   0.00000
      7261 IM1      142      IM1      H5       HDR5A    0.053000        1.0080           0   0.00000   0.00000
      7262 IM1      142      IM1      C4       CD2R5B   2.404400       11.6110           0   -0.868000   1.30000
      7263 IM1      142      IM1      DC4      DRUD    -2.286400        0.4000           0   0.00000   0.00000
      7264 IM1      142      IM1      H6       HDR5B    0.073000        1.0080           0   0.00000   0.00000
      7265 IM1      142      IM1      N2       ND2R5B   2.249300       13.6070           0   -0.840000   1.00000
      7266 IM1      142      IM1      DN2      DRUD    -2.249300        0.4000           0   0.00000   0.00000
      7267 IM1      142      IM1      H7       DUMH     0.000000        1.0080           0   0.00000   0.00000
      7268 IM1      142      IM1      LPN21    LPD     -0.474000        0.0000           -1   0.00000   0.00000
      7269 IM1      143      IM1      C1       CD33G    2.390600       11.6110           0   -1.08100   1.00000
      7270 IM1      143      IM1      DC1      DRUD    -2.551600        0.4000           0   0.00000   0.00000
      7271 IM1      143      IM1      H1       HDA3A    0.094000        1.0080           0   0.00000   0.00000
      7272 IM1      143      IM1      H2       HDA3A    0.094000        1.0080           0   0.00000   0.00000
      7273 IM1      143      IM1      H3       HDA3A    0.094000        1.0080           0   0.00000   0.00000
      7274 IM1      143      IM1      N1       ND2R5A   2.670300       13.6070           0   -1.06300   1.30000
      7275 IM1      143      IM1      DN1      DRUD    -2.530300        0.4000           0   0.00000   0.00000
      7276 IM1      143      IM1      C2       CD2R5A   2.511900       11.6110           0   -1.37800   1.30000
      7277 IM1      143      IM1      DC2      DRUD    -2.880900        0.4000           0   0.00000   0.00000
      7278 IM1      143      IM1      H4       HDR5A    0.150000        1.0080           0   0.00000   0.00000
      7279 IM1      143      IM1      C3       CD2R5A   3.068900       11.6110           0   -1.37800   1.30000
      7280 IM1      143      IM1      DC3      DRUD    -2.880900        0.4000           0   0.00000   0.00000
      7281 IM1      143      IM1      H5       HDR5A    0.053000        1.0080           0   0.00000   0.00000
      7282 IM1      143      IM1      C4       CD2R5B   2.404400       11.6110           0   -0.868000   1.30000
      7283 IM1      143      IM1      DC4      DRUD    -2.286400        0.4000           0   0.00000   0.00000
      7284 IM1      143      IM1      H6       HDR5B    0.073000        1.0080           0   0.00000   0.00000
      7285 IM1      143      IM1      N2       ND2R5B   2.249300       13.6070           0   -0.840000   1.00000
      7286 IM1      143      IM1      DN2      DRUD    -2.249300        0.4000           0   0.00000   0.00000
      7287 IM1      143      IM1      H7       DUMH     0.000000        1.0080           0   0.00000   0.00000
      7288 IM1      143      IM1      LPN21    LPD     -0.474000        0.0000           -1   0.00000   0.00000
      7289 IM1      144      IM1      C1       CD33G    2.390600       11.6110           0   -1.08100   1.00000
      7290 IM1      144      IM1      DC1      DRUD    -2.551600        0.4000           0   0.00000   0.00000
      7291 IM1      144      IM1      H1       HDA3A    0.094000        1.0080           0   0.00000   0.00000
      7292 IM1      144      IM1      H2       HDA3A    0.094000        1.0080           0   0.00000   0.00000
      7293 IM1      144      IM1      H3       HDA3A    0.094000        1.0080           0   0.00000   0.00000
      7294 IM1      144      IM1      N1       ND2R5A   2.670300       13.6070           0   -1.06300   1.30000
      7295 IM1      144      IM1      DN1      DRUD    -2.530300        0.4000           0   0.00000   0.00000
      7296 IM1      144      IM1      C2       CD2R5A   2.511900       11.6110           0   -1.37800   1.30000
      7297 IM1      144      IM1      DC2      DRUD    -2.880900        0.4000           0   0.00000   0.00000
      7298 IM1      144      IM1      H4       HDR5A    0.150000        1.0080           0   0.00000   0.00000
      7299 IM1      144      IM1      C3       CD2R5A   3.068900       11.6110           0   -1.37800   1.30000
      7300 IM1      144      IM1      DC3      DRUD    -2.880900        0.4000           0   0.00000   0.00000
      7301 IM1      144      IM1      H5       HDR5A    0.053000        1.0080           0   0.00000   0.00000
      7302 IM1      144      IM1      C4       CD2R5B   2.404400       11.6110           0   -0.868000   1.30000
      7303 IM1      144      IM1      DC4      DRUD    -2.286400        0.4000           0   0.00000   0.00000
      7304 IM1      144      IM1      H6       HDR5B    0.073000        1.0080           0   0.00000   0.00000
      7305 IM1      144      IM1      N2       ND2R5B   2.249300       13.6070           0   -0.840000   1.00000
      7306 IM1      144      IM1      DN2      DRUD    -2.249300        0.4000           0   0.00000   0.00000
      7307 IM1      144      IM1      H7       DUMH     0.000000        1.0080           0   0.00000   0.00000
      7308 IM1      144      IM1      LPN21    LPD     -0.474000        0.0000           -1   0.00000   0.00000
      7309 IM1      145      IM1      C1       CD33G    2.390600       11.6110           0   -1.08100   1.00000
      7310 IM1      145      IM1      DC1      DRUD    -2.551600        0.4000           0   0.00000   0.00000
      7311 IM1      145      IM1      H1       HDA3A    0.094000        1.0080           0   0.00000   0.00000
      7312 IM1      145      IM1      H2       HDA3A    0.094000        1.0080           0   0.00000   0.00000
      7313 IM1      145      IM1      H3       HDA3A    0.094000        1.0080           0   0.00000   0.00000
      7314 IM1      145      IM1      N1       ND2R5A   2.670300       13.6070           0   -1.06300   1.30000
      7315 IM1      145      IM1      DN1      DRUD    -2.530300        0.4000           0   0.00000   0.00000
      7316 IM1      145      IM1      C2       CD2R5A   2.511900       11.6110           0   -1.37800   1.30000
      7317 IM1      145      IM1      DC2      DRUD    -2.880900        0.4000           0   0.00000   0.00000
      7318 IM1      145      IM1      H4       HDR5A    0.150000        1.0080           0   0.00000   0.00000
      7319 IM1      145      IM1      C3       CD2R5A   3.068900       11.6110           0   -1.37800   1.30000
      7320 IM1      145      IM1      DC3      DRUD    -2.880900        0.4000           0   0.00000   0.00000
      7321 IM1      145      IM1      H5       HDR5A    0.053000        1.0080           0   0.00000   0.00000
      7322 IM1      145      IM1      C4       CD2R5B   2.404400       11.6110           0   -0.868000   1.30000
      7323 IM1      145      IM1      DC4      DRUD    -2.286400        0.4000           0   0.00000   0.00000
      7324 IM1      145      IM1      H6       HDR5B    0.073000        1.0080           0   0.00000   0.00000
      7325 IM1      145      IM1      N2       ND2R5B   2.249300       13.6070           0   -0.840000   1.00000
      7326 IM1      145      IM1      DN2      DRUD    -2.249300        0.4000           0   0.00000   0.00000
      7327 IM1      145      IM1      H7       DUMH     0.000000        1.0080           0   0.00000   0.00000
      7328 IM1      145      IM1      LPN21    LPD     -0.474000        0.0000           -1   0.00000   0.00000
      7329 IM1      146      IM1      C1       CD33G    2.390600       11.6110           0   -1.08100   1.00000
      7330 IM1      146      IM1      DC1      DRUD    -2.551600        0.4000           0   0.00000   0.00000
      7331 IM1      146      IM1      H1       HDA3A    0.094000        1.0080           0   0.00000   0.00000
      7332 IM1      146      IM1      H2       HDA3A    0.094000        1.0080           0   0.00000   0.00000
      7333 IM1      146      IM1      H3       HDA3A    0.094000        1.0080           0   0.00000   0.00000
      7334 IM1      146      IM1      N1       ND2R5A   2.670300       13.6070           0   -1.06300   1.30000
      7335 IM1      146      IM1      DN1      DRUD    -2.530300        0.4000           0   0.00000   0.00000
      7336 IM1      146      IM1      C2       CD2R5A   2.511900       11.6110           0   -1.37800   1.30000
      7337 IM1      146      IM1      DC2      DRUD    -2.880900        0.4000           0   0.00000   0.00000
      7338 IM1      146      IM1      H4       HDR5A    0.150000        1.0080           0   0.00000   0.00000
      7339 IM1      146      IM1      C3       CD2R5A   3.068900       11.6110           0   -1.37800   1.30000
      7340 IM1      146      IM1      DC3      DRUD    -2.880900        0.4000           0   0.00000   0.00000
      7341 IM1      146      IM1      H5       HDR5A    0.053000        1.0080           0   0.00000   0.00000
      7342 IM1      146      IM1      C4       CD2R5B   2.404400       11.6110           0   -0.868000   1.30000
      7343 IM1      146      IM1      DC4      DRUD    -2.286400        0.4000           0   0.00000   0.00000
      7344 IM1      146      IM1      H6       HDR5B    0.073000        1.0080           0   0.00000   0.00000
      7345 IM1      146      IM1      N2       ND2R5B   2.249300       13.6070           0   -0.840000   1.00000
      7346 IM1      146      IM1      DN2      DRUD    -2.249300        0.4000           0   0.00000   0.00000
      7347 IM1      146      IM1      H7       DUMH     0.000000        1.0080           0   0.00000   0.00000
      7348 IM1      146      IM1      LPN21    LPD     -0.474000        0.0000           -1   0.00000   0.00000
      7349 IM1      147      IM1      C1       CD33G    2.390600       11.6110           0   -1.08100   1.00000
      7350 IM1      147      IM1      DC1      DRUD    -2.551600        0.4000           0   0.00000   0.00000
      7351 IM1      147      IM1      H1       HDA3A    0.094000        1.0080           0   0.00000   0.00000
      7352 IM1      147      IM1      H2       HDA3A    0.094000        1.0080           0   0.00000   0.00000
      7353 IM1      147      IM1      H3       HDA3A    0.094000        1.0080           0   0.00000   0.00000
      7354 IM1      147      IM1      N1       ND2R5A   2.670300       13.6070           0   -1.06300   1.30000
      7355 IM1      147      IM1      DN1      DRUD    -2.530300        0.4000           0   0.00000   0.00000
      7356 IM1      147      IM1      C2       CD2R5A   2.511900       11.6110           0   -1.37800   1.30000
      7357 IM1      147      IM1      DC2      DRUD    -2.880900        0.4000           0   0.00000   0.00000
      7358 IM1      147      IM1      H4       HDR5A    0.150000        1.0080           0   0.00000   0.00000
      7359 IM1      147      IM1      C3       CD2R5A   3.068900       11.6110           0   -1.37800   1.30000
      7360 IM1      147      IM1      DC3      DRUD    -2.880900        0.4000           0   0.00000   0.00000
      7361 IM1      147      IM1      H5       HDR5A    0.053000        1.0080           0   0.00000   0.00000
      7362 IM1      147      IM1      C4       CD2R5B   2.404400       11.6110           0   -0.868000   1.30000
      7363 IM1      147      IM1      DC4      DRUD    -2.286400        0.4000           0   0.00000   0.00000
      7364 IM1      147      IM1      H6       HDR5B    0.073000        1.0080           0   0.00000   0.00000
      7365 IM1      147      IM1      N2       ND2R5B   2.249300       13.6070           0   -0.840000   1.00000
      7366 IM1      147      IM1      DN2      DRUD    -2.249300        0.4000           0   0.00000   0.00000
      7367 IM1      147      IM1      H7       DUMH     0.000000        1.0080           0   0.00000   0.00000
      7368 IM1      147      IM1      LPN21    LPD     -0.474000        0.0000           -1   0.00000   0.00000
      7369 IM1      148      IM1      C1       CD33G    2.390600       11.6110           0   -1.08100   1.00000
      7370 IM1      148      IM1      DC1      DRUD    -2.551600        0.4000           0   0.00000   0.00000
      7371 IM1      148      IM1      H1       HDA3A    0.094000        1.0080           0   0.00000   0.00000
      7372 IM1      148      IM1      H2       HDA3A    0.094000        1.0080           0   0.00000   0.00000
      7373 IM1      148      IM1      H3       HDA3A    0.094000        1.0080           0   0.00000   0.00000
      7374 IM1      148      IM1      N1       ND2R5A   2.670300       13.6070           0   -1.06300   1.30000
      7375 IM1      148      IM1      DN1      DRUD    -2.530300        0.4000           0   0.00000   0.00000
      7376 IM1      148      IM1      C2       CD2R5A   2.511900       11.6110           0   -1.37800   1.30000
      7377 IM1      148      IM1      DC2      DRUD    -2.880900        0.4000           0   0.00000   0.00000
      7378 IM1      148      IM1      H4       HDR5A    0.150000        1.0080           0   0.00000   0.00000
      7379 IM1      148      IM1      C3       CD2R5A   3.068900       11.6110           0   -1.37800   1.30000
      7380 IM1      148      IM1      DC3      DRUD    -2.880900        0.4000           0   0.00000   0.00000
      7381 IM1      148      IM1      H5       HDR5A    0.053000        1.0080           0   0.00000   0.00000
      7382 IM1      148      IM1      C4       CD2R5B   2.404400       11.6110           0   -0.868000   1.30000
      7383 IM1      148      IM1      DC4      DRUD    -2.286400        0.4000           0   0.00000   0.00000
      7384 IM1      148      IM1      H6       HDR5B    0.073000        1.0080           0   0.00000   0.00000
      7385 IM1      148      IM1      N2       ND2R5B   2.249300       13.6070           0   -0.840000   1.00000
      7386 IM1      148      IM1      DN2      DRUD    -2.249300        0.4000           0   0.00000   0.00000
      7387 IM1      148      IM1      H7       DUMH     0.000000        1.0080           0   0.00000   0.00000
      7388 IM1      148      IM1      LPN21    LPD     -0.474000        0.0000           -1   0.00000   0.00000
      7389 IM1      149      IM1      C1       CD33G    2.390600       11.6110           0   -1.08100   1.00000
      7390 IM1      149      IM1      DC1      DRUD    -2.551600        0.4000           0   0.00000   0.00000
      7391 IM1      149      IM1      H1       HDA3A    0.094000        1.0080           0   0.00000   0.00000
      7392 IM1      149      IM1      H2       HDA3A    0.094000        1.0080           0   0.00000   0.00000
      7393 IM1      149      IM1      H3       HDA3A    0.094000        1.0080           0   0.00000   0.00000
      7394 IM1      149      IM1      N1       ND2R5A   2.670300       13.6070           0   -1.06300   1.30000
      7395 IM1      149      IM1      DN1      DRUD    -2.530300        0.4000           0   0.00000   0.00000
      7396 IM1      149      IM1      C2       CD2R5A   2.511900       11.6110           0   -1.37800   1.30000
      7397 IM1      149      IM1      DC2      DRUD    -2.880900        0.4000           0   0.00000   0.00000
      7398 IM1      149      IM1      H4       HDR5A    0.150000        1.0080           0   0.00000   0.00000
      7399 IM1      149      IM1      C3       CD2R5A   3.068900       11.6110           0   -1.37800   1.30000
      7400 IM1      149      IM1      DC3      DRUD    -2.880900        0.4000           0   0.00000   0.00000
      7401 IM1      149      IM1      H5       HDR5A    0.053000        1.0080           0   0.00000   0.00000
      7402 IM1      149      IM1      C4       CD2R5B   2.404400       11.6110           0   -0.868000   1.30000
      7403 IM1      149      IM1      DC4      DRUD    -2.286400        0.4000           0   0.00000   0.00000
      7404 IM1      149      IM1      H6       HDR5B    0.073000        1.0080           0   0.00000   0.00000
      7405 IM1      149      IM1      N2       ND2R5B   2.249300       13.6070           0   -0.840000   1.00000
      7406 IM1      149      IM1      DN2      DRUD    -2.249300        0.4000           0   0.00000   0.00000
      7407 IM1      149      IM1      H7       DUMH     0.000000        1.0080           0   0.00000   0.00000
      7408 IM1      149      IM1      LPN21    LPD     -0.474000        0.0000           -1   0.00000   0.00000
      7409 IM1      150      IM1      C1       CD33G    2.390600       11.6110           0   -1.08100   1.00000
      7410 IM1      150      IM1      DC1      DRUD    -2.551600        0.4000           0   0.00000   0.00000
      7411 IM1      150      IM1      H1       HDA3A    0.094000        1.0080           0   0.00000   0.00000
      7412 IM1      150      IM1      H2       HDA3A    0.094000        1.0080           0   0.00000   0.00000
      7413 IM1      150      IM1      H3       HDA3A    0.094000        1.0080           0   0.00000   0.00000
      7414 IM1      150      IM1      N1       ND2R5A   2.670300       13.6070           0   -1.06300   1.30000
      7415 IM1      150      IM1      DN1      DRUD    -2.530300        0.4000           0   0.00000   0.00000
      7416 IM1      150      IM1      C2       CD2R5A   2.511900       11.6110           0   -1.37800   1.30000
      7417 IM1      150      IM1      DC2      DRUD    -2.880900        0.4000           0   0.00000   0.00000
      7418 IM1      150      IM1      H4       HDR5A    0.150000        1.0080           0   0.00000   0.00000
      7419 IM1      150      IM1      C3       CD2R5A   3.068900       11.6110           0   -1.37800   1.30000
      7420 IM1      150      IM1      DC3      DRUD    -2.880900        0.4000           0   0.00000   0.00000
      7421 IM1      150      IM1      H5       HDR5A    0.053000        1.0080           0   0.00000   0.00000
      7422 IM1      150      IM1      C4       CD2R5B   2.404400       11.6110           0   -0.868000   1.30000
      7423 IM1      150      IM1      DC4      DRUD    -2.286400        0.4000           0   0.00000   0.00000
      7424 IM1      150      IM1      H6       HDR5B    0.073000        1.0080           0   0.00000   0.00000
      7425 IM1      150      IM1      N2       ND2R5B   2.249300       13.6070           0   -0.840000   1.00000
      7426 IM1      150      IM1      DN2      DRUD    -2.249300        0.4000           0   0.00000   0.00000
      7427 IM1      150      IM1      H7       DUMH     0.000000        1.0080           0   0.00000   0.00000
      7428 IM1      150      IM1      LPN21    LPD     -0.474000        0.0000           -1   0.00000   0.00000
      7429 IM1      151      IM1      C1       CD33G    2.390600       11.6110           0   -1.08100   1.00000
      7430 IM1      151      IM1      DC1      DRUD    -2.551600        0.4000           0   0.00000   0.00000
      7431 IM1      151      IM1      H1       HDA3A    0.094000        1.0080           0   0.00000   0.00000
      7432 IM1      151      IM1      H2       HDA3A    0.094000        1.0080           0   0.00000   0.00000
      7433 IM1      151      IM1      H3       HDA3A    0.094000        1.0080           0   0.00000   0.00000
      7434 IM1      151      IM1      N1       ND2R5A   2.670300       13.6070           0   -1.06300   1.30000
      7435 IM1      151      IM1      DN1      DRUD    -2.530300        0.4000           0   0.00000   0.00000
      7436 IM1      151      IM1      C2       CD2R5A   2.511900       11.6110           0   -1.37800   1.30000
      7437 IM1      151      IM1      DC2      DRUD    -2.880900        0.4000           0   0.00000   0.00000
      7438 IM1      151      IM1      H4       HDR5A    0.150000        1.0080           0   0.00000   0.00000
      7439 IM1      151      IM1      C3       CD2R5A   3.068900       11.6110           0   -1.37800   1.30000
      7440 IM1      151      IM1      DC3      DRUD    -2.880900        0.4000           0   0.00000   0.00000
      7441 IM1      151      IM1      H5       HDR5A    0.053000        1.0080           0   0.00000   0.00000
      7442 IM1      151      IM1      C4       CD2R5B   2.404400       11.6110           0   -0.868000   1.30000
      7443 IM1      151      IM1      DC4      DRUD    -2.286400        0.4000           0   0.00000   0.00000
      7444 IM1      151      IM1      H6       HDR5B    0.073000        1.0080           0   0.00000   0.00000
      7445 IM1      151      IM1      N2       ND2R5B   2.249300       13.6070           0   -0.840000   1.00000
      7446 IM1      151      IM1      DN2      DRUD    -2.249300        0.4000           0   0.00000   0.00000
      7447 IM1      151      IM1      H7       DUMH     0.000000        1.0080           0   0.00000   0.00000
      7448 IM1      151      IM1      LPN21    LPD     -0.474000        0.0000           -1   0.00000   0.00000
      7449 IM1      152      IM1      C1       CD33G    2.390600       11.6110           0   -1.08100   1.00000
      7450 IM1      152      IM1      DC1      DRUD    -2.551600        0.4000           0   0.00000   0.00000
      7451 IM1      152      IM1      H1       HDA3A    0.094000        1.0080           0   0.00000   0.00000
      7452 IM1      152      IM1      H2       HDA3A    0.094000        1.0080           0   0.00000   0.00000
      7453 IM1      152      IM1      H3       HDA3A    0.094000        1.0080           0   0.00000   0.00000
      7454 IM1      152      IM1      N1       ND2R5A   2.670300       13.6070           0   -1.06300   1.30000
      7455 IM1      152      IM1      DN1      DRUD    -2.530300        0.4000           0   0.00000   0.00000
      7456 IM1      152      IM1      C2       CD2R5A   2.511900       11.6110           0   -1.37800   1.30000
      7457 IM1      152      IM1      DC2      DRUD    -2.880900        0.4000           0   0.00000   0.00000
      7458 IM1      152      IM1      H4       HDR5A    0.150000        1.0080           0   0.00000   0.00000
      7459 IM1      152      IM1      C3       CD2R5A   3.068900       11.6110           0   -1.37800   1.30000
      7460 IM1      152      IM1      DC3      DRUD    -2.880900        0.4000           0   0.00000   0.00000
      7461 IM1      152      IM1      H5       HDR5A    0.053000        1.0080           0   0.00000   0.00000
      7462 IM1      152      IM1      C4       CD2R5B   2.404400       11.6110           0   -0.868000   1.30000
      7463 IM1      152      IM1      DC4      DRUD    -2.286400        0.4000           0   0.00000   0.00000
      7464 IM1      152      IM1      H6       HDR5B    0.073000        1.0080           0   0.00000   0.00000
      7465 IM1      152      IM1      N2       ND2R5B   2.249300       13.6070           0   -0.840000   1.00000
      7466 IM1      152      IM1      DN2      DRUD    -2.249300        0.4000           0   0.00000   0.00000
      7467 IM1      152      IM1      H7       DUMH     0.000000        1.0080           0   0.00000   0.00000
      7468 IM1      152      IM1      LPN21    LPD     -0.474000        0.0000           -1   0.00000   0.00000
      7469 IM1      153      IM1      C1       CD33G    2.390600       11.6110           0   -1.08100   1.00000
      7470 IM1      153      IM1      DC1      DRUD    -2.551600        0.4000           0   0.00000   0.00000
      7471 IM1      153      IM1      H1       HDA3A    0.094000        1.0080           0   0.00000   0.00000
      7472 IM1      153      IM1      H2       HDA3A    0.094000        1.0080           0   0.00000   0.00000
      7473 IM1      153      IM1      H3       HDA3A    0.094000        1.0080           0   0.00000   0.00000
      7474 IM1      153      IM1      N1       ND2R5A   2.670300       13.6070           0   -1.06300   1.30000
      7475 IM1      153      IM1      DN1      DRUD    -2.530300        0.4000           0   0.00000   0.00000
      7476 IM1      153      IM1      C2       CD2R5A   2.511900       11.6110           0   -1.37800   1.30000
      7477 IM1      153      IM1      DC2      DRUD    -2.880900        0.4000           0   0.00000   0.00000
      7478 IM1      153      IM1      H4       HDR5A    0.150000        1.0080           0   0.00000   0.00000
      7479 IM1      153      IM1      C3       CD2R5A   3.068900       11.6110           0   -1.37800   1.30000
      7480 IM1      153      IM1      DC3      DRUD    -2.880900        0.4000           0   0.00000   0.00000
      7481 IM1      153      IM1      H5       HDR5A    0.053000        1.0080           0   0.00000   0.00000
      7482 IM1      153      IM1      C4       CD2R5B   2.404400       11.6110           0   -0.868000   1.30000
      7483 IM1      153      IM1      DC4      DRUD    -2.286400        0.4000           0   0.00000   0.00000
      7484 IM1      153      IM1      H6       HDR5B    0.073000        1.0080           0   0.00000   0.00000
      7485 IM1      153      IM1      N2       ND2R5B   2.249300       13.6070           0   -0.840000   1.00000
      7486 IM1      153      IM1      DN2      DRUD    -2.249300        0.4000           0   0.00000   0.00000
      7487 IM1      153      IM1      H7       DUMH     0.000000        1.0080           0   0.00000   0.00000
      7488 IM1      153      IM1      LPN21    LPD     -0.474000        0.0000           -1   0.00000   0.00000
      7489 IM1      154      IM1      C1       CD33G    2.390600       11.6110           0   -1.08100   1.00000
      7490 IM1      154      IM1      DC1      DRUD    -2.551600        0.4000           0   0.00000   0.00000
      7491 IM1      154      IM1      H1       HDA3A    0.094000        1.0080           0   0.00000   0.00000
      7492 IM1      154      IM1      H2       HDA3A    0.094000        1.0080           0   0.00000   0.00000
      7493 IM1      154      IM1      H3       HDA3A    0.094000        1.0080           0   0.00000   0.00000
      7494 IM1      154      IM1      N1       ND2R5A   2.670300       13.6070           0   -1.06300   1.30000
      7495 IM1      154      IM1      DN1      DRUD    -2.530300        0.4000           0   0.00000   0.00000
      7496 IM1      154      IM1      C2       CD2R5A   2.511900       11.6110           0   -1.37800   1.30000
      7497 IM1      154      IM1      DC2      DRUD    -2.880900        0.4000           0   0.00000   0.00000
      7498 IM1      154      IM1      H4       HDR5A    0.150000        1.0080           0   0.00000   0.00000
      7499 IM1      154      IM1      C3       CD2R5A   3.068900       11.6110           0   -1.37800   1.30000
      7500 IM1      154      IM1      DC3      DRUD    -2.880900        0.4000           0   0.00000   0.00000
      7501 IM1      154      IM1      H5       HDR5A    0.053000        1.0080           0   0.00000   0.00000
      7502 IM1      154      IM1      C4       CD2R5B   2.404400       11.6110           0   -0.868000   1.30000
      7503 IM1      154      IM1      DC4      DRUD    -2.286400        0.4000           0   0.00000   0.00000
      7504 IM1      154      IM1      H6       HDR5B    0.073000        1.0080           0   0.00000   0.00000
      7505 IM1      154      IM1      N2       ND2R5B   2.249300       13.6070           0   -0.840000   1.00000
      7506 IM1      154      IM1      DN2      DRUD    -2.249300        0.4000           0   0.00000   0.00000
      7507 IM1      154      IM1      H7       DUMH     0.000000        1.0080           0   0.00000   0.00000
      7508 IM1      154      IM1      LPN21    LPD     -0.474000        0.0000           -1   0.00000   0.00000
      7509 IM1      155      IM1      C1       CD33G    2.390600       11.6110           0   -1.08100   1.00000
      7510 IM1      155      IM1      DC1      DRUD    -2.551600        0.4000           0   0.00000   0.00000
      7511 IM1      155      IM1      H1       HDA3A    0.094000        1.0080           0   0.00000   0.00000
      7512 IM1      155      IM1      H2       HDA3A    0.094000        1.0080           0   0.00000   0.00000
      7513 IM1      155      IM1      H3       HDA3A    0.094000        1.0080           0   0.00000   0.00000
      7514 IM1      155      IM1      N1       ND2R5A   2.670300       13.6070           0   -1.06300   1.30000
      7515 IM1      155      IM1      DN1      DRUD    -2.530300        0.4000           0   0.00000   0.00000
      7516 IM1      155      IM1      C2       CD2R5A   2.511900       11.6110           0   -1.37800   1.30000
      7517 IM1      155      IM1      DC2      DRUD    -2.880900        0.4000           0   0.00000   0.00000
      7518 IM1      155      IM1      H4       HDR5A    0.150000        1.0080           0   0.00000   0.00000
      7519 IM1      155      IM1      C3       CD2R5A   3.068900       11.6110           0   -1.37800   1.30000
      7520 IM1      155      IM1      DC3      DRUD    -2.880900        0.4000           0   0.00000   0.00000
      7521 IM1      155      IM1      H5       HDR5A    0.053000        1.0080           0   0.00000   0.00000
      7522 IM1      155      IM1      C4       CD2R5B   2.404400       11.6110           0   -0.868000   1.30000
      7523 IM1      155      IM1      DC4      DRUD    -2.286400        0.4000           0   0.00000   0.00000
      7524 IM1      155      IM1      H6       HDR5B    0.073000        1.0080           0   0.00000   0.00000
      7525 IM1      155      IM1      N2       ND2R5B   2.249300       13.6070           0   -0.840000   1.00000
      7526 IM1      155      IM1      DN2      DRUD    -2.249300        0.4000           0   0.00000   0.00000
      7527 IM1      155      IM1      H7       DUMH     0.000000        1.0080           0   0.00000   0.00000
      7528 IM1      155      IM1      LPN21    LPD     -0.474000        0.0000           -1   0.00000   0.00000
      7529 IM1      156      IM1      C1       CD33G    2.390600       11.6110           0   -1.08100   1.00000
      7530 IM1      156      IM1      DC1      DRUD    -2.551600        0.4000           0   0.00000   0.00000
      7531 IM1      156      IM1      H1       HDA3A    0.094000        1.0080           0   0.00000   0.00000
      7532 IM1      156      IM1      H2       HDA3A    0.094000        1.0080           0   0.00000   0.00000
      7533 IM1      156      IM1      H3       HDA3A    0.094000        1.0080           0   0.00000   0.00000
      7534 IM1      156      IM1      N1       ND2R5A   2.670300       13.6070           0   -1.06300   1.30000
      7535 IM1      156      IM1      DN1      DRUD    -2.530300        0.4000           0   0.00000   0.00000
      7536 IM1      156      IM1      C2       CD2R5A   2.511900       11.6110           0   -1.37800   1.30000
      7537 IM1      156      IM1      DC2      DRUD    -2.880900        0.4000           0   0.00000   0.00000
      7538 IM1      156      IM1      H4       HDR5A    0.150000        1.0080           0   0.00000   0.00000
      7539 IM1      156      IM1      C3       CD2R5A   3.068900       11.6110           0   -1.37800   1.30000
      7540 IM1      156      IM1      DC3      DRUD    -2.880900        0.4000           0   0.00000   0.00000
      7541 IM1      156      IM1      H5       HDR5A    0.053000        1.0080           0   0.00000   0.00000
      7542 IM1      156      IM1      C4       CD2R5B   2.404400       11.6110           0   -0.868000   1.30000
      7543 IM1      156      IM1      DC4      DRUD    -2.286400        0.4000           0   0.00000   0.00000
      7544 IM1      156      IM1      H6       HDR5B    0.073000        1.0080           0   0.00000   0.00000
      7545 IM1      156      IM1      N2       ND2R5B   2.249300       13.6070           0   -0.840000   1.00000
      7546 IM1      156      IM1      DN2      DRUD    -2.249300        0.4000           0   0.00000   0.00000
      7547 IM1      156      IM1      H7       DUMH     0.000000        1.0080           0   0.00000   0.00000
      7548 IM1      156      IM1      LPN21    LPD     -0.474000        0.0000           -1   0.00000   0.00000
      7549 IM1      157      IM1      C1       CD33G    2.390600       11.6110           0   -1.08100   1.00000
      7550 IM1      157      IM1      DC1      DRUD    -2.551600        0.4000           0   0.00000   0.00000
      7551 IM1      157      IM1      H1       HDA3A    0.094000        1.0080           0   0.00000   0.00000
      7552 IM1      157      IM1      H2       HDA3A    0.094000        1.0080           0   0.00000   0.00000
      7553 IM1      157      IM1      H3       HDA3A    0.094000        1.0080           0   0.00000   0.00000
      7554 IM1      157      IM1      N1       ND2R5A   2.670300       13.6070           0   -1.06300   1.30000
      7555 IM1      157      IM1      DN1      DRUD    -2.530300        0.4000           0   0.00000   0.00000
      7556 IM1      157      IM1      C2       CD2R5A   2.511900       11.6110           0   -1.37800   1.30000
      7557 IM1      157      IM1      DC2      DRUD    -2.880900        0.4000           0   0.00000   0.00000
      7558 IM1      157      IM1      H4       HDR5A    0.150000        1.0080           0   0.00000   0.00000
      7559 IM1      157      IM1      C3       CD2R5A   3.068900       11.6110           0   -1.37800   1.30000
      7560 IM1      157      IM1      DC3      DRUD    -2.880900        0.4000           0   0.00000   0.00000
      7561 IM1      157      IM1      H5       HDR5A    0.053000        1.0080           0   0.00000   0.00000
      7562 IM1      157      IM1      C4       CD2R5B   2.404400       11.6110           0   -0.868000   1.30000
      7563 IM1      157      IM1      DC4      DRUD    -2.286400        0.4000           0   0.00000   0.00000
      7564 IM1      157      IM1      H6       HDR5B    0.073000        1.0080           0   0.00000   0.00000
      7565 IM1      157      IM1      N2       ND2R5B   2.249300       13.6070           0   -0.840000   1.00000
      7566 IM1      157      IM1      DN2      DRUD    -2.249300        0.4000           0   0.00000   0.00000
      7567 IM1      157      IM1      H7       DUMH     0.000000        1.0080           0   0.00000   0.00000
      7568 IM1      157      IM1      LPN21    LPD     -0.474000        0.0000           -1   0.00000   0.00000
      7569 IM1      158      IM1      C1       CD33G    2.390600       11.6110           0   -1.08100   1.00000
      7570 IM1      158      IM1      DC1      DRUD    -2.551600        0.4000           0   0.00000   0.00000
      7571 IM1      158      IM1      H1       HDA3A    0.094000        1.0080           0   0.00000   0.00000
      7572 IM1      158      IM1      H2       HDA3A    0.094000        1.0080           0   0.00000   0.00000
      7573 IM1      158      IM1      H3       HDA3A    0.094000        1.0080           0   0.00000   0.00000
      7574 IM1      158      IM1      N1       ND2R5A   2.670300       13.6070           0   -1.06300   1.30000
      7575 IM1      158      IM1      DN1      DRUD    -2.530300        0.4000           0   0.00000   0.00000
      7576 IM1      158      IM1      C2       CD2R5A   2.511900       11.6110           0   -1.37800   1.30000
      7577 IM1      158      IM1      DC2      DRUD    -2.880900        0.4000           0   0.00000   0.00000
      7578 IM1      158      IM1      H4       HDR5A    0.150000        1.0080           0   0.00000   0.00000
      7579 IM1      158      IM1      C3       CD2R5A   3.068900       11.6110           0   -1.37800   1.30000
      7580 IM1      158      IM1      DC3      DRUD    -2.880900        0.4000           0   0.00000   0.00000
      7581 IM1      158      IM1      H5       HDR5A    0.053000        1.0080           0   0.00000   0.00000
      7582 IM1      158      IM1      C4       CD2R5B   2.404400       11.6110           0   -0.868000   1.30000
      7583 IM1      158      IM1      DC4      DRUD    -2.286400        0.4000           0   0.00000   0.00000
      7584 IM1      158      IM1      H6       HDR5B    0.073000        1.0080           0   0.00000   0.00000
      7585 IM1      158      IM1      N2       ND2R5B   2.249300       13.6070           0   -0.840000   1.00000
      7586 IM1      158      IM1      DN2      DRUD    -2.249300        0.4000           0   0.00000   0.00000
      7587 IM1      158      IM1      H7       DUMH     0.000000        1.0080           0   0.00000   0.00000
      7588 IM1      158      IM1      LPN21    LPD     -0.474000        0.0000           -1   0.00000   0.00000
      7589 IM1      159      IM1      C1       CD33G    2.390600       11.6110           0   -1.08100   1.00000
      7590 IM1      159      IM1      DC1      DRUD    -2.551600        0.4000           0   0.00000   0.00000
      7591 IM1      159      IM1      H1       HDA3A    0.094000        1.0080           0   0.00000   0.00000
      7592 IM1      159      IM1      H2       HDA3A    0.094000        1.0080           0   0.00000   0.00000
      7593 IM1      159      IM1      H3       HDA3A    0.094000        1.0080           0   0.00000   0.00000
      7594 IM1      159      IM1      N1       ND2R5A   2.670300       13.6070           0   -1.06300   1.30000
      7595 IM1      159      IM1      DN1      DRUD    -2.530300        0.4000           0   0.00000   0.00000
      7596 IM1      159      IM1      C2       CD2R5A   2.511900       11.6110           0   -1.37800   1.30000
      7597 IM1      159      IM1      DC2      DRUD    -2.880900        0.4000           0   0.00000   0.00000
      7598 IM1      159      IM1      H4       HDR5A    0.150000        1.0080           0   0.00000   0.00000
      7599 IM1      159      IM1      C3       CD2R5A   3.068900       11.6110           0   -1.37800   1.30000
      7600 IM1      159      IM1      DC3      DRUD    -2.880900        0.4000           0   0.00000   0.00000
      7601 IM1      159      IM1      H5       HDR5A    0.053000        1.0080           0   0.00000   0.00000
      7602 IM1      159      IM1      C4       CD2R5B   2.404400       11.6110           0   -0.868000   1.30000
      7603 IM1      159      IM1      DC4      DRUD    -2.286400        0.4000           0   0.00000   0.00000
      7604 IM1      159      IM1      H6       HDR5B    0.073000        1.0080           0   0.00000   0.00000
      7605 IM1      159      IM1      N2       ND2R5B   2.249300       13.6070           0   -0.840000   1.00000
      7606 IM1      159      IM1      DN2      DRUD    -2.249300        0.4000           0   0.00000   0.00000
      7607 IM1      159      IM1      H7       DUMH     0.000000        1.0080           0   0.00000   0.00000
      7608 IM1      159      IM1      LPN21    LPD     -0.474000        0.0000           -1   0.00000   0.00000
      7609 IM1      160      IM1      C1       CD33G    2.390600       11.6110           0   -1.08100   1.00000
      7610 IM1      160      IM1      DC1      DRUD    -2.551600        0.4000           0   0.00000   0.00000
      7611 IM1      160      IM1      H1       HDA3A    0.094000        1.0080           0   0.00000   0.00000
      7612 IM1      160      IM1      H2       HDA3A    0.094000        1.0080           0   0.00000   0.00000
      7613 IM1      160      IM1      H3       HDA3A    0.094000        1.0080           0   0.00000   0.00000
      7614 IM1      160      IM1      N1       ND2R5A   2.670300       13.6070           0   -1.06300   1.30000
      7615 IM1      160      IM1      DN1      DRUD    -2.530300        0.4000           0   0.00000   0.00000
      7616 IM1      160      IM1      C2       CD2R5A   2.511900       11.6110           0   -1.37800   1.30000
      7617 IM1      160      IM1      DC2      DRUD    -2.880900        0.4000           0   0.00000   0.00000
      7618 IM1      160      IM1      H4       HDR5A    0.150000        1.0080           0   0.00000   0.00000
      7619 IM1      160      IM1      C3       CD2R5A   3.068900       11.6110           0   -1.37800   1.30000
      7620 IM1      160      IM1      DC3      DRUD    -2.880900        0.4000           0   0.00000   0.00000
      7621 IM1      160      IM1      H5       HDR5A    0.053000        1.0080           0   0.00000   0.00000
      7622 IM1      160      IM1      C4       CD2R5B   2.404400       11.6110           0   -0.868000   1.30000
      7623 IM1      160      IM1      DC4      DRUD    -2.286400        0.4000           0   0.00000   0.00000
      7624 IM1      160      IM1      H6       HDR5B    0.073000        1.0080           0   0.00000   0.00000
      7625 IM1      160      IM1      N2       ND2R5B   2.249300       13.6070           0   -0.840000   1.00000
      7626 IM1      160      IM1      DN2      DRUD    -2.249300        0.4000           0   0.00000   0.00000
      7627 IM1      160      IM1      H7       DUMH     0.000000        1.0080           0   0.00000   0.00000
      7628 IM1      160      IM1      LPN21    LPD     -0.474000        0.0000           -1   0.00000   0.00000
      7629 IM1      161      IM1      C1       CD33G    2.390600       11.6110           0   -1.08100   1.00000
      7630 IM1      161      IM1      DC1      DRUD    -2.551600        0.4000           0   0.00000   0.00000
      7631 IM1      161      IM1      H1       HDA3A    0.094000        1.0080           0   0.00000   0.00000
      7632 IM1      161      IM1      H2       HDA3A    0.094000        1.0080           0   0.00000   0.00000
      7633 IM1      161      IM1      H3       HDA3A    0.094000        1.0080           0   0.00000   0.00000
      7634 IM1      161      IM1      N1       ND2R5A   2.670300       13.6070           0   -1.06300   1.30000
      7635 IM1      161      IM1      DN1      DRUD    -2.530300        0.4000           0   0.00000   0.00000
      7636 IM1      161      IM1      C2       CD2R5A   2.511900       11.6110           0   -1.37800   1.30000
      7637 IM1      161      IM1      DC2      DRUD    -2.880900        0.4000           0   0.00000   0.00000
      7638 IM1      161      IM1      H4       HDR5A    0.150000        1.0080           0   0.00000   0.00000
      7639 IM1      161      IM1      C3       CD2R5A   3.068900       11.6110           0   -1.37800   1.30000
      7640 IM1      161      IM1      DC3      DRUD    -2.880900        0.4000           0   0.00000   0.00000
      7641 IM1      161      IM1      H5       HDR5A    0.053000        1.0080           0   0.00000   0.00000
      7642 IM1      161      IM1      C4       CD2R5B   2.404400       11.6110           0   -0.868000   1.30000
      7643 IM1      161      IM1      DC4      DRUD    -2.286400        0.4000           0   0.00000   0.00000
      7644 IM1      161      IM1      H6       HDR5B    0.073000        1.0080           0   0.00000   0.00000
      7645 IM1      161      IM1      N2       ND2R5B   2.249300       13.6070           0   -0.840000   1.00000
      7646 IM1      161      IM1      DN2      DRUD    -2.249300        0.4000           0   0.00000   0.00000
      7647 IM1      161      IM1      H7       DUMH     0.000000        1.0080           0   0.00000   0.00000
      7648 IM1      161      IM1      LPN21    LPD     -0.474000        0.0000           -1   0.00000   0.00000
      7649 IM1      162      IM1      C1       CD33G    2.390600       11.6110           0   -1.08100   1.00000
      7650 IM1      162      IM1      DC1      DRUD    -2.551600        0.4000           0   0.00000   0.00000
      7651 IM1      162      IM1      H1       HDA3A    0.094000        1.0080           0   0.00000   0.00000
      7652 IM1      162      IM1      H2       HDA3A    0.094000        1.0080           0   0.00000   0.00000
      7653 IM1      162      IM1      H3       HDA3A    0.094000        1.0080           0   0.00000   0.00000
      7654 IM1      162      IM1      N1       ND2R5A   2.670300       13.6070           0   -1.06300   1.30000
      7655 IM1      162      IM1      DN1      DRUD    -2.530300        0.4000           0   0.00000   0.00000
      7656 IM1      162      IM1      C2       CD2R5A   2.511900       11.6110           0   -1.37800   1.30000
      7657 IM1      162      IM1      DC2      DRUD    -2.880900        0.4000           0   0.00000   0.00000
      7658 IM1      162      IM1      H4       HDR5A    0.150000        1.0080           0   0.00000   0.00000
      7659 IM1      162      IM1      C3       CD2R5A   3.068900       11.6110           0   -1.37800   1.30000
      7660 IM1      162      IM1      DC3      DRUD    -2.880900        0.4000           0   0.00000   0.00000
      7661 IM1      162      IM1      H5       HDR5A    0.053000        1.0080           0   0.00000   0.00000
      7662 IM1      162      IM1      C4       CD2R5B   2.404400       11.6110           0   -0.868000   1.30000
      7663 IM1      162      IM1      DC4      DRUD    -2.286400        0.4000           0   0.00000   0.00000
      7664 IM1      162      IM1      H6       HDR5B    0.073000        1.0080           0   0.00000   0.00000
      7665 IM1      162      IM1      N2       ND2R5B   2.249300       13.6070           0   -0.840000   1.00000
      7666 IM1      162      IM1      DN2      DRUD    -2.249300        0.4000           0   0.00000   0.00000
      7667 IM1      162      IM1      H7       DUMH     0.000000        1.0080           0   0.00000   0.00000
      7668 IM1      162      IM1      LPN21    LPD     -0.474000        0.0000           -1   0.00000   0.00000
      7669 IM1      163      IM1      C1       CD33G    2.390600       11.6110           0   -1.08100   1.00000
      7670 IM1      163      IM1      DC1      DRUD    -2.551600        0.4000           0   0.00000   0.00000
      7671 IM1      163      IM1      H1       HDA3A    0.094000        1.0080           0   0.00000   0.00000
      7672 IM1      163      IM1      H2       HDA3A    0.094000        1.0080           0   0.00000   0.00000
      7673 IM1      163      IM1      H3       HDA3A    0.094000        1.0080           0   0.00000   0.00000
      7674 IM1      163      IM1      N1       ND2R5A   2.670300       13.6070           0   -1.06300   1.30000
      7675 IM1      163      IM1      DN1      DRUD    -2.530300        0.4000           0   0.00000   0.00000
      7676 IM1      163      IM1      C2       CD2R5A   2.511900       11.6110           0   -1.37800   1.30000
      7677 IM1      163      IM1      DC2      DRUD    -2.880900        0.4000           0   0.00000   0.00000
      7678 IM1      163      IM1      H4       HDR5A    0.150000        1.0080           0   0.00000   0.00000
      7679 IM1      163      IM1      C3       CD2R5A   3.068900       11.6110           0   -1.37800   1.30000
      7680 IM1      163      IM1      DC3      DRUD    -2.880900        0.4000           0   0.00000   0.00000
      7681 IM1      163      IM1      H5       HDR5A    0.053000        1.0080           0   0.00000   0.00000
      7682 IM1      163      IM1      C4       CD2R5B   2.404400       11.6110           0   -0.868000   1.30000
      7683 IM1      163      IM1      DC4      DRUD    -2.286400        0.4000           0   0.00000   0.00000
      7684 IM1      163      IM1      H6       HDR5B    0.073000        1.0080           0   0.00000   0.00000
      7685 IM1      163      IM1      N2       ND2R5B   2.249300       13.6070           0   -0.840000   1.00000
      7686 IM1      163      IM1      DN2      DRUD    -2.249300        0.4000           0   0.00000   0.00000
      7687 IM1      163      IM1      H7       DUMH     0.000000        1.0080           0   0.00000   0.00000
      7688 IM1      163      IM1      LPN21    LPD     -0.474000        0.0000           -1   0.00000   0.00000
      7689 IM1      164      IM1      C1       CD33G    2.390600       11.6110           0   -1.08100   1.00000
      7690 IM1      164      IM1      DC1      DRUD    -2.551600        0.4000           0   0.00000   0.00000
      7691 IM1      164      IM1      H1       HDA3A    0.094000        1.0080           0   0.00000   0.00000
      7692 IM1      164      IM1      H2       HDA3A    0.094000        1.0080           0   0.00000   0.00000
      7693 IM1      164      IM1      H3       HDA3A    0.094000        1.0080           0   0.00000   0.00000
      7694 IM1      164      IM1      N1       ND2R5A   2.670300       13.6070           0   -1.06300   1.30000
      7695 IM1      164      IM1      DN1      DRUD    -2.530300        0.4000           0   0.00000   0.00000
      7696 IM1      164      IM1      C2       CD2R5A   2.511900       11.6110           0   -1.37800   1.30000
      7697 IM1      164      IM1      DC2      DRUD    -2.880900        0.4000           0   0.00000   0.00000
      7698 IM1      164      IM1      H4       HDR5A    0.150000        1.0080           0   0.00000   0.00000
      7699 IM1      164      IM1      C3       CD2R5A   3.068900       11.6110           0   -1.37800   1.30000
      7700 IM1      164      IM1      DC3      DRUD    -2.880900        0.4000           0   0.00000   0.00000
      7701 IM1      164      IM1      H5       HDR5A    0.053000        1.0080           0   0.00000   0.00000
      7702 IM1      164      IM1      C4       CD2R5B   2.404400       11.6110           0   -0.868000   1.30000
      7703 IM1      164      IM1      DC4      DRUD    -2.286400        0.4000           0   0.00000   0.00000
      7704 IM1      164      IM1      H6       HDR5B    0.073000        1.0080           0   0.00000   0.00000
      7705 IM1      164      IM1      N2       ND2R5B   2.249300       13.6070           0   -0.840000   1.00000
      7706 IM1      164      IM1      DN2      DRUD    -2.249300        0.4000           0   0.00000   0.00000
      7707 IM1      164      IM1      H7       DUMH     0.000000        1.0080           0   0.00000   0.00000
      7708 IM1      164      IM1      LPN21    LPD     -0.474000        0.0000           -1   0.00000   0.00000
      7709 IM1      165      IM1      C1       CD33G    2.390600       11.6110           0   -1.08100   1.00000
      7710 IM1      165      IM1      DC1      DRUD    -2.551600        0.4000           0   0.00000   0.00000
      7711 IM1      165      IM1      H1       HDA3A    0.094000        1.0080           0   0.00000   0.00000
      7712 IM1      165      IM1      H2       HDA3A    0.094000        1.0080           0   0.00000   0.00000
      7713 IM1      165      IM1      H3       HDA3A    0.094000        1.0080           0   0.00000   0.00000
      7714 IM1      165      IM1      N1       ND2R5A   2.670300       13.6070           0   -1.06300   1.30000
      7715 IM1      165      IM1      DN1      DRUD    -2.530300        0.4000           0   0.00000   0.00000
      7716 IM1      165      IM1      C2       CD2R5A   2.511900       11.6110           0   -1.37800   1.30000
      7717 IM1      165      IM1      DC2      DRUD    -2.880900        0.4000           0   0.00000   0.00000
      7718 IM1      165      IM1      H4       HDR5A    0.150000        1.0080           0   0.00000   0.00000
      7719 IM1      165      IM1      C3       CD2R5A   3.068900       11.6110           0   -1.37800   1.30000
      7720 IM1      165      IM1      DC3      DRUD    -2.880900        0.4000           0   0.00000   0.00000
      7721 IM1      165      IM1      H5       HDR5A    0.053000        1.0080           0   0.00000   0.00000
      7722 IM1      165      IM1      C4       CD2R5B   2.404400       11.6110           0   -0.868000   1.30000
      7723 IM1      165      IM1      DC4      DRUD    -2.286400        0.4000           0   0.00000   0.00000
      7724 IM1      165      IM1      H6       HDR5B    0.073000        1.0080           0   0.00000   0.00000
      7725 IM1      165      IM1      N2       ND2R5B   2.249300       13.6070           0   -0.840000   1.00000
      7726 IM1      165      IM1      DN2      DRUD    -2.249300        0.4000           0   0.00000   0.00000
      7727 IM1      165      IM1      H7       DUMH     0.000000        1.0080           0   0.00000   0.00000
      7728 IM1      165      IM1      LPN21    LPD     -0.474000        0.0000           -1   0.00000   0.00000
      7729 IM1      166      IM1      C1       CD33G    2.390600       11.6110           0   -1.08100   1.00000
      7730 IM1      166      IM1      DC1      DRUD    -2.551600        0.4000           0   0.00000   0.00000
      7731 IM1      166      IM1      H1       HDA3A    0.094000        1.0080           0   0.00000   0.00000
      7732 IM1      166      IM1      H2       HDA3A    0.094000        1.0080           0   0.00000   0.00000
      7733 IM1      166      IM1      H3       HDA3A    0.094000        1.0080           0   0.00000   0.00000
      7734 IM1      166      IM1      N1       ND2R5A   2.670300       13.6070           0   -1.06300   1.30000
      7735 IM1      166      IM1      DN1      DRUD    -2.530300        0.4000           0   0.00000   0.00000
      7736 IM1      166      IM1      C2       CD2R5A   2.511900       11.6110           0   -1.37800   1.30000
      7737 IM1      166      IM1      DC2      DRUD    -2.880900        0.4000           0   0.00000   0.00000
      7738 IM1      166      IM1      H4       HDR5A    0.150000        1.0080           0   0.00000   0.00000
      7739 IM1      166      IM1      C3       CD2R5A   3.068900       11.6110           0   -1.37800   1.30000
      7740 IM1      166      IM1      DC3      DRUD    -2.880900        0.4000           0   0.00000   0.00000
      7741 IM1      166      IM1      H5       HDR5A    0.053000        1.0080           0   0.00000   0.00000
      7742 IM1      166      IM1      C4       CD2R5B   2.404400       11.6110           0   -0.868000   1.30000
      7743 IM1      166      IM1      DC4      DRUD    -2.286400        0.4000           0   0.00000   0.00000
      7744 IM1      166      IM1      H6       HDR5B    0.073000        1.0080           0   0.00000   0.00000
      7745 IM1      166      IM1      N2       ND2R5B   2.249300       13.6070           0   -0.840000   1.00000
      7746 IM1      166      IM1      DN2      DRUD    -2.249300        0.4000           0   0.00000   0.00000
      7747 IM1      166      IM1      H7       DUMH     0.000000        1.0080           0   0.00000   0.00000
      7748 IM1      166      IM1      LPN21    LPD     -0.474000        0.0000           -1   0.00000   0.00000
      7749 IM1      167      IM1      C1       CD33G    2.390600       11.6110           0   -1.08100   1.00000
      7750 IM1      167      IM1      DC1      DRUD    -2.551600        0.4000           0   0.00000   0.00000
      7751 IM1      167      IM1      H1       HDA3A    0.094000        1.0080           0   0.00000   0.00000
      7752 IM1      167      IM1      H2       HDA3A    0.094000        1.0080           0   0.00000   0.00000
      7753 IM1      167      IM1      H3       HDA3A    0.094000        1.0080           0   0.00000   0.00000
      7754 IM1      167      IM1      N1       ND2R5A   2.670300       13.6070           0   -1.06300   1.30000
      7755 IM1      167      IM1      DN1      DRUD    -2.530300        0.4000           0   0.00000   0.00000
      7756 IM1      167      IM1      C2       CD2R5A   2.511900       11.6110           0   -1.37800   1.30000
      7757 IM1      167      IM1      DC2      DRUD    -2.880900        0.4000           0   0.00000   0.00000
      7758 IM1      167      IM1      H4       HDR5A    0.150000        1.0080           0   0.00000   0.00000
      7759 IM1      167      IM1      C3       CD2R5A   3.068900       11.6110           0   -1.37800   1.30000
      7760 IM1      167      IM1      DC3      DRUD    -2.880900        0.4000           0   0.00000   0.00000
      7761 IM1      167      IM1      H5       HDR5A    0.053000        1.0080           0   0.00000   0.00000
      7762 IM1      167      IM1      C4       CD2R5B   2.404400       11.6110           0   -0.868000   1.30000
      7763 IM1      167      IM1      DC4      DRUD    -2.286400        0.4000           0   0.00000   0.00000
      7764 IM1      167      IM1      H6       HDR5B    0.073000        1.0080           0   0.00000   0.00000
      7765 IM1      167      IM1      N2       ND2R5B   2.249300       13.6070           0   -0.840000   1.00000
      7766 IM1      167      IM1      DN2      DRUD    -2.249300        0.4000           0   0.00000   0.00000
      7767 IM1      167      IM1      H7       DUMH     0.000000        1.0080           0   0.00000   0.00000
      7768 IM1      167      IM1      LPN21    LPD     -0.474000        0.0000           -1   0.00000   0.00000
      7769 IM1      168      IM1      C1       CD33G    2.390600       11.6110           0   -1.08100   1.00000
      7770 IM1      168      IM1      DC1      DRUD    -2.551600        0.4000           0   0.00000   0.00000
      7771 IM1      168      IM1      H1       HDA3A    0.094000        1.0080           0   0.00000   0.00000
      7772 IM1      168      IM1      H2       HDA3A    0.094000        1.0080           0   0.00000   0.00000
      7773 IM1      168      IM1      H3       HDA3A    0.094000        1.0080           0   0.00000   0.00000
      7774 IM1      168      IM1      N1       ND2R5A   2.670300       13.6070           0   -1.06300   1.30000
      7775 IM1      168      IM1      DN1      DRUD    -2.530300        0.4000           0   0.00000   0.00000
      7776 IM1      168      IM1      C2       CD2R5A   2.511900       11.6110           0   -1.37800   1.30000
      7777 IM1      168      IM1      DC2      DRUD    -2.880900        0.4000           0   0.00000   0.00000
      7778 IM1      168      IM1      H4       HDR5A    0.150000        1.0080           0   0.00000   0.00000
      7779 IM1      168      IM1      C3       CD2R5A   3.068900       11.6110           0   -1.37800   1.30000
      7780 IM1      168      IM1      DC3      DRUD    -2.880900        0.4000           0   0.00000   0.00000
      7781 IM1      168      IM1      H5       HDR5A    0.053000        1.0080           0   0.00000   0.00000
      7782 IM1      168      IM1      C4       CD2R5B   2.404400       11.6110           0   -0.868000   1.30000
      7783 IM1      168      IM1      DC4      DRUD    -2.286400        0.4000           0   0.00000   0.00000
      7784 IM1      168      IM1      H6       HDR5B    0.073000        1.0080           0   0.00000   0.00000
      7785 IM1      168      IM1      N2       ND2R5B   2.249300       13.6070           0   -0.840000   1.00000
      7786 IM1      168      IM1      DN2      DRUD    -2.249300        0.4000           0   0.00000   0.00000
      7787 IM1      168      IM1      H7       DUMH     0.000000        1.0080           0   0.00000   0.00000
      7788 IM1      168      IM1      LPN21    LPD     -0.474000        0.0000           -1   0.00000   0.00000
      7789 IM1      169      IM1      C1       CD33G    2.390600       11.6110           0   -1.08100   1.00000
      7790 IM1      169      IM1      DC1      DRUD    -2.551600        0.4000           0   0.00000   0.00000
      7791 IM1      169      IM1      H1       HDA3A    0.094000        1.0080           0   0.00000   0.00000
      7792 IM1      169      IM1      H2       HDA3A    0.094000        1.0080           0   0.00000   0.00000
      7793 IM1      169      IM1      H3       HDA3A    0.094000        1.0080           0   0.00000   0.00000
      7794 IM1      169      IM1      N1       ND2R5A   2.670300       13.6070           0   -1.06300   1.30000
      7795 IM1      169      IM1      DN1      DRUD    -2.530300        0.4000           0   0.00000   0.00000
      7796 IM1      169      IM1      C2       CD2R5A   2.511900       11.6110           0   -1.37800   1.30000
      7797 IM1      169      IM1      DC2      DRUD    -2.880900        0.4000           0   0.00000   0.00000
      7798 IM1      169      IM1      H4       HDR5A    0.150000        1.0080           0   0.00000   0.00000
      7799 IM1      169      IM1      C3       CD2R5A   3.068900       11.6110           0   -1.37800   1.30000
      7800 IM1      169      IM1      DC3      DRUD    -2.880900        0.4000           0   0.00000   0.00000
      7801 IM1      169      IM1      H5       HDR5A    0.053000        1.0080           0   0.00000   0.00000
      7802 IM1      169      IM1      C4       CD2R5B   2.404400       11.6110           0   -0.868000   1.30000
      7803 IM1      169      IM1      DC4      DRUD    -2.286400        0.4000           0   0.00000   0.00000
      7804 IM1      169      IM1      H6       HDR5B    0.073000        1.0080           0   0.00000   0.00000
      7805 IM1      169      IM1      N2       ND2R5B   2.249300       13.6070           0   -0.840000   1.00000
      7806 IM1      169      IM1      DN2      DRUD    -2.249300        0.4000           0   0.00000   0.00000
      7807 IM1      169      IM1      H7       DUMH     0.000000        1.0080           0   0.00000   0.00000
      7808 IM1      169      IM1      LPN21    LPD     -0.474000        0.0000           -1   0.00000   0.00000
      7809 IM1      170      IM1      C1       CD33G    2.390600       11.6110           0   -1.08100   1.00000
      7810 IM1      170      IM1      DC1      DRUD    -2.551600        0.4000           0   0.00000   0.00000
      7811 IM1      170      IM1      H1       HDA3A    0.094000        1.0080           0   0.00000   0.00000
      7812 IM1      170      IM1      H2       HDA3A    0.094000        1.0080           0   0.00000   0.00000
      7813 IM1      170      IM1      H3       HDA3A    0.094000        1.0080           0   0.00000   0.00000
      7814 IM1      170      IM1      N1       ND2R5A   2.670300       13.6070           0   -1.06300   1.30000
      7815 IM1      170      IM1      DN1      DRUD    -2.530300        0.4000           0   0.00000   0.00000
      7816 IM1      170      IM1      C2       CD2R5A   2.511900       11.6110           0   -1.37800   1.30000
      7817 IM1      170      IM1      DC2      DRUD    -2.880900        0.4000           0   0.00000   0.00000
      7818 IM1      170      IM1      H4       HDR5A    0.150000        1.0080           0   0.00000   0.00000
      7819 IM1      170      IM1      C3       CD2R5A   3.068900       11.6110           0   -1.37800   1.30000
      7820 IM1      170      IM1      DC3      DRUD    -2.880900        0.4000           0   0.00000   0.00000
      7821 IM1      170      IM1      H5       HDR5A    0.053000        1.0080           0   0.00000   0.00000
      7822 IM1      170      IM1      C4       CD2R5B   2.404400       11.6110           0   -0.868000   1.30000
      7823 IM1      170      IM1      DC4      DRUD    -2.286400        0.4000           0   0.00000   0.00000
      7824 IM1      170      IM1      H6       HDR5B    0.073000        1.0080           0   0.00000   0.00000
      7825 IM1      170      IM1      N2       ND2R5B   2.249300       13.6070           0   -0.840000   1.00000
      7826 IM1      170      IM1      DN2      DRUD    -2.249300        0.4000           0   0.00000   0.00000
      7827 IM1      170      IM1      H7       DUMH     0.000000        1.0080           0   0.00000   0.00000
      7828 IM1      170      IM1      LPN21    LPD     -0.474000        0.0000           -1   0.00000   0.00000
      7829 IM1      171      IM1      C1       CD33G    2.390600       11.6110           0   -1.08100   1.00000
      7830 IM1      171      IM1      DC1      DRUD    -2.551600        0.4000           0   0.00000   0.00000
      7831 IM1      171      IM1      H1       HDA3A    0.094000        1.0080           0   0.00000   0.00000
      7832 IM1      171      IM1      H2       HDA3A    0.094000        1.0080           0   0.00000   0.00000
      7833 IM1      171      IM1      H3       HDA3A    0.094000        1.0080           0   0.00000   0.00000
      7834 IM1      171      IM1      N1       ND2R5A   2.670300       13.6070           0   -1.06300   1.30000
      7835 IM1      171      IM1      DN1      DRUD    -2.530300        0.4000           0   0.00000   0.00000
      7836 IM1      171      IM1      C2       CD2R5A   2.511900       11.6110           0   -1.37800   1.30000
      7837 IM1      171      IM1      DC2      DRUD    -2.880900        0.4000           0   0.00000   0.00000
      7838 IM1      171      IM1      H4       HDR5A    0.150000        1.0080           0   0.00000   0.00000
      7839 IM1      171      IM1      C3       CD2R5A   3.068900       11.6110           0   -1.37800   1.30000
      7840 IM1      171      IM1      DC3      DRUD    -2.880900        0.4000           0   0.00000   0.00000
      7841 IM1      171      IM1      H5       HDR5A    0.053000        1.0080           0   0.00000   0.00000
      7842 IM1      171      IM1      C4       CD2R5B   2.404400       11.6110           0   -0.868000   1.30000
      7843 IM1      171      IM1      DC4      DRUD    -2.286400        0.4000           0   0.00000   0.00000
      7844 IM1      171      IM1      H6       HDR5B    0.073000        1.0080           0   0.00000   0.00000
      7845 IM1      171      IM1      N2       ND2R5B   2.249300       13.6070           0   -0.840000   1.00000
      7846 IM1      171      IM1      DN2      DRUD    -2.249300        0.4000           0   0.00000   0.00000
      7847 IM1      171      IM1      H7       DUMH     0.000000        1.0080           0   0.00000   0.00000
      7848 IM1      171      IM1      LPN21    LPD     -0.474000        0.0000           -1   0.00000   0.00000
      7849 IM1      172      IM1      C1       CD33G    2.390600       11.6110           0   -1.08100   1.00000
      7850 IM1      172      IM1      DC1      DRUD    -2.551600        0.4000           0   0.00000   0.00000
      7851 IM1      172      IM1      H1       HDA3A    0.094000        1.0080           0   0.00000   0.00000
      7852 IM1      172      IM1      H2       HDA3A    0.094000        1.0080           0   0.00000   0.00000
      7853 IM1      172      IM1      H3       HDA3A    0.094000        1.0080           0   0.00000   0.00000
      7854 IM1      172      IM1      N1       ND2R5A   2.670300       13.6070           0   -1.06300   1.30000
      7855 IM1      172      IM1      DN1      DRUD    -2.530300        0.4000           0   0.00000   0.00000
      7856 IM1      172      IM1      C2       CD2R5A   2.511900       11.6110           0   -1.37800   1.30000
      7857 IM1      172      IM1      DC2      DRUD    -2.880900        0.4000           0   0.00000   0.00000
      7858 IM1      172      IM1      H4       HDR5A    0.150000        1.0080           0   0.00000   0.00000
      7859 IM1      172      IM1      C3       CD2R5A   3.068900       11.6110           0   -1.37800   1.30000
      7860 IM1      172      IM1      DC3      DRUD    -2.880900        0.4000           0   0.00000   0.00000
      7861 IM1      172      IM1      H5       HDR5A    0.053000        1.0080           0   0.00000   0.00000
      7862 IM1      172      IM1      C4       CD2R5B   2.404400       11.6110           0   -0.868000   1.30000
      7863 IM1      172      IM1      DC4      DRUD    -2.286400        0.4000           0   0.00000   0.00000
      7864 IM1      172      IM1      H6       HDR5B    0.073000        1.0080           0   0.00000   0.00000
      7865 IM1      172      IM1      N2       ND2R5B   2.249300       13.6070           0   -0.840000   1.00000
      7866 IM1      172      IM1      DN2      DRUD    -2.249300        0.4000           0   0.00000   0.00000
      7867 IM1      172      IM1      H7       DUMH     0.000000        1.0080           0   0.00000   0.00000
      7868 IM1      172      IM1      LPN21    LPD     -0.474000        0.0000           -1   0.00000   0.00000
      7869 IM1      173      IM1      C1       CD33G    2.390600       11.6110           0   -1.08100   1.00000
      7870 IM1      173      IM1      DC1      DRUD    -2.551600        0.4000           0   0.00000   0.00000
      7871 IM1      173      IM1      H1       HDA3A    0.094000        1.0080           0   0.00000   0.00000
      7872 IM1      173      IM1      H2       HDA3A    0.094000        1.0080           0   0.00000   0.00000
      7873 IM1      173      IM1      H3       HDA3A    0.094000        1.0080           0   0.00000   0.00000
      7874 IM1      173      IM1      N1       ND2R5A   2.670300       13.6070           0   -1.06300   1.30000
      7875 IM1      173      IM1      DN1      DRUD    -2.530300        0.4000           0   0.00000   0.00000
      7876 IM1      173      IM1      C2       CD2R5A   2.511900       11.6110           0   -1.37800   1.30000
      7877 IM1      173      IM1      DC2      DRUD    -2.880900        0.4000           0   0.00000   0.00000
      7878 IM1      173      IM1      H4       HDR5A    0.150000        1.0080           0   0.00000   0.00000
      7879 IM1      173      IM1      C3       CD2R5A   3.068900       11.6110           0   -1.37800   1.30000
      7880 IM1      173      IM1      DC3      DRUD    -2.880900        0.4000           0   0.00000   0.00000
      7881 IM1      173      IM1      H5       HDR5A    0.053000        1.0080           0   0.00000   0.00000
      7882 IM1      173      IM1      C4       CD2R5B   2.404400       11.6110           0   -0.868000   1.30000
      7883 IM1      173      IM1      DC4      DRUD    -2.286400        0.4000           0   0.00000   0.00000
      7884 IM1      173      IM1      H6       HDR5B    0.073000        1.0080           0   0.00000   0.00000
      7885 IM1      173      IM1      N2       ND2R5B   2.249300       13.6070           0   -0.840000   1.00000
      7886 IM1      173      IM1      DN2      DRUD    -2.249300        0.4000           0   0.00000   0.00000
      7887 IM1      173      IM1      H7       DUMH     0.000000        1.0080           0   0.00000   0.00000
      7888 IM1      173      IM1      LPN21    LPD     -0.474000        0.0000           -1   0.00000   0.00000
      7889 IM1      174      IM1      C1       CD33G    2.390600       11.6110           0   -1.08100   1.00000
      7890 IM1      174      IM1      DC1      DRUD    -2.551600        0.4000           0   0.00000   0.00000
      7891 IM1      174      IM1      H1       HDA3A    0.094000        1.0080           0   0.00000   0.00000
      7892 IM1      174      IM1      H2       HDA3A    0.094000        1.0080           0   0.00000   0.00000
      7893 IM1      174      IM1      H3       HDA3A    0.094000        1.0080           0   0.00000   0.00000
      7894 IM1      174      IM1      N1       ND2R5A   2.670300       13.6070           0   -1.06300   1.30000
      7895 IM1      174      IM1      DN1      DRUD    -2.530300        0.4000           0   0.00000   0.00000
      7896 IM1      174      IM1      C2       CD2R5A   2.511900       11.6110           0   -1.37800   1.30000
      7897 IM1      174      IM1      DC2      DRUD    -2.880900        0.4000           0   0.00000   0.00000
      7898 IM1      174      IM1      H4       HDR5A    0.150000        1.0080           0   0.00000   0.00000
      7899 IM1      174      IM1      C3       CD2R5A   3.068900       11.6110           0   -1.37800   1.30000
      7900 IM1      174      IM1      DC3      DRUD    -2.880900        0.4000           0   0.00000   0.00000
      7901 IM1      174      IM1      H5       HDR5A    0.053000        1.0080           0   0.00000   0.00000
      7902 IM1      174      IM1      C4       CD2R5B   2.404400       11.6110           0   -0.868000   1.30000
      7903 IM1      174      IM1      DC4      DRUD    -2.286400        0.4000           0   0.00000   0.00000
      7904 IM1      174      IM1      H6       HDR5B    0.073000        1.0080           0   0.00000   0.00000
      7905 IM1      174      IM1      N2       ND2R5B   2.249300       13.6070           0   -0.840000   1.00000
      7906 IM1      174      IM1      DN2      DRUD    -2.249300        0.4000           0   0.00000   0.00000
      7907 IM1      174      IM1      H7       DUMH     0.000000        1.0080           0   0.00000   0.00000
      7908 IM1      174      IM1      LPN21    LPD     -0.474000        0.0000           -1   0.00000   0.00000
      7909 IM1      175      IM1      C1       CD33G    2.390600       11.6110           0   -1.08100   1.00000
      7910 IM1      175      IM1      DC1      DRUD    -2.551600        0.4000           0   0.00000   0.00000
      7911 IM1      175      IM1      H1       HDA3A    0.094000        1.0080           0   0.00000   0.00000
      7912 IM1      175      IM1      H2       HDA3A    0.094000        1.0080           0   0.00000   0.00000
      7913 IM1      175      IM1      H3       HDA3A    0.094000        1.0080           0   0.00000   0.00000
      7914 IM1      175      IM1      N1       ND2R5A   2.670300       13.6070           0   -1.06300   1.30000
      7915 IM1      175      IM1      DN1      DRUD    -2.530300        0.4000           0   0.00000   0.00000
      7916 IM1      175      IM1      C2       CD2R5A   2.511900       11.6110           0   -1.37800   1.30000
      7917 IM1      175      IM1      DC2      DRUD    -2.880900        0.4000           0   0.00000   0.00000
      7918 IM1      175      IM1      H4       HDR5A    0.150000        1.0080           0   0.00000   0.00000
      7919 IM1      175      IM1      C3       CD2R5A   3.068900       11.6110           0   -1.37800   1.30000
      7920 IM1      175      IM1      DC3      DRUD    -2.880900        0.4000           0   0.00000   0.00000
      7921 IM1      175      IM1      H5       HDR5A    0.053000        1.0080           0   0.00000   0.00000
      7922 IM1      175      IM1      C4       CD2R5B   2.404400       11.6110           0   -0.868000   1.30000
      7923 IM1      175      IM1      DC4      DRUD    -2.286400        0.4000           0   0.00000   0.00000
      7924 IM1      175      IM1      H6       HDR5B    0.073000        1.0080           0   0.00000   0.00000
      7925 IM1      175      IM1      N2       ND2R5B   2.249300       13.6070           0   -0.840000   1.00000
      7926 IM1      175      IM1      DN2      DRUD    -2.249300        0.4000           0   0.00000   0.00000
      7927 IM1      175      IM1      H7       DUMH     0.000000        1.0080           0   0.00000   0.00000
      7928 IM1      175      IM1      LPN21    LPD     -0.474000        0.0000           -1   0.00000   0.00000
      7929 IM1      176      IM1      C1       CD33G    2.390600       11.6110           0   -1.08100   1.00000
      7930 IM1      176      IM1      DC1      DRUD    -2.551600        0.4000           0   0.00000   0.00000
      7931 IM1      176      IM1      H1       HDA3A    0.094000        1.0080           0   0.00000   0.00000
      7932 IM1      176      IM1      H2       HDA3A    0.094000        1.0080           0   0.00000   0.00000
      7933 IM1      176      IM1      H3       HDA3A    0.094000        1.0080           0   0.00000   0.00000
      7934 IM1      176      IM1      N1       ND2R5A   2.670300       13.6070           0   -1.06300   1.30000
      7935 IM1      176      IM1      DN1      DRUD    -2.530300        0.4000           0   0.00000   0.00000
      7936 IM1      176      IM1      C2       CD2R5A   2.511900       11.6110           0   -1.37800   1.30000
      7937 IM1      176      IM1      DC2      DRUD    -2.880900        0.4000           0   0.00000   0.00000
      7938 IM1      176      IM1      H4       HDR5A    0.150000        1.0080           0   0.00000   0.00000
      7939 IM1      176      IM1      C3       CD2R5A   3.068900       11.6110           0   -1.37800   1.30000
      7940 IM1      176      IM1      DC3      DRUD    -2.880900        0.4000           0   0.00000   0.00000
      7941 IM1      176      IM1      H5       HDR5A    0.053000        1.0080           0   0.00000   0.00000
      7942 IM1      176      IM1      C4       CD2R5B   2.404400       11.6110           0   -0.868000   1.30000
      7943 IM1      176      IM1      DC4      DRUD    -2.286400        0.4000           0   0.00000   0.00000
      7944 IM1      176      IM1      H6       HDR5B    0.073000        1.0080           0   0.00000   0.00000
      7945 IM1      176      IM1      N2       ND2R5B   2.249300       13.6070           0   -0.840000   1.00000
      7946 IM1      176      IM1      DN2      DRUD    -2.249300        0.4000           0   0.00000   0.00000
      7947 IM1      176      IM1      H7       DUMH     0.000000        1.0080           0   0.00000   0.00000
      7948 IM1      176      IM1      LPN21    LPD     -0.474000        0.0000           -1   0.00000   0.00000
      7949 IM1      177      IM1      C1       CD33G    2.390600       11.6110           0   -1.08100   1.00000
      7950 IM1      177      IM1      DC1      DRUD    -2.551600        0.4000           0   0.00000   0.00000
      7951 IM1      177      IM1      H1       HDA3A    0.094000        1.0080           0   0.00000   0.00000
      7952 IM1      177      IM1      H2       HDA3A    0.094000        1.0080           0   0.00000   0.00000
      7953 IM1      177      IM1      H3       HDA3A    0.094000        1.0080           0   0.00000   0.00000
      7954 IM1      177      IM1      N1       ND2R5A   2.670300       13.6070           0   -1.06300   1.30000
      7955 IM1      177      IM1      DN1      DRUD    -2.530300        0.4000           0   0.00000   0.00000
      7956 IM1      177      IM1      C2       CD2R5A   2.511900       11.6110           0   -1.37800   1.30000
      7957 IM1      177      IM1      DC2      DRUD    -2.880900        0.4000           0   0.00000   0.00000
      7958 IM1      177      IM1      H4       HDR5A    0.150000        1.0080           0   0.00000   0.00000
      7959 IM1      177      IM1      C3       CD2R5A   3.068900       11.6110           0   -1.37800   1.30000
      7960 IM1      177      IM1      DC3      DRUD    -2.880900        0.4000           0   0.00000   0.00000
      7961 IM1      177      IM1      H5       HDR5A    0.053000        1.0080           0   0.00000   0.00000
      7962 IM1      177      IM1      C4       CD2R5B   2.404400       11.6110           0   -0.868000   1.30000
      7963 IM1      177      IM1      DC4      DRUD    -2.286400        0.4000           0   0.00000   0.00000
      7964 IM1      177      IM1      H6       HDR5B    0.073000        1.0080           0   0.00000   0.00000
      7965 IM1      177      IM1      N2       ND2R5B   2.249300       13.6070           0   -0.840000   1.00000
      7966 IM1      177      IM1      DN2      DRUD    -2.249300        0.4000           0   0.00000   0.00000
      7967 IM1      177      IM1      H7       DUMH     0.000000        1.0080           0   0.00000   0.00000
      7968 IM1      177      IM1      LPN21    LPD     -0.474000        0.0000           -1   0.00000   0.00000
      7969 IM1      178      IM1      C1       CD33G    2.390600       11.6110           0   -1.08100   1.00000
      7970 IM1      178      IM1      DC1      DRUD    -2.551600        0.4000           0   0.00000   0.00000
      7971 IM1      178      IM1      H1       HDA3A    0.094000        1.0080           0   0.00000   0.00000
      7972 IM1      178      IM1      H2       HDA3A    0.094000        1.0080           0   0.00000   0.00000
      7973 IM1      178      IM1      H3       HDA3A    0.094000        1.0080           0   0.00000   0.00000
      7974 IM1      178      IM1      N1       ND2R5A   2.670300       13.6070           0   -1.06300   1.30000
      7975 IM1      178      IM1      DN1      DRUD    -2.530300        0.4000           0   0.00000   0.00000
      7976 IM1      178      IM1      C2       CD2R5A   2.511900       11.6110           0   -1.37800   1.30000
      7977 IM1      178      IM1      DC2      DRUD    -2.880900        0.4000           0   0.00000   0.00000
      7978 IM1      178      IM1      H4       HDR5A    0.150000        1.0080           0   0.00000   0.00000
      7979 IM1      178      IM1      C3       CD2R5A   3.068900       11.6110           0   -1.37800   1.30000
      7980 IM1      178      IM1      DC3      DRUD    -2.880900        0.4000           0   0.00000   0.00000
      7981 IM1      178      IM1      H5       HDR5A    0.053000        1.0080           0   0.00000   0.00000
      7982 IM1      178      IM1      C4       CD2R5B   2.404400       11.6110           0   -0.868000   1.30000
      7983 IM1      178      IM1      DC4      DRUD    -2.286400        0.4000           0   0.00000   0.00000
      7984 IM1      178      IM1      H6       HDR5B    0.073000        1.0080           0   0.00000   0.00000
      7985 IM1      178      IM1      N2       ND2R5B   2.249300       13.6070           0   -0.840000   1.00000
      7986 IM1      178      IM1      DN2      DRUD    -2.249300        0.4000           0   0.00000   0.00000
      7987 IM1      178      IM1      H7       DUMH     0.000000        1.0080           0   0.00000   0.00000
      7988 IM1      178      IM1      LPN21    LPD     -0.474000        0.0000           -1   0.00000   0.00000
      7989 IM1      179      IM1      C1       CD33G    2.390600       11.6110           0   -1.08100   1.00000
      7990 IM1      179      IM1      DC1      DRUD    -2.551600        0.4000           0   0.00000   0.00000
      7991 IM1      179      IM1      H1       HDA3A    0.094000        1.0080           0   0.00000   0.00000
      7992 IM1      179      IM1      H2       HDA3A    0.094000        1.0080           0   0.00000   0.00000
      7993 IM1      179      IM1      H3       HDA3A    0.094000        1.0080           0   0.00000   0.00000
      7994 IM1      179      IM1      N1       ND2R5A   2.670300       13.6070           0   -1.06300   1.30000
      7995 IM1      179      IM1      DN1      DRUD    -2.530300        0.4000           0   0.00000   0.00000
      7996 IM1      179      IM1      C2       CD2R5A   2.511900       11.6110           0   -1.37800   1.30000
      7997 IM1      179      IM1      DC2      DRUD    -2.880900        0.4000           0   0.00000   0.00000
      7998 IM1      179      IM1      H4       HDR5A    0.150000        1.0080           0   0.00000   0.00000
      7999 IM1      179      IM1      C3       CD2R5A   3.068900       11.6110           0   -1.37800   1.30000
      8000 IM1      179      IM1      DC3      DRUD    -2.880900        0.4000           0   0.00000   0.00000
      8001 IM1      179      IM1      H5       HDR5A    0.053000        1.0080           0   0.00000   0.00000
      8002 IM1      179      IM1      C4       CD2R5B   2.404400       11.6110           0   -0.868000   1.30000
      8003 IM1      179      IM1      DC4      DRUD    -2.286400        0.4000           0   0.00000   0.00000
      8004 IM1      179      IM1      H6       HDR5B    0.073000        1.0080           0   0.00000   0.00000
      8005 IM1      179      IM1      N2       ND2R5B   2.249300       13.6070           0   -0.840000   1.00000
      8006 IM1      179      IM1      DN2      DRUD    -2.249300        0.4000           0   0.00000   0.00000
      8007 IM1      179      IM1      H7       DUMH     0.000000        1.0080           0   0.00000   0.00000
      8008 IM1      179      IM1      LPN21    LPD     -0.474000        0.0000           -1   0.00000   0.00000
      8009 IM1      180      IM1      C1       CD33G    2.390600       11.6110           0   -1.08100   1.00000
      8010 IM1      180      IM1      DC1      DRUD    -2.551600        0.4000           0   0.00000   0.00000
      8011 IM1      180      IM1      H1       HDA3A    0.094000        1.0080           0   0.00000   0.00000
      8012 IM1      180      IM1      H2       HDA3A    0.094000        1.0080           0   0.00000   0.00000
      8013 IM1      180      IM1      H3       HDA3A    0.094000        1.0080           0   0.00000   0.00000
      8014 IM1      180      IM1      N1       ND2R5A   2.670300       13.6070           0   -1.06300   1.30000
      8015 IM1      180      IM1      DN1      DRUD    -2.530300        0.4000           0   0.00000   0.00000
      8016 IM1      180      IM1      C2       CD2R5A   2.511900       11.6110           0   -1.37800   1.30000
      8017 IM1      180      IM1      DC2      DRUD    -2.880900        0.4000           0   0.00000   0.00000
      8018 IM1      180      IM1      H4       HDR5A    0.150000        1.0080           0   0.00000   0.00000
      8019 IM1      180      IM1      C3       CD2R5A   3.068900       11.6110           0   -1.37800   1.30000
      8020 IM1      180      IM1      DC3      DRUD    -2.880900        0.4000           0   0.00000   0.00000
      8021 IM1      180      IM1      H5       HDR5A    0.053000        1.0080           0   0.00000   0.00000
      8022 IM1      180      IM1      C4       CD2R5B   2.404400       11.6110           0   -0.868000   1.30000
      8023 IM1      180      IM1      DC4      DRUD    -2.286400        0.4000           0   0.00000   0.00000
      8024 IM1      180      IM1      H6       HDR5B    0.073000        1.0080           0   0.00000   0.00000
      8025 IM1      180      IM1      N2       ND2R5B   2.249300       13.6070           0   -0.840000   1.00000
      8026 IM1      180      IM1      DN2      DRUD    -2.249300        0.4000           0   0.00000   0.00000
      8027 IM1      180      IM1      H7       DUMH     0.000000        1.0080           0   0.00000   0.00000
      8028 IM1      180      IM1      LPN21    LPD     -0.474000        0.0000           -1   0.00000   0.00000
      8029 IM1      181      IM1      C1       CD33G    2.390600       11.6110           0   -1.08100   1.00000
      8030 IM1      181      IM1      DC1      DRUD    -2.551600        0.4000           0   0.00000   0.00000
      8031 IM1      181      IM1      H1       HDA3A    0.094000        1.0080           0   0.00000   0.00000
      8032 IM1      181      IM1      H2       HDA3A    0.094000        1.0080           0   0.00000   0.00000
      8033 IM1      181      IM1      H3       HDA3A    0.094000        1.0080           0   0.00000   0.00000
      8034 IM1      181      IM1      N1       ND2R5A   2.670300       13.6070           0   -1.06300   1.30000
      8035 IM1      181      IM1      DN1      DRUD    -2.530300        0.4000           0   0.00000   0.00000
      8036 IM1      181      IM1      C2       CD2R5A   2.511900       11.6110           0   -1.37800   1.30000
      8037 IM1      181      IM1      DC2      DRUD    -2.880900        0.4000           0   0.00000   0.00000
      8038 IM1      181      IM1      H4       HDR5A    0.150000        1.0080           0   0.00000   0.00000
      8039 IM1      181      IM1      C3       CD2R5A   3.068900       11.6110           0   -1.37800   1.30000
      8040 IM1      181      IM1      DC3      DRUD    -2.880900        0.4000           0   0.00000   0.00000
      8041 IM1      181      IM1      H5       HDR5A    0.053000        1.0080           0   0.00000   0.00000
      8042 IM1      181      IM1      C4       CD2R5B   2.404400       11.6110           0   -0.868000   1.30000
      8043 IM1      181      IM1      DC4      DRUD    -2.286400        0.4000           0   0.00000   0.00000
      8044 IM1      181      IM1      H6       HDR5B    0.073000        1.0080           0   0.00000   0.00000
      8045 IM1      181      IM1      N2       ND2R5B   2.249300       13.6070           0   -0.840000   1.00000
      8046 IM1      181      IM1      DN2      DRUD    -2.249300        0.4000           0   0.00000   0.00000
      8047 IM1      181      IM1      H7       DUMH     0.000000        1.0080           0   0.00000   0.00000
      8048 IM1      181      IM1      LPN21    LPD     -0.474000        0.0000           -1   0.00000   0.00000
      8049 IM1      182      IM1      C1       CD33G    2.390600       11.6110           0   -1.08100   1.00000
      8050 IM1      182      IM1      DC1      DRUD    -2.551600        0.4000           0   0.00000   0.00000
      8051 IM1      182      IM1      H1       HDA3A    0.094000        1.0080           0   0.00000   0.00000
      8052 IM1      182      IM1      H2       HDA3A    0.094000        1.0080           0   0.00000   0.00000
      8053 IM1      182      IM1      H3       HDA3A    0.094000        1.0080           0   0.00000   0.00000
      8054 IM1      182      IM1      N1       ND2R5A   2.670300       13.6070           0   -1.06300   1.30000
      8055 IM1      182      IM1      DN1      DRUD    -2.530300        0.4000           0   0.00000   0.00000
      8056 IM1      182      IM1      C2       CD2R5A   2.511900       11.6110           0   -1.37800   1.30000
      8057 IM1      182      IM1      DC2      DRUD    -2.880900        0.4000           0   0.00000   0.00000
      8058 IM1      182      IM1      H4       HDR5A    0.150000        1.0080           0   0.00000   0.00000
      8059 IM1      182      IM1      C3       CD2R5A   3.068900       11.6110           0   -1.37800   1.30000
      8060 IM1      182      IM1      DC3      DRUD    -2.880900        0.4000           0   0.00000   0.00000
      8061 IM1      182      IM1      H5       HDR5A    0.053000        1.0080           0   0.00000   0.00000
      8062 IM1      182      IM1      C4       CD2R5B   2.404400       11.6110           0   -0.868000   1.30000
      8063 IM1      182      IM1      DC4      DRUD    -2.286400        0.4000           0   0.00000   0.00000
      8064 IM1      182      IM1      H6       HDR5B    0.073000        1.0080           0   0.00000   0.00000
      8065 IM1      182      IM1      N2       ND2R5B   2.249300       13.6070           0   -0.840000   1.00000
      8066 IM1      182      IM1      DN2      DRUD    -2.249300        0.4000           0   0.00000   0.00000
      8067 IM1      182      IM1      H7       DUMH     0.000000        1.0080           0   0.00000   0.00000
      8068 IM1      182      IM1      LPN21    LPD     -0.474000        0.0000           -1   0.00000   0.00000
      8069 IM1      183      IM1      C1       CD33G    2.390600       11.6110           0   -1.08100   1.00000
      8070 IM1      183      IM1      DC1      DRUD    -2.551600        0.4000           0   0.00000   0.00000
      8071 IM1      183      IM1      H1       HDA3A    0.094000        1.0080           0   0.00000   0.00000
      8072 IM1      183      IM1      H2       HDA3A    0.094000        1.0080           0   0.00000   0.00000
      8073 IM1      183      IM1      H3       HDA3A    0.094000        1.0080           0   0.00000   0.00000
      8074 IM1      183      IM1      N1       ND2R5A   2.670300       13.6070           0   -1.06300   1.30000
      8075 IM1      183      IM1      DN1      DRUD    -2.530300        0.4000           0   0.00000   0.00000
      8076 IM1      183      IM1      C2       CD2R5A   2.511900       11.6110           0   -1.37800   1.30000
      8077 IM1      183      IM1      DC2      DRUD    -2.880900        0.4000           0   0.00000   0.00000
      8078 IM1      183      IM1      H4       HDR5A    0.150000        1.0080           0   0.00000   0.00000
      8079 IM1      183      IM1      C3       CD2R5A   3.068900       11.6110           0   -1.37800   1.30000
      8080 IM1      183      IM1      DC3      DRUD    -2.880900        0.4000           0   0.00000   0.00000
      8081 IM1      183      IM1      H5       HDR5A    0.053000        1.0080           0   0.00000   0.00000
      8082 IM1      183      IM1      C4       CD2R5B   2.404400       11.6110           0   -0.868000   1.30000
      8083 IM1      183      IM1      DC4      DRUD    -2.286400        0.4000           0   0.00000   0.00000
      8084 IM1      183      IM1      H6       HDR5B    0.073000        1.0080           0   0.00000   0.00000
      8085 IM1      183      IM1      N2       ND2R5B   2.249300       13.6070           0   -0.840000   1.00000
      8086 IM1      183      IM1      DN2      DRUD    -2.249300        0.4000           0   0.00000   0.00000
      8087 IM1      183      IM1      H7       DUMH     0.000000        1.0080           0   0.00000   0.00000
      8088 IM1      183      IM1      LPN21    LPD     -0.474000        0.0000           -1   0.00000   0.00000
      8089 IM1      184      IM1      C1       CD33G    2.390600       11.6110           0   -1.08100   1.00000
      8090 IM1      184      IM1      DC1      DRUD    -2.551600        0.4000           0   0.00000   0.00000
      8091 IM1      184      IM1      H1       HDA3A    0.094000        1.0080           0   0.00000   0.00000
      8092 IM1      184      IM1      H2       HDA3A    0.094000        1.0080           0   0.00000   0.00000
      8093 IM1      184      IM1      H3       HDA3A    0.094000        1.0080           0   0.00000   0.00000
      8094 IM1      184      IM1      N1       ND2R5A   2.670300       13.6070           0   -1.06300   1.30000
      8095 IM1      184      IM1      DN1      DRUD    -2.530300        0.4000           0   0.00000   0.00000
      8096 IM1      184      IM1      C2       CD2R5A   2.511900       11.6110           0   -1.37800   1.30000
      8097 IM1      184      IM1      DC2      DRUD    -2.880900        0.4000           0   0.00000   0.00000
      8098 IM1      184      IM1      H4       HDR5A    0.150000        1.0080           0   0.00000   0.00000
      8099 IM1      184      IM1      C3       CD2R5A   3.068900       11.6110           0   -1.37800   1.30000
      8100 IM1      184      IM1      DC3      DRUD    -2.880900        0.4000           0   0.00000   0.00000
      8101 IM1      184      IM1      H5       HDR5A    0.053000        1.0080           0   0.00000   0.00000
      8102 IM1      184      IM1      C4       CD2R5B   2.404400       11.6110           0   -0.868000   1.30000
      8103 IM1      184      IM1      DC4      DRUD    -2.286400        0.4000           0   0.00000   0.00000
      8104 IM1      184      IM1      H6       HDR5B    0.073000        1.0080           0   0.00000   0.00000
      8105 IM1      184      IM1      N2       ND2R5B   2.249300       13.6070           0   -0.840000   1.00000
      8106 IM1      184      IM1      DN2      DRUD    -2.249300        0.4000           0   0.00000   0.00000
      8107 IM1      184      IM1      H7       DUMH     0.000000        1.0080           0   0.00000   0.00000
      8108 IM1      184      IM1      LPN21    LPD     -0.474000        0.0000           -1   0.00000   0.00000
      8109 IM1      185      IM1      C1       CD33G    2.390600       11.6110           0   -1.08100   1.00000
      8110 IM1      185      IM1      DC1      DRUD    -2.551600        0.4000           0   0.00000   0.00000
      8111 IM1      185      IM1      H1       HDA3A    0.094000        1.0080           0   0.00000   0.00000
      8112 IM1      185      IM1      H2       HDA3A    0.094000        1.0080           0   0.00000   0.00000
      8113 IM1      185      IM1      H3       HDA3A    0.094000        1.0080           0   0.00000   0.00000
      8114 IM1      185      IM1      N1       ND2R5A   2.670300       13.6070           0   -1.06300   1.30000
      8115 IM1      185      IM1      DN1      DRUD    -2.530300        0.4000           0   0.00000   0.00000
      8116 IM1      185      IM1      C2       CD2R5A   2.511900       11.6110           0   -1.37800   1.30000
      8117 IM1      185      IM1      DC2      DRUD    -2.880900        0.4000           0   0.00000   0.00000
      8118 IM1      185      IM1      H4       HDR5A    0.150000        1.0080           0   0.00000   0.00000
      8119 IM1      185      IM1      C3       CD2R5A   3.068900       11.6110           0   -1.37800   1.30000
      8120 IM1      185      IM1      DC3      DRUD    -2.880900        0.4000           0   0.00000   0.00000
      8121 IM1      185      IM1      H5       HDR5A    0.053000        1.0080           0   0.00000   0.00000
      8122 IM1      185      IM1      C4       CD2R5B   2.404400       11.6110           0   -0.868000   1.30000
      8123 IM1      185      IM1      DC4      DRUD    -2.286400        0.4000           0   0.00000   0.00000
      8124 IM1      185      IM1      H6       HDR5B    0.073000        1.0080           0   0.00000   0.00000
      8125 IM1      185      IM1      N2       ND2R5B   2.249300       13.6070           0   -0.840000   1.00000
      8126 IM1      185      IM1      DN2      DRUD    -2.249300        0.4000           0   0.00000   0.00000
      8127 IM1      185      IM1      H7       DUMH     0.000000        1.0080           0   0.00000   0.00000
      8128 IM1      185      IM1      LPN21    LPD     -0.474000        0.0000           -1   0.00000   0.00000
      8129 IM1      186      IM1      C1       CD33G    2.390600       11.6110           0   -1.08100   1.00000
      8130 IM1      186      IM1      DC1      DRUD    -2.551600        0.4000           0   0.00000   0.00000
      8131 IM1      186      IM1      H1       HDA3A    0.094000        1.0080           0   0.00000   0.00000
      8132 IM1      186      IM1      H2       HDA3A    0.094000        1.0080           0   0.00000   0.00000
      8133 IM1      186      IM1      H3       HDA3A    0.094000        1.0080           0   0.00000   0.00000
      8134 IM1      186      IM1      N1       ND2R5A   2.670300       13.6070           0   -1.06300   1.30000
      8135 IM1      186      IM1      DN1      DRUD    -2.530300        0.4000           0   0.00000   0.00000
      8136 IM1      186      IM1      C2       CD2R5A   2.511900       11.6110           0   -1.37800   1.30000
      8137 IM1      186      IM1      DC2      DRUD    -2.880900        0.4000           0   0.00000   0.00000
      8138 IM1      186      IM1      H4       HDR5A    0.150000        1.0080           0   0.00000   0.00000
      8139 IM1      186      IM1      C3       CD2R5A   3.068900       11.6110           0   -1.37800   1.30000
      8140 IM1      186      IM1      DC3      DRUD    -2.880900        0.4000           0   0.00000   0.00000
      8141 IM1      186      IM1      H5       HDR5A    0.053000        1.0080           0   0.00000   0.00000
      8142 IM1      186      IM1      C4       CD2R5B   2.404400       11.6110           0   -0.868000   1.30000
      8143 IM1      186      IM1      DC4      DRUD    -2.286400        0.4000           0   0.00000   0.00000
      8144 IM1      186      IM1      H6       HDR5B    0.073000        1.0080           0   0.00000   0.00000
      8145 IM1      186      IM1      N2       ND2R5B   2.249300       13.6070           0   -0.840000   1.00000
      8146 IM1      186      IM1      DN2      DRUD    -2.249300        0.4000           0   0.00000   0.00000
      8147 IM1      186      IM1      H7       DUMH     0.000000        1.0080           0   0.00000   0.00000
      8148 IM1      186      IM1      LPN21    LPD     -0.474000        0.0000           -1   0.00000   0.00000
      8149 IM1      187      IM1      C1       CD33G    2.390600       11.6110           0   -1.08100   1.00000
      8150 IM1      187      IM1      DC1      DRUD    -2.551600        0.4000           0   0.00000   0.00000
      8151 IM1      187      IM1      H1       HDA3A    0.094000        1.0080           0   0.00000   0.00000
      8152 IM1      187      IM1      H2       HDA3A    0.094000        1.0080           0   0.00000   0.00000
      8153 IM1      187      IM1      H3       HDA3A    0.094000        1.0080           0   0.00000   0.00000
      8154 IM1      187      IM1      N1       ND2R5A   2.670300       13.6070           0   -1.06300   1.30000
      8155 IM1      187      IM1      DN1      DRUD    -2.530300        0.4000           0   0.00000   0.00000
      8156 IM1      187      IM1      C2       CD2R5A   2.511900       11.6110           0   -1.37800   1.30000
      8157 IM1      187      IM1      DC2      DRUD    -2.880900        0.4000           0   0.00000   0.00000
      8158 IM1      187      IM1      H4       HDR5A    0.150000        1.0080           0   0.00000   0.00000
      8159 IM1      187      IM1      C3       CD2R5A   3.068900       11.6110           0   -1.37800   1.30000
      8160 IM1      187      IM1      DC3      DRUD    -2.880900        0.4000           0   0.00000   0.00000
      8161 IM1      187      IM1      H5       HDR5A    0.053000        1.0080           0   0.00000   0.00000
      8162 IM1      187      IM1      C4       CD2R5B   2.404400       11.6110           0   -0.868000   1.30000
      8163 IM1      187      IM1      DC4      DRUD    -2.286400        0.4000           0   0.00000   0.00000
      8164 IM1      187      IM1      H6       HDR5B    0.073000        1.0080           0   0.00000   0.00000
      8165 IM1      187      IM1      N2       ND2R5B   2.249300       13.6070           0   -0.840000   1.00000
      8166 IM1      187      IM1      DN2      DRUD    -2.249300        0.4000           0   0.00000   0.00000
      8167 IM1      187      IM1      H7       DUMH     0.000000        1.0080           0   0.00000   0.00000
      8168 IM1      187      IM1      LPN21    LPD     -0.474000        0.0000           -1   0.00000   0.00000
      8169 IM1      188      IM1      C1       CD33G    2.390600       11.6110           0   -1.08100   1.00000
      8170 IM1      188      IM1      DC1      DRUD    -2.551600        0.4000           0   0.00000   0.00000
      8171 IM1      188      IM1      H1       HDA3A    0.094000        1.0080           0   0.00000   0.00000
      8172 IM1      188      IM1      H2       HDA3A    0.094000        1.0080           0   0.00000   0.00000
      8173 IM1      188      IM1      H3       HDA3A    0.094000        1.0080           0   0.00000   0.00000
      8174 IM1      188      IM1      N1       ND2R5A   2.670300       13.6070           0   -1.06300   1.30000
      8175 IM1      188      IM1      DN1      DRUD    -2.530300        0.4000           0   0.00000   0.00000
      8176 IM1      188      IM1      C2       CD2R5A   2.511900       11.6110           0   -1.37800   1.30000
      8177 IM1      188      IM1      DC2      DRUD    -2.880900        0.4000           0   0.00000   0.00000
      8178 IM1      188      IM1      H4       HDR5A    0.150000        1.0080           0   0.00000   0.00000
      8179 IM1      188      IM1      C3       CD2R5A   3.068900       11.6110           0   -1.37800   1.30000
      8180 IM1      188      IM1      DC3      DRUD    -2.880900        0.4000           0   0.00000   0.00000
      8181 IM1      188      IM1      H5       HDR5A    0.053000        1.0080           0   0.00000   0.00000
      8182 IM1      188      IM1      C4       CD2R5B   2.404400       11.6110           0   -0.868000   1.30000
      8183 IM1      188      IM1      DC4      DRUD    -2.286400        0.4000           0   0.00000   0.00000
      8184 IM1      188      IM1      H6       HDR5B    0.073000        1.0080           0   0.00000   0.00000
      8185 IM1      188      IM1      N2       ND2R5B   2.249300       13.6070           0   -0.840000   1.00000
      8186 IM1      188      IM1      DN2      DRUD    -2.249300        0.4000           0   0.00000   0.00000
      8187 IM1      188      IM1      H7       DUMH     0.000000        1.0080           0   0.00000   0.00000
      8188 IM1      188      IM1      LPN21    LPD     -0.474000        0.0000           -1   0.00000   0.00000
      8189 IM1      189      IM1      C1       CD33G    2.390600       11.6110           0   -1.08100   1.00000
      8190 IM1      189      IM1      DC1      DRUD    -2.551600        0.4000           0   0.00000   0.00000
      8191 IM1      189      IM1      H1       HDA3A    0.094000        1.0080           0   0.00000   0.00000
      8192 IM1      189      IM1      H2       HDA3A    0.094000        1.0080           0   0.00000   0.00000
      8193 IM1      189      IM1      H3       HDA3A    0.094000        1.0080           0   0.00000   0.00000
      8194 IM1      189      IM1      N1       ND2R5A   2.670300       13.6070           0   -1.06300   1.30000
      8195 IM1      189      IM1      DN1      DRUD    -2.530300        0.4000           0   0.00000   0.00000
      8196 IM1      189      IM1      C2       CD2R5A   2.511900       11.6110           0   -1.37800   1.30000
      8197 IM1      189      IM1      DC2      DRUD    -2.880900        0.4000           0   0.00000   0.00000
      8198 IM1      189      IM1      H4       HDR5A    0.150000        1.0080           0   0.00000   0.00000
      8199 IM1      189      IM1      C3       CD2R5A   3.068900       11.6110           0   -1.37800   1.30000
      8200 IM1      189      IM1      DC3      DRUD    -2.880900        0.4000           0   0.00000   0.00000
      8201 IM1      189      IM1      H5       HDR5A    0.053000        1.0080           0   0.00000   0.00000
      8202 IM1      189      IM1      C4       CD2R5B   2.404400       11.6110           0   -0.868000   1.30000
      8203 IM1      189      IM1      DC4      DRUD    -2.286400        0.4000           0   0.00000   0.00000
      8204 IM1      189      IM1      H6       HDR5B    0.073000        1.0080           0   0.00000   0.00000
      8205 IM1      189      IM1      N2       ND2R5B   2.249300       13.6070           0   -0.840000   1.00000
      8206 IM1      189      IM1      DN2      DRUD    -2.249300        0.4000           0   0.00000   0.00000
      8207 IM1      189      IM1      H7       DUMH     0.000000        1.0080           0   0.00000   0.00000
      8208 IM1      189      IM1      LPN21    LPD     -0.474000        0.0000           -1   0.00000   0.00000
      8209 IM1      190      IM1      C1       CD33G    2.390600       11.6110           0   -1.08100   1.00000
      8210 IM1      190      IM1      DC1      DRUD    -2.551600        0.4000           0   0.00000   0.00000
      8211 IM1      190      IM1      H1       HDA3A    0.094000        1.0080           0   0.00000   0.00000
      8212 IM1      190      IM1      H2       HDA3A    0.094000        1.0080           0   0.00000   0.00000
      8213 IM1      190      IM1      H3       HDA3A    0.094000        1.0080           0   0.00000   0.00000
      8214 IM1      190      IM1      N1       ND2R5A   2.670300       13.6070           0   -1.06300   1.30000
      8215 IM1      190      IM1      DN1      DRUD    -2.530300        0.4000           0   0.00000   0.00000
      8216 IM1      190      IM1      C2       CD2R5A   2.511900       11.6110           0   -1.37800   1.30000
      8217 IM1      190      IM1      DC2      DRUD    -2.880900        0.4000           0   0.00000   0.00000
      8218 IM1      190      IM1      H4       HDR5A    0.150000        1.0080           0   0.00000   0.00000
      8219 IM1      190      IM1      C3       CD2R5A   3.068900       11.6110           0   -1.37800   1.30000
      8220 IM1      190      IM1      DC3      DRUD    -2.880900        0.4000           0   0.00000   0.00000
      8221 IM1      190      IM1      H5       HDR5A    0.053000        1.0080           0   0.00000   0.00000
      8222 IM1      190      IM1      C4       CD2R5B   2.404400       11.6110           0   -0.868000   1.30000
      8223 IM1      190      IM1      DC4      DRUD    -2.286400        0.4000           0   0.00000   0.00000
      8224 IM1      190      IM1      H6       HDR5B    0.073000        1.0080           0   0.00000   0.00000
      8225 IM1      190      IM1      N2       ND2R5B   2.249300       13.6070           0   -0.840000   1.00000
      8226 IM1      190      IM1      DN2      DRUD    -2.249300        0.4000           0   0.00000   0.00000
      8227 IM1      190      IM1      H7       DUMH     0.000000        1.0080           0   0.00000   0.00000
      8228 IM1      190      IM1      LPN21    LPD     -0.474000        0.0000           -1   0.00000   0.00000
      8229 IM1      191      IM1      C1       CD33G    2.390600       11.6110           0   -1.08100   1.00000
      8230 IM1      191      IM1      DC1      DRUD    -2.551600        0.4000           0   0.00000   0.00000
      8231 IM1      191      IM1      H1       HDA3A    0.094000        1.0080           0   0.00000   0.00000
      8232 IM1      191      IM1      H2       HDA3A    0.094000        1.0080           0   0.00000   0.00000
      8233 IM1      191      IM1      H3       HDA3A    0.094000        1.0080           0   0.00000   0.00000
      8234 IM1      191      IM1      N1       ND2R5A   2.670300       13.6070           0   -1.06300   1.30000
      8235 IM1      191      IM1      DN1      DRUD    -2.530300        0.4000           0   0.00000   0.00000
      8236 IM1      191      IM1      C2       CD2R5A   2.511900       11.6110           0   -1.37800   1.30000
      8237 IM1      191      IM1      DC2      DRUD    -2.880900        0.4000           0   0.00000   0.00000
      8238 IM1      191      IM1      H4       HDR5A    0.150000        1.0080           0   0.00000   0.00000
      8239 IM1      191      IM1      C3       CD2R5A   3.068900       11.6110           0   -1.37800   1.30000
      8240 IM1      191      IM1      DC3      DRUD    -2.880900        0.4000           0   0.00000   0.00000
      8241 IM1      191      IM1      H5       HDR5A    0.053000        1.0080           0   0.00000   0.00000
      8242 IM1      191      IM1      C4       CD2R5B   2.404400       11.6110           0   -0.868000   1.30000
      8243 IM1      191      IM1      DC4      DRUD    -2.286400        0.4000           0   0.00000   0.00000
      8244 IM1      191      IM1      H6       HDR5B    0.073000        1.0080           0   0.00000   0.00000
      8245 IM1      191      IM1      N2       ND2R5B   2.249300       13.6070           0   -0.840000   1.00000
      8246 IM1      191      IM1      DN2      DRUD    -2.249300        0.4000           0   0.00000   0.00000
      8247 IM1      191      IM1      H7       DUMH     0.000000        1.0080           0   0.00000   0.00000
      8248 IM1      191      IM1      LPN21    LPD     -0.474000        0.0000           -1   0.00000   0.00000
      8249 IM1      192      IM1      C1       CD33G    2.390600       11.6110           0   -1.08100   1.00000
      8250 IM1      192      IM1      DC1      DRUD    -2.551600        0.4000           0   0.00000   0.00000
      8251 IM1      192      IM1      H1       HDA3A    0.094000        1.0080           0   0.00000   0.00000
      8252 IM1      192      IM1      H2       HDA3A    0.094000        1.0080           0   0.00000   0.00000
      8253 IM1      192      IM1      H3       HDA3A    0.094000        1.0080           0   0.00000   0.00000
      8254 IM1      192      IM1      N1       ND2R5A   2.670300       13.6070           0   -1.06300   1.30000
      8255 IM1      192      IM1      DN1      DRUD    -2.530300        0.4000           0   0.00000   0.00000
      8256 IM1      192      IM1      C2       CD2R5A   2.511900       11.6110           0   -1.37800   1.30000
      8257 IM1      192      IM1      DC2      DRUD    -2.880900        0.4000           0   0.00000   0.00000
      8258 IM1      192      IM1      H4       HDR5A    0.150000        1.0080           0   0.00000   0.00000
      8259 IM1      192      IM1      C3       CD2R5A   3.068900       11.6110           0   -1.37800   1.30000
      8260 IM1      192      IM1      DC3      DRUD    -2.880900        0.4000           0   0.00000   0.00000
      8261 IM1      192      IM1      H5       HDR5A    0.053000        1.0080           0   0.00000   0.00000
      8262 IM1      192      IM1      C4       CD2R5B   2.404400       11.6110           0   -0.868000   1.30000
      8263 IM1      192      IM1      DC4      DRUD    -2.286400        0.4000           0   0.00000   0.00000
      8264 IM1      192      IM1      H6       HDR5B    0.073000        1.0080           0   0.00000   0.00000
      8265 IM1      192      IM1      N2       ND2R5B   2.249300       13.6070           0   -0.840000   1.00000
      8266 IM1      192      IM1      DN2      DRUD    -2.249300        0.4000           0   0.00000   0.00000
      8267 IM1      192      IM1      H7       DUMH     0.000000        1.0080           0   0.00000   0.00000
      8268 IM1      192      IM1      LPN21    LPD     -0.474000        0.0000           -1   0.00000   0.00000
      8269 IM1      193      IM1      C1       CD33G    2.390600       11.6110           0   -1.08100   1.00000
      8270 IM1      193      IM1      DC1      DRUD    -2.551600        0.4000           0   0.00000   0.00000
      8271 IM1      193      IM1      H1       HDA3A    0.094000        1.0080           0   0.00000   0.00000
      8272 IM1      193      IM1      H2       HDA3A    0.094000        1.0080           0   0.00000   0.00000
      8273 IM1      193      IM1      H3       HDA3A    0.094000        1.0080           0   0.00000   0.00000
      8274 IM1      193      IM1      N1       ND2R5A   2.670300       13.6070           0   -1.06300   1.30000
      8275 IM1      193      IM1      DN1      DRUD    -2.530300        0.4000           0   0.00000   0.00000
      8276 IM1      193      IM1      C2       CD2R5A   2.511900       11.6110           0   -1.37800   1.30000
      8277 IM1      193      IM1      DC2      DRUD    -2.880900        0.4000           0   0.00000   0.00000
      8278 IM1      193      IM1      H4       HDR5A    0.150000        1.0080           0   0.00000   0.00000
      8279 IM1      193      IM1      C3       CD2R5A   3.068900       11.6110           0   -1.37800   1.30000
      8280 IM1      193      IM1      DC3      DRUD    -2.880900        0.4000           0   0.00000   0.00000
      8281 IM1      193      IM1      H5       HDR5A    0.053000        1.0080           0   0.00000   0.00000
      8282 IM1      193      IM1      C4       CD2R5B   2.404400       11.6110           0   -0.868000   1.30000
      8283 IM1      193      IM1      DC4      DRUD    -2.286400        0.4000           0   0.00000   0.00000
      8284 IM1      193      IM1      H6       HDR5B    0.073000        1.0080           0   0.00000   0.00000
      8285 IM1      193      IM1      N2       ND2R5B   2.249300       13.6070           0   -0.840000   1.00000
      8286 IM1      193      IM1      DN2      DRUD    -2.249300        0.4000           0   0.00000   0.00000
      8287 IM1      193      IM1      H7       DUMH     0.000000        1.0080           0   0.00000   0.00000
      8288 IM1      193      IM1      LPN21    LPD     -0.474000        0.0000           -1   0.00000   0.00000
      8289 IM1      194      IM1      C1       CD33G    2.390600       11.6110           0   -1.08100   1.00000
      8290 IM1      194      IM1      DC1      DRUD    -2.551600        0.4000           0   0.00000   0.00000
      8291 IM1      194      IM1      H1       HDA3A    0.094000        1.0080           0   0.00000   0.00000
      8292 IM1      194      IM1      H2       HDA3A    0.094000        1.0080           0   0.00000   0.00000
      8293 IM1      194      IM1      H3       HDA3A    0.094000        1.0080           0   0.00000   0.00000
      8294 IM1      194      IM1      N1       ND2R5A   2.670300       13.6070           0   -1.06300   1.30000
      8295 IM1      194      IM1      DN1      DRUD    -2.530300        0.4000           0   0.00000   0.00000
      8296 IM1      194      IM1      C2       CD2R5A   2.511900       11.6110           0   -1.37800   1.30000
      8297 IM1      194      IM1      DC2      DRUD    -2.880900        0.4000           0   0.00000   0.00000
      8298 IM1      194      IM1      H4       HDR5A    0.150000        1.0080           0   0.00000   0.00000
      8299 IM1      194      IM1      C3       CD2R5A   3.068900       11.6110           0   -1.37800   1.30000
      8300 IM1      194      IM1      DC3      DRUD    -2.880900        0.4000           0   0.00000   0.00000
      8301 IM1      194      IM1      H5       HDR5A    0.053000        1.0080           0   0.00000   0.00000
      8302 IM1      194      IM1      C4       CD2R5B   2.404400       11.6110           0   -0.868000   1.30000
      8303 IM1      194      IM1      DC4      DRUD    -2.286400        0.4000           0   0.00000   0.00000
      8304 IM1      194      IM1      H6       HDR5B    0.073000        1.0080           0   0.00000   0.00000
      8305 IM1      194      IM1      N2       ND2R5B   2.249300       13.6070           0   -0.840000   1.00000
      8306 IM1      194      IM1      DN2      DRUD    -2.249300        0.4000           0   0.00000   0.00000
      8307 IM1      194      IM1      H7       DUMH     0.000000        1.0080           0   0.00000   0.00000
      8308 IM1      194      IM1      LPN21    LPD     -0.474000        0.0000           -1   0.00000   0.00000
      8309 IM1      195      IM1      C1       CD33G    2.390600       11.6110           0   -1.08100   1.00000
      8310 IM1      195      IM1      DC1      DRUD    -2.551600        0.4000           0   0.00000   0.00000
      8311 IM1      195      IM1      H1       HDA3A    0.094000        1.0080           0   0.00000   0.00000
      8312 IM1      195      IM1      H2       HDA3A    0.094000        1.0080           0   0.00000   0.00000
      8313 IM1      195      IM1      H3       HDA3A    0.094000        1.0080           0   0.00000   0.00000
      8314 IM1      195      IM1      N1       ND2R5A   2.670300       13.6070           0   -1.06300   1.30000
      8315 IM1      195      IM1      DN1      DRUD    -2.530300        0.4000           0   0.00000   0.00000
      8316 IM1      195      IM1      C2       CD2R5A   2.511900       11.6110           0   -1.37800   1.30000
      8317 IM1      195      IM1      DC2      DRUD    -2.880900        0.4000           0   0.00000   0.00000
      8318 IM1      195      IM1      H4       HDR5A    0.150000        1.0080           0   0.00000   0.00000
      8319 IM1      195      IM1      C3       CD2R5A   3.068900       11.6110           0   -1.37800   1.30000
      8320 IM1      195      IM1      DC3      DRUD    -2.880900        0.4000           0   0.00000   0.00000
      8321 IM1      195      IM1      H5       HDR5A    0.053000        1.0080           0   0.00000   0.00000
      8322 IM1      195      IM1      C4       CD2R5B   2.404400       11.6110           0   -0.868000   1.30000
      8323 IM1      195      IM1      DC4      DRUD    -2.286400        0.4000           0   0.00000   0.00000
      8324 IM1      195      IM1      H6       HDR5B    0.073000        1.0080           0   0.00000   0.00000
      8325 IM1      195      IM1      N2       ND2R5B   2.249300       13.6070           0   -0.840000   1.00000
      8326 IM1      195      IM1      DN2      DRUD    -2.249300        0.4000           0   0.00000   0.00000
      8327 IM1      195      IM1      H7       DUMH     0.000000        1.0080           0   0.00000   0.00000
      8328 IM1      195      IM1      LPN21    LPD     -0.474000        0.0000           -1   0.00000   0.00000
      8329 IM1      196      IM1      C1       CD33G    2.390600       11.6110           0   -1.08100   1.00000
      8330 IM1      196      IM1      DC1      DRUD    -2.551600        0.4000           0   0.00000   0.00000
      8331 IM1      196      IM1      H1       HDA3A    0.094000        1.0080           0   0.00000   0.00000
      8332 IM1      196      IM1      H2       HDA3A    0.094000        1.0080           0   0.00000   0.00000
      8333 IM1      196      IM1      H3       HDA3A    0.094000        1.0080           0   0.00000   0.00000
      8334 IM1      196      IM1      N1       ND2R5A   2.670300       13.6070           0   -1.06300   1.30000
      8335 IM1      196      IM1      DN1      DRUD    -2.530300        0.4000           0   0.00000   0.00000
      8336 IM1      196      IM1      C2       CD2R5A   2.511900       11.6110           0   -1.37800   1.30000
      8337 IM1      196      IM1      DC2      DRUD    -2.880900        0.4000           0   0.00000   0.00000
      8338 IM1      196      IM1      H4       HDR5A    0.150000        1.0080           0   0.00000   0.00000
      8339 IM1      196      IM1      C3       CD2R5A   3.068900       11.6110           0   -1.37800   1.30000
      8340 IM1      196      IM1      DC3      DRUD    -2.880900        0.4000           0   0.00000   0.00000
      8341 IM1      196      IM1      H5       HDR5A    0.053000        1.0080           0   0.00000   0.00000
      8342 IM1      196      IM1      C4       CD2R5B   2.404400       11.6110           0   -0.868000   1.30000
      8343 IM1      196      IM1      DC4      DRUD    -2.286400        0.4000           0   0.00000   0.00000
      8344 IM1      196      IM1      H6       HDR5B    0.073000        1.0080           0   0.00000   0.00000
      8345 IM1      196      IM1      N2       ND2R5B   2.249300       13.6070           0   -0.840000   1.00000
      8346 IM1      196      IM1      DN2      DRUD    -2.249300        0.4000           0   0.00000   0.00000
      8347 IM1      196      IM1      H7       DUMH     0.000000        1.0080           0   0.00000   0.00000
      8348 IM1      196      IM1      LPN21    LPD     -0.474000        0.0000           -1   0.00000   0.00000
      8349 IM1      197      IM1      C1       CD33G    2.390600       11.6110           0   -1.08100   1.00000
      8350 IM1      197      IM1      DC1      DRUD    -2.551600        0.4000           0   0.00000   0.00000
      8351 IM1      197      IM1      H1       HDA3A    0.094000        1.0080           0   0.00000   0.00000
      8352 IM1      197      IM1      H2       HDA3A    0.094000        1.0080           0   0.00000   0.00000
      8353 IM1      197      IM1      H3       HDA3A    0.094000        1.0080           0   0.00000   0.00000
      8354 IM1      197      IM1      N1       ND2R5A   2.670300       13.6070           0   -1.06300   1.30000
      8355 IM1      197      IM1      DN1      DRUD    -2.530300        0.4000           0   0.00000   0.00000
      8356 IM1      197      IM1      C2       CD2R5A   2.511900       11.6110           0   -1.37800   1.30000
      8357 IM1      197      IM1      DC2      DRUD    -2.880900        0.4000           0   0.00000   0.00000
      8358 IM1      197      IM1      H4       HDR5A    0.150000        1.0080           0   0.00000   0.00000
      8359 IM1      197      IM1      C3       CD2R5A   3.068900       11.6110           0   -1.37800   1.30000
      8360 IM1      197      IM1      DC3      DRUD    -2.880900        0.4000           0   0.00000   0.00000
      8361 IM1      197      IM1      H5       HDR5A    0.053000        1.0080           0   0.00000   0.00000
      8362 IM1      197      IM1      C4       CD2R5B   2.404400       11.6110           0   -0.868000   1.30000
      8363 IM1      197      IM1      DC4      DRUD    -2.286400        0.4000           0   0.00000   0.00000
      8364 IM1      197      IM1      H6       HDR5B    0.073000        1.0080           0   0.00000   0.00000
      8365 IM1      197      IM1      N2       ND2R5B   2.249300       13.6070           0   -0.840000   1.00000
      8366 IM1      197      IM1      DN2      DRUD    -2.249300        0.4000           0   0.00000   0.00000
      8367 IM1      197      IM1      H7       DUMH     0.000000        1.0080           0   0.00000   0.00000
      8368 IM1      197      IM1      LPN21    LPD     -0.474000        0.0000           -1   0.00000   0.00000
      8369 IM1      198      IM1      C1       CD33G    2.390600       11.6110           0   -1.08100   1.00000
      8370 IM1      198      IM1      DC1      DRUD    -2.551600        0.4000           0   0.00000   0.00000
      8371 IM1      198      IM1      H1       HDA3A    0.094000        1.0080           0   0.00000   0.00000
      8372 IM1      198      IM1      H2       HDA3A    0.094000        1.0080           0   0.00000   0.00000
      8373 IM1      198      IM1      H3       HDA3A    0.094000        1.0080           0   0.00000   0.00000
      8374 IM1      198      IM1      N1       ND2R5A   2.670300       13.6070           0   -1.06300   1.30000
      8375 IM1      198      IM1      DN1      DRUD    -2.530300        0.4000           0   0.00000   0.00000
      8376 IM1      198      IM1      C2       CD2R5A   2.511900       11.6110           0   -1.37800   1.30000
      8377 IM1      198      IM1      DC2      DRUD    -2.880900        0.4000           0   0.00000   0.00000
      8378 IM1      198      IM1      H4       HDR5A    0.150000        1.0080           0   0.00000   0.00000
      8379 IM1      198      IM1      C3       CD2R5A   3.068900       11.6110           0   -1.37800   1.30000
      8380 IM1      198      IM1      DC3      DRUD    -2.880900        0.4000           0   0.00000   0.00000
      8381 IM1      198      IM1      H5       HDR5A    0.053000        1.0080           0   0.00000   0.00000
      8382 IM1      198      IM1      C4       CD2R5B   2.404400       11.6110           0   -0.868000   1.30000
      8383 IM1      198      IM1      DC4      DRUD    -2.286400        0.4000           0   0.00000   0.00000
      8384 IM1      198      IM1      H6       HDR5B    0.073000        1.0080           0   0.00000   0.00000
      8385 IM1      198      IM1      N2       ND2R5B   2.249300       13.6070           0   -0.840000   1.00000
      8386 IM1      198      IM1      DN2      DRUD    -2.249300        0.4000           0   0.00000   0.00000
      8387 IM1      198      IM1      H7       DUMH     0.000000        1.0080           0   0.00000   0.00000
      8388 IM1      198      IM1      LPN21    LPD     -0.474000        0.0000           -1   0.00000   0.00000
      8389 IM1      199      IM1      C1       CD33G    2.390600       11.6110           0   -1.08100   1.00000
      8390 IM1      199      IM1      DC1      DRUD    -2.551600        0.4000           0   0.00000   0.00000
      8391 IM1      199      IM1      H1       HDA3A    0.094000        1.0080           0   0.00000   0.00000
      8392 IM1      199      IM1      H2       HDA3A    0.094000        1.0080           0   0.00000   0.00000
      8393 IM1      199      IM1      H3       HDA3A    0.094000        1.0080           0   0.00000   0.00000
      8394 IM1      199      IM1      N1       ND2R5A   2.670300       13.6070           0   -1.06300   1.30000
      8395 IM1      199      IM1      DN1      DRUD    -2.530300        0.4000           0   0.00000   0.00000
      8396 IM1      199      IM1      C2       CD2R5A   2.511900       11.6110           0   -1.37800   1.30000
      8397 IM1      199      IM1      DC2      DRUD    -2.880900        0.4000           0   0.00000   0.00000
      8398 IM1      199      IM1      H4       HDR5A    0.150000        1.0080           0   0.00000   0.00000
      8399 IM1      199      IM1      C3       CD2R5A   3.068900       11.6110           0   -1.37800   1.30000
      8400 IM1      199      IM1      DC3      DRUD    -2.880900        0.4000           0   0.00000   0.00000
      8401 IM1      199      IM1      H5       HDR5A    0.053000        1.0080           0   0.00000   0.00000
      8402 IM1      199      IM1      C4       CD2R5B   2.404400       11.6110           0   -0.868000   1.30000
      8403 IM1      199      IM1      DC4      DRUD    -2.286400        0.4000           0   0.00000   0.00000
      8404 IM1      199      IM1      H6       HDR5B    0.073000        1.0080           0   0.00000   0.00000
      8405 IM1      199      IM1      N2       ND2R5B   2.249300       13.6070           0   -0.840000   1.00000
      8406 IM1      199      IM1      DN2      DRUD    -2.249300        0.4000           0   0.00000   0.00000
      8407 IM1      199      IM1      H7       DUMH     0.000000        1.0080           0   0.00000   0.00000
      8408 IM1      199      IM1      LPN21    LPD     -0.474000        0.0000           -1   0.00000   0.00000
      8409 IM1      200      IM1      C1       CD33G    2.390600       11.6110           0   -1.08100   1.00000
      8410 IM1      200      IM1      DC1      DRUD    -2.551600        0.4000           0   0.00000   0.00000
      8411 IM1      200      IM1      H1       HDA3A    0.094000        1.0080           0   0.00000   0.00000
      8412 IM1      200      IM1      H2       HDA3A    0.094000        1.0080           0   0.00000   0.00000
      8413 IM1      200      IM1      H3       HDA3A    0.094000        1.0080           0   0.00000   0.00000
      8414 IM1      200      IM1      N1       ND2R5A   2.670300       13.6070           0   -1.06300   1.30000
      8415 IM1      200      IM1      DN1      DRUD    -2.530300        0.4000           0   0.00000   0.00000
      8416 IM1      200      IM1      C2       CD2R5A   2.511900       11.6110           0   -1.37800   1.30000
      8417 IM1      200      IM1      DC2      DRUD    -2.880900        0.4000           0   0.00000   0.00000
      8418 IM1      200      IM1      H4       HDR5A    0.150000        1.0080           0   0.00000   0.00000
      8419 IM1      200      IM1      C3       CD2R5A   3.068900       11.6110           0   -1.37800   1.30000
      8420 IM1      200      IM1      DC3      DRUD    -2.880900        0.4000           0   0.00000   0.00000
      8421 IM1      200      IM1      H5       HDR5A    0.053000        1.0080           0   0.00000   0.00000
      8422 IM1      200      IM1      C4       CD2R5B   2.404400       11.6110           0   -0.868000   1.30000
      8423 IM1      200      IM1      DC4      DRUD    -2.286400        0.4000           0   0.00000   0.00000
      8424 IM1      200      IM1      H6       HDR5B    0.073000        1.0080           0   0.00000   0.00000
      8425 IM1      200      IM1      N2       ND2R5B   2.249300       13.6070           0   -0.840000   1.00000
      8426 IM1      200      IM1      DN2      DRUD    -2.249300        0.4000           0   0.00000   0.00000
      8427 IM1      200      IM1      H7       DUMH     0.000000        1.0080           0   0.00000   0.00000
      8428 IM1      200      IM1      LPN21    LPD     -0.474000        0.0000           -1   0.00000   0.00000
      8429 IM1      201      IM1      C1       CD33G    2.390600       11.6110           0   -1.08100   1.00000
      8430 IM1      201      IM1      DC1      DRUD    -2.551600        0.4000           0   0.00000   0.00000
      8431 IM1      201      IM1      H1       HDA3A    0.094000        1.0080           0   0.00000   0.00000
      8432 IM1      201      IM1      H2       HDA3A    0.094000        1.0080           0   0.00000   0.00000
      8433 IM1      201      IM1      H3       HDA3A    0.094000        1.0080           0   0.00000   0.00000
      8434 IM1      201      IM1      N1       ND2R5A   2.670300       13.6070           0   -1.06300   1.30000
      8435 IM1      201      IM1      DN1      DRUD    -2.530300        0.4000           0   0.00000   0.00000
      8436 IM1      201      IM1      C2       CD2R5A   2.511900       11.6110           0   -1.37800   1.30000
      8437 IM1      201      IM1      DC2      DRUD    -2.880900        0.4000           0   0.00000   0.00000
      8438 IM1      201      IM1      H4       HDR5A    0.150000        1.0080           0   0.00000   0.00000
      8439 IM1      201      IM1      C3       CD2R5A   3.068900       11.6110           0   -1.37800   1.30000
      8440 IM1      201      IM1      DC3      DRUD    -2.880900        0.4000           0   0.00000   0.00000
      8441 IM1      201      IM1      H5       HDR5A    0.053000        1.0080           0   0.00000   0.00000
      8442 IM1      201      IM1      C4       CD2R5B   2.404400       11.6110           0   -0.868000   1.30000
      8443 IM1      201      IM1      DC4      DRUD    -2.286400        0.4000           0   0.00000   0.00000
      8444 IM1      201      IM1      H6       HDR5B    0.073000        1.0080           0   0.00000   0.00000
      8445 IM1      201      IM1      N2       ND2R5B   2.249300       13.6070           0   -0.840000   1.00000
      8446 IM1      201      IM1      DN2      DRUD    -2.249300        0.4000           0   0.00000   0.00000
      8447 IM1      201      IM1      H7       DUMH     0.000000        1.0080           0   0.00000   0.00000
      8448 IM1      201      IM1      LPN21    LPD     -0.474000        0.0000           -1   0.00000   0.00000
      8449 IM1      202      IM1      C1       CD33G    2.390600       11.6110           0   -1.08100   1.00000
      8450 IM1      202      IM1      DC1      DRUD    -2.551600        0.4000           0   0.00000   0.00000
      8451 IM1      202      IM1      H1       HDA3A    0.094000        1.0080           0   0.00000   0.00000
      8452 IM1      202      IM1      H2       HDA3A    0.094000        1.0080           0   0.00000   0.00000
      8453 IM1      202      IM1      H3       HDA3A    0.094000        1.0080           0   0.00000   0.00000
      8454 IM1      202      IM1      N1       ND2R5A   2.670300       13.6070           0   -1.06300   1.30000
      8455 IM1      202      IM1      DN1      DRUD    -2.530300        0.4000           0   0.00000   0.00000
      8456 IM1      202      IM1      C2       CD2R5A   2.511900       11.6110           0   -1.37800   1.30000
      8457 IM1      202      IM1      DC2      DRUD    -2.880900        0.4000           0   0.00000   0.00000
      8458 IM1      202      IM1      H4       HDR5A    0.150000        1.0080           0   0.00000   0.00000
      8459 IM1      202      IM1      C3       CD2R5A   3.068900       11.6110           0   -1.37800   1.30000
      8460 IM1      202      IM1      DC3      DRUD    -2.880900        0.4000           0   0.00000   0.00000
      8461 IM1      202      IM1      H5       HDR5A    0.053000        1.0080           0   0.00000   0.00000
      8462 IM1      202      IM1      C4       CD2R5B   2.404400       11.6110           0   -0.868000   1.30000
      8463 IM1      202      IM1      DC4      DRUD    -2.286400        0.4000           0   0.00000   0.00000
      8464 IM1      202      IM1      H6       HDR5B    0.073000        1.0080           0   0.00000   0.00000
      8465 IM1      202      IM1      N2       ND2R5B   2.249300       13.6070           0   -0.840000   1.00000
      8466 IM1      202      IM1      DN2      DRUD    -2.249300        0.4000           0   0.00000   0.00000
      8467 IM1      202      IM1      H7       DUMH     0.000000        1.0080           0   0.00000   0.00000
      8468 IM1      202      IM1      LPN21    LPD     -0.474000        0.0000           -1   0.00000   0.00000
      8469 IM1      203      IM1      C1       CD33G    2.390600       11.6110           0   -1.08100   1.00000
      8470 IM1      203      IM1      DC1      DRUD    -2.551600        0.4000           0   0.00000   0.00000
      8471 IM1      203      IM1      H1       HDA3A    0.094000        1.0080           0   0.00000   0.00000
      8472 IM1      203      IM1      H2       HDA3A    0.094000        1.0080           0   0.00000   0.00000
      8473 IM1      203      IM1      H3       HDA3A    0.094000        1.0080           0   0.00000   0.00000
      8474 IM1      203      IM1      N1       ND2R5A   2.670300       13.6070           0   -1.06300   1.30000
      8475 IM1      203      IM1      DN1      DRUD    -2.530300        0.4000           0   0.00000   0.00000
      8476 IM1      203      IM1      C2       CD2R5A   2.511900       11.6110           0   -1.37800   1.30000
      8477 IM1      203      IM1      DC2      DRUD    -2.880900        0.4000           0   0.00000   0.00000
      8478 IM1      203      IM1      H4       HDR5A    0.150000        1.0080           0   0.00000   0.00000
      8479 IM1      203      IM1      C3       CD2R5A   3.068900       11.6110           0   -1.37800   1.30000
      8480 IM1      203      IM1      DC3      DRUD    -2.880900        0.4000           0   0.00000   0.00000
      8481 IM1      203      IM1      H5       HDR5A    0.053000        1.0080           0   0.00000   0.00000
      8482 IM1      203      IM1      C4       CD2R5B   2.404400       11.6110           0   -0.868000   1.30000
      8483 IM1      203      IM1      DC4      DRUD    -2.286400        0.4000           0   0.00000   0.00000
      8484 IM1      203      IM1      H6       HDR5B    0.073000        1.0080           0   0.00000   0.00000
      8485 IM1      203      IM1      N2       ND2R5B   2.249300       13.6070           0   -0.840000   1.00000
      8486 IM1      203      IM1      DN2      DRUD    -2.249300        0.4000           0   0.00000   0.00000
      8487 IM1      203      IM1      H7       DUMH     0.000000        1.0080           0   0.00000   0.00000
      8488 IM1      203      IM1      LPN21    LPD     -0.474000        0.0000           -1   0.00000   0.00000
      8489 IM1      204      IM1      C1       CD33G    2.390600       11.6110           0   -1.08100   1.00000
      8490 IM1      204      IM1      DC1      DRUD    -2.551600        0.4000           0   0.00000   0.00000
      8491 IM1      204      IM1      H1       HDA3A    0.094000        1.0080           0   0.00000   0.00000
      8492 IM1      204      IM1      H2       HDA3A    0.094000        1.0080           0   0.00000   0.00000
      8493 IM1      204      IM1      H3       HDA3A    0.094000        1.0080           0   0.00000   0.00000
      8494 IM1      204      IM1      N1       ND2R5A   2.670300       13.6070           0   -1.06300   1.30000
      8495 IM1      204      IM1      DN1      DRUD    -2.530300        0.4000           0   0.00000   0.00000
      8496 IM1      204      IM1      C2       CD2R5A   2.511900       11.6110           0   -1.37800   1.30000
      8497 IM1      204      IM1      DC2      DRUD    -2.880900        0.4000           0   0.00000   0.00000
      8498 IM1      204      IM1      H4       HDR5A    0.150000        1.0080           0   0.00000   0.00000
      8499 IM1      204      IM1      C3       CD2R5A   3.068900       11.6110           0   -1.37800   1.30000
      8500 IM1      204      IM1      DC3      DRUD    -2.880900        0.4000           0   0.00000   0.00000
      8501 IM1      204      IM1      H5       HDR5A    0.053000        1.0080           0   0.00000   0.00000
      8502 IM1      204      IM1      C4       CD2R5B   2.404400       11.6110           0   -0.868000   1.30000
      8503 IM1      204      IM1      DC4      DRUD    -2.286400        0.4000           0   0.00000   0.00000
      8504 IM1      204      IM1      H6       HDR5B    0.073000        1.0080           0   0.00000   0.00000
      8505 IM1      204      IM1      N2       ND2R5B   2.249300       13.6070           0   -0.840000   1.00000
      8506 IM1      204      IM1      DN2      DRUD    -2.249300        0.4000           0   0.00000   0.00000
      8507 IM1      204      IM1      H7       DUMH     0.000000        1.0080           0   0.00000   0.00000
      8508 IM1      204      IM1      LPN21    LPD     -0.474000        0.0000           -1   0.00000   0.00000
      8509 IM1      205      IM1      C1       CD33G    2.390600       11.6110           0   -1.08100   1.00000
      8510 IM1      205      IM1      DC1      DRUD    -2.551600        0.4000           0   0.00000   0.00000
      8511 IM1      205      IM1      H1       HDA3A    0.094000        1.0080           0   0.00000   0.00000
      8512 IM1      205      IM1      H2       HDA3A    0.094000        1.0080           0   0.00000   0.00000
      8513 IM1      205      IM1      H3       HDA3A    0.094000        1.0080           0   0.00000   0.00000
      8514 IM1      205      IM1      N1       ND2R5A   2.670300       13.6070           0   -1.06300   1.30000
      8515 IM1      205      IM1      DN1      DRUD    -2.530300        0.4000           0   0.00000   0.00000
      8516 IM1      205      IM1      C2       CD2R5A   2.511900       11.6110           0   -1.37800   1.30000
      8517 IM1      205      IM1      DC2      DRUD    -2.880900        0.4000           0   0.00000   0.00000
      8518 IM1      205      IM1      H4       HDR5A    0.150000        1.0080           0   0.00000   0.00000
      8519 IM1      205      IM1      C3       CD2R5A   3.068900       11.6110           0   -1.37800   1.30000
      8520 IM1      205      IM1      DC3      DRUD    -2.880900        0.4000           0   0.00000   0.00000
      8521 IM1      205      IM1      H5       HDR5A    0.053000        1.0080           0   0.00000   0.00000
      8522 IM1      205      IM1      C4       CD2R5B   2.404400       11.6110           0   -0.868000   1.30000
      8523 IM1      205      IM1      DC4      DRUD    -2.286400        0.4000           0   0.00000   0.00000
      8524 IM1      205      IM1      H6       HDR5B    0.073000        1.0080           0   0.00000   0.00000
      8525 IM1      205      IM1      N2       ND2R5B   2.249300       13.6070           0   -0.840000   1.00000
      8526 IM1      205      IM1      DN2      DRUD    -2.249300        0.4000           0   0.00000   0.00000
      8527 IM1      205      IM1      H7       DUMH     0.000000        1.0080           0   0.00000   0.00000
      8528 IM1      205      IM1      LPN21    LPD     -0.474000        0.0000           -1   0.00000   0.00000
      8529 IM1      206      IM1      C1       CD33G    2.390600       11.6110           0   -1.08100   1.00000
      8530 IM1      206      IM1      DC1      DRUD    -2.551600        0.4000           0   0.00000   0.00000
      8531 IM1      206      IM1      H1       HDA3A    0.094000        1.0080           0   0.00000   0.00000
      8532 IM1      206      IM1      H2       HDA3A    0.094000        1.0080           0   0.00000   0.00000
      8533 IM1      206      IM1      H3       HDA3A    0.094000        1.0080           0   0.00000   0.00000
      8534 IM1      206      IM1      N1       ND2R5A   2.670300       13.6070           0   -1.06300   1.30000
      8535 IM1      206      IM1      DN1      DRUD    -2.530300        0.4000           0   0.00000   0.00000
      8536 IM1      206      IM1      C2       CD2R5A   2.511900       11.6110           0   -1.37800   1.30000
      8537 IM1      206      IM1      DC2      DRUD    -2.880900        0.4000           0   0.00000   0.00000
      8538 IM1      206      IM1      H4       HDR5A    0.150000        1.0080           0   0.00000   0.00000
      8539 IM1      206      IM1      C3       CD2R5A   3.068900       11.6110           0   -1.37800   1.30000
      8540 IM1      206      IM1      DC3      DRUD    -2.880900        0.4000           0   0.00000   0.00000
      8541 IM1      206      IM1      H5       HDR5A    0.053000        1.0080           0   0.00000   0.00000
      8542 IM1      206      IM1      C4       CD2R5B   2.404400       11.6110           0   -0.868000   1.30000
      8543 IM1      206      IM1      DC4      DRUD    -2.286400        0.4000           0   0.00000   0.00000
      8544 IM1      206      IM1      H6       HDR5B    0.073000        1.0080           0   0.00000   0.00000
      8545 IM1      206      IM1      N2       ND2R5B   2.249300       13.6070           0   -0.840000   1.00000
      8546 IM1      206      IM1      DN2      DRUD    -2.249300        0.4000           0   0.00000   0.00000
      8547 IM1      206      IM1      H7       DUMH     0.000000        1.0080           0   0.00000   0.00000
      8548 IM1      206      IM1      LPN21    LPD     -0.474000        0.0000           -1   0.00000   0.00000
      8549 IM1      207      IM1      C1       CD33G    2.390600       11.6110           0   -1.08100   1.00000
      8550 IM1      207      IM1      DC1      DRUD    -2.551600        0.4000           0   0.00000   0.00000
      8551 IM1      207      IM1      H1       HDA3A    0.094000        1.0080           0   0.00000   0.00000
      8552 IM1      207      IM1      H2       HDA3A    0.094000        1.0080           0   0.00000   0.00000
      8553 IM1      207      IM1      H3       HDA3A    0.094000        1.0080           0   0.00000   0.00000
      8554 IM1      207      IM1      N1       ND2R5A   2.670300       13.6070           0   -1.06300   1.30000
      8555 IM1      207      IM1      DN1      DRUD    -2.530300        0.4000           0   0.00000   0.00000
      8556 IM1      207      IM1      C2       CD2R5A   2.511900       11.6110           0   -1.37800   1.30000
      8557 IM1      207      IM1      DC2      DRUD    -2.880900        0.4000           0   0.00000   0.00000
      8558 IM1      207      IM1      H4       HDR5A    0.150000        1.0080           0   0.00000   0.00000
      8559 IM1      207      IM1      C3       CD2R5A   3.068900       11.6110           0   -1.37800   1.30000
      8560 IM1      207      IM1      DC3      DRUD    -2.880900        0.4000           0   0.00000   0.00000
      8561 IM1      207      IM1      H5       HDR5A    0.053000        1.0080           0   0.00000   0.00000
      8562 IM1      207      IM1      C4       CD2R5B   2.404400       11.6110           0   -0.868000   1.30000
      8563 IM1      207      IM1      DC4      DRUD    -2.286400        0.4000           0   0.00000   0.00000
      8564 IM1      207      IM1      H6       HDR5B    0.073000        1.0080           0   0.00000   0.00000
      8565 IM1      207      IM1      N2       ND2R5B   2.249300       13.6070           0   -0.840000   1.00000
      8566 IM1      207      IM1      DN2      DRUD    -2.249300        0.4000           0   0.00000   0.00000
      8567 IM1      207      IM1      H7       DUMH     0.000000        1.0080           0   0.00000   0.00000
      8568 IM1      207      IM1      LPN21    LPD     -0.474000        0.0000           -1   0.00000   0.00000
      8569 IM1      208      IM1      C1       CD33G    2.390600       11.6110           0   -1.08100   1.00000
      8570 IM1      208      IM1      DC1      DRUD    -2.551600        0.4000           0   0.00000   0.00000
      8571 IM1      208      IM1      H1       HDA3A    0.094000        1.0080           0   0.00000   0.00000
      8572 IM1      208      IM1      H2       HDA3A    0.094000        1.0080           0   0.00000   0.00000
      8573 IM1      208      IM1      H3       HDA3A    0.094000        1.0080           0   0.00000   0.00000
      8574 IM1      208      IM1      N1       ND2R5A   2.670300       13.6070           0   -1.06300   1.30000
      8575 IM1      208      IM1      DN1      DRUD    -2.530300        0.4000           0   0.00000   0.00000
      8576 IM1      208      IM1      C2       CD2R5A   2.511900       11.6110           0   -1.37800   1.30000
      8577 IM1      208      IM1      DC2      DRUD    -2.880900        0.4000           0   0.00000   0.00000
      8578 IM1      208      IM1      H4       HDR5A    0.150000        1.0080           0   0.00000   0.00000
      8579 IM1      208      IM1      C3       CD2R5A   3.068900       11.6110           0   -1.37800   1.30000
      8580 IM1      208      IM1      DC3      DRUD    -2.880900        0.4000           0   0.00000   0.00000
      8581 IM1      208      IM1      H5       HDR5A    0.053000        1.0080           0   0.00000   0.00000
      8582 IM1      208      IM1      C4       CD2R5B   2.404400       11.6110           0   -0.868000   1.30000
      8583 IM1      208      IM1      DC4      DRUD    -2.286400        0.4000           0   0.00000   0.00000
      8584 IM1      208      IM1      H6       HDR5B    0.073000        1.0080           0   0.00000   0.00000
      8585 IM1      208      IM1      N2       ND2R5B   2.249300       13.6070           0   -0.840000   1.00000
      8586 IM1      208      IM1      DN2      DRUD    -2.249300        0.4000           0   0.00000   0.00000
      8587 IM1      208      IM1      H7       DUMH     0.000000        1.0080           0   0.00000   0.00000
      8588 IM1      208      IM1      LPN21    LPD     -0.474000        0.0000           -1   0.00000   0.00000
      8589 IM1      209      IM1      C1       CD33G    2.390600       11.6110           0   -1.08100   1.00000
      8590 IM1      209      IM1      DC1      DRUD    -2.551600        0.4000           0   0.00000   0.00000
      8591 IM1      209      IM1      H1       HDA3A    0.094000        1.0080           0   0.00000   0.00000
      8592 IM1      209      IM1      H2       HDA3A    0.094000        1.0080           0   0.00000   0.00000
      8593 IM1      209      IM1      H3       HDA3A    0.094000        1.0080           0   0.00000   0.00000
      8594 IM1      209      IM1      N1       ND2R5A   2.670300       13.6070           0   -1.06300   1.30000
      8595 IM1      209      IM1      DN1      DRUD    -2.530300        0.4000           0   0.00000   0.00000
      8596 IM1      209      IM1      C2       CD2R5A   2.511900       11.6110           0   -1.37800   1.30000
      8597 IM1      209      IM1      DC2      DRUD    -2.880900        0.4000           0   0.00000   0.00000
      8598 IM1      209      IM1      H4       HDR5A    0.150000        1.0080           0   0.00000   0.00000
      8599 IM1      209      IM1      C3       CD2R5A   3.068900       11.6110           0   -1.37800   1.30000
      8600 IM1      209      IM1      DC3      DRUD    -2.880900        0.4000           0   0.00000   0.00000
      8601 IM1      209      IM1      H5       HDR5A    0.053000        1.0080           0   0.00000   0.00000
      8602 IM1      209      IM1      C4       CD2R5B   2.404400       11.6110           0   -0.868000   1.30000
      8603 IM1      209      IM1      DC4      DRUD    -2.286400        0.4000           0   0.00000   0.00000
      8604 IM1      209      IM1      H6       HDR5B    0.073000        1.0080           0   0.00000   0.00000
      8605 IM1      209      IM1      N2       ND2R5B   2.249300       13.6070           0   -0.840000   1.00000
      8606 IM1      209      IM1      DN2      DRUD    -2.249300        0.4000           0   0.00000   0.00000
      8607 IM1      209      IM1      H7       DUMH     0.000000        1.0080           0   0.00000   0.00000
      8608 IM1      209      IM1      LPN21    LPD     -0.474000        0.0000           -1   0.00000   0.00000
      8609 IM1      210      IM1      C1       CD33G    2.390600       11.6110           0   -1.08100   1.00000
      8610 IM1      210      IM1      DC1      DRUD    -2.551600        0.4000           0   0.00000   0.00000
      8611 IM1      210      IM1      H1       HDA3A    0.094000        1.0080           0   0.00000   0.00000
      8612 IM1      210      IM1      H2       HDA3A    0.094000        1.0080           0   0.00000   0.00000
      8613 IM1      210      IM1      H3       HDA3A    0.094000        1.0080           0   0.00000   0.00000
      8614 IM1      210      IM1      N1       ND2R5A   2.670300       13.6070           0   -1.06300   1.30000
      8615 IM1      210      IM1      DN1      DRUD    -2.530300        0.4000           0   0.00000   0.00000
      8616 IM1      210      IM1      C2       CD2R5A   2.511900       11.6110           0   -1.37800   1.30000
      8617 IM1      210      IM1      DC2      DRUD    -2.880900        0.4000           0   0.00000   0.00000
      8618 IM1      210      IM1      H4       HDR5A    0.150000        1.0080           0   0.00000   0.00000
      8619 IM1      210      IM1      C3       CD2R5A   3.068900       11.6110           0   -1.37800   1.30000
      8620 IM1      210      IM1      DC3      DRUD    -2.880900        0.4000           0   0.00000   0.00000
      8621 IM1      210      IM1      H5       HDR5A    0.053000        1.0080           0   0.00000   0.00000
      8622 IM1      210      IM1      C4       CD2R5B   2.404400       11.6110           0   -0.868000   1.30000
      8623 IM1      210      IM1      DC4      DRUD    -2.286400        0.4000           0   0.00000   0.00000
      8624 IM1      210      IM1      H6       HDR5B    0.073000        1.0080           0   0.00000   0.00000
      8625 IM1      210      IM1      N2       ND2R5B   2.249300       13.6070           0   -0.840000   1.00000
      8626 IM1      210      IM1      DN2      DRUD    -2.249300        0.4000           0   0.00000   0.00000
      8627 IM1      210      IM1      H7       DUMH     0.000000        1.0080           0   0.00000   0.00000
      8628 IM1      210      IM1      LPN21    LPD     -0.474000        0.0000           -1   0.00000   0.00000
      8629 IM1      211      IM1      C1       CD33G    2.390600       11.6110           0   -1.08100   1.00000
      8630 IM1      211      IM1      DC1      DRUD    -2.551600        0.4000           0   0.00000   0.00000
      8631 IM1      211      IM1      H1       HDA3A    0.094000        1.0080           0   0.00000   0.00000
      8632 IM1      211      IM1      H2       HDA3A    0.094000        1.0080           0   0.00000   0.00000
      8633 IM1      211      IM1      H3       HDA3A    0.094000        1.0080           0   0.00000   0.00000
      8634 IM1      211      IM1      N1       ND2R5A   2.670300       13.6070           0   -1.06300   1.30000
      8635 IM1      211      IM1      DN1      DRUD    -2.530300        0.4000           0   0.00000   0.00000
      8636 IM1      211      IM1      C2       CD2R5A   2.511900       11.6110           0   -1.37800   1.30000
      8637 IM1      211      IM1      DC2      DRUD    -2.880900        0.4000           0   0.00000   0.00000
      8638 IM1      211      IM1      H4       HDR5A    0.150000        1.0080           0   0.00000   0.00000
      8639 IM1      211      IM1      C3       CD2R5A   3.068900       11.6110           0   -1.37800   1.30000
      8640 IM1      211      IM1      DC3      DRUD    -2.880900        0.4000           0   0.00000   0.00000
      8641 IM1      211      IM1      H5       HDR5A    0.053000        1.0080           0   0.00000   0.00000
      8642 IM1      211      IM1      C4       CD2R5B   2.404400       11.6110           0   -0.868000   1.30000
      8643 IM1      211      IM1      DC4      DRUD    -2.286400        0.4000           0   0.00000   0.00000
      8644 IM1      211      IM1      H6       HDR5B    0.073000        1.0080           0   0.00000   0.00000
      8645 IM1      211      IM1      N2       ND2R5B   2.249300       13.6070           0   -0.840000   1.00000
      8646 IM1      211      IM1      DN2      DRUD    -2.249300        0.4000           0   0.00000   0.00000
      8647 IM1      211      IM1      H7       DUMH     0.000000        1.0080           0   0.00000   0.00000
      8648 IM1      211      IM1      LPN21    LPD     -0.474000        0.0000           -1   0.00000   0.00000
      8649 IM1      212      IM1      C1       CD33G    2.390600       11.6110           0   -1.08100   1.00000
      8650 IM1      212      IM1      DC1      DRUD    -2.551600        0.4000           0   0.00000   0.00000
      8651 IM1      212      IM1      H1       HDA3A    0.094000        1.0080           0   0.00000   0.00000
      8652 IM1      212      IM1      H2       HDA3A    0.094000        1.0080           0   0.00000   0.00000
      8653 IM1      212      IM1      H3       HDA3A    0.094000        1.0080           0   0.00000   0.00000
      8654 IM1      212      IM1      N1       ND2R5A   2.670300       13.6070           0   -1.06300   1.30000
      8655 IM1      212      IM1      DN1      DRUD    -2.530300        0.4000           0   0.00000   0.00000
      8656 IM1      212      IM1      C2       CD2R5A   2.511900       11.6110           0   -1.37800   1.30000
      8657 IM1      212      IM1      DC2      DRUD    -2.880900        0.4000           0   0.00000   0.00000
      8658 IM1      212      IM1      H4       HDR5A    0.150000        1.0080           0   0.00000   0.00000
      8659 IM1      212      IM1      C3       CD2R5A   3.068900       11.6110           0   -1.37800   1.30000
      8660 IM1      212      IM1      DC3      DRUD    -2.880900        0.4000           0   0.00000   0.00000
      8661 IM1      212      IM1      H5       HDR5A    0.053000        1.0080           0   0.00000   0.00000
      8662 IM1      212      IM1      C4       CD2R5B   2.404400       11.6110           0   -0.868000   1.30000
      8663 IM1      212      IM1      DC4      DRUD    -2.286400        0.4000           0   0.00000   0.00000
      8664 IM1      212      IM1      H6       HDR5B    0.073000        1.0080           0   0.00000   0.00000
      8665 IM1      212      IM1      N2       ND2R5B   2.249300       13.6070           0   -0.840000   1.00000
      8666 IM1      212      IM1      DN2      DRUD    -2.249300        0.4000           0   0.00000   0.00000
      8667 IM1      212      IM1      H7       DUMH     0.000000        1.0080           0   0.00000   0.00000
      8668 IM1      212      IM1      LPN21    LPD     -0.474000        0.0000           -1   0.00000   0.00000
      8669 IM1      213      IM1      C1       CD33G    2.390600       11.6110           0   -1.08100   1.00000
      8670 IM1      213      IM1      DC1      DRUD    -2.551600        0.4000           0   0.00000   0.00000
      8671 IM1      213      IM1      H1       HDA3A    0.094000        1.0080           0   0.00000   0.00000
      8672 IM1      213      IM1      H2       HDA3A    0.094000        1.0080           0   0.00000   0.00000
      8673 IM1      213      IM1      H3       HDA3A    0.094000        1.0080           0   0.00000   0.00000
      8674 IM1      213      IM1      N1       ND2R5A   2.670300       13.6070           0   -1.06300   1.30000
      8675 IM1      213      IM1      DN1      DRUD    -2.530300        0.4000           0   0.00000   0.00000
      8676 IM1      213      IM1      C2       CD2R5A   2.511900       11.6110           0   -1.37800   1.30000
      8677 IM1      213      IM1      DC2      DRUD    -2.880900        0.4000           0   0.00000   0.00000
      8678 IM1      213      IM1      H4       HDR5A    0.150000        1.0080           0   0.00000   0.00000
      8679 IM1      213      IM1      C3       CD2R5A   3.068900       11.6110           0   -1.37800   1.30000
      8680 IM1      213      IM1      DC3      DRUD    -2.880900        0.4000           0   0.00000   0.00000
      8681 IM1      213      IM1      H5       HDR5A    0.053000        1.0080           0   0.00000   0.00000
      8682 IM1      213      IM1      C4       CD2R5B   2.404400       11.6110           0   -0.868000   1.30000
      8683 IM1      213      IM1      DC4      DRUD    -2.286400        0.4000           0   0.00000   0.00000
      8684 IM1      213      IM1      H6       HDR5B    0.073000        1.0080           0   0.00000   0.00000
      8685 IM1      213      IM1      N2       ND2R5B   2.249300       13.6070           0   -0.840000   1.00000
      8686 IM1      213      IM1      DN2      DRUD    -2.249300        0.4000           0   0.00000   0.00000
      8687 IM1      213      IM1      H7       DUMH     0.000000        1.0080           0   0.00000   0.00000
      8688 IM1      213      IM1      LPN21    LPD     -0.474000        0.0000           -1   0.00000   0.00000
      8689 IM1      214      IM1      C1       CD33G    2.390600       11.6110           0   -1.08100   1.00000
      8690 IM1      214      IM1      DC1      DRUD    -2.551600        0.4000           0   0.00000   0.00000
      8691 IM1      214      IM1      H1       HDA3A    0.094000        1.0080           0   0.00000   0.00000
      8692 IM1      214      IM1      H2       HDA3A    0.094000        1.0080           0   0.00000   0.00000
      8693 IM1      214      IM1      H3       HDA3A    0.094000        1.0080           0   0.00000   0.00000
      8694 IM1      214      IM1      N1       ND2R5A   2.670300       13.6070           0   -1.06300   1.30000
      8695 IM1      214      IM1      DN1      DRUD    -2.530300        0.4000           0   0.00000   0.00000
      8696 IM1      214      IM1      C2       CD2R5A   2.511900       11.6110           0   -1.37800   1.30000
      8697 IM1      214      IM1      DC2      DRUD    -2.880900        0.4000           0   0.00000   0.00000
      8698 IM1      214      IM1      H4       HDR5A    0.150000        1.0080           0   0.00000   0.00000
      8699 IM1      214      IM1      C3       CD2R5A   3.068900       11.6110           0   -1.37800   1.30000
      8700 IM1      214      IM1      DC3      DRUD    -2.880900        0.4000           0   0.00000   0.00000
      8701 IM1      214      IM1      H5       HDR5A    0.053000        1.0080           0   0.00000   0.00000
      8702 IM1      214      IM1      C4       CD2R5B   2.404400       11.6110           0   -0.868000   1.30000
      8703 IM1      214      IM1      DC4      DRUD    -2.286400        0.4000           0   0.00000   0.00000
      8704 IM1      214      IM1      H6       HDR5B    0.073000        1.0080           0   0.00000   0.00000
      8705 IM1      214      IM1      N2       ND2R5B   2.249300       13.6070           0   -0.840000   1.00000
      8706 IM1      214      IM1      DN2      DRUD    -2.249300        0.4000           0   0.00000   0.00000
      8707 IM1      214      IM1      H7       DUMH     0.000000        1.0080           0   0.00000   0.00000
      8708 IM1      214      IM1      LPN21    LPD     -0.474000        0.0000           -1   0.00000   0.00000
      8709 IM1      215      IM1      C1       CD33G    2.390600       11.6110           0   -1.08100   1.00000
      8710 IM1      215      IM1      DC1      DRUD    -2.551600        0.4000           0   0.00000   0.00000
      8711 IM1      215      IM1      H1       HDA3A    0.094000        1.0080           0   0.00000   0.00000
      8712 IM1      215      IM1      H2       HDA3A    0.094000        1.0080           0   0.00000   0.00000
      8713 IM1      215      IM1      H3       HDA3A    0.094000        1.0080           0   0.00000   0.00000
      8714 IM1      215      IM1      N1       ND2R5A   2.670300       13.6070           0   -1.06300   1.30000
      8715 IM1      215      IM1      DN1      DRUD    -2.530300        0.4000           0   0.00000   0.00000
      8716 IM1      215      IM1      C2       CD2R5A   2.511900       11.6110           0   -1.37800   1.30000
      8717 IM1      215      IM1      DC2      DRUD    -2.880900        0.4000           0   0.00000   0.00000
      8718 IM1      215      IM1      H4       HDR5A    0.150000        1.0080           0   0.00000   0.00000
      8719 IM1      215      IM1      C3       CD2R5A   3.068900       11.6110           0   -1.37800   1.30000
      8720 IM1      215      IM1      DC3      DRUD    -2.880900        0.4000           0   0.00000   0.00000
      8721 IM1      215      IM1      H5       HDR5A    0.053000        1.0080           0   0.00000   0.00000
      8722 IM1      215      IM1      C4       CD2R5B   2.404400       11.6110           0   -0.868000   1.30000
      8723 IM1      215      IM1      DC4      DRUD    -2.286400        0.4000           0   0.00000   0.00000
      8724 IM1      215      IM1      H6       HDR5B    0.073000        1.0080           0   0.00000   0.00000
      8725 IM1      215      IM1      N2       ND2R5B   2.249300       13.6070           0   -0.840000   1.00000
      8726 IM1      215      IM1      DN2      DRUD    -2.249300        0.4000           0   0.00000   0.00000
      8727 IM1      215      IM1      H7       DUMH     0.000000        1.0080           0   0.00000   0.00000
      8728 IM1      215      IM1      LPN21    LPD     -0.474000        0.0000           -1   0.00000   0.00000
      8729 IM1      216      IM1      C1       CD33G    2.390600       11.6110           0   -1.08100   1.00000
      8730 IM1      216      IM1      DC1      DRUD    -2.551600        0.4000           0   0.00000   0.00000
      8731 IM1      216      IM1      H1       HDA3A    0.094000        1.0080           0   0.00000   0.00000
      8732 IM1      216      IM1      H2       HDA3A    0.094000        1.0080           0   0.00000   0.00000
      8733 IM1      216      IM1      H3       HDA3A    0.094000        1.0080           0   0.00000   0.00000
      8734 IM1      216      IM1      N1       ND2R5A   2.670300       13.6070           0   -1.06300   1.30000
      8735 IM1      216      IM1      DN1      DRUD    -2.530300        0.4000           0   0.00000   0.00000
      8736 IM1      216      IM1      C2       CD2R5A   2.511900       11.6110           0   -1.37800   1.30000
      8737 IM1      216      IM1      DC2      DRUD    -2.880900        0.4000           0   0.00000   0.00000
      8738 IM1      216      IM1      H4       HDR5A    0.150000        1.0080           0   0.00000   0.00000
      8739 IM1      216      IM1      C3       CD2R5A   3.068900       11.6110           0   -1.37800   1.30000
      8740 IM1      216      IM1      DC3      DRUD    -2.880900        0.4000           0   0.00000   0.00000
      8741 IM1      216      IM1      H5       HDR5A    0.053000        1.0080           0   0.00000   0.00000
      8742 IM1      216      IM1      C4       CD2R5B   2.404400       11.6110           0   -0.868000   1.30000
      8743 IM1      216      IM1      DC4      DRUD    -2.286400        0.4000           0   0.00000   0.00000
      8744 IM1      216      IM1      H6       HDR5B    0.073000        1.0080           0   0.00000   0.00000
      8745 IM1      216      IM1      N2       ND2R5B   2.249300       13.6070           0   -0.840000   1.00000
      8746 IM1      216      IM1      DN2      DRUD    -2.249300        0.4000           0   0.00000   0.00000
      8747 IM1      216      IM1      H7       DUMH     0.000000        1.0080           0   0.00000   0.00000
      8748 IM1      216      IM1      LPN21    LPD     -0.474000        0.0000           -1   0.00000   0.00000
      8749 IM1      217      IM1      C1       CD33G    2.390600       11.6110           0   -1.08100   1.00000
      8750 IM1      217      IM1      DC1      DRUD    -2.551600        0.4000           0   0.00000   0.00000
      8751 IM1      217      IM1      H1       HDA3A    0.094000        1.0080           0   0.00000   0.00000
      8752 IM1      217      IM1      H2       HDA3A    0.094000        1.0080           0   0.00000   0.00000
      8753 IM1      217      IM1      H3       HDA3A    0.094000        1.0080           0   0.00000   0.00000
      8754 IM1      217      IM1      N1       ND2R5A   2.670300       13.6070           0   -1.06300   1.30000
      8755 IM1      217      IM1      DN1      DRUD    -2.530300        0.4000           0   0.00000   0.00000
      8756 IM1      217      IM1      C2       CD2R5A   2.511900       11.6110           0   -1.37800   1.30000
      8757 IM1      217      IM1      DC2      DRUD    -2.880900        0.4000           0   0.00000   0.00000
      8758 IM1      217      IM1      H4       HDR5A    0.150000        1.0080           0   0.00000   0.00000
      8759 IM1      217      IM1      C3       CD2R5A   3.068900       11.6110           0   -1.37800   1.30000
      8760 IM1      217      IM1      DC3      DRUD    -2.880900        0.4000           0   0.00000   0.00000
      8761 IM1      217      IM1      H5       HDR5A    0.053000        1.0080           0   0.00000   0.00000
      8762 IM1      217      IM1      C4       CD2R5B   2.404400       11.6110           0   -0.868000   1.30000
      8763 IM1      217      IM1      DC4      DRUD    -2.286400        0.4000           0   0.00000   0.00000
      8764 IM1      217      IM1      H6       HDR5B    0.073000        1.0080           0   0.00000   0.00000
      8765 IM1      217      IM1      N2       ND2R5B   2.249300       13.6070           0   -0.840000   1.00000
      8766 IM1      217      IM1      DN2      DRUD    -2.249300        0.4000           0   0.00000   0.00000
      8767 IM1      217      IM1      H7       DUMH     0.000000        1.0080           0   0.00000   0.00000
      8768 IM1      217      IM1      LPN21    LPD     -0.474000        0.0000           -1   0.00000   0.00000
      8769 HOAC     1        HOAC     C1       CD2O3A   3.554200       11.6110           0   -1.20700   0.708000
      8770 HOAC     1        HOAC     DC1      DRUD    -2.696200        0.4000           0   0.00000   0.00000
      8771 HOAC     1        HOAC     C2       CD33C    3.268200       11.6110           0   -2.11400   0.750000
      8772 HOAC     1        HOAC     DC2      DRUD    -3.568200        0.4000           0   0.00000   0.00000
      8773 HOAC     1        HOAC     H1       HDA3A    0.092000        1.0080           0   0.00000   0.00000
      8774 HOAC     1        HOAC     H2       HDA3A    0.092000        1.0080           0   0.00000   0.00000
      8775 HOAC     1        HOAC     H3       HDA3A    0.092000        1.0080           0   0.00000   0.00000
      8776 HOAC     1        HOAC     O1       OD2C3A   2.356500       15.5994           0   -0.922000   1.53900
      8777 HOAC     1        HOAC     DO1      DRUD    -2.356500        0.4000           0   0.00000   0.00000
      8778 HOAC     1        HOAC     O2       OD31F    2.776500       15.5990           0   -1.28000   1.12400
      8779 HOAC     1        HOAC     DO2      DRUD    -2.776500        0.4000           0   0.00000   0.00000
      8780 HOAC     1        HOAC     H        HDP1A    0.374000        1.0080           0   0.00000   0.00000
      8781 HOAC     1        HOAC     LPO11    LPD     -0.319000        0.0000           -1   0.00000   0.00000
      8782 HOAC     1        HOAC     LPO12    LPD     -0.319000        0.0000           -1   0.00000   0.00000
      8783 HOAC     1        HOAC     LPO21    LPD     -0.285000        0.0000           -1   0.00000   0.00000
      8784 HOAC     1        HOAC     LPO22    LPD     -0.285000        0.0000           -1   0.00000   0.00000
      8785 HOAC     2        HOAC     C1       CD2O3A   3.554200       11.6110           0   -1.20700   0.708000
      8786 HOAC     2        HOAC     DC1      DRUD    -2.696200        0.4000           0   0.00000   0.00000
      8787 HOAC     2        HOAC     C2       CD33C    3.268200       11.6110           0   -2.11400   0.750000
      8788 HOAC     2        HOAC     DC2      DRUD    -3.568200        0.4000           0   0.00000   0.00000
      8789 HOAC     2        HOAC     H1       HDA3A    0.092000        1.0080           0   0.00000   0.00000
      8790 HOAC     2        HOAC     H2       HDA3A    0.092000        1.0080           0   0.00000   0.00000
      8791 HOAC     2        HOAC     H3       HDA3A    0.092000        1.0080           0   0.00000   0.00000
      8792 HOAC     2        HOAC     O1       OD2C3A   2.356500       15.5994           0   -0.922000   1.53900
      8793 HOAC     2        HOAC     DO1      DRUD    -2.356500        0.4000           0   0.00000   0.00000
      8794 HOAC     2        HOAC     O2       OD31F    2.776500       15.5990           0   -1.28000   1.12400
      8795 HOAC     2        HOAC     DO2      DRUD    -2.776500        0.4000           0   0.00000   0.00000
      8796 HOAC     2        HOAC     H        HDP1A    0.374000        1.0080           0   0.00000   0.00000
      8797 HOAC     2        HOAC     LPO11    LPD     -0.319000        0.0000           -1   0.00000   0.00000
      8798 HOAC     2        HOAC     LPO12    LPD     -0.319000        0.0000           -1   0.00000   0.00000
      8799 HOAC     2        HOAC     LPO21    LPD     -0.285000        0.0000           -1   0.00000   0.00000
      8800 HOAC     2        HOAC     LPO22    LPD     -0.285000        0.0000           -1   0.00000   0.00000
      8801 HOAC     3        HOAC     C1       CD2O3A   3.554200       11.6110           0   -1.20700   0.708000
      8802 HOAC     3        HOAC     DC1      DRUD    -2.696200        0.4000           0   0.00000   0.00000
      8803 HOAC     3        HOAC     C2       CD33C    3.268200       11.6110           0   -2.11400   0.750000
      8804 HOAC     3        HOAC     DC2      DRUD    -3.568200        0.4000           0   0.00000   0.00000
      8805 HOAC     3        HOAC     H1       HDA3A    0.092000        1.0080           0   0.00000   0.00000
      8806 HOAC     3        HOAC     H2       HDA3A    0.092000        1.0080           0   0.00000   0.00000
      8807 HOAC     3        HOAC     H3       HDA3A    0.092000        1.0080           0   0.00000   0.00000
      8808 HOAC     3        HOAC     O1       OD2C3A   2.356500       15.5994           0   -0.922000   1.53900
      8809 HOAC     3        HOAC     DO1      DRUD    -2.356500        0.4000           0   0.00000   0.00000
      8810 HOAC     3        HOAC     O2       OD31F    2.776500       15.5990           0   -1.28000   1.12400
      8811 HOAC     3        HOAC     DO2      DRUD    -2.776500        0.4000           0   0.00000   0.00000
      8812 HOAC     3        HOAC     H        HDP1A    0.374000        1.0080           0   0.00000   0.00000
      8813 HOAC     3        HOAC     LPO11    LPD     -0.319000        0.0000           -1   0.00000   0.00000
      8814 HOAC     3        HOAC     LPO12    LPD     -0.319000        0.0000           -1   0.00000   0.00000
      8815 HOAC     3        HOAC     LPO21    LPD     -0.285000        0.0000           -1   0.00000   0.00000
      8816 HOAC     3        HOAC     LPO22    LPD     -0.285000        0.0000           -1   0.00000   0.00000
      8817 HOAC     4        HOAC     C1       CD2O3A   3.554200       11.6110           0   -1.20700   0.708000
      8818 HOAC     4        HOAC     DC1      DRUD    -2.696200        0.4000           0   0.00000   0.00000
      8819 HOAC     4        HOAC     C2       CD33C    3.268200       11.6110           0   -2.11400   0.750000
      8820 HOAC     4        HOAC     DC2      DRUD    -3.568200        0.4000           0   0.00000   0.00000
      8821 HOAC     4        HOAC     H1       HDA3A    0.092000        1.0080           0   0.00000   0.00000
      8822 HOAC     4        HOAC     H2       HDA3A    0.092000        1.0080           0   0.00000   0.00000
      8823 HOAC     4        HOAC     H3       HDA3A    0.092000        1.0080           0   0.00000   0.00000
      8824 HOAC     4        HOAC     O1       OD2C3A   2.356500       15.5994           0   -0.922000   1.53900
      8825 HOAC     4        HOAC     DO1      DRUD    -2.356500        0.4000           0   0.00000   0.00000
      8826 HOAC     4        HOAC     O2       OD31F    2.776500       15.5990           0   -1.28000   1.12400
      8827 HOAC     4        HOAC     DO2      DRUD    -2.776500        0.4000           0   0.00000   0.00000
      8828 HOAC     4        HOAC     H        HDP1A    0.374000        1.0080           0   0.00000   0.00000
      8829 HOAC     4        HOAC     LPO11    LPD     -0.319000        0.0000           -1   0.00000   0.00000
      8830 HOAC     4        HOAC     LPO12    LPD     -0.319000        0.0000           -1   0.00000   0.00000
      8831 HOAC     4        HOAC     LPO21    LPD     -0.285000        0.0000           -1   0.00000   0.00000
      8832 HOAC     4        HOAC     LPO22    LPD     -0.285000        0.0000           -1   0.00000   0.00000
      8833 HOAC     5        HOAC     C1       CD2O3A   3.554200       11.6110           0   -1.20700   0.708000
      8834 HOAC     5        HOAC     DC1      DRUD    -2.696200        0.4000           0   0.00000   0.00000
      8835 HOAC     5        HOAC     C2       CD33C    3.268200       11.6110           0   -2.11400   0.750000
      8836 HOAC     5        HOAC     DC2      DRUD    -3.568200        0.4000           0   0.00000   0.00000
      8837 HOAC     5        HOAC     H1       HDA3A    0.092000        1.0080           0   0.00000   0.00000
      8838 HOAC     5        HOAC     H2       HDA3A    0.092000        1.0080           0   0.00000   0.00000
      8839 HOAC     5        HOAC     H3       HDA3A    0.092000        1.0080           0   0.00000   0.00000
      8840 HOAC     5        HOAC     O1       OD2C3A   2.356500       15.5994           0   -0.922000   1.53900
      8841 HOAC     5        HOAC     DO1      DRUD    -2.356500        0.4000           0   0.00000   0.00000
      8842 HOAC     5        HOAC     O2       OD31F    2.776500       15.5990           0   -1.28000   1.12400
      8843 HOAC     5        HOAC     DO2      DRUD    -2.776500        0.4000           0   0.00000   0.00000
      8844 HOAC     5        HOAC     H        HDP1A    0.374000        1.0080           0   0.00000   0.00000
      8845 HOAC     5        HOAC     LPO11    LPD     -0.319000        0.0000           -1   0.00000   0.00000
      8846 HOAC     5        HOAC     LPO12    LPD     -0.319000        0.0000           -1   0.00000   0.00000
      8847 HOAC     5        HOAC     LPO21    LPD     -0.285000        0.0000           -1   0.00000   0.00000
      8848 HOAC     5        HOAC     LPO22    LPD     -0.285000        0.0000           -1   0.00000   0.00000
      8849 HOAC     6        HOAC     C1       CD2O3A   3.554200       11.6110           0   -1.20700   0.708000
      8850 HOAC     6        HOAC     DC1      DRUD    -2.696200        0.4000           0   0.00000   0.00000
      8851 HOAC     6        HOAC     C2       CD33C    3.268200       11.6110           0   -2.11400   0.750000
      8852 HOAC     6        HOAC     DC2      DRUD    -3.568200        0.4000           0   0.00000   0.00000
      8853 HOAC     6        HOAC     H1       HDA3A    0.092000        1.0080           0   0.00000   0.00000
      8854 HOAC     6        HOAC     H2       HDA3A    0.092000        1.0080           0   0.00000   0.00000
      8855 HOAC     6        HOAC     H3       HDA3A    0.092000        1.0080           0   0.00000   0.00000
      8856 HOAC     6        HOAC     O1       OD2C3A   2.356500       15.5994           0   -0.922000   1.53900
      8857 HOAC     6        HOAC     DO1      DRUD    -2.356500        0.4000           0   0.00000   0.00000
      8858 HOAC     6        HOAC     O2       OD31F    2.776500       15.5990           0   -1.28000   1.12400
      8859 HOAC     6        HOAC     DO2      DRUD    -2.776500        0.4000           0   0.00000   0.00000
      8860 HOAC     6        HOAC     H        HDP1A    0.374000        1.0080           0   0.00000   0.00000
      8861 HOAC     6        HOAC     LPO11    LPD     -0.319000        0.0000           -1   0.00000   0.00000
      8862 HOAC     6        HOAC     LPO12    LPD     -0.319000        0.0000           -1   0.00000   0.00000
      8863 HOAC     6        HOAC     LPO21    LPD     -0.285000        0.0000           -1   0.00000   0.00000
      8864 HOAC     6        HOAC     LPO22    LPD     -0.285000        0.0000           -1   0.00000   0.00000
      8865 HOAC     7        HOAC     C1       CD2O3A   3.554200       11.6110           0   -1.20700   0.708000
      8866 HOAC     7        HOAC     DC1      DRUD    -2.696200        0.4000           0   0.00000   0.00000
      8867 HOAC     7        HOAC     C2       CD33C    3.268200       11.6110           0   -2.11400   0.750000
      8868 HOAC     7        HOAC     DC2      DRUD    -3.568200        0.4000           0   0.00000   0.00000
      8869 HOAC     7        HOAC     H1       HDA3A    0.092000        1.0080           0   0.00000   0.00000
      8870 HOAC     7        HOAC     H2       HDA3A    0.092000        1.0080           0   0.00000   0.00000
      8871 HOAC     7        HOAC     H3       HDA3A    0.092000        1.0080           0   0.00000   0.00000
      8872 HOAC     7        HOAC     O1       OD2C3A   2.356500       15.5994           0   -0.922000   1.53900
      8873 HOAC     7        HOAC     DO1      DRUD    -2.356500        0.4000           0   0.00000   0.00000
      8874 HOAC     7        HOAC     O2       OD31F    2.776500       15.5990           0   -1.28000   1.12400
      8875 HOAC     7        HOAC     DO2      DRUD    -2.776500        0.4000           0   0.00000   0.00000
      8876 HOAC     7        HOAC     H        HDP1A    0.374000        1.0080           0   0.00000   0.00000
      8877 HOAC     7        HOAC     LPO11    LPD     -0.319000        0.0000           -1   0.00000   0.00000
      8878 HOAC     7        HOAC     LPO12    LPD     -0.319000        0.0000           -1   0.00000   0.00000
      8879 HOAC     7        HOAC     LPO21    LPD     -0.285000        0.0000           -1   0.00000   0.00000
      8880 HOAC     7        HOAC     LPO22    LPD     -0.285000        0.0000           -1   0.00000   0.00000
      8881 HOAC     8        HOAC     C1       CD2O3A   3.554200       11.6110           0   -1.20700   0.708000
      8882 HOAC     8        HOAC     DC1      DRUD    -2.696200        0.4000           0   0.00000   0.00000
      8883 HOAC     8        HOAC     C2       CD33C    3.268200       11.6110           0   -2.11400   0.750000
      8884 HOAC     8        HOAC     DC2      DRUD    -3.568200        0.4000           0   0.00000   0.00000
      8885 HOAC     8        HOAC     H1       HDA3A    0.092000        1.0080           0   0.00000   0.00000
      8886 HOAC     8        HOAC     H2       HDA3A    0.092000        1.0080           0   0.00000   0.00000
      8887 HOAC     8        HOAC     H3       HDA3A    0.092000        1.0080           0   0.00000   0.00000
      8888 HOAC     8        HOAC     O1       OD2C3A   2.356500       15.5994           0   -0.922000   1.53900
      8889 HOAC     8        HOAC     DO1      DRUD    -2.356500        0.4000           0   0.00000   0.00000
      8890 HOAC     8        HOAC     O2       OD31F    2.776500       15.5990           0   -1.28000   1.12400
      8891 HOAC     8        HOAC     DO2      DRUD    -2.776500        0.4000           0   0.00000   0.00000
      8892 HOAC     8        HOAC     H        HDP1A    0.374000        1.0080           0   0.00000   0.00000
      8893 HOAC     8        HOAC     LPO11    LPD     -0.319000        0.0000           -1   0.00000   0.00000
      8894 HOAC     8        HOAC     LPO12    LPD     -0.319000        0.0000           -1   0.00000   0.00000
      8895 HOAC     8        HOAC     LPO21    LPD     -0.285000        0.0000           -1   0.00000   0.00000
      8896 HOAC     8        HOAC     LPO22    LPD     -0.285000        0.0000           -1   0.00000   0.00000
      8897 HOAC     9        HOAC     C1       CD2O3A   3.554200       11.6110           0   -1.20700   0.708000
      8898 HOAC     9        HOAC     DC1      DRUD    -2.696200        0.4000           0   0.00000   0.00000
      8899 HOAC     9        HOAC     C2       CD33C    3.268200       11.6110           0   -2.11400   0.750000
      8900 HOAC     9        HOAC     DC2      DRUD    -3.568200        0.4000           0   0.00000   0.00000
      8901 HOAC     9        HOAC     H1       HDA3A    0.092000        1.0080           0   0.00000   0.00000
      8902 HOAC     9        HOAC     H2       HDA3A    0.092000        1.0080           0   0.00000   0.00000
      8903 HOAC     9        HOAC     H3       HDA3A    0.092000        1.0080           0   0.00000   0.00000
      8904 HOAC     9        HOAC     O1       OD2C3A   2.356500       15.5994           0   -0.922000   1.53900
      8905 HOAC     9        HOAC     DO1      DRUD    -2.356500        0.4000           0   0.00000   0.00000
      8906 HOAC     9        HOAC     O2       OD31F    2.776500       15.5990           0   -1.28000   1.12400
      8907 HOAC     9        HOAC     DO2      DRUD    -2.776500        0.4000           0   0.00000   0.00000
      8908 HOAC     9        HOAC     H        HDP1A    0.374000        1.0080           0   0.00000   0.00000
      8909 HOAC     9        HOAC     LPO11    LPD     -0.319000        0.0000           -1   0.00000   0.00000
      8910 HOAC     9        HOAC     LPO12    LPD     -0.319000        0.0000           -1   0.00000   0.00000
      8911 HOAC     9        HOAC     LPO21    LPD     -0.285000        0.0000           -1   0.00000   0.00000
      8912 HOAC     9        HOAC     LPO22    LPD     -0.285000        0.0000           -1   0.00000   0.00000
      8913 HOAC     10       HOAC     C1       CD2O3A   3.554200       11.6110           0   -1.20700   0.708000
      8914 HOAC     10       HOAC     DC1      DRUD    -2.696200        0.4000           0   0.00000   0.00000
      8915 HOAC     10       HOAC     C2       CD33C    3.268200       11.6110           0   -2.11400   0.750000
      8916 HOAC     10       HOAC     DC2      DRUD    -3.568200        0.4000           0   0.00000   0.00000
      8917 HOAC     10       HOAC     H1       HDA3A    0.092000        1.0080           0   0.00000   0.00000
      8918 HOAC     10       HOAC     H2       HDA3A    0.092000        1.0080           0   0.00000   0.00000
      8919 HOAC     10       HOAC     H3       HDA3A    0.092000        1.0080           0   0.00000   0.00000
      8920 HOAC     10       HOAC     O1       OD2C3A   2.356500       15.5994           0   -0.922000   1.53900
      8921 HOAC     10       HOAC     DO1      DRUD    -2.356500        0.4000           0   0.00000   0.00000
      8922 HOAC     10       HOAC     O2       OD31F    2.776500       15.5990           0   -1.28000   1.12400
      8923 HOAC     10       HOAC     DO2      DRUD    -2.776500        0.4000           0   0.00000   0.00000
      8924 HOAC     10       HOAC     H        HDP1A    0.374000        1.0080           0   0.00000   0.00000
      8925 HOAC     10       HOAC     LPO11    LPD     -0.319000        0.0000           -1   0.00000   0.00000
      8926 HOAC     10       HOAC     LPO12    LPD     -0.319000        0.0000           -1   0.00000   0.00000
      8927 HOAC     10       HOAC     LPO21    LPD     -0.285000        0.0000           -1   0.00000   0.00000
      8928 HOAC     10       HOAC     LPO22    LPD     -0.285000        0.0000           -1   0.00000   0.00000
      8929 HOAC     11       HOAC     C1       CD2O3A   3.554200       11.6110           0   -1.20700   0.708000
      8930 HOAC     11       HOAC     DC1      DRUD    -2.696200        0.4000           0   0.00000   0.00000
      8931 HOAC     11       HOAC     C2       CD33C    3.268200       11.6110           0   -2.11400   0.750000
      8932 HOAC     11       HOAC     DC2      DRUD    -3.568200        0.4000           0   0.00000   0.00000
      8933 HOAC     11       HOAC     H1       HDA3A    0.092000        1.0080           0   0.00000   0.00000
      8934 HOAC     11       HOAC     H2       HDA3A    0.092000        1.0080           0   0.00000   0.00000
      8935 HOAC     11       HOAC     H3       HDA3A    0.092000        1.0080           0   0.00000   0.00000
      8936 HOAC     11       HOAC     O1       OD2C3A   2.356500       15.5994           0   -0.922000   1.53900
      8937 HOAC     11       HOAC     DO1      DRUD    -2.356500        0.4000           0   0.00000   0.00000
      8938 HOAC     11       HOAC     O2       OD31F    2.776500       15.5990           0   -1.28000   1.12400
      8939 HOAC     11       HOAC     DO2      DRUD    -2.776500        0.4000           0   0.00000   0.00000
      8940 HOAC     11       HOAC     H        HDP1A    0.374000        1.0080           0   0.00000   0.00000
      8941 HOAC     11       HOAC     LPO11    LPD     -0.319000        0.0000           -1   0.00000   0.00000
      8942 HOAC     11       HOAC     LPO12    LPD     -0.319000        0.0000           -1   0.00000   0.00000
      8943 HOAC     11       HOAC     LPO21    LPD     -0.285000        0.0000           -1   0.00000   0.00000
      8944 HOAC     11       HOAC     LPO22    LPD     -0.285000        0.0000           -1   0.00000   0.00000
      8945 HOAC     12       HOAC     C1       CD2O3A   3.554200       11.6110           0   -1.20700   0.708000
      8946 HOAC     12       HOAC     DC1      DRUD    -2.696200        0.4000           0   0.00000   0.00000
      8947 HOAC     12       HOAC     C2       CD33C    3.268200       11.6110           0   -2.11400   0.750000
      8948 HOAC     12       HOAC     DC2      DRUD    -3.568200        0.4000           0   0.00000   0.00000
      8949 HOAC     12       HOAC     H1       HDA3A    0.092000        1.0080           0   0.00000   0.00000
      8950 HOAC     12       HOAC     H2       HDA3A    0.092000        1.0080           0   0.00000   0.00000
      8951 HOAC     12       HOAC     H3       HDA3A    0.092000        1.0080           0   0.00000   0.00000
      8952 HOAC     12       HOAC     O1       OD2C3A   2.356500       15.5994           0   -0.922000   1.53900
      8953 HOAC     12       HOAC     DO1      DRUD    -2.356500        0.4000           0   0.00000   0.00000
      8954 HOAC     12       HOAC     O2       OD31F    2.776500       15.5990           0   -1.28000   1.12400
      8955 HOAC     12       HOAC     DO2      DRUD    -2.776500        0.4000           0   0.00000   0.00000
      8956 HOAC     12       HOAC     H        HDP1A    0.374000        1.0080           0   0.00000   0.00000
      8957 HOAC     12       HOAC     LPO11    LPD     -0.319000        0.0000           -1   0.00000   0.00000
      8958 HOAC     12       HOAC     LPO12    LPD     -0.319000        0.0000           -1   0.00000   0.00000
      8959 HOAC     12       HOAC     LPO21    LPD     -0.285000        0.0000           -1   0.00000   0.00000
      8960 HOAC     12       HOAC     LPO22    LPD     -0.285000        0.0000           -1   0.00000   0.00000
      8961 HOAC     13       HOAC     C1       CD2O3A   3.554200       11.6110           0   -1.20700   0.708000
      8962 HOAC     13       HOAC     DC1      DRUD    -2.696200        0.4000           0   0.00000   0.00000
      8963 HOAC     13       HOAC     C2       CD33C    3.268200       11.6110           0   -2.11400   0.750000
      8964 HOAC     13       HOAC     DC2      DRUD    -3.568200        0.4000           0   0.00000   0.00000
      8965 HOAC     13       HOAC     H1       HDA3A    0.092000        1.0080           0   0.00000   0.00000
      8966 HOAC     13       HOAC     H2       HDA3A    0.092000        1.0080           0   0.00000   0.00000
      8967 HOAC     13       HOAC     H3       HDA3A    0.092000        1.0080           0   0.00000   0.00000
      8968 HOAC     13       HOAC     O1       OD2C3A   2.356500       15.5994           0   -0.922000   1.53900
      8969 HOAC     13       HOAC     DO1      DRUD    -2.356500        0.4000           0   0.00000   0.00000
      8970 HOAC     13       HOAC     O2       OD31F    2.776500       15.5990           0   -1.28000   1.12400
      8971 HOAC     13       HOAC     DO2      DRUD    -2.776500        0.4000           0   0.00000   0.00000
      8972 HOAC     13       HOAC     H        HDP1A    0.374000        1.0080           0   0.00000   0.00000
      8973 HOAC     13       HOAC     LPO11    LPD     -0.319000        0.0000           -1   0.00000   0.00000
      8974 HOAC     13       HOAC     LPO12    LPD     -0.319000        0.0000           -1   0.00000   0.00000
      8975 HOAC     13       HOAC     LPO21    LPD     -0.285000        0.0000           -1   0.00000   0.00000
      8976 HOAC     13       HOAC     LPO22    LPD     -0.285000        0.0000           -1   0.00000   0.00000
      8977 HOAC     14       HOAC     C1       CD2O3A   3.554200       11.6110           0   -1.20700   0.708000
      8978 HOAC     14       HOAC     DC1      DRUD    -2.696200        0.4000           0   0.00000   0.00000
      8979 HOAC     14       HOAC     C2       CD33C    3.268200       11.6110           0   -2.11400   0.750000
      8980 HOAC     14       HOAC     DC2      DRUD    -3.568200        0.4000           0   0.00000   0.00000
      8981 HOAC     14       HOAC     H1       HDA3A    0.092000        1.0080           0   0.00000   0.00000
      8982 HOAC     14       HOAC     H2       HDA3A    0.092000        1.0080           0   0.00000   0.00000
      8983 HOAC     14       HOAC     H3       HDA3A    0.092000        1.0080           0   0.00000   0.00000
      8984 HOAC     14       HOAC     O1       OD2C3A   2.356500       15.5994           0   -0.922000   1.53900
      8985 HOAC     14       HOAC     DO1      DRUD    -2.356500        0.4000           0   0.00000   0.00000
      8986 HOAC     14       HOAC     O2       OD31F    2.776500       15.5990           0   -1.28000   1.12400
      8987 HOAC     14       HOAC     DO2      DRUD    -2.776500        0.4000           0   0.00000   0.00000
      8988 HOAC     14       HOAC     H        HDP1A    0.374000        1.0080           0   0.00000   0.00000
      8989 HOAC     14       HOAC     LPO11    LPD     -0.319000        0.0000           -1   0.00000   0.00000
      8990 HOAC     14       HOAC     LPO12    LPD     -0.319000        0.0000           -1   0.00000   0.00000
      8991 HOAC     14       HOAC     LPO21    LPD     -0.285000        0.0000           -1   0.00000   0.00000
      8992 HOAC     14       HOAC     LPO22    LPD     -0.285000        0.0000           -1   0.00000   0.00000
      8993 HOAC     15       HOAC     C1       CD2O3A   3.554200       11.6110           0   -1.20700   0.708000
      8994 HOAC     15       HOAC     DC1      DRUD    -2.696200        0.4000           0   0.00000   0.00000
      8995 HOAC     15       HOAC     C2       CD33C    3.268200       11.6110           0   -2.11400   0.750000
      8996 HOAC     15       HOAC     DC2      DRUD    -3.568200        0.4000           0   0.00000   0.00000
      8997 HOAC     15       HOAC     H1       HDA3A    0.092000        1.0080           0   0.00000   0.00000
      8998 HOAC     15       HOAC     H2       HDA3A    0.092000        1.0080           0   0.00000   0.00000
      8999 HOAC     15       HOAC     H3       HDA3A    0.092000        1.0080           0   0.00000   0.00000
      9000 HOAC     15       HOAC     O1       OD2C3A   2.356500       15.5994           0   -0.922000   1.53900
      9001 HOAC     15       HOAC     DO1      DRUD    -2.356500        0.4000           0   0.00000   0.00000
      9002 HOAC     15       HOAC     O2       OD31F    2.776500       15.5990           0   -1.28000   1.12400
      9003 HOAC     15       HOAC     DO2      DRUD    -2.776500        0.4000           0   0.00000   0.00000
      9004 HOAC     15       HOAC     H        HDP1A    0.374000        1.0080           0   0.00000   0.00000
      9005 HOAC     15       HOAC     LPO11    LPD     -0.319000        0.0000           -1   0.00000   0.00000
      9006 HOAC     15       HOAC     LPO12    LPD     -0.319000        0.0000           -1   0.00000   0.00000
      9007 HOAC     15       HOAC     LPO21    LPD     -0.285000        0.0000           -1   0.00000   0.00000
      9008 HOAC     15       HOAC     LPO22    LPD     -0.285000        0.0000           -1   0.00000   0.00000
      9009 HOAC     16       HOAC     C1       CD2O3A   3.554200       11.6110           0   -1.20700   0.708000
      9010 HOAC     16       HOAC     DC1      DRUD    -2.696200        0.4000           0   0.00000   0.00000
      9011 HOAC     16       HOAC     C2       CD33C    3.268200       11.6110           0   -2.11400   0.750000
      9012 HOAC     16       HOAC     DC2      DRUD    -3.568200        0.4000           0   0.00000   0.00000
      9013 HOAC     16       HOAC     H1       HDA3A    0.092000        1.0080           0   0.00000   0.00000
      9014 HOAC     16       HOAC     H2       HDA3A    0.092000        1.0080           0   0.00000   0.00000
      9015 HOAC     16       HOAC     H3       HDA3A    0.092000        1.0080           0   0.00000   0.00000
      9016 HOAC     16       HOAC     O1       OD2C3A   2.356500       15.5994           0   -0.922000   1.53900
      9017 HOAC     16       HOAC     DO1      DRUD    -2.356500        0.4000           0   0.00000   0.00000
      9018 HOAC     16       HOAC     O2       OD31F    2.776500       15.5990           0   -1.28000   1.12400
      9019 HOAC     16       HOAC     DO2      DRUD    -2.776500        0.4000           0   0.00000   0.00000
      9020 HOAC     16       HOAC     H        HDP1A    0.374000        1.0080           0   0.00000   0.00000
      9021 HOAC     16       HOAC     LPO11    LPD     -0.319000        0.0000           -1   0.00000   0.00000
      9022 HOAC     16       HOAC     LPO12    LPD     -0.319000        0.0000           -1   0.00000   0.00000
      9023 HOAC     16       HOAC     LPO21    LPD     -0.285000        0.0000           -1   0.00000   0.00000
      9024 HOAC     16       HOAC     LPO22    LPD     -0.285000        0.0000           -1   0.00000   0.00000
      9025 HOAC     17       HOAC     C1       CD2O3A   3.554200       11.6110           0   -1.20700   0.708000
      9026 HOAC     17       HOAC     DC1      DRUD    -2.696200        0.4000           0   0.00000   0.00000
      9027 HOAC     17       HOAC     C2       CD33C    3.268200       11.6110           0   -2.11400   0.750000
      9028 HOAC     17       HOAC     DC2      DRUD    -3.568200        0.4000           0   0.00000   0.00000
      9029 HOAC     17       HOAC     H1       HDA3A    0.092000        1.0080           0   0.00000   0.00000
      9030 HOAC     17       HOAC     H2       HDA3A    0.092000        1.0080           0   0.00000   0.00000
      9031 HOAC     17       HOAC     H3       HDA3A    0.092000        1.0080           0   0.00000   0.00000
      9032 HOAC     17       HOAC     O1       OD2C3A   2.356500       15.5994           0   -0.922000   1.53900
      9033 HOAC     17       HOAC     DO1      DRUD    -2.356500        0.4000           0   0.00000   0.00000
      9034 HOAC     17       HOAC     O2       OD31F    2.776500       15.5990           0   -1.28000   1.12400
      9035 HOAC     17       HOAC     DO2      DRUD    -2.776500        0.4000           0   0.00000   0.00000
      9036 HOAC     17       HOAC     H        HDP1A    0.374000        1.0080           0   0.00000   0.00000
      9037 HOAC     17       HOAC     LPO11    LPD     -0.319000        0.0000           -1   0.00000   0.00000
      9038 HOAC     17       HOAC     LPO12    LPD     -0.319000        0.0000           -1   0.00000   0.00000
      9039 HOAC     17       HOAC     LPO21    LPD     -0.285000        0.0000           -1   0.00000   0.00000
      9040 HOAC     17       HOAC     LPO22    LPD     -0.285000        0.0000           -1   0.00000   0.00000
      9041 HOAC     18       HOAC     C1       CD2O3A   3.554200       11.6110           0   -1.20700   0.708000
      9042 HOAC     18       HOAC     DC1      DRUD    -2.696200        0.4000           0   0.00000   0.00000
      9043 HOAC     18       HOAC     C2       CD33C    3.268200       11.6110           0   -2.11400   0.750000
      9044 HOAC     18       HOAC     DC2      DRUD    -3.568200        0.4000           0   0.00000   0.00000
      9045 HOAC     18       HOAC     H1       HDA3A    0.092000        1.0080           0   0.00000   0.00000
      9046 HOAC     18       HOAC     H2       HDA3A    0.092000        1.0080           0   0.00000   0.00000
      9047 HOAC     18       HOAC     H3       HDA3A    0.092000        1.0080           0   0.00000   0.00000
      9048 HOAC     18       HOAC     O1       OD2C3A   2.356500       15.5994           0   -0.922000   1.53900
      9049 HOAC     18       HOAC     DO1      DRUD    -2.356500        0.4000           0   0.00000   0.00000
      9050 HOAC     18       HOAC     O2       OD31F    2.776500       15.5990           0   -1.28000   1.12400
      9051 HOAC     18       HOAC     DO2      DRUD    -2.776500        0.4000           0   0.00000   0.00000
      9052 HOAC     18       HOAC     H        HDP1A    0.374000        1.0080           0   0.00000   0.00000
      9053 HOAC     18       HOAC     LPO11    LPD     -0.319000        0.0000           -1   0.00000   0.00000
      9054 HOAC     18       HOAC     LPO12    LPD     -0.319000        0.0000           -1   0.00000   0.00000
      9055 HOAC     18       HOAC     LPO21    LPD     -0.285000        0.0000           -1   0.00000   0.00000
      9056 HOAC     18       HOAC     LPO22    LPD     -0.285000        0.0000           -1   0.00000   0.00000
      9057 HOAC     19       HOAC     C1       CD2O3A   3.554200       11.6110           0   -1.20700   0.708000
      9058 HOAC     19       HOAC     DC1      DRUD    -2.696200        0.4000           0   0.00000   0.00000
      9059 HOAC     19       HOAC     C2       CD33C    3.268200       11.6110           0   -2.11400   0.750000
      9060 HOAC     19       HOAC     DC2      DRUD    -3.568200        0.4000           0   0.00000   0.00000
      9061 HOAC     19       HOAC     H1       HDA3A    0.092000        1.0080           0   0.00000   0.00000
      9062 HOAC     19       HOAC     H2       HDA3A    0.092000        1.0080           0   0.00000   0.00000
      9063 HOAC     19       HOAC     H3       HDA3A    0.092000        1.0080           0   0.00000   0.00000
      9064 HOAC     19       HOAC     O1       OD2C3A   2.356500       15.5994           0   -0.922000   1.53900
      9065 HOAC     19       HOAC     DO1      DRUD    -2.356500        0.4000           0   0.00000   0.00000
      9066 HOAC     19       HOAC     O2       OD31F    2.776500       15.5990           0   -1.28000   1.12400
      9067 HOAC     19       HOAC     DO2      DRUD    -2.776500        0.4000           0   0.00000   0.00000
      9068 HOAC     19       HOAC     H        HDP1A    0.374000        1.0080           0   0.00000   0.00000
      9069 HOAC     19       HOAC     LPO11    LPD     -0.319000        0.0000           -1   0.00000   0.00000
      9070 HOAC     19       HOAC     LPO12    LPD     -0.319000        0.0000           -1   0.00000   0.00000
      9071 HOAC     19       HOAC     LPO21    LPD     -0.285000        0.0000           -1   0.00000   0.00000
      9072 HOAC     19       HOAC     LPO22    LPD     -0.285000        0.0000           -1   0.00000   0.00000
      9073 HOAC     20       HOAC     C1       CD2O3A   3.554200       11.6110           0   -1.20700   0.708000
      9074 HOAC     20       HOAC     DC1      DRUD    -2.696200        0.4000           0   0.00000   0.00000
      9075 HOAC     20       HOAC     C2       CD33C    3.268200       11.6110           0   -2.11400   0.750000
      9076 HOAC     20       HOAC     DC2      DRUD    -3.568200        0.4000           0   0.00000   0.00000
      9077 HOAC     20       HOAC     H1       HDA3A    0.092000        1.0080           0   0.00000   0.00000
      9078 HOAC     20       HOAC     H2       HDA3A    0.092000        1.0080           0   0.00000   0.00000
      9079 HOAC     20       HOAC     H3       HDA3A    0.092000        1.0080           0   0.00000   0.00000
      9080 HOAC     20       HOAC     O1       OD2C3A   2.356500       15.5994           0   -0.922000   1.53900
      9081 HOAC     20       HOAC     DO1      DRUD    -2.356500        0.4000           0   0.00000   0.00000
      9082 HOAC     20       HOAC     O2       OD31F    2.776500       15.5990           0   -1.28000   1.12400
      9083 HOAC     20       HOAC     DO2      DRUD    -2.776500        0.4000           0   0.00000   0.00000
      9084 HOAC     20       HOAC     H        HDP1A    0.374000        1.0080           0   0.00000   0.00000
      9085 HOAC     20       HOAC     LPO11    LPD     -0.319000        0.0000           -1   0.00000   0.00000
      9086 HOAC     20       HOAC     LPO12    LPD     -0.319000        0.0000           -1   0.00000   0.00000
      9087 HOAC     20       HOAC     LPO21    LPD     -0.285000        0.0000           -1   0.00000   0.00000
      9088 HOAC     20       HOAC     LPO22    LPD     -0.285000        0.0000           -1   0.00000   0.00000
      9089 HOAC     21       HOAC     C1       CD2O3A   3.554200       11.6110           0   -1.20700   0.708000
      9090 HOAC     21       HOAC     DC1      DRUD    -2.696200        0.4000           0   0.00000   0.00000
      9091 HOAC     21       HOAC     C2       CD33C    3.268200       11.6110           0   -2.11400   0.750000
      9092 HOAC     21       HOAC     DC2      DRUD    -3.568200        0.4000           0   0.00000   0.00000
      9093 HOAC     21       HOAC     H1       HDA3A    0.092000        1.0080           0   0.00000   0.00000
      9094 HOAC     21       HOAC     H2       HDA3A    0.092000        1.0080           0   0.00000   0.00000
      9095 HOAC     21       HOAC     H3       HDA3A    0.092000        1.0080           0   0.00000   0.00000
      9096 HOAC     21       HOAC     O1       OD2C3A   2.356500       15.5994           0   -0.922000   1.53900
      9097 HOAC     21       HOAC     DO1      DRUD    -2.356500        0.4000           0   0.00000   0.00000
      9098 HOAC     21       HOAC     O2       OD31F    2.776500       15.5990           0   -1.28000   1.12400
      9099 HOAC     21       HOAC     DO2      DRUD    -2.776500        0.4000           0   0.00000   0.00000
      9100 HOAC     21       HOAC     H        HDP1A    0.374000        1.0080           0   0.00000   0.00000
      9101 HOAC     21       HOAC     LPO11    LPD     -0.319000        0.0000           -1   0.00000   0.00000
      9102 HOAC     21       HOAC     LPO12    LPD     -0.319000        0.0000           -1   0.00000   0.00000
      9103 HOAC     21       HOAC     LPO21    LPD     -0.285000        0.0000           -1   0.00000   0.00000
      9104 HOAC     21       HOAC     LPO22    LPD     -0.285000        0.0000           -1   0.00000   0.00000
      9105 HOAC     22       HOAC     C1       CD2O3A   3.554200       11.6110           0   -1.20700   0.708000
      9106 HOAC     22       HOAC     DC1      DRUD    -2.696200        0.4000           0   0.00000   0.00000
      9107 HOAC     22       HOAC     C2       CD33C    3.268200       11.6110           0   -2.11400   0.750000
      9108 HOAC     22       HOAC     DC2      DRUD    -3.568200        0.4000           0   0.00000   0.00000
      9109 HOAC     22       HOAC     H1       HDA3A    0.092000        1.0080           0   0.00000   0.00000
      9110 HOAC     22       HOAC     H2       HDA3A    0.092000        1.0080           0   0.00000   0.00000
      9111 HOAC     22       HOAC     H3       HDA3A    0.092000        1.0080           0   0.00000   0.00000
      9112 HOAC     22       HOAC     O1       OD2C3A   2.356500       15.5994           0   -0.922000   1.53900
      9113 HOAC     22       HOAC     DO1      DRUD    -2.356500        0.4000           0   0.00000   0.00000
      9114 HOAC     22       HOAC     O2       OD31F    2.776500       15.5990           0   -1.28000   1.12400
      9115 HOAC     22       HOAC     DO2      DRUD    -2.776500        0.4000           0   0.00000   0.00000
      9116 HOAC     22       HOAC     H        HDP1A    0.374000        1.0080           0   0.00000   0.00000
      9117 HOAC     22       HOAC     LPO11    LPD     -0.319000        0.0000           -1   0.00000   0.00000
      9118 HOAC     22       HOAC     LPO12    LPD     -0.319000        0.0000           -1   0.00000   0.00000
      9119 HOAC     22       HOAC     LPO21    LPD     -0.285000        0.0000           -1   0.00000   0.00000
      9120 HOAC     22       HOAC     LPO22    LPD     -0.285000        0.0000           -1   0.00000   0.00000
      9121 HOAC     23       HOAC     C1       CD2O3A   3.554200       11.6110           0   -1.20700   0.708000
      9122 HOAC     23       HOAC     DC1      DRUD    -2.696200        0.4000           0   0.00000   0.00000
      9123 HOAC     23       HOAC     C2       CD33C    3.268200       11.6110           0   -2.11400   0.750000
      9124 HOAC     23       HOAC     DC2      DRUD    -3.568200        0.4000           0   0.00000   0.00000
      9125 HOAC     23       HOAC     H1       HDA3A    0.092000        1.0080           0   0.00000   0.00000
      9126 HOAC     23       HOAC     H2       HDA3A    0.092000        1.0080           0   0.00000   0.00000
      9127 HOAC     23       HOAC     H3       HDA3A    0.092000        1.0080           0   0.00000   0.00000
      9128 HOAC     23       HOAC     O1       OD2C3A   2.356500       15.5994           0   -0.922000   1.53900
      9129 HOAC     23       HOAC     DO1      DRUD    -2.356500        0.4000           0   0.00000   0.00000
      9130 HOAC     23       HOAC     O2       OD31F    2.776500       15.5990           0   -1.28000   1.12400
      9131 HOAC     23       HOAC     DO2      DRUD    -2.776500        0.4000           0   0.00000   0.00000
      9132 HOAC     23       HOAC     H        HDP1A    0.374000        1.0080           0   0.00000   0.00000
      9133 HOAC     23       HOAC     LPO11    LPD     -0.319000        0.0000           -1   0.00000   0.00000
      9134 HOAC     23       HOAC     LPO12    LPD     -0.319000        0.0000           -1   0.00000   0.00000
      9135 HOAC     23       HOAC     LPO21    LPD     -0.285000        0.0000           -1   0.00000   0.00000
      9136 HOAC     23       HOAC     LPO22    LPD     -0.285000        0.0000           -1   0.00000   0.00000
      9137 HOAC     24       HOAC     C1       CD2O3A   3.554200       11.6110           0   -1.20700   0.708000
      9138 HOAC     24       HOAC     DC1      DRUD    -2.696200        0.4000           0   0.00000   0.00000
      9139 HOAC     24       HOAC     C2       CD33C    3.268200       11.6110           0   -2.11400   0.750000
      9140 HOAC     24       HOAC     DC2      DRUD    -3.568200        0.4000           0   0.00000   0.00000
      9141 HOAC     24       HOAC     H1       HDA3A    0.092000        1.0080           0   0.00000   0.00000
      9142 HOAC     24       HOAC     H2       HDA3A    0.092000        1.0080           0   0.00000   0.00000
      9143 HOAC     24       HOAC     H3       HDA3A    0.092000        1.0080           0   0.00000   0.00000
      9144 HOAC     24       HOAC     O1       OD2C3A   2.356500       15.5994           0   -0.922000   1.53900
      9145 HOAC     24       HOAC     DO1      DRUD    -2.356500        0.4000           0   0.00000   0.00000
      9146 HOAC     24       HOAC     O2       OD31F    2.776500       15.5990           0   -1.28000   1.12400
      9147 HOAC     24       HOAC     DO2      DRUD    -2.776500        0.4000           0   0.00000   0.00000
      9148 HOAC     24       HOAC     H        HDP1A    0.374000        1.0080           0   0.00000   0.00000
      9149 HOAC     24       HOAC     LPO11    LPD     -0.319000        0.0000           -1   0.00000   0.00000
      9150 HOAC     24       HOAC     LPO12    LPD     -0.319000        0.0000           -1   0.00000   0.00000
      9151 HOAC     24       HOAC     LPO21    LPD     -0.285000        0.0000           -1   0.00000   0.00000
      9152 HOAC     24       HOAC     LPO22    LPD     -0.285000        0.0000           -1   0.00000   0.00000
      9153 HOAC     25       HOAC     C1       CD2O3A   3.554200       11.6110           0   -1.20700   0.708000
      9154 HOAC     25       HOAC     DC1      DRUD    -2.696200        0.4000           0   0.00000   0.00000
      9155 HOAC     25       HOAC     C2       CD33C    3.268200       11.6110           0   -2.11400   0.750000
      9156 HOAC     25       HOAC     DC2      DRUD    -3.568200        0.4000           0   0.00000   0.00000
      9157 HOAC     25       HOAC     H1       HDA3A    0.092000        1.0080           0   0.00000   0.00000
      9158 HOAC     25       HOAC     H2       HDA3A    0.092000        1.0080           0   0.00000   0.00000
      9159 HOAC     25       HOAC     H3       HDA3A    0.092000        1.0080           0   0.00000   0.00000
      9160 HOAC     25       HOAC     O1       OD2C3A   2.356500       15.5994           0   -0.922000   1.53900
      9161 HOAC     25       HOAC     DO1      DRUD    -2.356500        0.4000           0   0.00000   0.00000
      9162 HOAC     25       HOAC     O2       OD31F    2.776500       15.5990           0   -1.28000   1.12400
      9163 HOAC     25       HOAC     DO2      DRUD    -2.776500        0.4000           0   0.00000   0.00000
      9164 HOAC     25       HOAC     H        HDP1A    0.374000        1.0080           0   0.00000   0.00000
      9165 HOAC     25       HOAC     LPO11    LPD     -0.319000        0.0000           -1   0.00000   0.00000
      9166 HOAC     25       HOAC     LPO12    LPD     -0.319000        0.0000           -1   0.00000   0.00000
      9167 HOAC     25       HOAC     LPO21    LPD     -0.285000        0.0000           -1   0.00000   0.00000
      9168 HOAC     25       HOAC     LPO22    LPD     -0.285000        0.0000           -1   0.00000   0.00000
      9169 HOAC     26       HOAC     C1       CD2O3A   3.554200       11.6110           0   -1.20700   0.708000
      9170 HOAC     26       HOAC     DC1      DRUD    -2.696200        0.4000           0   0.00000   0.00000
      9171 HOAC     26       HOAC     C2       CD33C    3.268200       11.6110           0   -2.11400   0.750000
      9172 HOAC     26       HOAC     DC2      DRUD    -3.568200        0.4000           0   0.00000   0.00000
      9173 HOAC     26       HOAC     H1       HDA3A    0.092000        1.0080           0   0.00000   0.00000
      9174 HOAC     26       HOAC     H2       HDA3A    0.092000        1.0080           0   0.00000   0.00000
      9175 HOAC     26       HOAC     H3       HDA3A    0.092000        1.0080           0   0.00000   0.00000
      9176 HOAC     26       HOAC     O1       OD2C3A   2.356500       15.5994           0   -0.922000   1.53900
      9177 HOAC     26       HOAC     DO1      DRUD    -2.356500        0.4000           0   0.00000   0.00000
      9178 HOAC     26       HOAC     O2       OD31F    2.776500       15.5990           0   -1.28000   1.12400
      9179 HOAC     26       HOAC     DO2      DRUD    -2.776500        0.4000           0   0.00000   0.00000
      9180 HOAC     26       HOAC     H        HDP1A    0.374000        1.0080           0   0.00000   0.00000
      9181 HOAC     26       HOAC     LPO11    LPD     -0.319000        0.0000           -1   0.00000   0.00000
      9182 HOAC     26       HOAC     LPO12    LPD     -0.319000        0.0000           -1   0.00000   0.00000
      9183 HOAC     26       HOAC     LPO21    LPD     -0.285000        0.0000           -1   0.00000   0.00000
      9184 HOAC     26       HOAC     LPO22    LPD     -0.285000        0.0000           -1   0.00000   0.00000
      9185 HOAC     27       HOAC     C1       CD2O3A   3.554200       11.6110           0   -1.20700   0.708000
      9186 HOAC     27       HOAC     DC1      DRUD    -2.696200        0.4000           0   0.00000   0.00000
      9187 HOAC     27       HOAC     C2       CD33C    3.268200       11.6110           0   -2.11400   0.750000
      9188 HOAC     27       HOAC     DC2      DRUD    -3.568200        0.4000           0   0.00000   0.00000
      9189 HOAC     27       HOAC     H1       HDA3A    0.092000        1.0080           0   0.00000   0.00000
      9190 HOAC     27       HOAC     H2       HDA3A    0.092000        1.0080           0   0.00000   0.00000
      9191 HOAC     27       HOAC     H3       HDA3A    0.092000        1.0080           0   0.00000   0.00000
      9192 HOAC     27       HOAC     O1       OD2C3A   2.356500       15.5994           0   -0.922000   1.53900
      9193 HOAC     27       HOAC     DO1      DRUD    -2.356500        0.4000           0   0.00000   0.00000
      9194 HOAC     27       HOAC     O2       OD31F    2.776500       15.5990           0   -1.28000   1.12400
      9195 HOAC     27       HOAC     DO2      DRUD    -2.776500        0.4000           0   0.00000   0.00000
      9196 HOAC     27       HOAC     H        HDP1A    0.374000        1.0080           0   0.00000   0.00000
      9197 HOAC     27       HOAC     LPO11    LPD     -0.319000        0.0000           -1   0.00000   0.00000
      9198 HOAC     27       HOAC     LPO12    LPD     -0.319000        0.0000           -1   0.00000   0.00000
      9199 HOAC     27       HOAC     LPO21    LPD     -0.285000        0.0000           -1   0.00000   0.00000
      9200 HOAC     27       HOAC     LPO22    LPD     -0.285000        0.0000           -1   0.00000   0.00000
      9201 HOAC     28       HOAC     C1       CD2O3A   3.554200       11.6110           0   -1.20700   0.708000
      9202 HOAC     28       HOAC     DC1      DRUD    -2.696200        0.4000           0   0.00000   0.00000
      9203 HOAC     28       HOAC     C2       CD33C    3.268200       11.6110           0   -2.11400   0.750000
      9204 HOAC     28       HOAC     DC2      DRUD    -3.568200        0.4000           0   0.00000   0.00000
      9205 HOAC     28       HOAC     H1       HDA3A    0.092000        1.0080           0   0.00000   0.00000
      9206 HOAC     28       HOAC     H2       HDA3A    0.092000        1.0080           0   0.00000   0.00000
      9207 HOAC     28       HOAC     H3       HDA3A    0.092000        1.0080           0   0.00000   0.00000
      9208 HOAC     28       HOAC     O1       OD2C3A   2.356500       15.5994           0   -0.922000   1.53900
      9209 HOAC     28       HOAC     DO1      DRUD    -2.356500        0.4000           0   0.00000   0.00000
      9210 HOAC     28       HOAC     O2       OD31F    2.776500       15.5990           0   -1.28000   1.12400
      9211 HOAC     28       HOAC     DO2      DRUD    -2.776500        0.4000           0   0.00000   0.00000
      9212 HOAC     28       HOAC     H        HDP1A    0.374000        1.0080           0   0.00000   0.00000
      9213 HOAC     28       HOAC     LPO11    LPD     -0.319000        0.0000           -1   0.00000   0.00000
      9214 HOAC     28       HOAC     LPO12    LPD     -0.319000        0.0000           -1   0.00000   0.00000
      9215 HOAC     28       HOAC     LPO21    LPD     -0.285000        0.0000           -1   0.00000   0.00000
      9216 HOAC     28       HOAC     LPO22    LPD     -0.285000        0.0000           -1   0.00000   0.00000
      9217 HOAC     29       HOAC     C1       CD2O3A   3.554200       11.6110           0   -1.20700   0.708000
      9218 HOAC     29       HOAC     DC1      DRUD    -2.696200        0.4000           0   0.00000   0.00000
      9219 HOAC     29       HOAC     C2       CD33C    3.268200       11.6110           0   -2.11400   0.750000
      9220 HOAC     29       HOAC     DC2      DRUD    -3.568200        0.4000           0   0.00000   0.00000
      9221 HOAC     29       HOAC     H1       HDA3A    0.092000        1.0080           0   0.00000   0.00000
      9222 HOAC     29       HOAC     H2       HDA3A    0.092000        1.0080           0   0.00000   0.00000
      9223 HOAC     29       HOAC     H3       HDA3A    0.092000        1.0080           0   0.00000   0.00000
      9224 HOAC     29       HOAC     O1       OD2C3A   2.356500       15.5994           0   -0.922000   1.53900
      9225 HOAC     29       HOAC     DO1      DRUD    -2.356500        0.4000           0   0.00000   0.00000
      9226 HOAC     29       HOAC     O2       OD31F    2.776500       15.5990           0   -1.28000   1.12400
      9227 HOAC     29       HOAC     DO2      DRUD    -2.776500        0.4000           0   0.00000   0.00000
      9228 HOAC     29       HOAC     H        HDP1A    0.374000        1.0080           0   0.00000   0.00000
      9229 HOAC     29       HOAC     LPO11    LPD     -0.319000        0.0000           -1   0.00000   0.00000
      9230 HOAC     29       HOAC     LPO12    LPD     -0.319000        0.0000           -1   0.00000   0.00000
      9231 HOAC     29       HOAC     LPO21    LPD     -0.285000        0.0000           -1   0.00000   0.00000
      9232 HOAC     29       HOAC     LPO22    LPD     -0.285000        0.0000           -1   0.00000   0.00000
      9233 HOAC     30       HOAC     C1       CD2O3A   3.554200       11.6110           0   -1.20700   0.708000
      9234 HOAC     30       HOAC     DC1      DRUD    -2.696200        0.4000           0   0.00000   0.00000
      9235 HOAC     30       HOAC     C2       CD33C    3.268200       11.6110           0   -2.11400   0.750000
      9236 HOAC     30       HOAC     DC2      DRUD    -3.568200        0.4000           0   0.00000   0.00000
      9237 HOAC     30       HOAC     H1       HDA3A    0.092000        1.0080           0   0.00000   0.00000
      9238 HOAC     30       HOAC     H2       HDA3A    0.092000        1.0080           0   0.00000   0.00000
      9239 HOAC     30       HOAC     H3       HDA3A    0.092000        1.0080           0   0.00000   0.00000
      9240 HOAC     30       HOAC     O1       OD2C3A   2.356500       15.5994           0   -0.922000   1.53900
      9241 HOAC     30       HOAC     DO1      DRUD    -2.356500        0.4000           0   0.00000   0.00000
      9242 HOAC     30       HOAC     O2       OD31F    2.776500       15.5990           0   -1.28000   1.12400
      9243 HOAC     30       HOAC     DO2      DRUD    -2.776500        0.4000           0   0.00000   0.00000
      9244 HOAC     30       HOAC     H        HDP1A    0.374000        1.0080           0   0.00000   0.00000
      9245 HOAC     30       HOAC     LPO11    LPD     -0.319000        0.0000           -1   0.00000   0.00000
      9246 HOAC     30       HOAC     LPO12    LPD     -0.319000        0.0000           -1   0.00000   0.00000
      9247 HOAC     30       HOAC     LPO21    LPD     -0.285000        0.0000           -1   0.00000   0.00000
      9248 HOAC     30       HOAC     LPO22    LPD     -0.285000        0.0000           -1   0.00000   0.00000
      9249 HOAC     31       HOAC     C1       CD2O3A   3.554200       11.6110           0   -1.20700   0.708000
      9250 HOAC     31       HOAC     DC1      DRUD    -2.696200        0.4000           0   0.00000   0.00000
      9251 HOAC     31       HOAC     C2       CD33C    3.268200       11.6110           0   -2.11400   0.750000
      9252 HOAC     31       HOAC     DC2      DRUD    -3.568200        0.4000           0   0.00000   0.00000
      9253 HOAC     31       HOAC     H1       HDA3A    0.092000        1.0080           0   0.00000   0.00000
      9254 HOAC     31       HOAC     H2       HDA3A    0.092000        1.0080           0   0.00000   0.00000
      9255 HOAC     31       HOAC     H3       HDA3A    0.092000        1.0080           0   0.00000   0.00000
      9256 HOAC     31       HOAC     O1       OD2C3A   2.356500       15.5994           0   -0.922000   1.53900
      9257 HOAC     31       HOAC     DO1      DRUD    -2.356500        0.4000           0   0.00000   0.00000
      9258 HOAC     31       HOAC     O2       OD31F    2.776500       15.5990           0   -1.28000   1.12400
      9259 HOAC     31       HOAC     DO2      DRUD    -2.776500        0.4000           0   0.00000   0.00000
      9260 HOAC     31       HOAC     H        HDP1A    0.374000        1.0080           0   0.00000   0.00000
      9261 HOAC     31       HOAC     LPO11    LPD     -0.319000        0.0000           -1   0.00000   0.00000
      9262 HOAC     31       HOAC     LPO12    LPD     -0.319000        0.0000           -1   0.00000   0.00000
      9263 HOAC     31       HOAC     LPO21    LPD     -0.285000        0.0000           -1   0.00000   0.00000
      9264 HOAC     31       HOAC     LPO22    LPD     -0.285000        0.0000           -1   0.00000   0.00000
      9265 HOAC     32       HOAC     C1       CD2O3A   3.554200       11.6110           0   -1.20700   0.708000
      9266 HOAC     32       HOAC     DC1      DRUD    -2.696200        0.4000           0   0.00000   0.00000
      9267 HOAC     32       HOAC     C2       CD33C    3.268200       11.6110           0   -2.11400   0.750000
      9268 HOAC     32       HOAC     DC2      DRUD    -3.568200        0.4000           0   0.00000   0.00000
      9269 HOAC     32       HOAC     H1       HDA3A    0.092000        1.0080           0   0.00000   0.00000
      9270 HOAC     32       HOAC     H2       HDA3A    0.092000        1.0080           0   0.00000   0.00000
      9271 HOAC     32       HOAC     H3       HDA3A    0.092000        1.0080           0   0.00000   0.00000
      9272 HOAC     32       HOAC     O1       OD2C3A   2.356500       15.5994           0   -0.922000   1.53900
      9273 HOAC     32       HOAC     DO1      DRUD    -2.356500        0.4000           0   0.00000   0.00000
      9274 HOAC     32       HOAC     O2       OD31F    2.776500       15.5990           0   -1.28000   1.12400
      9275 HOAC     32       HOAC     DO2      DRUD    -2.776500        0.4000           0   0.00000   0.00000
      9276 HOAC     32       HOAC     H        HDP1A    0.374000        1.0080           0   0.00000   0.00000
      9277 HOAC     32       HOAC     LPO11    LPD     -0.319000        0.0000           -1   0.00000   0.00000
      9278 HOAC     32       HOAC     LPO12    LPD     -0.319000        0.0000           -1   0.00000   0.00000
      9279 HOAC     32       HOAC     LPO21    LPD     -0.285000        0.0000           -1   0.00000   0.00000
      9280 HOAC     32       HOAC     LPO22    LPD     -0.285000        0.0000           -1   0.00000   0.00000
      9281 HOAC     33       HOAC     C1       CD2O3A   3.554200       11.6110           0   -1.20700   0.708000
      9282 HOAC     33       HOAC     DC1      DRUD    -2.696200        0.4000           0   0.00000   0.00000
      9283 HOAC     33       HOAC     C2       CD33C    3.268200       11.6110           0   -2.11400   0.750000
      9284 HOAC     33       HOAC     DC2      DRUD    -3.568200        0.4000           0   0.00000   0.00000
      9285 HOAC     33       HOAC     H1       HDA3A    0.092000        1.0080           0   0.00000   0.00000
      9286 HOAC     33       HOAC     H2       HDA3A    0.092000        1.0080           0   0.00000   0.00000
      9287 HOAC     33       HOAC     H3       HDA3A    0.092000        1.0080           0   0.00000   0.00000
      9288 HOAC     33       HOAC     O1       OD2C3A   2.356500       15.5994           0   -0.922000   1.53900
      9289 HOAC     33       HOAC     DO1      DRUD    -2.356500        0.4000           0   0.00000   0.00000
      9290 HOAC     33       HOAC     O2       OD31F    2.776500       15.5990           0   -1.28000   1.12400
      9291 HOAC     33       HOAC     DO2      DRUD    -2.776500        0.4000           0   0.00000   0.00000
      9292 HOAC     33       HOAC     H        HDP1A    0.374000        1.0080           0   0.00000   0.00000
      9293 HOAC     33       HOAC     LPO11    LPD     -0.319000        0.0000           -1   0.00000   0.00000
      9294 HOAC     33       HOAC     LPO12    LPD     -0.319000        0.0000           -1   0.00000   0.00000
      9295 HOAC     33       HOAC     LPO21    LPD     -0.285000        0.0000           -1   0.00000   0.00000
      9296 HOAC     33       HOAC     LPO22    LPD     -0.285000        0.0000           -1   0.00000   0.00000
      9297 HOAC     34       HOAC     C1       CD2O3A   3.554200       11.6110           0   -1.20700   0.708000
      9298 HOAC     34       HOAC     DC1      DRUD    -2.696200        0.4000           0   0.00000   0.00000
      9299 HOAC     34       HOAC     C2       CD33C    3.268200       11.6110           0   -2.11400   0.750000
      9300 HOAC     34       HOAC     DC2      DRUD    -3.568200        0.4000           0   0.00000   0.00000
      9301 HOAC     34       HOAC     H1       HDA3A    0.092000        1.0080           0   0.00000   0.00000
      9302 HOAC     34       HOAC     H2       HDA3A    0.092000        1.0080           0   0.00000   0.00000
      9303 HOAC     34       HOAC     H3       HDA3A    0.092000        1.0080           0   0.00000   0.00000
      9304 HOAC     34       HOAC     O1       OD2C3A   2.356500       15.5994           0   -0.922000   1.53900
      9305 HOAC     34       HOAC     DO1      DRUD    -2.356500        0.4000           0   0.00000   0.00000
      9306 HOAC     34       HOAC     O2       OD31F    2.776500       15.5990           0   -1.28000   1.12400
      9307 HOAC     34       HOAC     DO2      DRUD    -2.776500        0.4000           0   0.00000   0.00000
      9308 HOAC     34       HOAC     H        HDP1A    0.374000        1.0080           0   0.00000   0.00000
      9309 HOAC     34       HOAC     LPO11    LPD     -0.319000        0.0000           -1   0.00000   0.00000
      9310 HOAC     34       HOAC     LPO12    LPD     -0.319000        0.0000           -1   0.00000   0.00000
      9311 HOAC     34       HOAC     LPO21    LPD     -0.285000        0.0000           -1   0.00000   0.00000
      9312 HOAC     34       HOAC     LPO22    LPD     -0.285000        0.0000           -1   0.00000   0.00000
      9313 HOAC     35       HOAC     C1       CD2O3A   3.554200       11.6110           0   -1.20700   0.708000
      9314 HOAC     35       HOAC     DC1      DRUD    -2.696200        0.4000           0   0.00000   0.00000
      9315 HOAC     35       HOAC     C2       CD33C    3.268200       11.6110           0   -2.11400   0.750000
      9316 HOAC     35       HOAC     DC2      DRUD    -3.568200        0.4000           0   0.00000   0.00000
      9317 HOAC     35       HOAC     H1       HDA3A    0.092000        1.0080           0   0.00000   0.00000
      9318 HOAC     35       HOAC     H2       HDA3A    0.092000        1.0080           0   0.00000   0.00000
      9319 HOAC     35       HOAC     H3       HDA3A    0.092000        1.0080           0   0.00000   0.00000
      9320 HOAC     35       HOAC     O1       OD2C3A   2.356500       15.5994           0   -0.922000   1.53900
      9321 HOAC     35       HOAC     DO1      DRUD    -2.356500        0.4000           0   0.00000   0.00000
      9322 HOAC     35       HOAC     O2       OD31F    2.776500       15.5990           0   -1.28000   1.12400
      9323 HOAC     35       HOAC     DO2      DRUD    -2.776500        0.4000           0   0.00000   0.00000
      9324 HOAC     35       HOAC     H        HDP1A    0.374000        1.0080           0   0.00000   0.00000
      9325 HOAC     35       HOAC     LPO11    LPD     -0.319000        0.0000           -1   0.00000   0.00000
      9326 HOAC     35       HOAC     LPO12    LPD     -0.319000        0.0000           -1   0.00000   0.00000
      9327 HOAC     35       HOAC     LPO21    LPD     -0.285000        0.0000           -1   0.00000   0.00000
      9328 HOAC     35       HOAC     LPO22    LPD     -0.285000        0.0000           -1   0.00000   0.00000
      9329 HOAC     36       HOAC     C1       CD2O3A   3.554200       11.6110           0   -1.20700   0.708000
      9330 HOAC     36       HOAC     DC1      DRUD    -2.696200        0.4000           0   0.00000   0.00000
      9331 HOAC     36       HOAC     C2       CD33C    3.268200       11.6110           0   -2.11400   0.750000
      9332 HOAC     36       HOAC     DC2      DRUD    -3.568200        0.4000           0   0.00000   0.00000
      9333 HOAC     36       HOAC     H1       HDA3A    0.092000        1.0080           0   0.00000   0.00000
      9334 HOAC     36       HOAC     H2       HDA3A    0.092000        1.0080           0   0.00000   0.00000
      9335 HOAC     36       HOAC     H3       HDA3A    0.092000        1.0080           0   0.00000   0.00000
      9336 HOAC     36       HOAC     O1       OD2C3A   2.356500       15.5994           0   -0.922000   1.53900
      9337 HOAC     36       HOAC     DO1      DRUD    -2.356500        0.4000           0   0.00000   0.00000
      9338 HOAC     36       HOAC     O2       OD31F    2.776500       15.5990           0   -1.28000   1.12400
      9339 HOAC     36       HOAC     DO2      DRUD    -2.776500        0.4000           0   0.00000   0.00000
      9340 HOAC     36       HOAC     H        HDP1A    0.374000        1.0080           0   0.00000   0.00000
      9341 HOAC     36       HOAC     LPO11    LPD     -0.319000        0.0000           -1   0.00000   0.00000
      9342 HOAC     36       HOAC     LPO12    LPD     -0.319000        0.0000           -1   0.00000   0.00000
      9343 HOAC     36       HOAC     LPO21    LPD     -0.285000        0.0000           -1   0.00000   0.00000
      9344 HOAC     36       HOAC     LPO22    LPD     -0.285000        0.0000           -1   0.00000   0.00000
      9345 HOAC     37       HOAC     C1       CD2O3A   3.554200       11.6110           0   -1.20700   0.708000
      9346 HOAC     37       HOAC     DC1      DRUD    -2.696200        0.4000           0   0.00000   0.00000
      9347 HOAC     37       HOAC     C2       CD33C    3.268200       11.6110           0   -2.11400   0.750000
      9348 HOAC     37       HOAC     DC2      DRUD    -3.568200        0.4000           0   0.00000   0.00000
      9349 HOAC     37       HOAC     H1       HDA3A    0.092000        1.0080           0   0.00000   0.00000
      9350 HOAC     37       HOAC     H2       HDA3A    0.092000        1.0080           0   0.00000   0.00000
      9351 HOAC     37       HOAC     H3       HDA3A    0.092000        1.0080           0   0.00000   0.00000
      9352 HOAC     37       HOAC     O1       OD2C3A   2.356500       15.5994           0   -0.922000   1.53900
      9353 HOAC     37       HOAC     DO1      DRUD    -2.356500        0.4000           0   0.00000   0.00000
      9354 HOAC     37       HOAC     O2       OD31F    2.776500       15.5990           0   -1.28000   1.12400
      9355 HOAC     37       HOAC     DO2      DRUD    -2.776500        0.4000           0   0.00000   0.00000
      9356 HOAC     37       HOAC     H        HDP1A    0.374000        1.0080           0   0.00000   0.00000
      9357 HOAC     37       HOAC     LPO11    LPD     -0.319000        0.0000           -1   0.00000   0.00000
      9358 HOAC     37       HOAC     LPO12    LPD     -0.319000        0.0000           -1   0.00000   0.00000
      9359 HOAC     37       HOAC     LPO21    LPD     -0.285000        0.0000           -1   0.00000   0.00000
      9360 HOAC     37       HOAC     LPO22    LPD     -0.285000        0.0000           -1   0.00000   0.00000
      9361 HOAC     38       HOAC     C1       CD2O3A   3.554200       11.6110           0   -1.20700   0.708000
      9362 HOAC     38       HOAC     DC1      DRUD    -2.696200        0.4000           0   0.00000   0.00000
      9363 HOAC     38       HOAC     C2       CD33C    3.268200       11.6110           0   -2.11400   0.750000
      9364 HOAC     38       HOAC     DC2      DRUD    -3.568200        0.4000           0   0.00000   0.00000
      9365 HOAC     38       HOAC     H1       HDA3A    0.092000        1.0080           0   0.00000   0.00000
      9366 HOAC     38       HOAC     H2       HDA3A    0.092000        1.0080           0   0.00000   0.00000
      9367 HOAC     38       HOAC     H3       HDA3A    0.092000        1.0080           0   0.00000   0.00000
      9368 HOAC     38       HOAC     O1       OD2C3A   2.356500       15.5994           0   -0.922000   1.53900
      9369 HOAC     38       HOAC     DO1      DRUD    -2.356500        0.4000           0   0.00000   0.00000
      9370 HOAC     38       HOAC     O2       OD31F    2.776500       15.5990           0   -1.28000   1.12400
      9371 HOAC     38       HOAC     DO2      DRUD    -2.776500        0.4000           0   0.00000   0.00000
      9372 HOAC     38       HOAC     H        HDP1A    0.374000        1.0080           0   0.00000   0.00000
      9373 HOAC     38       HOAC     LPO11    LPD     -0.319000        0.0000           -1   0.00000   0.00000
      9374 HOAC     38       HOAC     LPO12    LPD     -0.319000        0.0000           -1   0.00000   0.00000
      9375 HOAC     38       HOAC     LPO21    LPD     -0.285000        0.0000           -1   0.00000   0.00000
      9376 HOAC     38       HOAC     LPO22    LPD     -0.285000        0.0000           -1   0.00000   0.00000
      9377 HOAC     39       HOAC     C1       CD2O3A   3.554200       11.6110           0   -1.20700   0.708000
      9378 HOAC     39       HOAC     DC1      DRUD    -2.696200        0.4000           0   0.00000   0.00000
      9379 HOAC     39       HOAC     C2       CD33C    3.268200       11.6110           0   -2.11400   0.750000
      9380 HOAC     39       HOAC     DC2      DRUD    -3.568200        0.4000           0   0.00000   0.00000
      9381 HOAC     39       HOAC     H1       HDA3A    0.092000        1.0080           0   0.00000   0.00000
      9382 HOAC     39       HOAC     H2       HDA3A    0.092000        1.0080           0   0.00000   0.00000
      9383 HOAC     39       HOAC     H3       HDA3A    0.092000        1.0080           0   0.00000   0.00000
      9384 HOAC     39       HOAC     O1       OD2C3A   2.356500       15.5994           0   -0.922000   1.53900
      9385 HOAC     39       HOAC     DO1      DRUD    -2.356500        0.4000           0   0.00000   0.00000
      9386 HOAC     39       HOAC     O2       OD31F    2.776500       15.5990           0   -1.28000   1.12400
      9387 HOAC     39       HOAC     DO2      DRUD    -2.776500        0.4000           0   0.00000   0.00000
      9388 HOAC     39       HOAC     H        HDP1A    0.374000        1.0080           0   0.00000   0.00000
      9389 HOAC     39       HOAC     LPO11    LPD     -0.319000        0.0000           -1   0.00000   0.00000
      9390 HOAC     39       HOAC     LPO12    LPD     -0.319000        0.0000           -1   0.00000   0.00000
      9391 HOAC     39       HOAC     LPO21    LPD     -0.285000        0.0000           -1   0.00000   0.00000
      9392 HOAC     39       HOAC     LPO22    LPD     -0.285000        0.0000           -1   0.00000   0.00000
      9393 HOAC     40       HOAC     C1       CD2O3A   3.554200       11.6110           0   -1.20700   0.708000
      9394 HOAC     40       HOAC     DC1      DRUD    -2.696200        0.4000           0   0.00000   0.00000
      9395 HOAC     40       HOAC     C2       CD33C    3.268200       11.6110           0   -2.11400   0.750000
      9396 HOAC     40       HOAC     DC2      DRUD    -3.568200        0.4000           0   0.00000   0.00000
      9397 HOAC     40       HOAC     H1       HDA3A    0.092000        1.0080           0   0.00000   0.00000
      9398 HOAC     40       HOAC     H2       HDA3A    0.092000        1.0080           0   0.00000   0.00000
      9399 HOAC     40       HOAC     H3       HDA3A    0.092000        1.0080           0   0.00000   0.00000
      9400 HOAC     40       HOAC     O1       OD2C3A   2.356500       15.5994           0   -0.922000   1.53900
      9401 HOAC     40       HOAC     DO1      DRUD    -2.356500        0.4000           0   0.00000   0.00000
      9402 HOAC     40       HOAC     O2       OD31F    2.776500       15.5990           0   -1.28000   1.12400
      9403 HOAC     40       HOAC     DO2      DRUD    -2.776500        0.4000           0   0.00000   0.00000
      9404 HOAC     40       HOAC     H        HDP1A    0.374000        1.0080           0   0.00000   0.00000
      9405 HOAC     40       HOAC     LPO11    LPD     -0.319000        0.0000           -1   0.00000   0.00000
      9406 HOAC     40       HOAC     LPO12    LPD     -0.319000        0.0000           -1   0.00000   0.00000
      9407 HOAC     40       HOAC     LPO21    LPD     -0.285000        0.0000           -1   0.00000   0.00000
      9408 HOAC     40       HOAC     LPO22    LPD     -0.285000        0.0000           -1   0.00000   0.00000
      9409 HOAC     41       HOAC     C1       CD2O3A   3.554200       11.6110           0   -1.20700   0.708000
      9410 HOAC     41       HOAC     DC1      DRUD    -2.696200        0.4000           0   0.00000   0.00000
      9411 HOAC     41       HOAC     C2       CD33C    3.268200       11.6110           0   -2.11400   0.750000
      9412 HOAC     41       HOAC     DC2      DRUD    -3.568200        0.4000           0   0.00000   0.00000
      9413 HOAC     41       HOAC     H1       HDA3A    0.092000        1.0080           0   0.00000   0.00000
      9414 HOAC     41       HOAC     H2       HDA3A    0.092000        1.0080           0   0.00000   0.00000
      9415 HOAC     41       HOAC     H3       HDA3A    0.092000        1.0080           0   0.00000   0.00000
      9416 HOAC     41       HOAC     O1       OD2C3A   2.356500       15.5994           0   -0.922000   1.53900
      9417 HOAC     41       HOAC     DO1      DRUD    -2.356500        0.4000           0   0.00000   0.00000
      9418 HOAC     41       HOAC     O2       OD31F    2.776500       15.5990           0   -1.28000   1.12400
      9419 HOAC     41       HOAC     DO2      DRUD    -2.776500        0.4000           0   0.00000   0.00000
      9420 HOAC     41       HOAC     H        HDP1A    0.374000        1.0080           0   0.00000   0.00000
      9421 HOAC     41       HOAC     LPO11    LPD     -0.319000        0.0000           -1   0.00000   0.00000
      9422 HOAC     41       HOAC     LPO12    LPD     -0.319000        0.0000           -1   0.00000   0.00000
      9423 HOAC     41       HOAC     LPO21    LPD     -0.285000        0.0000           -1   0.00000   0.00000
      9424 HOAC     41       HOAC     LPO22    LPD     -0.285000        0.0000           -1   0.00000   0.00000
      9425 HOAC     42       HOAC     C1       CD2O3A   3.554200       11.6110           0   -1.20700   0.708000
      9426 HOAC     42       HOAC     DC1      DRUD    -2.696200        0.4000           0   0.00000   0.00000
      9427 HOAC     42       HOAC     C2       CD33C    3.268200       11.6110           0   -2.11400   0.750000
      9428 HOAC     42       HOAC     DC2      DRUD    -3.568200        0.4000           0   0.00000   0.00000
      9429 HOAC     42       HOAC     H1       HDA3A    0.092000        1.0080           0   0.00000   0.00000
      9430 HOAC     42       HOAC     H2       HDA3A    0.092000        1.0080           0   0.00000   0.00000
      9431 HOAC     42       HOAC     H3       HDA3A    0.092000        1.0080           0   0.00000   0.00000
      9432 HOAC     42       HOAC     O1       OD2C3A   2.356500       15.5994           0   -0.922000   1.53900
      9433 HOAC     42       HOAC     DO1      DRUD    -2.356500        0.4000           0   0.00000   0.00000
      9434 HOAC     42       HOAC     O2       OD31F    2.776500       15.5990           0   -1.28000   1.12400
      9435 HOAC     42       HOAC     DO2      DRUD    -2.776500        0.4000           0   0.00000   0.00000
      9436 HOAC     42       HOAC     H        HDP1A    0.374000        1.0080           0   0.00000   0.00000
      9437 HOAC     42       HOAC     LPO11    LPD     -0.319000        0.0000           -1   0.00000   0.00000
      9438 HOAC     42       HOAC     LPO12    LPD     -0.319000        0.0000           -1   0.00000   0.00000
      9439 HOAC     42       HOAC     LPO21    LPD     -0.285000        0.0000           -1   0.00000   0.00000
      9440 HOAC     42       HOAC     LPO22    LPD     -0.285000        0.0000           -1   0.00000   0.00000
      9441 HOAC     43       HOAC     C1       CD2O3A   3.554200       11.6110           0   -1.20700   0.708000
      9442 HOAC     43       HOAC     DC1      DRUD    -2.696200        0.4000           0   0.00000   0.00000
      9443 HOAC     43       HOAC     C2       CD33C    3.268200       11.6110           0   -2.11400   0.750000
      9444 HOAC     43       HOAC     DC2      DRUD    -3.568200        0.4000           0   0.00000   0.00000
      9445 HOAC     43       HOAC     H1       HDA3A    0.092000        1.0080           0   0.00000   0.00000
      9446 HOAC     43       HOAC     H2       HDA3A    0.092000        1.0080           0   0.00000   0.00000
      9447 HOAC     43       HOAC     H3       HDA3A    0.092000        1.0080           0   0.00000   0.00000
      9448 HOAC     43       HOAC     O1       OD2C3A   2.356500       15.5994           0   -0.922000   1.53900
      9449 HOAC     43       HOAC     DO1      DRUD    -2.356500        0.4000           0   0.00000   0.00000
      9450 HOAC     43       HOAC     O2       OD31F    2.776500       15.5990           0   -1.28000   1.12400
      9451 HOAC     43       HOAC     DO2      DRUD    -2.776500        0.4000           0   0.00000   0.00000
      9452 HOAC     43       HOAC     H        HDP1A    0.374000        1.0080           0   0.00000   0.00000
      9453 HOAC     43       HOAC     LPO11    LPD     -0.319000        0.0000           -1   0.00000   0.00000
      9454 HOAC     43       HOAC     LPO12    LPD     -0.319000        0.0000           -1   0.00000   0.00000
      9455 HOAC     43       HOAC     LPO21    LPD     -0.285000        0.0000           -1   0.00000   0.00000
      9456 HOAC     43       HOAC     LPO22    LPD     -0.285000        0.0000           -1   0.00000   0.00000
      9457 HOAC     44       HOAC     C1       CD2O3A   3.554200       11.6110           0   -1.20700   0.708000
      9458 HOAC     44       HOAC     DC1      DRUD    -2.696200        0.4000           0   0.00000   0.00000
      9459 HOAC     44       HOAC     C2       CD33C    3.268200       11.6110           0   -2.11400   0.750000
      9460 HOAC     44       HOAC     DC2      DRUD    -3.568200        0.4000           0   0.00000   0.00000
      9461 HOAC     44       HOAC     H1       HDA3A    0.092000        1.0080           0   0.00000   0.00000
      9462 HOAC     44       HOAC     H2       HDA3A    0.092000        1.0080           0   0.00000   0.00000
      9463 HOAC     44       HOAC     H3       HDA3A    0.092000        1.0080           0   0.00000   0.00000
      9464 HOAC     44       HOAC     O1       OD2C3A   2.356500       15.5994           0   -0.922000   1.53900
      9465 HOAC     44       HOAC     DO1      DRUD    -2.356500        0.4000           0   0.00000   0.00000
      9466 HOAC     44       HOAC     O2       OD31F    2.776500       15.5990           0   -1.28000   1.12400
      9467 HOAC     44       HOAC     DO2      DRUD    -2.776500        0.4000           0   0.00000   0.00000
      9468 HOAC     44       HOAC     H        HDP1A    0.374000        1.0080           0   0.00000   0.00000
      9469 HOAC     44       HOAC     LPO11    LPD     -0.319000        0.0000           -1   0.00000   0.00000
      9470 HOAC     44       HOAC     LPO12    LPD     -0.319000        0.0000           -1   0.00000   0.00000
      9471 HOAC     44       HOAC     LPO21    LPD     -0.285000        0.0000           -1   0.00000   0.00000
      9472 HOAC     44       HOAC     LPO22    LPD     -0.285000        0.0000           -1   0.00000   0.00000
      9473 HOAC     45       HOAC     C1       CD2O3A   3.554200       11.6110           0   -1.20700   0.708000
      9474 HOAC     45       HOAC     DC1      DRUD    -2.696200        0.4000           0   0.00000   0.00000
      9475 HOAC     45       HOAC     C2       CD33C    3.268200       11.6110           0   -2.11400   0.750000
      9476 HOAC     45       HOAC     DC2      DRUD    -3.568200        0.4000           0   0.00000   0.00000
      9477 HOAC     45       HOAC     H1       HDA3A    0.092000        1.0080           0   0.00000   0.00000
      9478 HOAC     45       HOAC     H2       HDA3A    0.092000        1.0080           0   0.00000   0.00000
      9479 HOAC     45       HOAC     H3       HDA3A    0.092000        1.0080           0   0.00000   0.00000
      9480 HOAC     45       HOAC     O1       OD2C3A   2.356500       15.5994           0   -0.922000   1.53900
      9481 HOAC     45       HOAC     DO1      DRUD    -2.356500        0.4000           0   0.00000   0.00000
      9482 HOAC     45       HOAC     O2       OD31F    2.776500       15.5990           0   -1.28000   1.12400
      9483 HOAC     45       HOAC     DO2      DRUD    -2.776500        0.4000           0   0.00000   0.00000
      9484 HOAC     45       HOAC     H        HDP1A    0.374000        1.0080           0   0.00000   0.00000
      9485 HOAC     45       HOAC     LPO11    LPD     -0.319000        0.0000           -1   0.00000   0.00000
      9486 HOAC     45       HOAC     LPO12    LPD     -0.319000        0.0000           -1   0.00000   0.00000
      9487 HOAC     45       HOAC     LPO21    LPD     -0.285000        0.0000           -1   0.00000   0.00000
      9488 HOAC     45       HOAC     LPO22    LPD     -0.285000        0.0000           -1   0.00000   0.00000
      9489 HOAC     46       HOAC     C1       CD2O3A   3.554200       11.6110           0   -1.20700   0.708000
      9490 HOAC     46       HOAC     DC1      DRUD    -2.696200        0.4000           0   0.00000   0.00000
      9491 HOAC     46       HOAC     C2       CD33C    3.268200       11.6110           0   -2.11400   0.750000
      9492 HOAC     46       HOAC     DC2      DRUD    -3.568200        0.4000           0   0.00000   0.00000
      9493 HOAC     46       HOAC     H1       HDA3A    0.092000        1.0080           0   0.00000   0.00000
      9494 HOAC     46       HOAC     H2       HDA3A    0.092000        1.0080           0   0.00000   0.00000
      9495 HOAC     46       HOAC     H3       HDA3A    0.092000        1.0080           0   0.00000   0.00000
      9496 HOAC     46       HOAC     O1       OD2C3A   2.356500       15.5994           0   -0.922000   1.53900
      9497 HOAC     46       HOAC     DO1      DRUD    -2.356500        0.4000           0   0.00000   0.00000
      9498 HOAC     46       HOAC     O2       OD31F    2.776500       15.5990           0   -1.28000   1.12400
      9499 HOAC     46       HOAC     DO2      DRUD    -2.776500        0.4000           0   0.00000   0.00000
      9500 HOAC     46       HOAC     H        HDP1A    0.374000        1.0080           0   0.00000   0.00000
      9501 HOAC     46       HOAC     LPO11    LPD     -0.319000        0.0000           -1   0.00000   0.00000
      9502 HOAC     46       HOAC     LPO12    LPD     -0.319000        0.0000           -1   0.00000   0.00000
      9503 HOAC     46       HOAC     LPO21    LPD     -0.285000        0.0000           -1   0.00000   0.00000
      9504 HOAC     46       HOAC     LPO22    LPD     -0.285000        0.0000           -1   0.00000   0.00000
      9505 HOAC     47       HOAC     C1       CD2O3A   3.554200       11.6110           0   -1.20700   0.708000
      9506 HOAC     47       HOAC     DC1      DRUD    -2.696200        0.4000           0   0.00000   0.00000
      9507 HOAC     47       HOAC     C2       CD33C    3.268200       11.6110           0   -2.11400   0.750000
      9508 HOAC     47       HOAC     DC2      DRUD    -3.568200        0.4000           0   0.00000   0.00000
      9509 HOAC     47       HOAC     H1       HDA3A    0.092000        1.0080           0   0.00000   0.00000
      9510 HOAC     47       HOAC     H2       HDA3A    0.092000        1.0080           0   0.00000   0.00000
      9511 HOAC     47       HOAC     H3       HDA3A    0.092000        1.0080           0   0.00000   0.00000
      9512 HOAC     47       HOAC     O1       OD2C3A   2.356500       15.5994           0   -0.922000   1.53900
      9513 HOAC     47       HOAC     DO1      DRUD    -2.356500        0.4000           0   0.00000   0.00000
      9514 HOAC     47       HOAC     O2       OD31F    2.776500       15.5990           0   -1.28000   1.12400
      9515 HOAC     47       HOAC     DO2      DRUD    -2.776500        0.4000           0   0.00000   0.00000
      9516 HOAC     47       HOAC     H        HDP1A    0.374000        1.0080           0   0.00000   0.00000
      9517 HOAC     47       HOAC     LPO11    LPD     -0.319000        0.0000           -1   0.00000   0.00000
      9518 HOAC     47       HOAC     LPO12    LPD     -0.319000        0.0000           -1   0.00000   0.00000
      9519 HOAC     47       HOAC     LPO21    LPD     -0.285000        0.0000           -1   0.00000   0.00000
      9520 HOAC     47       HOAC     LPO22    LPD     -0.285000        0.0000           -1   0.00000   0.00000
      9521 HOAC     48       HOAC     C1       CD2O3A   3.554200       11.6110           0   -1.20700   0.708000
      9522 HOAC     48       HOAC     DC1      DRUD    -2.696200        0.4000           0   0.00000   0.00000
      9523 HOAC     48       HOAC     C2       CD33C    3.268200       11.6110           0   -2.11400   0.750000
      9524 HOAC     48       HOAC     DC2      DRUD    -3.568200        0.4000           0   0.00000   0.00000
      9525 HOAC     48       HOAC     H1       HDA3A    0.092000        1.0080           0   0.00000   0.00000
      9526 HOAC     48       HOAC     H2       HDA3A    0.092000        1.0080           0   0.00000   0.00000
      9527 HOAC     48       HOAC     H3       HDA3A    0.092000        1.0080           0   0.00000   0.00000
      9528 HOAC     48       HOAC     O1       OD2C3A   2.356500       15.5994           0   -0.922000   1.53900
      9529 HOAC     48       HOAC     DO1      DRUD    -2.356500        0.4000           0   0.00000   0.00000
      9530 HOAC     48       HOAC     O2       OD31F    2.776500       15.5990           0   -1.28000   1.12400
      9531 HOAC     48       HOAC     DO2      DRUD    -2.776500        0.4000           0   0.00000   0.00000
      9532 HOAC     48       HOAC     H        HDP1A    0.374000        1.0080           0   0.00000   0.00000
      9533 HOAC     48       HOAC     LPO11    LPD     -0.319000        0.0000           -1   0.00000   0.00000
      9534 HOAC     48       HOAC     LPO12    LPD     -0.319000        0.0000           -1   0.00000   0.00000
      9535 HOAC     48       HOAC     LPO21    LPD     -0.285000        0.0000           -1   0.00000   0.00000
      9536 HOAC     48       HOAC     LPO22    LPD     -0.285000        0.0000           -1   0.00000   0.00000
      9537 HOAC     49       HOAC     C1       CD2O3A   3.554200       11.6110           0   -1.20700   0.708000
      9538 HOAC     49       HOAC     DC1      DRUD    -2.696200        0.4000           0   0.00000   0.00000
      9539 HOAC     49       HOAC     C2       CD33C    3.268200       11.6110           0   -2.11400   0.750000
      9540 HOAC     49       HOAC     DC2      DRUD    -3.568200        0.4000           0   0.00000   0.00000
      9541 HOAC     49       HOAC     H1       HDA3A    0.092000        1.0080           0   0.00000   0.00000
      9542 HOAC     49       HOAC     H2       HDA3A    0.092000        1.0080           0   0.00000   0.00000
      9543 HOAC     49       HOAC     H3       HDA3A    0.092000        1.0080           0   0.00000   0.00000
      9544 HOAC     49       HOAC     O1       OD2C3A   2.356500       15.5994           0   -0.922000   1.53900
      9545 HOAC     49       HOAC     DO1      DRUD    -2.356500        0.4000           0   0.00000   0.00000
      9546 HOAC     49       HOAC     O2       OD31F    2.776500       15.5990           0   -1.28000   1.12400
      9547 HOAC     49       HOAC     DO2      DRUD    -2.776500        0.4000           0   0.00000   0.00000
      9548 HOAC     49       HOAC     H        HDP1A    0.374000        1.0080           0   0.00000   0.00000
      9549 HOAC     49       HOAC     LPO11    LPD     -0.319000        0.0000           -1   0.00000   0.00000
      9550 HOAC     49       HOAC     LPO12    LPD     -0.319000        0.0000           -1   0.00000   0.00000
      9551 HOAC     49       HOAC     LPO21    LPD     -0.285000        0.0000           -1   0.00000   0.00000
      9552 HOAC     49       HOAC     LPO22    LPD     -0.285000        0.0000           -1   0.00000   0.00000
      9553 HOAC     50       HOAC     C1       CD2O3A   3.554200       11.6110           0   -1.20700   0.708000
      9554 HOAC     50       HOAC     DC1      DRUD    -2.696200        0.4000           0   0.00000   0.00000
      9555 HOAC     50       HOAC     C2       CD33C    3.268200       11.6110           0   -2.11400   0.750000
      9556 HOAC     50       HOAC     DC2      DRUD    -3.568200        0.4000           0   0.00000   0.00000
      9557 HOAC     50       HOAC     H1       HDA3A    0.092000        1.0080           0   0.00000   0.00000
      9558 HOAC     50       HOAC     H2       HDA3A    0.092000        1.0080           0   0.00000   0.00000
      9559 HOAC     50       HOAC     H3       HDA3A    0.092000        1.0080           0   0.00000   0.00000
      9560 HOAC     50       HOAC     O1       OD2C3A   2.356500       15.5994           0   -0.922000   1.53900
      9561 HOAC     50       HOAC     DO1      DRUD    -2.356500        0.4000           0   0.00000   0.00000
      9562 HOAC     50       HOAC     O2       OD31F    2.776500       15.5990           0   -1.28000   1.12400
      9563 HOAC     50       HOAC     DO2      DRUD    -2.776500        0.4000           0   0.00000   0.00000
      9564 HOAC     50       HOAC     H        HDP1A    0.374000        1.0080           0   0.00000   0.00000
      9565 HOAC     50       HOAC     LPO11    LPD     -0.319000        0.0000           -1   0.00000   0.00000
      9566 HOAC     50       HOAC     LPO12    LPD     -0.319000        0.0000           -1   0.00000   0.00000
      9567 HOAC     50       HOAC     LPO21    LPD     -0.285000        0.0000           -1   0.00000   0.00000
      9568 HOAC     50       HOAC     LPO22    LPD     -0.285000        0.0000           -1   0.00000   0.00000
      9569 HOAC     51       HOAC     C1       CD2O3A   3.554200       11.6110           0   -1.20700   0.708000
      9570 HOAC     51       HOAC     DC1      DRUD    -2.696200        0.4000           0   0.00000   0.00000
      9571 HOAC     51       HOAC     C2       CD33C    3.268200       11.6110           0   -2.11400   0.750000
      9572 HOAC     51       HOAC     DC2      DRUD    -3.568200        0.4000           0   0.00000   0.00000
      9573 HOAC     51       HOAC     H1       HDA3A    0.092000        1.0080           0   0.00000   0.00000
      9574 HOAC     51       HOAC     H2       HDA3A    0.092000        1.0080           0   0.00000   0.00000
      9575 HOAC     51       HOAC     H3       HDA3A    0.092000        1.0080           0   0.00000   0.00000
      9576 HOAC     51       HOAC     O1       OD2C3A   2.356500       15.5994           0   -0.922000   1.53900
      9577 HOAC     51       HOAC     DO1      DRUD    -2.356500        0.4000           0   0.00000   0.00000
      9578 HOAC     51       HOAC     O2       OD31F    2.776500       15.5990           0   -1.28000   1.12400
      9579 HOAC     51       HOAC     DO2      DRUD    -2.776500        0.4000           0   0.00000   0.00000
      9580 HOAC     51       HOAC     H        HDP1A    0.374000        1.0080           0   0.00000   0.00000
      9581 HOAC     51       HOAC     LPO11    LPD     -0.319000        0.0000           -1   0.00000   0.00000
      9582 HOAC     51       HOAC     LPO12    LPD     -0.319000        0.0000           -1   0.00000   0.00000
      9583 HOAC     51       HOAC     LPO21    LPD     -0.285000        0.0000           -1   0.00000   0.00000
      9584 HOAC     51       HOAC     LPO22    LPD     -0.285000        0.0000           -1   0.00000   0.00000
      9585 HOAC     52       HOAC     C1       CD2O3A   3.554200       11.6110           0   -1.20700   0.708000
      9586 HOAC     52       HOAC     DC1      DRUD    -2.696200        0.4000           0   0.00000   0.00000
      9587 HOAC     52       HOAC     C2       CD33C    3.268200       11.6110           0   -2.11400   0.750000
      9588 HOAC     52       HOAC     DC2      DRUD    -3.568200        0.4000           0   0.00000   0.00000
      9589 HOAC     52       HOAC     H1       HDA3A    0.092000        1.0080           0   0.00000   0.00000
      9590 HOAC     52       HOAC     H2       HDA3A    0.092000        1.0080           0   0.00000   0.00000
      9591 HOAC     52       HOAC     H3       HDA3A    0.092000        1.0080           0   0.00000   0.00000
      9592 HOAC     52       HOAC     O1       OD2C3A   2.356500       15.5994           0   -0.922000   1.53900
      9593 HOAC     52       HOAC     DO1      DRUD    -2.356500        0.4000           0   0.00000   0.00000
      9594 HOAC     52       HOAC     O2       OD31F    2.776500       15.5990           0   -1.28000   1.12400
      9595 HOAC     52       HOAC     DO2      DRUD    -2.776500        0.4000           0   0.00000   0.00000
      9596 HOAC     52       HOAC     H        HDP1A    0.374000        1.0080           0   0.00000   0.00000
      9597 HOAC     52       HOAC     LPO11    LPD     -0.319000        0.0000           -1   0.00000   0.00000
      9598 HOAC     52       HOAC     LPO12    LPD     -0.319000        0.0000           -1   0.00000   0.00000
      9599 HOAC     52       HOAC     LPO21    LPD     -0.285000        0.0000           -1   0.00000   0.00000
      9600 HOAC     52       HOAC     LPO22    LPD     -0.285000        0.0000           -1   0.00000   0.00000
      9601 HOAC     53       HOAC     C1       CD2O3A   3.554200       11.6110           0   -1.20700   0.708000
      9602 HOAC     53       HOAC     DC1      DRUD    -2.696200        0.4000           0   0.00000   0.00000
      9603 HOAC     53       HOAC     C2       CD33C    3.268200       11.6110           0   -2.11400   0.750000
      9604 HOAC     53       HOAC     DC2      DRUD    -3.568200        0.4000           0   0.00000   0.00000
      9605 HOAC     53       HOAC     H1       HDA3A    0.092000        1.0080           0   0.00000   0.00000
      9606 HOAC     53       HOAC     H2       HDA3A    0.092000        1.0080           0   0.00000   0.00000
      9607 HOAC     53       HOAC     H3       HDA3A    0.092000        1.0080           0   0.00000   0.00000
      9608 HOAC     53       HOAC     O1       OD2C3A   2.356500       15.5994           0   -0.922000   1.53900
      9609 HOAC     53       HOAC     DO1      DRUD    -2.356500        0.4000           0   0.00000   0.00000
      9610 HOAC     53       HOAC     O2       OD31F    2.776500       15.5990           0   -1.28000   1.12400
      9611 HOAC     53       HOAC     DO2      DRUD    -2.776500        0.4000           0   0.00000   0.00000
      9612 HOAC     53       HOAC     H        HDP1A    0.374000        1.0080           0   0.00000   0.00000
      9613 HOAC     53       HOAC     LPO11    LPD     -0.319000        0.0000           -1   0.00000   0.00000
      9614 HOAC     53       HOAC     LPO12    LPD     -0.319000        0.0000           -1   0.00000   0.00000
      9615 HOAC     53       HOAC     LPO21    LPD     -0.285000        0.0000           -1   0.00000   0.00000
      9616 HOAC     53       HOAC     LPO22    LPD     -0.285000        0.0000           -1   0.00000   0.00000
      9617 HOAC     54       HOAC     C1       CD2O3A   3.554200       11.6110           0   -1.20700   0.708000
      9618 HOAC     54       HOAC     DC1      DRUD    -2.696200        0.4000           0   0.00000   0.00000
      9619 HOAC     54       HOAC     C2       CD33C    3.268200       11.6110           0   -2.11400   0.750000
      9620 HOAC     54       HOAC     DC2      DRUD    -3.568200        0.4000           0   0.00000   0.00000
      9621 HOAC     54       HOAC     H1       HDA3A    0.092000        1.0080           0   0.00000   0.00000
      9622 HOAC     54       HOAC     H2       HDA3A    0.092000        1.0080           0   0.00000   0.00000
      9623 HOAC     54       HOAC     H3       HDA3A    0.092000        1.0080           0   0.00000   0.00000
      9624 HOAC     54       HOAC     O1       OD2C3A   2.356500       15.5994           0   -0.922000   1.53900
      9625 HOAC     54       HOAC     DO1      DRUD    -2.356500        0.4000           0   0.00000   0.00000
      9626 HOAC     54       HOAC     O2       OD31F    2.776500       15.5990           0   -1.28000   1.12400
      9627 HOAC     54       HOAC     DO2      DRUD    -2.776500        0.4000           0   0.00000   0.00000
      9628 HOAC     54       HOAC     H        HDP1A    0.374000        1.0080           0   0.00000   0.00000
      9629 HOAC     54       HOAC     LPO11    LPD     -0.319000        0.0000           -1   0.00000   0.00000
      9630 HOAC     54       HOAC     LPO12    LPD     -0.319000        0.0000           -1   0.00000   0.00000
      9631 HOAC     54       HOAC     LPO21    LPD     -0.285000        0.0000           -1   0.00000   0.00000
      9632 HOAC     54       HOAC     LPO22    LPD     -0.285000        0.0000           -1   0.00000   0.00000
      9633 HOAC     55       HOAC     C1       CD2O3A   3.554200       11.6110           0   -1.20700   0.708000
      9634 HOAC     55       HOAC     DC1      DRUD    -2.696200        0.4000           0   0.00000   0.00000
      9635 HOAC     55       HOAC     C2       CD33C    3.268200       11.6110           0   -2.11400   0.750000
      9636 HOAC     55       HOAC     DC2      DRUD    -3.568200        0.4000           0   0.00000   0.00000
      9637 HOAC     55       HOAC     H1       HDA3A    0.092000        1.0080           0   0.00000   0.00000
      9638 HOAC     55       HOAC     H2       HDA3A    0.092000        1.0080           0   0.00000   0.00000
      9639 HOAC     55       HOAC     H3       HDA3A    0.092000        1.0080           0   0.00000   0.00000
      9640 HOAC     55       HOAC     O1       OD2C3A   2.356500       15.5994           0   -0.922000   1.53900
      9641 HOAC     55       HOAC     DO1      DRUD    -2.356500        0.4000           0   0.00000   0.00000
      9642 HOAC     55       HOAC     O2       OD31F    2.776500       15.5990           0   -1.28000   1.12400
      9643 HOAC     55       HOAC     DO2      DRUD    -2.776500        0.4000           0   0.00000   0.00000
      9644 HOAC     55       HOAC     H        HDP1A    0.374000        1.0080           0   0.00000   0.00000
      9645 HOAC     55       HOAC     LPO11    LPD     -0.319000        0.0000           -1   0.00000   0.00000
      9646 HOAC     55       HOAC     LPO12    LPD     -0.319000        0.0000           -1   0.00000   0.00000
      9647 HOAC     55       HOAC     LPO21    LPD     -0.285000        0.0000           -1   0.00000   0.00000
      9648 HOAC     55       HOAC     LPO22    LPD     -0.285000        0.0000           -1   0.00000   0.00000
      9649 HOAC     56       HOAC     C1       CD2O3A   3.554200       11.6110           0   -1.20700   0.708000
      9650 HOAC     56       HOAC     DC1      DRUD    -2.696200        0.4000           0   0.00000   0.00000
      9651 HOAC     56       HOAC     C2       CD33C    3.268200       11.6110           0   -2.11400   0.750000
      9652 HOAC     56       HOAC     DC2      DRUD    -3.568200        0.4000           0   0.00000   0.00000
      9653 HOAC     56       HOAC     H1       HDA3A    0.092000        1.0080           0   0.00000   0.00000
      9654 HOAC     56       HOAC     H2       HDA3A    0.092000        1.0080           0   0.00000   0.00000
      9655 HOAC     56       HOAC     H3       HDA3A    0.092000        1.0080           0   0.00000   0.00000
      9656 HOAC     56       HOAC     O1       OD2C3A   2.356500       15.5994           0   -0.922000   1.53900
      9657 HOAC     56       HOAC     DO1      DRUD    -2.356500        0.4000           0   0.00000   0.00000
      9658 HOAC     56       HOAC     O2       OD31F    2.776500       15.5990           0   -1.28000   1.12400
      9659 HOAC     56       HOAC     DO2      DRUD    -2.776500        0.4000           0   0.00000   0.00000
      9660 HOAC     56       HOAC     H        HDP1A    0.374000        1.0080           0   0.00000   0.00000
      9661 HOAC     56       HOAC     LPO11    LPD     -0.319000        0.0000           -1   0.00000   0.00000
      9662 HOAC     56       HOAC     LPO12    LPD     -0.319000        0.0000           -1   0.00000   0.00000
      9663 HOAC     56       HOAC     LPO21    LPD     -0.285000        0.0000           -1   0.00000   0.00000
      9664 HOAC     56       HOAC     LPO22    LPD     -0.285000        0.0000           -1   0.00000   0.00000
      9665 HOAC     57       HOAC     C1       CD2O3A   3.554200       11.6110           0   -1.20700   0.708000
      9666 HOAC     57       HOAC     DC1      DRUD    -2.696200        0.4000           0   0.00000   0.00000
      9667 HOAC     57       HOAC     C2       CD33C    3.268200       11.6110           0   -2.11400   0.750000
      9668 HOAC     57       HOAC     DC2      DRUD    -3.568200        0.4000           0   0.00000   0.00000
      9669 HOAC     57       HOAC     H1       HDA3A    0.092000        1.0080           0   0.00000   0.00000
      9670 HOAC     57       HOAC     H2       HDA3A    0.092000        1.0080           0   0.00000   0.00000
      9671 HOAC     57       HOAC     H3       HDA3A    0.092000        1.0080           0   0.00000   0.00000
      9672 HOAC     57       HOAC     O1       OD2C3A   2.356500       15.5994           0   -0.922000   1.53900
      9673 HOAC     57       HOAC     DO1      DRUD    -2.356500        0.4000           0   0.00000   0.00000
      9674 HOAC     57       HOAC     O2       OD31F    2.776500       15.5990           0   -1.28000   1.12400
      9675 HOAC     57       HOAC     DO2      DRUD    -2.776500        0.4000           0   0.00000   0.00000
      9676 HOAC     57       HOAC     H        HDP1A    0.374000        1.0080           0   0.00000   0.00000
      9677 HOAC     57       HOAC     LPO11    LPD     -0.319000        0.0000           -1   0.00000   0.00000
      9678 HOAC     57       HOAC     LPO12    LPD     -0.319000        0.0000           -1   0.00000   0.00000
      9679 HOAC     57       HOAC     LPO21    LPD     -0.285000        0.0000           -1   0.00000   0.00000
      9680 HOAC     57       HOAC     LPO22    LPD     -0.285000        0.0000           -1   0.00000   0.00000
      9681 HOAC     58       HOAC     C1       CD2O3A   3.554200       11.6110           0   -1.20700   0.708000
      9682 HOAC     58       HOAC     DC1      DRUD    -2.696200        0.4000           0   0.00000   0.00000
      9683 HOAC     58       HOAC     C2       CD33C    3.268200       11.6110           0   -2.11400   0.750000
      9684 HOAC     58       HOAC     DC2      DRUD    -3.568200        0.4000           0   0.00000   0.00000
      9685 HOAC     58       HOAC     H1       HDA3A    0.092000        1.0080           0   0.00000   0.00000
      9686 HOAC     58       HOAC     H2       HDA3A    0.092000        1.0080           0   0.00000   0.00000
      9687 HOAC     58       HOAC     H3       HDA3A    0.092000        1.0080           0   0.00000   0.00000
      9688 HOAC     58       HOAC     O1       OD2C3A   2.356500       15.5994           0   -0.922000   1.53900
      9689 HOAC     58       HOAC     DO1      DRUD    -2.356500        0.4000           0   0.00000   0.00000
      9690 HOAC     58       HOAC     O2       OD31F    2.776500       15.5990           0   -1.28000   1.12400
      9691 HOAC     58       HOAC     DO2      DRUD    -2.776500        0.4000           0   0.00000   0.00000
      9692 HOAC     58       HOAC     H        HDP1A    0.374000        1.0080           0   0.00000   0.00000
      9693 HOAC     58       HOAC     LPO11    LPD     -0.319000        0.0000           -1   0.00000   0.00000
      9694 HOAC     58       HOAC     LPO12    LPD     -0.319000        0.0000           -1   0.00000   0.00000
      9695 HOAC     58       HOAC     LPO21    LPD     -0.285000        0.0000           -1   0.00000   0.00000
      9696 HOAC     58       HOAC     LPO22    LPD     -0.285000        0.0000           -1   0.00000   0.00000
      9697 HOAC     59       HOAC     C1       CD2O3A   3.554200       11.6110           0   -1.20700   0.708000
      9698 HOAC     59       HOAC     DC1      DRUD    -2.696200        0.4000           0   0.00000   0.00000
      9699 HOAC     59       HOAC     C2       CD33C    3.268200       11.6110           0   -2.11400   0.750000
      9700 HOAC     59       HOAC     DC2      DRUD    -3.568200        0.4000           0   0.00000   0.00000
      9701 HOAC     59       HOAC     H1       HDA3A    0.092000        1.0080           0   0.00000   0.00000
      9702 HOAC     59       HOAC     H2       HDA3A    0.092000        1.0080           0   0.00000   0.00000
      9703 HOAC     59       HOAC     H3       HDA3A    0.092000        1.0080           0   0.00000   0.00000
      9704 HOAC     59       HOAC     O1       OD2C3A   2.356500       15.5994           0   -0.922000   1.53900
      9705 HOAC     59       HOAC     DO1      DRUD    -2.356500        0.4000           0   0.00000   0.00000
      9706 HOAC     59       HOAC     O2       OD31F    2.776500       15.5990           0   -1.28000   1.12400
      9707 HOAC     59       HOAC     DO2      DRUD    -2.776500        0.4000           0   0.00000   0.00000
      9708 HOAC     59       HOAC     H        HDP1A    0.374000        1.0080           0   0.00000   0.00000
      9709 HOAC     59       HOAC     LPO11    LPD     -0.319000        0.0000           -1   0.00000   0.00000
      9710 HOAC     59       HOAC     LPO12    LPD     -0.319000        0.0000           -1   0.00000   0.00000
      9711 HOAC     59       HOAC     LPO21    LPD     -0.285000        0.0000           -1   0.00000   0.00000
      9712 HOAC     59       HOAC     LPO22    LPD     -0.285000        0.0000           -1   0.00000   0.00000
      9713 HOAC     60       HOAC     C1       CD2O3A   3.554200       11.6110           0   -1.20700   0.708000
      9714 HOAC     60       HOAC     DC1      DRUD    -2.696200        0.4000           0   0.00000   0.00000
      9715 HOAC     60       HOAC     C2       CD33C    3.268200       11.6110           0   -2.11400   0.750000
      9716 HOAC     60       HOAC     DC2      DRUD    -3.568200        0.4000           0   0.00000   0.00000
      9717 HOAC     60       HOAC     H1       HDA3A    0.092000        1.0080           0   0.00000   0.00000
      9718 HOAC     60       HOAC     H2       HDA3A    0.092000        1.0080           0   0.00000   0.00000
      9719 HOAC     60       HOAC     H3       HDA3A    0.092000        1.0080           0   0.00000   0.00000
      9720 HOAC     60       HOAC     O1       OD2C3A   2.356500       15.5994           0   -0.922000   1.53900
      9721 HOAC     60       HOAC     DO1      DRUD    -2.356500        0.4000           0   0.00000   0.00000
      9722 HOAC     60       HOAC     O2       OD31F    2.776500       15.5990           0   -1.28000   1.12400
      9723 HOAC     60       HOAC     DO2      DRUD    -2.776500        0.4000           0   0.00000   0.00000
      9724 HOAC     60       HOAC     H        HDP1A    0.374000        1.0080           0   0.00000   0.00000
      9725 HOAC     60       HOAC     LPO11    LPD     -0.319000        0.0000           -1   0.00000   0.00000
      9726 HOAC     60       HOAC     LPO12    LPD     -0.319000        0.0000           -1   0.00000   0.00000
      9727 HOAC     60       HOAC     LPO21    LPD     -0.285000        0.0000           -1   0.00000   0.00000
      9728 HOAC     60       HOAC     LPO22    LPD     -0.285000        0.0000           -1   0.00000   0.00000
      9729 HOAC     61       HOAC     C1       CD2O3A   3.554200       11.6110           0   -1.20700   0.708000
      9730 HOAC     61       HOAC     DC1      DRUD    -2.696200        0.4000           0   0.00000   0.00000
      9731 HOAC     61       HOAC     C2       CD33C    3.268200       11.6110           0   -2.11400   0.750000
      9732 HOAC     61       HOAC     DC2      DRUD    -3.568200        0.4000           0   0.00000   0.00000
      9733 HOAC     61       HOAC     H1       HDA3A    0.092000        1.0080           0   0.00000   0.00000
      9734 HOAC     61       HOAC     H2       HDA3A    0.092000        1.0080           0   0.00000   0.00000
      9735 HOAC     61       HOAC     H3       HDA3A    0.092000        1.0080           0   0.00000   0.00000
      9736 HOAC     61       HOAC     O1       OD2C3A   2.356500       15.5994           0   -0.922000   1.53900
      9737 HOAC     61       HOAC     DO1      DRUD    -2.356500        0.4000           0   0.00000   0.00000
      9738 HOAC     61       HOAC     O2       OD31F    2.776500       15.5990           0   -1.28000   1.12400
      9739 HOAC     61       HOAC     DO2      DRUD    -2.776500        0.4000           0   0.00000   0.00000
      9740 HOAC     61       HOAC     H        HDP1A    0.374000        1.0080           0   0.00000   0.00000
      9741 HOAC     61       HOAC     LPO11    LPD     -0.319000        0.0000           -1   0.00000   0.00000
      9742 HOAC     61       HOAC     LPO12    LPD     -0.319000        0.0000           -1   0.00000   0.00000
      9743 HOAC     61       HOAC     LPO21    LPD     -0.285000        0.0000           -1   0.00000   0.00000
      9744 HOAC     61       HOAC     LPO22    LPD     -0.285000        0.0000           -1   0.00000   0.00000
      9745 HOAC     62       HOAC     C1       CD2O3A   3.554200       11.6110           0   -1.20700   0.708000
      9746 HOAC     62       HOAC     DC1      DRUD    -2.696200        0.4000           0   0.00000   0.00000
      9747 HOAC     62       HOAC     C2       CD33C    3.268200       11.6110           0   -2.11400   0.750000
      9748 HOAC     62       HOAC     DC2      DRUD    -3.568200        0.4000           0   0.00000   0.00000
      9749 HOAC     62       HOAC     H1       HDA3A    0.092000        1.0080           0   0.00000   0.00000
      9750 HOAC     62       HOAC     H2       HDA3A    0.092000        1.0080           0   0.00000   0.00000
      9751 HOAC     62       HOAC     H3       HDA3A    0.092000        1.0080           0   0.00000   0.00000
      9752 HOAC     62       HOAC     O1       OD2C3A   2.356500       15.5994           0   -0.922000   1.53900
      9753 HOAC     62       HOAC     DO1      DRUD    -2.356500        0.4000           0   0.00000   0.00000
      9754 HOAC     62       HOAC     O2       OD31F    2.776500       15.5990           0   -1.28000   1.12400
      9755 HOAC     62       HOAC     DO2      DRUD    -2.776500        0.4000           0   0.00000   0.00000
      9756 HOAC     62       HOAC     H        HDP1A    0.374000        1.0080           0   0.00000   0.00000
      9757 HOAC     62       HOAC     LPO11    LPD     -0.319000        0.0000           -1   0.00000   0.00000
      9758 HOAC     62       HOAC     LPO12    LPD     -0.319000        0.0000           -1   0.00000   0.00000
      9759 HOAC     62       HOAC     LPO21    LPD     -0.285000        0.0000           -1   0.00000   0.00000
      9760 HOAC     62       HOAC     LPO22    LPD     -0.285000        0.0000           -1   0.00000   0.00000
      9761 HOAC     63       HOAC     C1       CD2O3A   3.554200       11.6110           0   -1.20700   0.708000
      9762 HOAC     63       HOAC     DC1      DRUD    -2.696200        0.4000           0   0.00000   0.00000
      9763 HOAC     63       HOAC     C2       CD33C    3.268200       11.6110           0   -2.11400   0.750000
      9764 HOAC     63       HOAC     DC2      DRUD    -3.568200        0.4000           0   0.00000   0.00000
      9765 HOAC     63       HOAC     H1       HDA3A    0.092000        1.0080           0   0.00000   0.00000
      9766 HOAC     63       HOAC     H2       HDA3A    0.092000        1.0080           0   0.00000   0.00000
      9767 HOAC     63       HOAC     H3       HDA3A    0.092000        1.0080           0   0.00000   0.00000
      9768 HOAC     63       HOAC     O1       OD2C3A   2.356500       15.5994           0   -0.922000   1.53900
      9769 HOAC     63       HOAC     DO1      DRUD    -2.356500        0.4000           0   0.00000   0.00000
      9770 HOAC     63       HOAC     O2       OD31F    2.776500       15.5990           0   -1.28000   1.12400
      9771 HOAC     63       HOAC     DO2      DRUD    -2.776500        0.4000           0   0.00000   0.00000
      9772 HOAC     63       HOAC     H        HDP1A    0.374000        1.0080           0   0.00000   0.00000
      9773 HOAC     63       HOAC     LPO11    LPD     -0.319000        0.0000           -1   0.00000   0.00000
      9774 HOAC     63       HOAC     LPO12    LPD     -0.319000        0.0000           -1   0.00000   0.00000
      9775 HOAC     63       HOAC     LPO21    LPD     -0.285000        0.0000           -1   0.00000   0.00000
      9776 HOAC     63       HOAC     LPO22    LPD     -0.285000        0.0000           -1   0.00000   0.00000
      9777 HOAC     64       HOAC     C1       CD2O3A   3.554200       11.6110           0   -1.20700   0.708000
      9778 HOAC     64       HOAC     DC1      DRUD    -2.696200        0.4000           0   0.00000   0.00000
      9779 HOAC     64       HOAC     C2       CD33C    3.268200       11.6110           0   -2.11400   0.750000
      9780 HOAC     64       HOAC     DC2      DRUD    -3.568200        0.4000           0   0.00000   0.00000
      9781 HOAC     64       HOAC     H1       HDA3A    0.092000        1.0080           0   0.00000   0.00000
      9782 HOAC     64       HOAC     H2       HDA3A    0.092000        1.0080           0   0.00000   0.00000
      9783 HOAC     64       HOAC     H3       HDA3A    0.092000        1.0080           0   0.00000   0.00000
      9784 HOAC     64       HOAC     O1       OD2C3A   2.356500       15.5994           0   -0.922000   1.53900
      9785 HOAC     64       HOAC     DO1      DRUD    -2.356500        0.4000           0   0.00000   0.00000
      9786 HOAC     64       HOAC     O2       OD31F    2.776500       15.5990           0   -1.28000   1.12400
      9787 HOAC     64       HOAC     DO2      DRUD    -2.776500        0.4000           0   0.00000   0.00000
      9788 HOAC     64       HOAC     H        HDP1A    0.374000        1.0080           0   0.00000   0.00000
      9789 HOAC     64       HOAC     LPO11    LPD     -0.319000        0.0000           -1   0.00000   0.00000
      9790 HOAC     64       HOAC     LPO12    LPD     -0.319000        0.0000           -1   0.00000   0.00000
      9791 HOAC     64       HOAC     LPO21    LPD     -0.285000        0.0000           -1   0.00000   0.00000
      9792 HOAC     64       HOAC     LPO22    LPD     -0.285000        0.0000           -1   0.00000   0.00000
      9793 HOAC     65       HOAC     C1       CD2O3A   3.554200       11.6110           0   -1.20700   0.708000
      9794 HOAC     65       HOAC     DC1      DRUD    -2.696200        0.4000           0   0.00000   0.00000
      9795 HOAC     65       HOAC     C2       CD33C    3.268200       11.6110           0   -2.11400   0.750000
      9796 HOAC     65       HOAC     DC2      DRUD    -3.568200        0.4000           0   0.00000   0.00000
      9797 HOAC     65       HOAC     H1       HDA3A    0.092000        1.0080           0   0.00000   0.00000
      9798 HOAC     65       HOAC     H2       HDA3A    0.092000        1.0080           0   0.00000   0.00000
      9799 HOAC     65       HOAC     H3       HDA3A    0.092000        1.0080           0   0.00000   0.00000
      9800 HOAC     65       HOAC     O1       OD2C3A   2.356500       15.5994           0   -0.922000   1.53900
      9801 HOAC     65       HOAC     DO1      DRUD    -2.356500        0.4000           0   0.00000   0.00000
      9802 HOAC     65       HOAC     O2       OD31F    2.776500       15.5990           0   -1.28000   1.12400
      9803 HOAC     65       HOAC     DO2      DRUD    -2.776500        0.4000           0   0.00000   0.00000
      9804 HOAC     65       HOAC     H        HDP1A    0.374000        1.0080           0   0.00000   0.00000
      9805 HOAC     65       HOAC     LPO11    LPD     -0.319000        0.0000           -1   0.00000   0.00000
      9806 HOAC     65       HOAC     LPO12    LPD     -0.319000        0.0000           -1   0.00000   0.00000
      9807 HOAC     65       HOAC     LPO21    LPD     -0.285000        0.0000           -1   0.00000   0.00000
      9808 HOAC     65       HOAC     LPO22    LPD     -0.285000        0.0000           -1   0.00000   0.00000
      9809 HOAC     66       HOAC     C1       CD2O3A   3.554200       11.6110           0   -1.20700   0.708000
      9810 HOAC     66       HOAC     DC1      DRUD    -2.696200        0.4000           0   0.00000   0.00000
      9811 HOAC     66       HOAC     C2       CD33C    3.268200       11.6110           0   -2.11400   0.750000
      9812 HOAC     66       HOAC     DC2      DRUD    -3.568200        0.4000           0   0.00000   0.00000
      9813 HOAC     66       HOAC     H1       HDA3A    0.092000        1.0080           0   0.00000   0.00000
      9814 HOAC     66       HOAC     H2       HDA3A    0.092000        1.0080           0   0.00000   0.00000
      9815 HOAC     66       HOAC     H3       HDA3A    0.092000        1.0080           0   0.00000   0.00000
      9816 HOAC     66       HOAC     O1       OD2C3A   2.356500       15.5994           0   -0.922000   1.53900
      9817 HOAC     66       HOAC     DO1      DRUD    -2.356500        0.4000           0   0.00000   0.00000
      9818 HOAC     66       HOAC     O2       OD31F    2.776500       15.5990           0   -1.28000   1.12400
      9819 HOAC     66       HOAC     DO2      DRUD    -2.776500        0.4000           0   0.00000   0.00000
      9820 HOAC     66       HOAC     H        HDP1A    0.374000        1.0080           0   0.00000   0.00000
      9821 HOAC     66       HOAC     LPO11    LPD     -0.319000        0.0000           -1   0.00000   0.00000
      9822 HOAC     66       HOAC     LPO12    LPD     -0.319000        0.0000           -1   0.00000   0.00000
      9823 HOAC     66       HOAC     LPO21    LPD     -0.285000        0.0000           -1   0.00000   0.00000
      9824 HOAC     66       HOAC     LPO22    LPD     -0.285000        0.0000           -1   0.00000   0.00000
      9825 HOAC     67       HOAC     C1       CD2O3A   3.554200       11.6110           0   -1.20700   0.708000
      9826 HOAC     67       HOAC     DC1      DRUD    -2.696200        0.4000           0   0.00000   0.00000
      9827 HOAC     67       HOAC     C2       CD33C    3.268200       11.6110           0   -2.11400   0.750000
      9828 HOAC     67       HOAC     DC2      DRUD    -3.568200        0.4000           0   0.00000   0.00000
      9829 HOAC     67       HOAC     H1       HDA3A    0.092000        1.0080           0   0.00000   0.00000
      9830 HOAC     67       HOAC     H2       HDA3A    0.092000        1.0080           0   0.00000   0.00000
      9831 HOAC     67       HOAC     H3       HDA3A    0.092000        1.0080           0   0.00000   0.00000
      9832 HOAC     67       HOAC     O1       OD2C3A   2.356500       15.5994           0   -0.922000   1.53900
      9833 HOAC     67       HOAC     DO1      DRUD    -2.356500        0.4000           0   0.00000   0.00000
      9834 HOAC     67       HOAC     O2       OD31F    2.776500       15.5990           0   -1.28000   1.12400
      9835 HOAC     67       HOAC     DO2      DRUD    -2.776500        0.4000           0   0.00000   0.00000
      9836 HOAC     67       HOAC     H        HDP1A    0.374000        1.0080           0   0.00000   0.00000
      9837 HOAC     67       HOAC     LPO11    LPD     -0.319000        0.0000           -1   0.00000   0.00000
      9838 HOAC     67       HOAC     LPO12    LPD     -0.319000        0.0000           -1   0.00000   0.00000
      9839 HOAC     67       HOAC     LPO21    LPD     -0.285000        0.0000           -1   0.00000   0.00000
      9840 HOAC     67       HOAC     LPO22    LPD     -0.285000        0.0000           -1   0.00000   0.00000
      9841 HOAC     68       HOAC     C1       CD2O3A   3.554200       11.6110           0   -1.20700   0.708000
      9842 HOAC     68       HOAC     DC1      DRUD    -2.696200        0.4000           0   0.00000   0.00000
      9843 HOAC     68       HOAC     C2       CD33C    3.268200       11.6110           0   -2.11400   0.750000
      9844 HOAC     68       HOAC     DC2      DRUD    -3.568200        0.4000           0   0.00000   0.00000
      9845 HOAC     68       HOAC     H1       HDA3A    0.092000        1.0080           0   0.00000   0.00000
      9846 HOAC     68       HOAC     H2       HDA3A    0.092000        1.0080           0   0.00000   0.00000
      9847 HOAC     68       HOAC     H3       HDA3A    0.092000        1.0080           0   0.00000   0.00000
      9848 HOAC     68       HOAC     O1       OD2C3A   2.356500       15.5994           0   -0.922000   1.53900
      9849 HOAC     68       HOAC     DO1      DRUD    -2.356500        0.4000           0   0.00000   0.00000
      9850 HOAC     68       HOAC     O2       OD31F    2.776500       15.5990           0   -1.28000   1.12400
      9851 HOAC     68       HOAC     DO2      DRUD    -2.776500        0.4000           0   0.00000   0.00000
      9852 HOAC     68       HOAC     H        HDP1A    0.374000        1.0080           0   0.00000   0.00000
      9853 HOAC     68       HOAC     LPO11    LPD     -0.319000        0.0000           -1   0.00000   0.00000
      9854 HOAC     68       HOAC     LPO12    LPD     -0.319000        0.0000           -1   0.00000   0.00000
      9855 HOAC     68       HOAC     LPO21    LPD     -0.285000        0.0000           -1   0.00000   0.00000
      9856 HOAC     68       HOAC     LPO22    LPD     -0.285000        0.0000           -1   0.00000   0.00000
      9857 HOAC     69       HOAC     C1       CD2O3A   3.554200       11.6110           0   -1.20700   0.708000
      9858 HOAC     69       HOAC     DC1      DRUD    -2.696200        0.4000           0   0.00000   0.00000
      9859 HOAC     69       HOAC     C2       CD33C    3.268200       11.6110           0   -2.11400   0.750000
      9860 HOAC     69       HOAC     DC2      DRUD    -3.568200        0.4000           0   0.00000   0.00000
      9861 HOAC     69       HOAC     H1       HDA3A    0.092000        1.0080           0   0.00000   0.00000
      9862 HOAC     69       HOAC     H2       HDA3A    0.092000        1.0080           0   0.00000   0.00000
      9863 HOAC     69       HOAC     H3       HDA3A    0.092000        1.0080           0   0.00000   0.00000
      9864 HOAC     69       HOAC     O1       OD2C3A   2.356500       15.5994           0   -0.922000   1.53900
      9865 HOAC     69       HOAC     DO1      DRUD    -2.356500        0.4000           0   0.00000   0.00000
      9866 HOAC     69       HOAC     O2       OD31F    2.776500       15.5990           0   -1.28000   1.12400
      9867 HOAC     69       HOAC     DO2      DRUD    -2.776500        0.4000           0   0.00000   0.00000
      9868 HOAC     69       HOAC     H        HDP1A    0.374000        1.0080           0   0.00000   0.00000
      9869 HOAC     69       HOAC     LPO11    LPD     -0.319000        0.0000           -1   0.00000   0.00000
      9870 HOAC     69       HOAC     LPO12    LPD     -0.319000        0.0000           -1   0.00000   0.00000
      9871 HOAC     69       HOAC     LPO21    LPD     -0.285000        0.0000           -1   0.00000   0.00000
      9872 HOAC     69       HOAC     LPO22    LPD     -0.285000        0.0000           -1   0.00000   0.00000
      9873 HOAC     70       HOAC     C1       CD2O3A   3.554200       11.6110           0   -1.20700   0.708000
      9874 HOAC     70       HOAC     DC1      DRUD    -2.696200        0.4000           0   0.00000   0.00000
      9875 HOAC     70       HOAC     C2       CD33C    3.268200       11.6110           0   -2.11400   0.750000
      9876 HOAC     70       HOAC     DC2      DRUD    -3.568200        0.4000           0   0.00000   0.00000
      9877 HOAC     70       HOAC     H1       HDA3A    0.092000        1.0080           0   0.00000   0.00000
      9878 HOAC     70       HOAC     H2       HDA3A    0.092000        1.0080           0   0.00000   0.00000
      9879 HOAC     70       HOAC     H3       HDA3A    0.092000        1.0080           0   0.00000   0.00000
      9880 HOAC     70       HOAC     O1       OD2C3A   2.356500       15.5994           0   -0.922000   1.53900
      9881 HOAC     70       HOAC     DO1      DRUD    -2.356500        0.4000           0   0.00000   0.00000
      9882 HOAC     70       HOAC     O2       OD31F    2.776500       15.5990           0   -1.28000   1.12400
      9883 HOAC     70       HOAC     DO2      DRUD    -2.776500        0.4000           0   0.00000   0.00000
      9884 HOAC     70       HOAC     H        HDP1A    0.374000        1.0080           0   0.00000   0.00000
      9885 HOAC     70       HOAC     LPO11    LPD     -0.319000        0.0000           -1   0.00000   0.00000
      9886 HOAC     70       HOAC     LPO12    LPD     -0.319000        0.0000           -1   0.00000   0.00000
      9887 HOAC     70       HOAC     LPO21    LPD     -0.285000        0.0000           -1   0.00000   0.00000
      9888 HOAC     70       HOAC     LPO22    LPD     -0.285000        0.0000           -1   0.00000   0.00000
      9889 HOAC     71       HOAC     C1       CD2O3A   3.554200       11.6110           0   -1.20700   0.708000
      9890 HOAC     71       HOAC     DC1      DRUD    -2.696200        0.4000           0   0.00000   0.00000
      9891 HOAC     71       HOAC     C2       CD33C    3.268200       11.6110           0   -2.11400   0.750000
      9892 HOAC     71       HOAC     DC2      DRUD    -3.568200        0.4000           0   0.00000   0.00000
      9893 HOAC     71       HOAC     H1       HDA3A    0.092000        1.0080           0   0.00000   0.00000
      9894 HOAC     71       HOAC     H2       HDA3A    0.092000        1.0080           0   0.00000   0.00000
      9895 HOAC     71       HOAC     H3       HDA3A    0.092000        1.0080           0   0.00000   0.00000
      9896 HOAC     71       HOAC     O1       OD2C3A   2.356500       15.5994           0   -0.922000   1.53900
      9897 HOAC     71       HOAC     DO1      DRUD    -2.356500        0.4000           0   0.00000   0.00000
      9898 HOAC     71       HOAC     O2       OD31F    2.776500       15.5990           0   -1.28000   1.12400
      9899 HOAC     71       HOAC     DO2      DRUD    -2.776500        0.4000           0   0.00000   0.00000
      9900 HOAC     71       HOAC     H        HDP1A    0.374000        1.0080           0   0.00000   0.00000
      9901 HOAC     71       HOAC     LPO11    LPD     -0.319000        0.0000           -1   0.00000   0.00000
      9902 HOAC     71       HOAC     LPO12    LPD     -0.319000        0.0000           -1   0.00000   0.00000
      9903 HOAC     71       HOAC     LPO21    LPD     -0.285000        0.0000           -1   0.00000   0.00000
      9904 HOAC     71       HOAC     LPO22    LPD     -0.285000        0.0000           -1   0.00000   0.00000
      9905 HOAC     72       HOAC     C1       CD2O3A   3.554200       11.6110           0   -1.20700   0.708000
      9906 HOAC     72       HOAC     DC1      DRUD    -2.696200        0.4000           0   0.00000   0.00000
      9907 HOAC     72       HOAC     C2       CD33C    3.268200       11.6110           0   -2.11400   0.750000
      9908 HOAC     72       HOAC     DC2      DRUD    -3.568200        0.4000           0   0.00000   0.00000
      9909 HOAC     72       HOAC     H1       HDA3A    0.092000        1.0080           0   0.00000   0.00000
      9910 HOAC     72       HOAC     H2       HDA3A    0.092000        1.0080           0   0.00000   0.00000
      9911 HOAC     72       HOAC     H3       HDA3A    0.092000        1.0080           0   0.00000   0.00000
      9912 HOAC     72       HOAC     O1       OD2C3A   2.356500       15.5994           0   -0.922000   1.53900
      9913 HOAC     72       HOAC     DO1      DRUD    -2.356500        0.4000           0   0.00000   0.00000
      9914 HOAC     72       HOAC     O2       OD31F    2.776500       15.5990           0   -1.28000   1.12400
      9915 HOAC     72       HOAC     DO2      DRUD    -2.776500        0.4000           0   0.00000   0.00000
      9916 HOAC     72       HOAC     H        HDP1A    0.374000        1.0080           0   0.00000   0.00000
      9917 HOAC     72       HOAC     LPO11    LPD     -0.319000        0.0000           -1   0.00000   0.00000
      9918 HOAC     72       HOAC     LPO12    LPD     -0.319000        0.0000           -1   0.00000   0.00000
      9919 HOAC     72       HOAC     LPO21    LPD     -0.285000        0.0000           -1   0.00000   0.00000
      9920 HOAC     72       HOAC     LPO22    LPD     -0.285000        0.0000           -1   0.00000   0.00000
      9921 HOAC     73       HOAC     C1       CD2O3A   3.554200       11.6110           0   -1.20700   0.708000
      9922 HOAC     73       HOAC     DC1      DRUD    -2.696200        0.4000           0   0.00000   0.00000
      9923 HOAC     73       HOAC     C2       CD33C    3.268200       11.6110           0   -2.11400   0.750000
      9924 HOAC     73       HOAC     DC2      DRUD    -3.568200        0.4000           0   0.00000   0.00000
      9925 HOAC     73       HOAC     H1       HDA3A    0.092000        1.0080           0   0.00000   0.00000
      9926 HOAC     73       HOAC     H2       HDA3A    0.092000        1.0080           0   0.00000   0.00000
      9927 HOAC     73       HOAC     H3       HDA3A    0.092000        1.0080           0   0.00000   0.00000
      9928 HOAC     73       HOAC     O1       OD2C3A   2.356500       15.5994           0   -0.922000   1.53900
      9929 HOAC     73       HOAC     DO1      DRUD    -2.356500        0.4000           0   0.00000   0.00000
      9930 HOAC     73       HOAC     O2       OD31F    2.776500       15.5990           0   -1.28000   1.12400
      9931 HOAC     73       HOAC     DO2      DRUD    -2.776500        0.4000           0   0.00000   0.00000
      9932 HOAC     73       HOAC     H        HDP1A    0.374000        1.0080           0   0.00000   0.00000
      9933 HOAC     73       HOAC     LPO11    LPD     -0.319000        0.0000           -1   0.00000   0.00000
      9934 HOAC     73       HOAC     LPO12    LPD     -0.319000        0.0000           -1   0.00000   0.00000
      9935 HOAC     73       HOAC     LPO21    LPD     -0.285000        0.0000           -1   0.00000   0.00000
      9936 HOAC     73       HOAC     LPO22    LPD     -0.285000        0.0000           -1   0.00000   0.00000
      9937 HOAC     74       HOAC     C1       CD2O3A   3.554200       11.6110           0   -1.20700   0.708000
      9938 HOAC     74       HOAC     DC1      DRUD    -2.696200        0.4000           0   0.00000   0.00000
      9939 HOAC     74       HOAC     C2       CD33C    3.268200       11.6110           0   -2.11400   0.750000
      9940 HOAC     74       HOAC     DC2      DRUD    -3.568200        0.4000           0   0.00000   0.00000
      9941 HOAC     74       HOAC     H1       HDA3A    0.092000        1.0080           0   0.00000   0.00000
      9942 HOAC     74       HOAC     H2       HDA3A    0.092000        1.0080           0   0.00000   0.00000
      9943 HOAC     74       HOAC     H3       HDA3A    0.092000        1.0080           0   0.00000   0.00000
      9944 HOAC     74       HOAC     O1       OD2C3A   2.356500       15.5994           0   -0.922000   1.53900
      9945 HOAC     74       HOAC     DO1      DRUD    -2.356500        0.4000           0   0.00000   0.00000
      9946 HOAC     74       HOAC     O2       OD31F    2.776500       15.5990           0   -1.28000   1.12400
      9947 HOAC     74       HOAC     DO2      DRUD    -2.776500        0.4000           0   0.00000   0.00000
      9948 HOAC     74       HOAC     H        HDP1A    0.374000        1.0080           0   0.00000   0.00000
      9949 HOAC     74       HOAC     LPO11    LPD     -0.319000        0.0000           -1   0.00000   0.00000
      9950 HOAC     74       HOAC     LPO12    LPD     -0.319000        0.0000           -1   0.00000   0.00000
      9951 HOAC     74       HOAC     LPO21    LPD     -0.285000        0.0000           -1   0.00000   0.00000
      9952 HOAC     74       HOAC     LPO22    LPD     -0.285000        0.0000           -1   0.00000   0.00000
      9953 HOAC     75       HOAC     C1       CD2O3A   3.554200       11.6110           0   -1.20700   0.708000
      9954 HOAC     75       HOAC     DC1      DRUD    -2.696200        0.4000           0   0.00000   0.00000
      9955 HOAC     75       HOAC     C2       CD33C    3.268200       11.6110           0   -2.11400   0.750000
      9956 HOAC     75       HOAC     DC2      DRUD    -3.568200        0.4000           0   0.00000   0.00000
      9957 HOAC     75       HOAC     H1       HDA3A    0.092000        1.0080           0   0.00000   0.00000
      9958 HOAC     75       HOAC     H2       HDA3A    0.092000        1.0080           0   0.00000   0.00000
      9959 HOAC     75       HOAC     H3       HDA3A    0.092000        1.0080           0   0.00000   0.00000
      9960 HOAC     75       HOAC     O1       OD2C3A   2.356500       15.5994           0   -0.922000   1.53900
      9961 HOAC     75       HOAC     DO1      DRUD    -2.356500        0.4000           0   0.00000   0.00000
      9962 HOAC     75       HOAC     O2       OD31F    2.776500       15.5990           0   -1.28000   1.12400
      9963 HOAC     75       HOAC     DO2      DRUD    -2.776500        0.4000           0   0.00000   0.00000
      9964 HOAC     75       HOAC     H        HDP1A    0.374000        1.0080           0   0.00000   0.00000
      9965 HOAC     75       HOAC     LPO11    LPD     -0.319000        0.0000           -1   0.00000   0.00000
      9966 HOAC     75       HOAC     LPO12    LPD     -0.319000        0.0000           -1   0.00000   0.00000
      9967 HOAC     75       HOAC     LPO21    LPD     -0.285000        0.0000           -1   0.00000   0.00000
      9968 HOAC     75       HOAC     LPO22    LPD     -0.285000        0.0000           -1   0.00000   0.00000
      9969 HOAC     76       HOAC     C1       CD2O3A   3.554200       11.6110           0   -1.20700   0.708000
      9970 HOAC     76       HOAC     DC1      DRUD    -2.696200        0.4000           0   0.00000   0.00000
      9971 HOAC     76       HOAC     C2       CD33C    3.268200       11.6110           0   -2.11400   0.750000
      9972 HOAC     76       HOAC     DC2      DRUD    -3.568200        0.4000           0   0.00000   0.00000
      9973 HOAC     76       HOAC     H1       HDA3A    0.092000        1.0080           0   0.00000   0.00000
      9974 HOAC     76       HOAC     H2       HDA3A    0.092000        1.0080           0   0.00000   0.00000
      9975 HOAC     76       HOAC     H3       HDA3A    0.092000        1.0080           0   0.00000   0.00000
      9976 HOAC     76       HOAC     O1       OD2C3A   2.356500       15.5994           0   -0.922000   1.53900
      9977 HOAC     76       HOAC     DO1      DRUD    -2.356500        0.4000           0   0.00000   0.00000
      9978 HOAC     76       HOAC     O2       OD31F    2.776500       15.5990           0   -1.28000   1.12400
      9979 HOAC     76       HOAC     DO2      DRUD    -2.776500        0.4000           0   0.00000   0.00000
      9980 HOAC     76       HOAC     H        HDP1A    0.374000        1.0080           0   0.00000   0.00000
      9981 HOAC     76       HOAC     LPO11    LPD     -0.319000        0.0000           -1   0.00000   0.00000
      9982 HOAC     76       HOAC     LPO12    LPD     -0.319000        0.0000           -1   0.00000   0.00000
      9983 HOAC     76       HOAC     LPO21    LPD     -0.285000        0.0000           -1   0.00000   0.00000
      9984 HOAC     76       HOAC     LPO22    LPD     -0.285000        0.0000           -1   0.00000   0.00000
      9985 HOAC     77       HOAC     C1       CD2O3A   3.554200       11.6110           0   -1.20700   0.708000
      9986 HOAC     77       HOAC     DC1      DRUD    -2.696200        0.4000           0   0.00000   0.00000
      9987 HOAC     77       HOAC     C2       CD33C    3.268200       11.6110           0   -2.11400   0.750000
      9988 HOAC     77       HOAC     DC2      DRUD    -3.568200        0.4000           0   0.00000   0.00000
      9989 HOAC     77       HOAC     H1       HDA3A    0.092000        1.0080           0   0.00000   0.00000
      9990 HOAC     77       HOAC     H2       HDA3A    0.092000        1.0080           0   0.00000   0.00000
      9991 HOAC     77       HOAC     H3       HDA3A    0.092000        1.0080           0   0.00000   0.00000
      9992 HOAC     77       HOAC     O1       OD2C3A   2.356500       15.5994           0   -0.922000   1.53900
      9993 HOAC     77       HOAC     DO1      DRUD    -2.356500        0.4000           0   0.00000   0.00000
      9994 HOAC     77       HOAC     O2       OD31F    2.776500       15.5990           0   -1.28000   1.12400
      9995 HOAC     77       HOAC     DO2      DRUD    -2.776500        0.4000           0   0.00000   0.00000
      9996 HOAC     77       HOAC     H        HDP1A    0.374000        1.0080           0   0.00000   0.00000
      9997 HOAC     77       HOAC     LPO11    LPD     -0.319000        0.0000           -1   0.00000   0.00000
      9998 HOAC     77       HOAC     LPO12    LPD     -0.319000        0.0000           -1   0.00000   0.00000
      9999 HOAC     77       HOAC     LPO21    LPD     -0.285000        0.0000           -1   0.00000   0.00000
     10000 HOAC     77       HOAC     LPO22    LPD     -0.285000        0.0000           -1   0.00000   0.00000
     10001 HOAC     78       HOAC     C1       CD2O3A   3.554200       11.6110           0   -1.20700   0.708000
     10002 HOAC     78       HOAC     DC1      DRUD    -2.696200        0.4000           0   0.00000   0.00000
     10003 HOAC     78       HOAC     C2       CD33C    3.268200       11.6110           0   -2.11400   0.750000
     10004 HOAC     78       HOAC     DC2      DRUD    -3.568200        0.4000           0   0.00000   0.00000
     10005 HOAC     78       HOAC     H1       HDA3A    0.092000        1.0080           0   0.00000   0.00000
     10006 HOAC     78       HOAC     H2       HDA3A    0.092000        1.0080           0   0.00000   0.00000
     10007 HOAC     78       HOAC     H3       HDA3A    0.092000        1.0080           0   0.00000   0.00000
     10008 HOAC     78       HOAC     O1       OD2C3A   2.356500       15.5994           0   -0.922000   1.53900
     10009 HOAC     78       HOAC     DO1      DRUD    -2.356500        0.4000           0   0.00000   0.00000
     10010 HOAC     78       HOAC     O2       OD31F    2.776500       15.5990           0   -1.28000   1.12400
     10011 HOAC     78       HOAC     DO2      DRUD    -2.776500        0.4000           0   0.00000   0.00000
     10012 HOAC     78       HOAC     H        HDP1A    0.374000        1.0080           0   0.00000   0.00000
     10013 HOAC     78       HOAC     LPO11    LPD     -0.319000        0.0000           -1   0.00000   0.00000
     10014 HOAC     78       HOAC     LPO12    LPD     -0.319000        0.0000           -1   0.00000   0.00000
     10015 HOAC     78       HOAC     LPO21    LPD     -0.285000        0.0000           -1   0.00000   0.00000
     10016 HOAC     78       HOAC     LPO22    LPD     -0.285000        0.0000           -1   0.00000   0.00000
     10017 HOAC     79       HOAC     C1       CD2O3A   3.554200       11.6110           0   -1.20700   0.708000
     10018 HOAC     79       HOAC     DC1      DRUD    -2.696200        0.4000           0   0.00000   0.00000
     10019 HOAC     79       HOAC     C2       CD33C    3.268200       11.6110           0   -2.11400   0.750000
     10020 HOAC     79       HOAC     DC2      DRUD    -3.568200        0.4000           0   0.00000   0.00000
     10021 HOAC     79       HOAC     H1       HDA3A    0.092000        1.0080           0   0.00000   0.00000
     10022 HOAC     79       HOAC     H2       HDA3A    0.092000        1.0080           0   0.00000   0.00000
     10023 HOAC     79       HOAC     H3       HDA3A    0.092000        1.0080           0   0.00000   0.00000
     10024 HOAC     79       HOAC     O1       OD2C3A   2.356500       15.5994           0   -0.922000   1.53900
     10025 HOAC     79       HOAC     DO1      DRUD    -2.356500        0.4000           0   0.00000   0.00000
     10026 HOAC     79       HOAC     O2       OD31F    2.776500       15.5990           0   -1.28000   1.12400
     10027 HOAC     79       HOAC     DO2      DRUD    -2.776500        0.4000           0   0.00000   0.00000
     10028 HOAC     79       HOAC     H        HDP1A    0.374000        1.0080           0   0.00000   0.00000
     10029 HOAC     79       HOAC     LPO11    LPD     -0.319000        0.0000           -1   0.00000   0.00000
     10030 HOAC     79       HOAC     LPO12    LPD     -0.319000        0.0000           -1   0.00000   0.00000
     10031 HOAC     79       HOAC     LPO21    LPD     -0.285000        0.0000           -1   0.00000   0.00000
     10032 HOAC     79       HOAC     LPO22    LPD     -0.285000        0.0000           -1   0.00000   0.00000
     10033 HOAC     80       HOAC     C1       CD2O3A   3.554200       11.6110           0   -1.20700   0.708000
     10034 HOAC     80       HOAC     DC1      DRUD    -2.696200        0.4000           0   0.00000   0.00000
     10035 HOAC     80       HOAC     C2       CD33C    3.268200       11.6110           0   -2.11400   0.750000
     10036 HOAC     80       HOAC     DC2      DRUD    -3.568200        0.4000           0   0.00000   0.00000
     10037 HOAC     80       HOAC     H1       HDA3A    0.092000        1.0080           0   0.00000   0.00000
     10038 HOAC     80       HOAC     H2       HDA3A    0.092000        1.0080           0   0.00000   0.00000
     10039 HOAC     80       HOAC     H3       HDA3A    0.092000        1.0080           0   0.00000   0.00000
     10040 HOAC     80       HOAC     O1       OD2C3A   2.356500       15.5994           0   -0.922000   1.53900
     10041 HOAC     80       HOAC     DO1      DRUD    -2.356500        0.4000           0   0.00000   0.00000
     10042 HOAC     80       HOAC     O2       OD31F    2.776500       15.5990           0   -1.28000   1.12400
     10043 HOAC     80       HOAC     DO2      DRUD    -2.776500        0.4000           0   0.00000   0.00000
     10044 HOAC     80       HOAC     H        HDP1A    0.374000        1.0080           0   0.00000   0.00000
     10045 HOAC     80       HOAC     LPO11    LPD     -0.319000        0.0000           -1   0.00000   0.00000
     10046 HOAC     80       HOAC     LPO12    LPD     -0.319000        0.0000           -1   0.00000   0.00000
     10047 HOAC     80       HOAC     LPO21    LPD     -0.285000        0.0000           -1   0.00000   0.00000
     10048 HOAC     80       HOAC     LPO22    LPD     -0.285000        0.0000           -1   0.00000   0.00000
     10049 HOAC     81       HOAC     C1       CD2O3A   3.554200       11.6110           0   -1.20700   0.708000
     10050 HOAC     81       HOAC     DC1      DRUD    -2.696200        0.4000           0   0.00000   0.00000
     10051 HOAC     81       HOAC     C2       CD33C    3.268200       11.6110           0   -2.11400   0.750000
     10052 HOAC     81       HOAC     DC2      DRUD    -3.568200        0.4000           0   0.00000   0.00000
     10053 HOAC     81       HOAC     H1       HDA3A    0.092000        1.0080           0   0.00000   0.00000
     10054 HOAC     81       HOAC     H2       HDA3A    0.092000        1.0080           0   0.00000   0.00000
     10055 HOAC     81       HOAC     H3       HDA3A    0.092000        1.0080           0   0.00000   0.00000
     10056 HOAC     81       HOAC     O1       OD2C3A   2.356500       15.5994           0   -0.922000   1.53900
     10057 HOAC     81       HOAC     DO1      DRUD    -2.356500        0.4000           0   0.00000   0.00000
     10058 HOAC     81       HOAC     O2       OD31F    2.776500       15.5990           0   -1.28000   1.12400
     10059 HOAC     81       HOAC     DO2      DRUD    -2.776500        0.4000           0   0.00000   0.00000
     10060 HOAC     81       HOAC     H        HDP1A    0.374000        1.0080           0   0.00000   0.00000
     10061 HOAC     81       HOAC     LPO11    LPD     -0.319000        0.0000           -1   0.00000   0.00000
     10062 HOAC     81       HOAC     LPO12    LPD     -0.319000        0.0000           -1   0.00000   0.00000
     10063 HOAC     81       HOAC     LPO21    LPD     -0.285000        0.0000           -1   0.00000   0.00000
     10064 HOAC     81       HOAC     LPO22    LPD     -0.285000        0.0000           -1   0.00000   0.00000
     10065 HOAC     82       HOAC     C1       CD2O3A   3.554200       11.6110           0   -1.20700   0.708000
     10066 HOAC     82       HOAC     DC1      DRUD    -2.696200        0.4000           0   0.00000   0.00000
     10067 HOAC     82       HOAC     C2       CD33C    3.268200       11.6110           0   -2.11400   0.750000
     10068 HOAC     82       HOAC     DC2      DRUD    -3.568200        0.4000           0   0.00000   0.00000
     10069 HOAC     82       HOAC     H1       HDA3A    0.092000        1.0080           0   0.00000   0.00000
     10070 HOAC     82       HOAC     H2       HDA3A    0.092000        1.0080           0   0.00000   0.00000
     10071 HOAC     82       HOAC     H3       HDA3A    0.092000        1.0080           0   0.00000   0.00000
     10072 HOAC     82       HOAC     O1       OD2C3A   2.356500       15.5994           0   -0.922000   1.53900
     10073 HOAC     82       HOAC     DO1      DRUD    -2.356500        0.4000           0   0.00000   0.00000
     10074 HOAC     82       HOAC     O2       OD31F    2.776500       15.5990           0   -1.28000   1.12400
     10075 HOAC     82       HOAC     DO2      DRUD    -2.776500        0.4000           0   0.00000   0.00000
     10076 HOAC     82       HOAC     H        HDP1A    0.374000        1.0080           0   0.00000   0.00000
     10077 HOAC     82       HOAC     LPO11    LPD     -0.319000        0.0000           -1   0.00000   0.00000
     10078 HOAC     82       HOAC     LPO12    LPD     -0.319000        0.0000           -1   0.00000   0.00000
     10079 HOAC     82       HOAC     LPO21    LPD     -0.285000        0.0000           -1   0.00000   0.00000
     10080 HOAC     82       HOAC     LPO22    LPD     -0.285000        0.0000           -1   0.00000   0.00000
     10081 HOAC     83       HOAC     C1       CD2O3A   3.554200       11.6110           0   -1.20700   0.708000
     10082 HOAC     83       HOAC     DC1      DRUD    -2.696200        0.4000           0   0.00000   0.00000
     10083 HOAC     83       HOAC     C2       CD33C    3.268200       11.6110           0   -2.11400   0.750000
     10084 HOAC     83       HOAC     DC2      DRUD    -3.568200        0.4000           0   0.00000   0.00000
     10085 HOAC     83       HOAC     H1       HDA3A    0.092000        1.0080           0   0.00000   0.00000
     10086 HOAC     83       HOAC     H2       HDA3A    0.092000        1.0080           0   0.00000   0.00000
     10087 HOAC     83       HOAC     H3       HDA3A    0.092000        1.0080           0   0.00000   0.00000
     10088 HOAC     83       HOAC     O1       OD2C3A   2.356500       15.5994           0   -0.922000   1.53900
     10089 HOAC     83       HOAC     DO1      DRUD    -2.356500        0.4000           0   0.00000   0.00000
     10090 HOAC     83       HOAC     O2       OD31F    2.776500       15.5990           0   -1.28000   1.12400
     10091 HOAC     83       HOAC     DO2      DRUD    -2.776500        0.4000           0   0.00000   0.00000
     10092 HOAC     83       HOAC     H        HDP1A    0.374000        1.0080           0   0.00000   0.00000
     10093 HOAC     83       HOAC     LPO11    LPD     -0.319000        0.0000           -1   0.00000   0.00000
     10094 HOAC     83       HOAC     LPO12    LPD     -0.319000        0.0000           -1   0.00000   0.00000
     10095 HOAC     83       HOAC     LPO21    LPD     -0.285000        0.0000           -1   0.00000   0.00000
     10096 HOAC     83       HOAC     LPO22    LPD     -0.285000        0.0000           -1   0.00000   0.00000
     10097 HOAC     84       HOAC     C1       CD2O3A   3.554200       11.6110           0   -1.20700   0.708000
     10098 HOAC     84       HOAC     DC1      DRUD    -2.696200        0.4000           0   0.00000   0.00000
     10099 HOAC     84       HOAC     C2       CD33C    3.268200       11.6110           0   -2.11400   0.750000
     10100 HOAC     84       HOAC     DC2      DRUD    -3.568200        0.4000           0   0.00000   0.00000
     10101 HOAC     84       HOAC     H1       HDA3A    0.092000        1.0080           0   0.00000   0.00000
     10102 HOAC     84       HOAC     H2       HDA3A    0.092000        1.0080           0   0.00000   0.00000
     10103 HOAC     84       HOAC     H3       HDA3A    0.092000        1.0080           0   0.00000   0.00000
     10104 HOAC     84       HOAC     O1       OD2C3A   2.356500       15.5994           0   -0.922000   1.53900
     10105 HOAC     84       HOAC     DO1      DRUD    -2.356500        0.4000           0   0.00000   0.00000
     10106 HOAC     84       HOAC     O2       OD31F    2.776500       15.5990           0   -1.28000   1.12400
     10107 HOAC     84       HOAC     DO2      DRUD    -2.776500        0.4000           0   0.00000   0.00000
     10108 HOAC     84       HOAC     H        HDP1A    0.374000        1.0080           0   0.00000   0.00000
     10109 HOAC     84       HOAC     LPO11    LPD     -0.319000        0.0000           -1   0.00000   0.00000
     10110 HOAC     84       HOAC     LPO12    LPD     -0.319000        0.0000           -1   0.00000   0.00000
     10111 HOAC     84       HOAC     LPO21    LPD     -0.285000        0.0000           -1   0.00000   0.00000
     10112 HOAC     84       HOAC     LPO22    LPD     -0.285000        0.0000           -1   0.00000   0.00000
     10113 HOAC     85       HOAC     C1       CD2O3A   3.554200       11.6110           0   -1.20700   0.708000
     10114 HOAC     85       HOAC     DC1      DRUD    -2.696200        0.4000           0   0.00000   0.00000
     10115 HOAC     85       HOAC     C2       CD33C    3.268200       11.6110           0   -2.11400   0.750000
     10116 HOAC     85       HOAC     DC2      DRUD    -3.568200        0.4000           0   0.00000   0.00000
     10117 HOAC     85       HOAC     H1       HDA3A    0.092000        1.0080           0   0.00000   0.00000
     10118 HOAC     85       HOAC     H2       HDA3A    0.092000        1.0080           0   0.00000   0.00000
     10119 HOAC     85       HOAC     H3       HDA3A    0.092000        1.0080           0   0.00000   0.00000
     10120 HOAC     85       HOAC     O1       OD2C3A   2.356500       15.5994           0   -0.922000   1.53900
     10121 HOAC     85       HOAC     DO1      DRUD    -2.356500        0.4000           0   0.00000   0.00000
     10122 HOAC     85       HOAC     O2       OD31F    2.776500       15.5990           0   -1.28000   1.12400
     10123 HOAC     85       HOAC     DO2      DRUD    -2.776500        0.4000           0   0.00000   0.00000
     10124 HOAC     85       HOAC     H        HDP1A    0.374000        1.0080           0   0.00000   0.00000
     10125 HOAC     85       HOAC     LPO11    LPD     -0.319000        0.0000           -1   0.00000   0.00000
     10126 HOAC     85       HOAC     LPO12    LPD     -0.319000        0.0000           -1   0.00000   0.00000
     10127 HOAC     85       HOAC     LPO21    LPD     -0.285000        0.0000           -1   0.00000   0.00000
     10128 HOAC     85       HOAC     LPO22    LPD     -0.285000        0.0000           -1   0.00000   0.00000
     10129 HOAC     86       HOAC     C1       CD2O3A   3.554200       11.6110           0   -1.20700   0.708000
     10130 HOAC     86       HOAC     DC1      DRUD    -2.696200        0.4000           0   0.00000   0.00000
     10131 HOAC     86       HOAC     C2       CD33C    3.268200       11.6110           0   -2.11400   0.750000
     10132 HOAC     86       HOAC     DC2      DRUD    -3.568200        0.4000           0   0.00000   0.00000
     10133 HOAC     86       HOAC     H1       HDA3A    0.092000        1.0080           0   0.00000   0.00000
     10134 HOAC     86       HOAC     H2       HDA3A    0.092000        1.0080           0   0.00000   0.00000
     10135 HOAC     86       HOAC     H3       HDA3A    0.092000        1.0080           0   0.00000   0.00000
     10136 HOAC     86       HOAC     O1       OD2C3A   2.356500       15.5994           0   -0.922000   1.53900
     10137 HOAC     86       HOAC     DO1      DRUD    -2.356500        0.4000           0   0.00000   0.00000
     10138 HOAC     86       HOAC     O2       OD31F    2.776500       15.5990           0   -1.28000   1.12400
     10139 HOAC     86       HOAC     DO2      DRUD    -2.776500        0.4000           0   0.00000   0.00000
     10140 HOAC     86       HOAC     H        HDP1A    0.374000        1.0080           0   0.00000   0.00000
     10141 HOAC     86       HOAC     LPO11    LPD     -0.319000        0.0000           -1   0.00000   0.00000
     10142 HOAC     86       HOAC     LPO12    LPD     -0.319000        0.0000           -1   0.00000   0.00000
     10143 HOAC     86       HOAC     LPO21    LPD     -0.285000        0.0000           -1   0.00000   0.00000
     10144 HOAC     86       HOAC     LPO22    LPD     -0.285000        0.0000           -1   0.00000   0.00000
     10145 HOAC     87       HOAC     C1       CD2O3A   3.554200       11.6110           0   -1.20700   0.708000
     10146 HOAC     87       HOAC     DC1      DRUD    -2.696200        0.4000           0   0.00000   0.00000
     10147 HOAC     87       HOAC     C2       CD33C    3.268200       11.6110           0   -2.11400   0.750000
     10148 HOAC     87       HOAC     DC2      DRUD    -3.568200        0.4000           0   0.00000   0.00000
     10149 HOAC     87       HOAC     H1       HDA3A    0.092000        1.0080           0   0.00000   0.00000
     10150 HOAC     87       HOAC     H2       HDA3A    0.092000        1.0080           0   0.00000   0.00000
     10151 HOAC     87       HOAC     H3       HDA3A    0.092000        1.0080           0   0.00000   0.00000
     10152 HOAC     87       HOAC     O1       OD2C3A   2.356500       15.5994           0   -0.922000   1.53900
     10153 HOAC     87       HOAC     DO1      DRUD    -2.356500        0.4000           0   0.00000   0.00000
     10154 HOAC     87       HOAC     O2       OD31F    2.776500       15.5990           0   -1.28000   1.12400
     10155 HOAC     87       HOAC     DO2      DRUD    -2.776500        0.4000           0   0.00000   0.00000
     10156 HOAC     87       HOAC     H        HDP1A    0.374000        1.0080           0   0.00000   0.00000
     10157 HOAC     87       HOAC     LPO11    LPD     -0.319000        0.0000           -1   0.00000   0.00000
     10158 HOAC     87       HOAC     LPO12    LPD     -0.319000        0.0000           -1   0.00000   0.00000
     10159 HOAC     87       HOAC     LPO21    LPD     -0.285000        0.0000           -1   0.00000   0.00000
     10160 HOAC     87       HOAC     LPO22    LPD     -0.285000        0.0000           -1   0.00000   0.00000
     10161 HOAC     88       HOAC     C1       CD2O3A   3.554200       11.6110           0   -1.20700   0.708000
     10162 HOAC     88       HOAC     DC1      DRUD    -2.696200        0.4000           0   0.00000   0.00000
     10163 HOAC     88       HOAC     C2       CD33C    3.268200       11.6110           0   -2.11400   0.750000
     10164 HOAC     88       HOAC     DC2      DRUD    -3.568200        0.4000           0   0.00000   0.00000
     10165 HOAC     88       HOAC     H1       HDA3A    0.092000        1.0080           0   0.00000   0.00000
     10166 HOAC     88       HOAC     H2       HDA3A    0.092000        1.0080           0   0.00000   0.00000
     10167 HOAC     88       HOAC     H3       HDA3A    0.092000        1.0080           0   0.00000   0.00000
     10168 HOAC     88       HOAC     O1       OD2C3A   2.356500       15.5994           0   -0.922000   1.53900
     10169 HOAC     88       HOAC     DO1      DRUD    -2.356500        0.4000           0   0.00000   0.00000
     10170 HOAC     88       HOAC     O2       OD31F    2.776500       15.5990           0   -1.28000   1.12400
     10171 HOAC     88       HOAC     DO2      DRUD    -2.776500        0.4000           0   0.00000   0.00000
     10172 HOAC     88       HOAC     H        HDP1A    0.374000        1.0080           0   0.00000   0.00000
     10173 HOAC     88       HOAC     LPO11    LPD     -0.319000        0.0000           -1   0.00000   0.00000
     10174 HOAC     88       HOAC     LPO12    LPD     -0.319000        0.0000           -1   0.00000   0.00000
     10175 HOAC     88       HOAC     LPO21    LPD     -0.285000        0.0000           -1   0.00000   0.00000
     10176 HOAC     88       HOAC     LPO22    LPD     -0.285000        0.0000           -1   0.00000   0.00000
     10177 HOAC     89       HOAC     C1       CD2O3A   3.554200       11.6110           0   -1.20700   0.708000
     10178 HOAC     89       HOAC     DC1      DRUD    -2.696200        0.4000           0   0.00000   0.00000
     10179 HOAC     89       HOAC     C2       CD33C    3.268200       11.6110           0   -2.11400   0.750000
     10180 HOAC     89       HOAC     DC2      DRUD    -3.568200        0.4000           0   0.00000   0.00000
     10181 HOAC     89       HOAC     H1       HDA3A    0.092000        1.0080           0   0.00000   0.00000
     10182 HOAC     89       HOAC     H2       HDA3A    0.092000        1.0080           0   0.00000   0.00000
     10183 HOAC     89       HOAC     H3       HDA3A    0.092000        1.0080           0   0.00000   0.00000
     10184 HOAC     89       HOAC     O1       OD2C3A   2.356500       15.5994           0   -0.922000   1.53900
     10185 HOAC     89       HOAC     DO1      DRUD    -2.356500        0.4000           0   0.00000   0.00000
     10186 HOAC     89       HOAC     O2       OD31F    2.776500       15.5990           0   -1.28000   1.12400
     10187 HOAC     89       HOAC     DO2      DRUD    -2.776500        0.4000           0   0.00000   0.00000
     10188 HOAC     89       HOAC     H        HDP1A    0.374000        1.0080           0   0.00000   0.00000
     10189 HOAC     89       HOAC     LPO11    LPD     -0.319000        0.0000           -1   0.00000   0.00000
     10190 HOAC     89       HOAC     LPO12    LPD     -0.319000        0.0000           -1   0.00000   0.00000
     10191 HOAC     89       HOAC     LPO21    LPD     -0.285000        0.0000           -1   0.00000   0.00000
     10192 HOAC     89       HOAC     LPO22    LPD     -0.285000        0.0000           -1   0.00000   0.00000
     10193 HOAC     90       HOAC     C1       CD2O3A   3.554200       11.6110           0   -1.20700   0.708000
     10194 HOAC     90       HOAC     DC1      DRUD    -2.696200        0.4000           0   0.00000   0.00000
     10195 HOAC     90       HOAC     C2       CD33C    3.268200       11.6110           0   -2.11400   0.750000
     10196 HOAC     90       HOAC     DC2      DRUD    -3.568200        0.4000           0   0.00000   0.00000
     10197 HOAC     90       HOAC     H1       HDA3A    0.092000        1.0080           0   0.00000   0.00000
     10198 HOAC     90       HOAC     H2       HDA3A    0.092000        1.0080           0   0.00000   0.00000
     10199 HOAC     90       HOAC     H3       HDA3A    0.092000        1.0080           0   0.00000   0.00000
     10200 HOAC     90       HOAC     O1       OD2C3A   2.356500       15.5994           0   -0.922000   1.53900
     10201 HOAC     90       HOAC     DO1      DRUD    -2.356500        0.4000           0   0.00000   0.00000
     10202 HOAC     90       HOAC     O2       OD31F    2.776500       15.5990           0   -1.28000   1.12400
     10203 HOAC     90       HOAC     DO2      DRUD    -2.776500        0.4000           0   0.00000   0.00000
     10204 HOAC     90       HOAC     H        HDP1A    0.374000        1.0080           0   0.00000   0.00000
     10205 HOAC     90       HOAC     LPO11    LPD     -0.319000        0.0000           -1   0.00000   0.00000
     10206 HOAC     90       HOAC     LPO12    LPD     -0.319000        0.0000           -1   0.00000   0.00000
     10207 HOAC     90       HOAC     LPO21    LPD     -0.285000        0.0000           -1   0.00000   0.00000
     10208 HOAC     90       HOAC     LPO22    LPD     -0.285000        0.0000           -1   0.00000   0.00000
     10209 HOAC     91       HOAC     C1       CD2O3A   3.554200       11.6110           0   -1.20700   0.708000
     10210 HOAC     91       HOAC     DC1      DRUD    -2.696200        0.4000           0   0.00000   0.00000
     10211 HOAC     91       HOAC     C2       CD33C    3.268200       11.6110           0   -2.11400   0.750000
     10212 HOAC     91       HOAC     DC2      DRUD    -3.568200        0.4000           0   0.00000   0.00000
     10213 HOAC     91       HOAC     H1       HDA3A    0.092000        1.0080           0   0.00000   0.00000
     10214 HOAC     91       HOAC     H2       HDA3A    0.092000        1.0080           0   0.00000   0.00000
     10215 HOAC     91       HOAC     H3       HDA3A    0.092000        1.0080           0   0.00000   0.00000
     10216 HOAC     91       HOAC     O1       OD2C3A   2.356500       15.5994           0   -0.922000   1.53900
     10217 HOAC     91       HOAC     DO1      DRUD    -2.356500        0.4000           0   0.00000   0.00000
     10218 HOAC     91       HOAC     O2       OD31F    2.776500       15.5990           0   -1.28000   1.12400
     10219 HOAC     91       HOAC     DO2      DRUD    -2.776500        0.4000           0   0.00000   0.00000
     10220 HOAC     91       HOAC     H        HDP1A    0.374000        1.0080           0   0.00000   0.00000
     10221 HOAC     91       HOAC     LPO11    LPD     -0.319000        0.0000           -1   0.00000   0.00000
     10222 HOAC     91       HOAC     LPO12    LPD     -0.319000        0.0000           -1   0.00000   0.00000
     10223 HOAC     91       HOAC     LPO21    LPD     -0.285000        0.0000           -1   0.00000   0.00000
     10224 HOAC     91       HOAC     LPO22    LPD     -0.285000        0.0000           -1   0.00000   0.00000
     10225 HOAC     92       HOAC     C1       CD2O3A   3.554200       11.6110           0   -1.20700   0.708000
     10226 HOAC     92       HOAC     DC1      DRUD    -2.696200        0.4000           0   0.00000   0.00000
     10227 HOAC     92       HOAC     C2       CD33C    3.268200       11.6110           0   -2.11400   0.750000
     10228 HOAC     92       HOAC     DC2      DRUD    -3.568200        0.4000           0   0.00000   0.00000
     10229 HOAC     92       HOAC     H1       HDA3A    0.092000        1.0080           0   0.00000   0.00000
     10230 HOAC     92       HOAC     H2       HDA3A    0.092000        1.0080           0   0.00000   0.00000
     10231 HOAC     92       HOAC     H3       HDA3A    0.092000        1.0080           0   0.00000   0.00000
     10232 HOAC     92       HOAC     O1       OD2C3A   2.356500       15.5994           0   -0.922000   1.53900
     10233 HOAC     92       HOAC     DO1      DRUD    -2.356500        0.4000           0   0.00000   0.00000
     10234 HOAC     92       HOAC     O2       OD31F    2.776500       15.5990           0   -1.28000   1.12400
     10235 HOAC     92       HOAC     DO2      DRUD    -2.776500        0.4000           0   0.00000   0.00000
     10236 HOAC     92       HOAC     H        HDP1A    0.374000        1.0080           0   0.00000   0.00000
     10237 HOAC     92       HOAC     LPO11    LPD     -0.319000        0.0000           -1   0.00000   0.00000
     10238 HOAC     92       HOAC     LPO12    LPD     -0.319000        0.0000           -1   0.00000   0.00000
     10239 HOAC     92       HOAC     LPO21    LPD     -0.285000        0.0000           -1   0.00000   0.00000
     10240 HOAC     92       HOAC     LPO22    LPD     -0.285000        0.0000           -1   0.00000   0.00000
     10241 HOAC     93       HOAC     C1       CD2O3A   3.554200       11.6110           0   -1.20700   0.708000
     10242 HOAC     93       HOAC     DC1      DRUD    -2.696200        0.4000           0   0.00000   0.00000
     10243 HOAC     93       HOAC     C2       CD33C    3.268200       11.6110           0   -2.11400   0.750000
     10244 HOAC     93       HOAC     DC2      DRUD    -3.568200        0.4000           0   0.00000   0.00000
     10245 HOAC     93       HOAC     H1       HDA3A    0.092000        1.0080           0   0.00000   0.00000
     10246 HOAC     93       HOAC     H2       HDA3A    0.092000        1.0080           0   0.00000   0.00000
     10247 HOAC     93       HOAC     H3       HDA3A    0.092000        1.0080           0   0.00000   0.00000
     10248 HOAC     93       HOAC     O1       OD2C3A   2.356500       15.5994           0   -0.922000   1.53900
     10249 HOAC     93       HOAC     DO1      DRUD    -2.356500        0.4000           0   0.00000   0.00000
     10250 HOAC     93       HOAC     O2       OD31F    2.776500       15.5990           0   -1.28000   1.12400
     10251 HOAC     93       HOAC     DO2      DRUD    -2.776500        0.4000           0   0.00000   0.00000
     10252 HOAC     93       HOAC     H        HDP1A    0.374000        1.0080           0   0.00000   0.00000
     10253 HOAC     93       HOAC     LPO11    LPD     -0.319000        0.0000           -1   0.00000   0.00000
     10254 HOAC     93       HOAC     LPO12    LPD     -0.319000        0.0000           -1   0.00000   0.00000
     10255 HOAC     93       HOAC     LPO21    LPD     -0.285000        0.0000           -1   0.00000   0.00000
     10256 HOAC     93       HOAC     LPO22    LPD     -0.285000        0.0000           -1   0.00000   0.00000
     10257 HOAC     94       HOAC     C1       CD2O3A   3.554200       11.6110           0   -1.20700   0.708000
     10258 HOAC     94       HOAC     DC1      DRUD    -2.696200        0.4000           0   0.00000   0.00000
     10259 HOAC     94       HOAC     C2       CD33C    3.268200       11.6110           0   -2.11400   0.750000
     10260 HOAC     94       HOAC     DC2      DRUD    -3.568200        0.4000           0   0.00000   0.00000
     10261 HOAC     94       HOAC     H1       HDA3A    0.092000        1.0080           0   0.00000   0.00000
     10262 HOAC     94       HOAC     H2       HDA3A    0.092000        1.0080           0   0.00000   0.00000
     10263 HOAC     94       HOAC     H3       HDA3A    0.092000        1.0080           0   0.00000   0.00000
     10264 HOAC     94       HOAC     O1       OD2C3A   2.356500       15.5994           0   -0.922000   1.53900
     10265 HOAC     94       HOAC     DO1      DRUD    -2.356500        0.4000           0   0.00000   0.00000
     10266 HOAC     94       HOAC     O2       OD31F    2.776500       15.5990           0   -1.28000   1.12400
     10267 HOAC     94       HOAC     DO2      DRUD    -2.776500        0.4000           0   0.00000   0.00000
     10268 HOAC     94       HOAC     H        HDP1A    0.374000        1.0080           0   0.00000   0.00000
     10269 HOAC     94       HOAC     LPO11    LPD     -0.319000        0.0000           -1   0.00000   0.00000
     10270 HOAC     94       HOAC     LPO12    LPD     -0.319000        0.0000           -1   0.00000   0.00000
     10271 HOAC     94       HOAC     LPO21    LPD     -0.285000        0.0000           -1   0.00000   0.00000
     10272 HOAC     94       HOAC     LPO22    LPD     -0.285000        0.0000           -1   0.00000   0.00000
     10273 HOAC     95       HOAC     C1       CD2O3A   3.554200       11.6110           0   -1.20700   0.708000
     10274 HOAC     95       HOAC     DC1      DRUD    -2.696200        0.4000           0   0.00000   0.00000
     10275 HOAC     95       HOAC     C2       CD33C    3.268200       11.6110           0   -2.11400   0.750000
     10276 HOAC     95       HOAC     DC2      DRUD    -3.568200        0.4000           0   0.00000   0.00000
     10277 HOAC     95       HOAC     H1       HDA3A    0.092000        1.0080           0   0.00000   0.00000
     10278 HOAC     95       HOAC     H2       HDA3A    0.092000        1.0080           0   0.00000   0.00000
     10279 HOAC     95       HOAC     H3       HDA3A    0.092000        1.0080           0   0.00000   0.00000
     10280 HOAC     95       HOAC     O1       OD2C3A   2.356500       15.5994           0   -0.922000   1.53900
     10281 HOAC     95       HOAC     DO1      DRUD    -2.356500        0.4000           0   0.00000   0.00000
     10282 HOAC     95       HOAC     O2       OD31F    2.776500       15.5990           0   -1.28000   1.12400
     10283 HOAC     95       HOAC     DO2      DRUD    -2.776500        0.4000           0   0.00000   0.00000
     10284 HOAC     95       HOAC     H        HDP1A    0.374000        1.0080           0   0.00000   0.00000
     10285 HOAC     95       HOAC     LPO11    LPD     -0.319000        0.0000           -1   0.00000   0.00000
     10286 HOAC     95       HOAC     LPO12    LPD     -0.319000        0.0000           -1   0.00000   0.00000
     10287 HOAC     95       HOAC     LPO21    LPD     -0.285000        0.0000           -1   0.00000   0.00000
     10288 HOAC     95       HOAC     LPO22    LPD     -0.285000        0.0000           -1   0.00000   0.00000
     10289 HOAC     96       HOAC     C1       CD2O3A   3.554200       11.6110           0   -1.20700   0.708000
     10290 HOAC     96       HOAC     DC1      DRUD    -2.696200        0.4000           0   0.00000   0.00000
     10291 HOAC     96       HOAC     C2       CD33C    3.268200       11.6110           0   -2.11400   0.750000
     10292 HOAC     96       HOAC     DC2      DRUD    -3.568200        0.4000           0   0.00000   0.00000
     10293 HOAC     96       HOAC     H1       HDA3A    0.092000        1.0080           0   0.00000   0.00000
     10294 HOAC     96       HOAC     H2       HDA3A    0.092000        1.0080           0   0.00000   0.00000
     10295 HOAC     96       HOAC     H3       HDA3A    0.092000        1.0080           0   0.00000   0.00000
     10296 HOAC     96       HOAC     O1       OD2C3A   2.356500       15.5994           0   -0.922000   1.53900
     10297 HOAC     96       HOAC     DO1      DRUD    -2.356500        0.4000           0   0.00000   0.00000
     10298 HOAC     96       HOAC     O2       OD31F    2.776500       15.5990           0   -1.28000   1.12400
     10299 HOAC     96       HOAC     DO2      DRUD    -2.776500        0.4000           0   0.00000   0.00000
     10300 HOAC     96       HOAC     H        HDP1A    0.374000        1.0080           0   0.00000   0.00000
     10301 HOAC     96       HOAC     LPO11    LPD     -0.319000        0.0000           -1   0.00000   0.00000
     10302 HOAC     96       HOAC     LPO12    LPD     -0.319000        0.0000           -1   0.00000   0.00000
     10303 HOAC     96       HOAC     LPO21    LPD     -0.285000        0.0000           -1   0.00000   0.00000
     10304 HOAC     96       HOAC     LPO22    LPD     -0.285000        0.0000           -1   0.00000   0.00000
     10305 HOAC     97       HOAC     C1       CD2O3A   3.554200       11.6110           0   -1.20700   0.708000
     10306 HOAC     97       HOAC     DC1      DRUD    -2.696200        0.4000           0   0.00000   0.00000
     10307 HOAC     97       HOAC     C2       CD33C    3.268200       11.6110           0   -2.11400   0.750000
     10308 HOAC     97       HOAC     DC2      DRUD    -3.568200        0.4000           0   0.00000   0.00000
     10309 HOAC     97       HOAC     H1       HDA3A    0.092000        1.0080           0   0.00000   0.00000
     10310 HOAC     97       HOAC     H2       HDA3A    0.092000        1.0080           0   0.00000   0.00000
     10311 HOAC     97       HOAC     H3       HDA3A    0.092000        1.0080           0   0.00000   0.00000
     10312 HOAC     97       HOAC     O1       OD2C3A   2.356500       15.5994           0   -0.922000   1.53900
     10313 HOAC     97       HOAC     DO1      DRUD    -2.356500        0.4000           0   0.00000   0.00000
     10314 HOAC     97       HOAC     O2       OD31F    2.776500       15.5990           0   -1.28000   1.12400
     10315 HOAC     97       HOAC     DO2      DRUD    -2.776500        0.4000           0   0.00000   0.00000
     10316 HOAC     97       HOAC     H        HDP1A    0.374000        1.0080           0   0.00000   0.00000
     10317 HOAC     97       HOAC     LPO11    LPD     -0.319000        0.0000           -1   0.00000   0.00000
     10318 HOAC     97       HOAC     LPO12    LPD     -0.319000        0.0000           -1   0.00000   0.00000
     10319 HOAC     97       HOAC     LPO21    LPD     -0.285000        0.0000           -1   0.00000   0.00000
     10320 HOAC     97       HOAC     LPO22    LPD     -0.285000        0.0000           -1   0.00000   0.00000
     10321 HOAC     98       HOAC     C1       CD2O3A   3.554200       11.6110           0   -1.20700   0.708000
     10322 HOAC     98       HOAC     DC1      DRUD    -2.696200        0.4000           0   0.00000   0.00000
     10323 HOAC     98       HOAC     C2       CD33C    3.268200       11.6110           0   -2.11400   0.750000
     10324 HOAC     98       HOAC     DC2      DRUD    -3.568200        0.4000           0   0.00000   0.00000
     10325 HOAC     98       HOAC     H1       HDA3A    0.092000        1.0080           0   0.00000   0.00000
     10326 HOAC     98       HOAC     H2       HDA3A    0.092000        1.0080           0   0.00000   0.00000
     10327 HOAC     98       HOAC     H3       HDA3A    0.092000        1.0080           0   0.00000   0.00000
     10328 HOAC     98       HOAC     O1       OD2C3A   2.356500       15.5994           0   -0.922000   1.53900
     10329 HOAC     98       HOAC     DO1      DRUD    -2.356500        0.4000           0   0.00000   0.00000
     10330 HOAC     98       HOAC     O2       OD31F    2.776500       15.5990           0   -1.28000   1.12400
     10331 HOAC     98       HOAC     DO2      DRUD    -2.776500        0.4000           0   0.00000   0.00000
     10332 HOAC     98       HOAC     H        HDP1A    0.374000        1.0080           0   0.00000   0.00000
     10333 HOAC     98       HOAC     LPO11    LPD     -0.319000        0.0000           -1   0.00000   0.00000
     10334 HOAC     98       HOAC     LPO12    LPD     -0.319000        0.0000           -1   0.00000   0.00000
     10335 HOAC     98       HOAC     LPO21    LPD     -0.285000        0.0000           -1   0.00000   0.00000
     10336 HOAC     98       HOAC     LPO22    LPD     -0.285000        0.0000           -1   0.00000   0.00000
     10337 HOAC     99       HOAC     C1       CD2O3A   3.554200       11.6110           0   -1.20700   0.708000
     10338 HOAC     99       HOAC     DC1      DRUD    -2.696200        0.4000           0   0.00000   0.00000
     10339 HOAC     99       HOAC     C2       CD33C    3.268200       11.6110           0   -2.11400   0.750000
     10340 HOAC     99       HOAC     DC2      DRUD    -3.568200        0.4000           0   0.00000   0.00000
     10341 HOAC     99       HOAC     H1       HDA3A    0.092000        1.0080           0   0.00000   0.00000
     10342 HOAC     99       HOAC     H2       HDA3A    0.092000        1.0080           0   0.00000   0.00000
     10343 HOAC     99       HOAC     H3       HDA3A    0.092000        1.0080           0   0.00000   0.00000
     10344 HOAC     99       HOAC     O1       OD2C3A   2.356500       15.5994           0   -0.922000   1.53900
     10345 HOAC     99       HOAC     DO1      DRUD    -2.356500        0.4000           0   0.00000   0.00000
     10346 HOAC     99       HOAC     O2       OD31F    2.776500       15.5990           0   -1.28000   1.12400
     10347 HOAC     99       HOAC     DO2      DRUD    -2.776500        0.4000           0   0.00000   0.00000
     10348 HOAC     99       HOAC     H        HDP1A    0.374000        1.0080           0   0.00000   0.00000
     10349 HOAC     99       HOAC     LPO11    LPD     -0.319000        0.0000           -1   0.00000   0.00000
     10350 HOAC     99       HOAC     LPO12    LPD     -0.319000        0.0000           -1   0.00000   0.00000
     10351 HOAC     99       HOAC     LPO21    LPD     -0.285000        0.0000           -1   0.00000   0.00000
     10352 HOAC     99       HOAC     LPO22    LPD     -0.285000        0.0000           -1   0.00000   0.00000
     10353 HOAC     100      HOAC     C1       CD2O3A   3.554200       11.6110           0   -1.20700   0.708000
     10354 HOAC     100      HOAC     DC1      DRUD    -2.696200        0.4000           0   0.00000   0.00000
     10355 HOAC     100      HOAC     C2       CD33C    3.268200       11.6110           0   -2.11400   0.750000
     10356 HOAC     100      HOAC     DC2      DRUD    -3.568200        0.4000           0   0.00000   0.00000
     10357 HOAC     100      HOAC     H1       HDA3A    0.092000        1.0080           0   0.00000   0.00000
     10358 HOAC     100      HOAC     H2       HDA3A    0.092000        1.0080           0   0.00000   0.00000
     10359 HOAC     100      HOAC     H3       HDA3A    0.092000        1.0080           0   0.00000   0.00000
     10360 HOAC     100      HOAC     O1       OD2C3A   2.356500       15.5994           0   -0.922000   1.53900
     10361 HOAC     100      HOAC     DO1      DRUD    -2.356500        0.4000           0   0.00000   0.00000
     10362 HOAC     100      HOAC     O2       OD31F    2.776500       15.5990           0   -1.28000   1.12400
     10363 HOAC     100      HOAC     DO2      DRUD    -2.776500        0.4000           0   0.00000   0.00000
     10364 HOAC     100      HOAC     H        HDP1A    0.374000        1.0080           0   0.00000   0.00000
     10365 HOAC     100      HOAC     LPO11    LPD     -0.319000        0.0000           -1   0.00000   0.00000
     10366 HOAC     100      HOAC     LPO12    LPD     -0.319000        0.0000           -1   0.00000   0.00000
     10367 HOAC     100      HOAC     LPO21    LPD     -0.285000        0.0000           -1   0.00000   0.00000
     10368 HOAC     100      HOAC     LPO22    LPD     -0.285000        0.0000           -1   0.00000   0.00000
     10369 HOAC     101      HOAC     C1       CD2O3A   3.554200       11.6110           0   -1.20700   0.708000
     10370 HOAC     101      HOAC     DC1      DRUD    -2.696200        0.4000           0   0.00000   0.00000
     10371 HOAC     101      HOAC     C2       CD33C    3.268200       11.6110           0   -2.11400   0.750000
     10372 HOAC     101      HOAC     DC2      DRUD    -3.568200        0.4000           0   0.00000   0.00000
     10373 HOAC     101      HOAC     H1       HDA3A    0.092000        1.0080           0   0.00000   0.00000
     10374 HOAC     101      HOAC     H2       HDA3A    0.092000        1.0080           0   0.00000   0.00000
     10375 HOAC     101      HOAC     H3       HDA3A    0.092000        1.0080           0   0.00000   0.00000
     10376 HOAC     101      HOAC     O1       OD2C3A   2.356500       15.5994           0   -0.922000   1.53900
     10377 HOAC     101      HOAC     DO1      DRUD    -2.356500        0.4000           0   0.00000   0.00000
     10378 HOAC     101      HOAC     O2       OD31F    2.776500       15.5990           0   -1.28000   1.12400
     10379 HOAC     101      HOAC     DO2      DRUD    -2.776500        0.4000           0   0.00000   0.00000
     10380 HOAC     101      HOAC     H        HDP1A    0.374000        1.0080           0   0.00000   0.00000
     10381 HOAC     101      HOAC     LPO11    LPD     -0.319000        0.0000           -1   0.00000   0.00000
     10382 HOAC     101      HOAC     LPO12    LPD     -0.319000        0.0000           -1   0.00000   0.00000
     10383 HOAC     101      HOAC     LPO21    LPD     -0.285000        0.0000           -1   0.00000   0.00000
     10384 HOAC     101      HOAC     LPO22    LPD     -0.285000        0.0000           -1   0.00000   0.00000
     10385 HOAC     102      HOAC     C1       CD2O3A   3.554200       11.6110           0   -1.20700   0.708000
     10386 HOAC     102      HOAC     DC1      DRUD    -2.696200        0.4000           0   0.00000   0.00000
     10387 HOAC     102      HOAC     C2       CD33C    3.268200       11.6110           0   -2.11400   0.750000
     10388 HOAC     102      HOAC     DC2      DRUD    -3.568200        0.4000           0   0.00000   0.00000
     10389 HOAC     102      HOAC     H1       HDA3A    0.092000        1.0080           0   0.00000   0.00000
     10390 HOAC     102      HOAC     H2       HDA3A    0.092000        1.0080           0   0.00000   0.00000
     10391 HOAC     102      HOAC     H3       HDA3A    0.092000        1.0080           0   0.00000   0.00000
     10392 HOAC     102      HOAC     O1       OD2C3A   2.356500       15.5994           0   -0.922000   1.53900
     10393 HOAC     102      HOAC     DO1      DRUD    -2.356500        0.4000           0   0.00000   0.00000
     10394 HOAC     102      HOAC     O2       OD31F    2.776500       15.5990           0   -1.28000   1.12400
     10395 HOAC     102      HOAC     DO2      DRUD    -2.776500        0.4000           0   0.00000   0.00000
     10396 HOAC     102      HOAC     H        HDP1A    0.374000        1.0080           0   0.00000   0.00000
     10397 HOAC     102      HOAC     LPO11    LPD     -0.319000        0.0000           -1   0.00000   0.00000
     10398 HOAC     102      HOAC     LPO12    LPD     -0.319000        0.0000           -1   0.00000   0.00000
     10399 HOAC     102      HOAC     LPO21    LPD     -0.285000        0.0000           -1   0.00000   0.00000
     10400 HOAC     102      HOAC     LPO22    LPD     -0.285000        0.0000           -1   0.00000   0.00000
     10401 HOAC     103      HOAC     C1       CD2O3A   3.554200       11.6110           0   -1.20700   0.708000
     10402 HOAC     103      HOAC     DC1      DRUD    -2.696200        0.4000           0   0.00000   0.00000
     10403 HOAC     103      HOAC     C2       CD33C    3.268200       11.6110           0   -2.11400   0.750000
     10404 HOAC     103      HOAC     DC2      DRUD    -3.568200        0.4000           0   0.00000   0.00000
     10405 HOAC     103      HOAC     H1       HDA3A    0.092000        1.0080           0   0.00000   0.00000
     10406 HOAC     103      HOAC     H2       HDA3A    0.092000        1.0080           0   0.00000   0.00000
     10407 HOAC     103      HOAC     H3       HDA3A    0.092000        1.0080           0   0.00000   0.00000
     10408 HOAC     103      HOAC     O1       OD2C3A   2.356500       15.5994           0   -0.922000   1.53900
     10409 HOAC     103      HOAC     DO1      DRUD    -2.356500        0.4000           0   0.00000   0.00000
     10410 HOAC     103      HOAC     O2       OD31F    2.776500       15.5990           0   -1.28000   1.12400
     10411 HOAC     103      HOAC     DO2      DRUD    -2.776500        0.4000           0   0.00000   0.00000
     10412 HOAC     103      HOAC     H        HDP1A    0.374000        1.0080           0   0.00000   0.00000
     10413 HOAC     103      HOAC     LPO11    LPD     -0.319000        0.0000           -1   0.00000   0.00000
     10414 HOAC     103      HOAC     LPO12    LPD     -0.319000        0.0000           -1   0.00000   0.00000
     10415 HOAC     103      HOAC     LPO21    LPD     -0.285000        0.0000           -1   0.00000   0.00000
     10416 HOAC     103      HOAC     LPO22    LPD     -0.285000        0.0000           -1   0.00000   0.00000
     10417 HOAC     104      HOAC     C1       CD2O3A   3.554200       11.6110           0   -1.20700   0.708000
     10418 HOAC     104      HOAC     DC1      DRUD    -2.696200        0.4000           0   0.00000   0.00000
     10419 HOAC     104      HOAC     C2       CD33C    3.268200       11.6110           0   -2.11400   0.750000
     10420 HOAC     104      HOAC     DC2      DRUD    -3.568200        0.4000           0   0.00000   0.00000
     10421 HOAC     104      HOAC     H1       HDA3A    0.092000        1.0080           0   0.00000   0.00000
     10422 HOAC     104      HOAC     H2       HDA3A    0.092000        1.0080           0   0.00000   0.00000
     10423 HOAC     104      HOAC     H3       HDA3A    0.092000        1.0080           0   0.00000   0.00000
     10424 HOAC     104      HOAC     O1       OD2C3A   2.356500       15.5994           0   -0.922000   1.53900
     10425 HOAC     104      HOAC     DO1      DRUD    -2.356500        0.4000           0   0.00000   0.00000
     10426 HOAC     104      HOAC     O2       OD31F    2.776500       15.5990           0   -1.28000   1.12400
     10427 HOAC     104      HOAC     DO2      DRUD    -2.776500        0.4000           0   0.00000   0.00000
     10428 HOAC     104      HOAC     H        HDP1A    0.374000        1.0080           0   0.00000   0.00000
     10429 HOAC     104      HOAC     LPO11    LPD     -0.319000        0.0000           -1   0.00000   0.00000
     10430 HOAC     104      HOAC     LPO12    LPD     -0.319000        0.0000           -1   0.00000   0.00000
     10431 HOAC     104      HOAC     LPO21    LPD     -0.285000        0.0000           -1   0.00000   0.00000
     10432 HOAC     104      HOAC     LPO22    LPD     -0.285000        0.0000           -1   0.00000   0.00000
     10433 HOAC     105      HOAC     C1       CD2O3A   3.554200       11.6110           0   -1.20700   0.708000
     10434 HOAC     105      HOAC     DC1      DRUD    -2.696200        0.4000           0   0.00000   0.00000
     10435 HOAC     105      HOAC     C2       CD33C    3.268200       11.6110           0   -2.11400   0.750000
     10436 HOAC     105      HOAC     DC2      DRUD    -3.568200        0.4000           0   0.00000   0.00000
     10437 HOAC     105      HOAC     H1       HDA3A    0.092000        1.0080           0   0.00000   0.00000
     10438 HOAC     105      HOAC     H2       HDA3A    0.092000        1.0080           0   0.00000   0.00000
     10439 HOAC     105      HOAC     H3       HDA3A    0.092000        1.0080           0   0.00000   0.00000
     10440 HOAC     105      HOAC     O1       OD2C3A   2.356500       15.5994           0   -0.922000   1.53900
     10441 HOAC     105      HOAC     DO1      DRUD    -2.356500        0.4000           0   0.00000   0.00000
     10442 HOAC     105      HOAC     O2       OD31F    2.776500       15.5990           0   -1.28000   1.12400
     10443 HOAC     105      HOAC     DO2      DRUD    -2.776500        0.4000           0   0.00000   0.00000
     10444 HOAC     105      HOAC     H        HDP1A    0.374000        1.0080           0   0.00000   0.00000
     10445 HOAC     105      HOAC     LPO11    LPD     -0.319000        0.0000           -1   0.00000   0.00000
     10446 HOAC     105      HOAC     LPO12    LPD     -0.319000        0.0000           -1   0.00000   0.00000
     10447 HOAC     105      HOAC     LPO21    LPD     -0.285000        0.0000           -1   0.00000   0.00000
     10448 HOAC     105      HOAC     LPO22    LPD     -0.285000        0.0000           -1   0.00000   0.00000
     10449 HOAC     106      HOAC     C1       CD2O3A   3.554200       11.6110           0   -1.20700   0.708000
     10450 HOAC     106      HOAC     DC1      DRUD    -2.696200        0.4000           0   0.00000   0.00000
     10451 HOAC     106      HOAC     C2       CD33C    3.268200       11.6110           0   -2.11400   0.750000
     10452 HOAC     106      HOAC     DC2      DRUD    -3.568200        0.4000           0   0.00000   0.00000
     10453 HOAC     106      HOAC     H1       HDA3A    0.092000        1.0080           0   0.00000   0.00000
     10454 HOAC     106      HOAC     H2       HDA3A    0.092000        1.0080           0   0.00000   0.00000
     10455 HOAC     106      HOAC     H3       HDA3A    0.092000        1.0080           0   0.00000   0.00000
     10456 HOAC     106      HOAC     O1       OD2C3A   2.356500       15.5994           0   -0.922000   1.53900
     10457 HOAC     106      HOAC     DO1      DRUD    -2.356500        0.4000           0   0.00000   0.00000
     10458 HOAC     106      HOAC     O2       OD31F    2.776500       15.5990           0   -1.28000   1.12400
     10459 HOAC     106      HOAC     DO2      DRUD    -2.776500        0.4000           0   0.00000   0.00000
     10460 HOAC     106      HOAC     H        HDP1A    0.374000        1.0080           0   0.00000   0.00000
     10461 HOAC     106      HOAC     LPO11    LPD     -0.319000        0.0000           -1   0.00000   0.00000
     10462 HOAC     106      HOAC     LPO12    LPD     -0.319000        0.0000           -1   0.00000   0.00000
     10463 HOAC     106      HOAC     LPO21    LPD     -0.285000        0.0000           -1   0.00000   0.00000
     10464 HOAC     106      HOAC     LPO22    LPD     -0.285000        0.0000           -1   0.00000   0.00000
     10465 HOAC     107      HOAC     C1       CD2O3A   3.554200       11.6110           0   -1.20700   0.708000
     10466 HOAC     107      HOAC     DC1      DRUD    -2.696200        0.4000           0   0.00000   0.00000
     10467 HOAC     107      HOAC     C2       CD33C    3.268200       11.6110           0   -2.11400   0.750000
     10468 HOAC     107      HOAC     DC2      DRUD    -3.568200        0.4000           0   0.00000   0.00000
     10469 HOAC     107      HOAC     H1       HDA3A    0.092000        1.0080           0   0.00000   0.00000
     10470 HOAC     107      HOAC     H2       HDA3A    0.092000        1.0080           0   0.00000   0.00000
     10471 HOAC     107      HOAC     H3       HDA3A    0.092000        1.0080           0   0.00000   0.00000
     10472 HOAC     107      HOAC     O1       OD2C3A   2.356500       15.5994           0   -0.922000   1.53900
     10473 HOAC     107      HOAC     DO1      DRUD    -2.356500        0.4000           0   0.00000   0.00000
     10474 HOAC     107      HOAC     O2       OD31F    2.776500       15.5990           0   -1.28000   1.12400
     10475 HOAC     107      HOAC     DO2      DRUD    -2.776500        0.4000           0   0.00000   0.00000
     10476 HOAC     107      HOAC     H        HDP1A    0.374000        1.0080           0   0.00000   0.00000
     10477 HOAC     107      HOAC     LPO11    LPD     -0.319000        0.0000           -1   0.00000   0.00000
     10478 HOAC     107      HOAC     LPO12    LPD     -0.319000        0.0000           -1   0.00000   0.00000
     10479 HOAC     107      HOAC     LPO21    LPD     -0.285000        0.0000           -1   0.00000   0.00000
     10480 HOAC     107      HOAC     LPO22    LPD     -0.285000        0.0000           -1   0.00000   0.00000
     10481 HOAC     108      HOAC     C1       CD2O3A   3.554200       11.6110           0   -1.20700   0.708000
     10482 HOAC     108      HOAC     DC1      DRUD    -2.696200        0.4000           0   0.00000   0.00000
     10483 HOAC     108      HOAC     C2       CD33C    3.268200       11.6110           0   -2.11400   0.750000
     10484 HOAC     108      HOAC     DC2      DRUD    -3.568200        0.4000           0   0.00000   0.00000
     10485 HOAC     108      HOAC     H1       HDA3A    0.092000        1.0080           0   0.00000   0.00000
     10486 HOAC     108      HOAC     H2       HDA3A    0.092000        1.0080           0   0.00000   0.00000
     10487 HOAC     108      HOAC     H3       HDA3A    0.092000        1.0080           0   0.00000   0.00000
     10488 HOAC     108      HOAC     O1       OD2C3A   2.356500       15.5994           0   -0.922000   1.53900
     10489 HOAC     108      HOAC     DO1      DRUD    -2.356500        0.4000           0   0.00000   0.00000
     10490 HOAC     108      HOAC     O2       OD31F    2.776500       15.5990           0   -1.28000   1.12400
     10491 HOAC     108      HOAC     DO2      DRUD    -2.776500        0.4000           0   0.00000   0.00000
     10492 HOAC     108      HOAC     H        HDP1A    0.374000        1.0080           0   0.00000   0.00000
     10493 HOAC     108      HOAC     LPO11    LPD     -0.319000        0.0000           -1   0.00000   0.00000
     10494 HOAC     108      HOAC     LPO12    LPD     -0.319000        0.0000           -1   0.00000   0.00000
     10495 HOAC     108      HOAC     LPO21    LPD     -0.285000        0.0000           -1   0.00000   0.00000
     10496 HOAC     108      HOAC     LPO22    LPD     -0.285000        0.0000           -1   0.00000   0.00000
     10497 HOAC     109      HOAC     C1       CD2O3A   3.554200       11.6110           0   -1.20700   0.708000
     10498 HOAC     109      HOAC     DC1      DRUD    -2.696200        0.4000           0   0.00000   0.00000
     10499 HOAC     109      HOAC     C2       CD33C    3.268200       11.6110           0   -2.11400   0.750000
     10500 HOAC     109      HOAC     DC2      DRUD    -3.568200        0.4000           0   0.00000   0.00000
     10501 HOAC     109      HOAC     H1       HDA3A    0.092000        1.0080           0   0.00000   0.00000
     10502 HOAC     109      HOAC     H2       HDA3A    0.092000        1.0080           0   0.00000   0.00000
     10503 HOAC     109      HOAC     H3       HDA3A    0.092000        1.0080           0   0.00000   0.00000
     10504 HOAC     109      HOAC     O1       OD2C3A   2.356500       15.5994           0   -0.922000   1.53900
     10505 HOAC     109      HOAC     DO1      DRUD    -2.356500        0.4000           0   0.00000   0.00000
     10506 HOAC     109      HOAC     O2       OD31F    2.776500       15.5990           0   -1.28000   1.12400
     10507 HOAC     109      HOAC     DO2      DRUD    -2.776500        0.4000           0   0.00000   0.00000
     10508 HOAC     109      HOAC     H        HDP1A    0.374000        1.0080           0   0.00000   0.00000
     10509 HOAC     109      HOAC     LPO11    LPD     -0.319000        0.0000           -1   0.00000   0.00000
     10510 HOAC     109      HOAC     LPO12    LPD     -0.319000        0.0000           -1   0.00000   0.00000
     10511 HOAC     109      HOAC     LPO21    LPD     -0.285000        0.0000           -1   0.00000   0.00000
     10512 HOAC     109      HOAC     LPO22    LPD     -0.285000        0.0000           -1   0.00000   0.00000
     10513 HOAC     110      HOAC     C1       CD2O3A   3.554200       11.6110           0   -1.20700   0.708000
     10514 HOAC     110      HOAC     DC1      DRUD    -2.696200        0.4000           0   0.00000   0.00000
     10515 HOAC     110      HOAC     C2       CD33C    3.268200       11.6110           0   -2.11400   0.750000
     10516 HOAC     110      HOAC     DC2      DRUD    -3.568200        0.4000           0   0.00000   0.00000
     10517 HOAC     110      HOAC     H1       HDA3A    0.092000        1.0080           0   0.00000   0.00000
     10518 HOAC     110      HOAC     H2       HDA3A    0.092000        1.0080           0   0.00000   0.00000
     10519 HOAC     110      HOAC     H3       HDA3A    0.092000        1.0080           0   0.00000   0.00000
     10520 HOAC     110      HOAC     O1       OD2C3A   2.356500       15.5994           0   -0.922000   1.53900
     10521 HOAC     110      HOAC     DO1      DRUD    -2.356500        0.4000           0   0.00000   0.00000
     10522 HOAC     110      HOAC     O2       OD31F    2.776500       15.5990           0   -1.28000   1.12400
     10523 HOAC     110      HOAC     DO2      DRUD    -2.776500        0.4000           0   0.00000   0.00000
     10524 HOAC     110      HOAC     H        HDP1A    0.374000        1.0080           0   0.00000   0.00000
     10525 HOAC     110      HOAC     LPO11    LPD     -0.319000        0.0000           -1   0.00000   0.00000
     10526 HOAC     110      HOAC     LPO12    LPD     -0.319000        0.0000           -1   0.00000   0.00000
     10527 HOAC     110      HOAC     LPO21    LPD     -0.285000        0.0000           -1   0.00000   0.00000
     10528 HOAC     110      HOAC     LPO22    LPD     -0.285000        0.0000           -1   0.00000   0.00000
     10529 HOAC     111      HOAC     C1       CD2O3A   3.554200       11.6110           0   -1.20700   0.708000
     10530 HOAC     111      HOAC     DC1      DRUD    -2.696200        0.4000           0   0.00000   0.00000
     10531 HOAC     111      HOAC     C2       CD33C    3.268200       11.6110           0   -2.11400   0.750000
     10532 HOAC     111      HOAC     DC2      DRUD    -3.568200        0.4000           0   0.00000   0.00000
     10533 HOAC     111      HOAC     H1       HDA3A    0.092000        1.0080           0   0.00000   0.00000
     10534 HOAC     111      HOAC     H2       HDA3A    0.092000        1.0080           0   0.00000   0.00000
     10535 HOAC     111      HOAC     H3       HDA3A    0.092000        1.0080           0   0.00000   0.00000
     10536 HOAC     111      HOAC     O1       OD2C3A   2.356500       15.5994           0   -0.922000   1.53900
     10537 HOAC     111      HOAC     DO1      DRUD    -2.356500        0.4000           0   0.00000   0.00000
     10538 HOAC     111      HOAC     O2       OD31F    2.776500       15.5990           0   -1.28000   1.12400
     10539 HOAC     111      HOAC     DO2      DRUD    -2.776500        0.4000           0   0.00000   0.00000
     10540 HOAC     111      HOAC     H        HDP1A    0.374000        1.0080           0   0.00000   0.00000
     10541 HOAC     111      HOAC     LPO11    LPD     -0.319000        0.0000           -1   0.00000   0.00000
     10542 HOAC     111      HOAC     LPO12    LPD     -0.319000        0.0000           -1   0.00000   0.00000
     10543 HOAC     111      HOAC     LPO21    LPD     -0.285000        0.0000           -1   0.00000   0.00000
     10544 HOAC     111      HOAC     LPO22    LPD     -0.285000        0.0000           -1   0.00000   0.00000
     10545 HOAC     112      HOAC     C1       CD2O3A   3.554200       11.6110           0   -1.20700   0.708000
     10546 HOAC     112      HOAC     DC1      DRUD    -2.696200        0.4000           0   0.00000   0.00000
     10547 HOAC     112      HOAC     C2       CD33C    3.268200       11.6110           0   -2.11400   0.750000
     10548 HOAC     112      HOAC     DC2      DRUD    -3.568200        0.4000           0   0.00000   0.00000
     10549 HOAC     112      HOAC     H1       HDA3A    0.092000        1.0080           0   0.00000   0.00000
     10550 HOAC     112      HOAC     H2       HDA3A    0.092000        1.0080           0   0.00000   0.00000
     10551 HOAC     112      HOAC     H3       HDA3A    0.092000        1.0080           0   0.00000   0.00000
     10552 HOAC     112      HOAC     O1       OD2C3A   2.356500       15.5994           0   -0.922000   1.53900
     10553 HOAC     112      HOAC     DO1      DRUD    -2.356500        0.4000           0   0.00000   0.00000
     10554 HOAC     112      HOAC     O2       OD31F    2.776500       15.5990           0   -1.28000   1.12400
     10555 HOAC     112      HOAC     DO2      DRUD    -2.776500        0.4000           0   0.00000   0.00000
     10556 HOAC     112      HOAC     H        HDP1A    0.374000        1.0080           0   0.00000   0.00000
     10557 HOAC     112      HOAC     LPO11    LPD     -0.319000        0.0000           -1   0.00000   0.00000
     10558 HOAC     112      HOAC     LPO12    LPD     -0.319000        0.0000           -1   0.00000   0.00000
     10559 HOAC     112      HOAC     LPO21    LPD     -0.285000        0.0000           -1   0.00000   0.00000
     10560 HOAC     112      HOAC     LPO22    LPD     -0.285000        0.0000           -1   0.00000   0.00000
     10561 HOAC     113      HOAC     C1       CD2O3A   3.554200       11.6110           0   -1.20700   0.708000
     10562 HOAC     113      HOAC     DC1      DRUD    -2.696200        0.4000           0   0.00000   0.00000
     10563 HOAC     113      HOAC     C2       CD33C    3.268200       11.6110           0   -2.11400   0.750000
     10564 HOAC     113      HOAC     DC2      DRUD    -3.568200        0.4000           0   0.00000   0.00000
     10565 HOAC     113      HOAC     H1       HDA3A    0.092000        1.0080           0   0.00000   0.00000
     10566 HOAC     113      HOAC     H2       HDA3A    0.092000        1.0080           0   0.00000   0.00000
     10567 HOAC     113      HOAC     H3       HDA3A    0.092000        1.0080           0   0.00000   0.00000
     10568 HOAC     113      HOAC     O1       OD2C3A   2.356500       15.5994           0   -0.922000   1.53900
     10569 HOAC     113      HOAC     DO1      DRUD    -2.356500        0.4000           0   0.00000   0.00000
     10570 HOAC     113      HOAC     O2       OD31F    2.776500       15.5990           0   -1.28000   1.12400
     10571 HOAC     113      HOAC     DO2      DRUD    -2.776500        0.4000           0   0.00000   0.00000
     10572 HOAC     113      HOAC     H        HDP1A    0.374000        1.0080           0   0.00000   0.00000
     10573 HOAC     113      HOAC     LPO11    LPD     -0.319000        0.0000           -1   0.00000   0.00000
     10574 HOAC     113      HOAC     LPO12    LPD     -0.319000        0.0000           -1   0.00000   0.00000
     10575 HOAC     113      HOAC     LPO21    LPD     -0.285000        0.0000           -1   0.00000   0.00000
     10576 HOAC     113      HOAC     LPO22    LPD     -0.285000        0.0000           -1   0.00000   0.00000
     10577 HOAC     114      HOAC     C1       CD2O3A   3.554200       11.6110           0   -1.20700   0.708000
     10578 HOAC     114      HOAC     DC1      DRUD    -2.696200        0.4000           0   0.00000   0.00000
     10579 HOAC     114      HOAC     C2       CD33C    3.268200       11.6110           0   -2.11400   0.750000
     10580 HOAC     114      HOAC     DC2      DRUD    -3.568200        0.4000           0   0.00000   0.00000
     10581 HOAC     114      HOAC     H1       HDA3A    0.092000        1.0080           0   0.00000   0.00000
     10582 HOAC     114      HOAC     H2       HDA3A    0.092000        1.0080           0   0.00000   0.00000
     10583 HOAC     114      HOAC     H3       HDA3A    0.092000        1.0080           0   0.00000   0.00000
     10584 HOAC     114      HOAC     O1       OD2C3A   2.356500       15.5994           0   -0.922000   1.53900
     10585 HOAC     114      HOAC     DO1      DRUD    -2.356500        0.4000           0   0.00000   0.00000
     10586 HOAC     114      HOAC     O2       OD31F    2.776500       15.5990           0   -1.28000   1.12400
     10587 HOAC     114      HOAC     DO2      DRUD    -2.776500        0.4000           0   0.00000   0.00000
     10588 HOAC     114      HOAC     H        HDP1A    0.374000        1.0080           0   0.00000   0.00000
     10589 HOAC     114      HOAC     LPO11    LPD     -0.319000        0.0000           -1   0.00000   0.00000
     10590 HOAC     114      HOAC     LPO12    LPD     -0.319000        0.0000           -1   0.00000   0.00000
     10591 HOAC     114      HOAC     LPO21    LPD     -0.285000        0.0000           -1   0.00000   0.00000
     10592 HOAC     114      HOAC     LPO22    LPD     -0.285000        0.0000           -1   0.00000   0.00000
     10593 HOAC     115      HOAC     C1       CD2O3A   3.554200       11.6110           0   -1.20700   0.708000
     10594 HOAC     115      HOAC     DC1      DRUD    -2.696200        0.4000           0   0.00000   0.00000
     10595 HOAC     115      HOAC     C2       CD33C    3.268200       11.6110           0   -2.11400   0.750000
     10596 HOAC     115      HOAC     DC2      DRUD    -3.568200        0.4000           0   0.00000   0.00000
     10597 HOAC     115      HOAC     H1       HDA3A    0.092000        1.0080           0   0.00000   0.00000
     10598 HOAC     115      HOAC     H2       HDA3A    0.092000        1.0080           0   0.00000   0.00000
     10599 HOAC     115      HOAC     H3       HDA3A    0.092000        1.0080           0   0.00000   0.00000
     10600 HOAC     115      HOAC     O1       OD2C3A   2.356500       15.5994           0   -0.922000   1.53900
     10601 HOAC     115      HOAC     DO1      DRUD    -2.356500        0.4000           0   0.00000   0.00000
     10602 HOAC     115      HOAC     O2       OD31F    2.776500       15.5990           0   -1.28000   1.12400
     10603 HOAC     115      HOAC     DO2      DRUD    -2.776500        0.4000           0   0.00000   0.00000
     10604 HOAC     115      HOAC     H        HDP1A    0.374000        1.0080           0   0.00000   0.00000
     10605 HOAC     115      HOAC     LPO11    LPD     -0.319000        0.0000           -1   0.00000   0.00000
     10606 HOAC     115      HOAC     LPO12    LPD     -0.319000        0.0000           -1   0.00000   0.00000
     10607 HOAC     115      HOAC     LPO21    LPD     -0.285000        0.0000           -1   0.00000   0.00000
     10608 HOAC     115      HOAC     LPO22    LPD     -0.285000        0.0000           -1   0.00000   0.00000
     10609 HOAC     116      HOAC     C1       CD2O3A   3.554200       11.6110           0   -1.20700   0.708000
     10610 HOAC     116      HOAC     DC1      DRUD    -2.696200        0.4000           0   0.00000   0.00000
     10611 HOAC     116      HOAC     C2       CD33C    3.268200       11.6110           0   -2.11400   0.750000
     10612 HOAC     116      HOAC     DC2      DRUD    -3.568200        0.4000           0   0.00000   0.00000
     10613 HOAC     116      HOAC     H1       HDA3A    0.092000        1.0080           0   0.00000   0.00000
     10614 HOAC     116      HOAC     H2       HDA3A    0.092000        1.0080           0   0.00000   0.00000
     10615 HOAC     116      HOAC     H3       HDA3A    0.092000        1.0080           0   0.00000   0.00000
     10616 HOAC     116      HOAC     O1       OD2C3A   2.356500       15.5994           0   -0.922000   1.53900
     10617 HOAC     116      HOAC     DO1      DRUD    -2.356500        0.4000           0   0.00000   0.00000
     10618 HOAC     116      HOAC     O2       OD31F    2.776500       15.5990           0   -1.28000   1.12400
     10619 HOAC     116      HOAC     DO2      DRUD    -2.776500        0.4000           0   0.00000   0.00000
     10620 HOAC     116      HOAC     H        HDP1A    0.374000        1.0080           0   0.00000   0.00000
     10621 HOAC     116      HOAC     LPO11    LPD     -0.319000        0.0000           -1   0.00000   0.00000
     10622 HOAC     116      HOAC     LPO12    LPD     -0.319000        0.0000           -1   0.00000   0.00000
     10623 HOAC     116      HOAC     LPO21    LPD     -0.285000        0.0000           -1   0.00000   0.00000
     10624 HOAC     116      HOAC     LPO22    LPD     -0.285000        0.0000           -1   0.00000   0.00000
     10625 HOAC     117      HOAC     C1       CD2O3A   3.554200       11.6110           0   -1.20700   0.708000
     10626 HOAC     117      HOAC     DC1      DRUD    -2.696200        0.4000           0   0.00000   0.00000
     10627 HOAC     117      HOAC     C2       CD33C    3.268200       11.6110           0   -2.11400   0.750000
     10628 HOAC     117      HOAC     DC2      DRUD    -3.568200        0.4000           0   0.00000   0.00000
     10629 HOAC     117      HOAC     H1       HDA3A    0.092000        1.0080           0   0.00000   0.00000
     10630 HOAC     117      HOAC     H2       HDA3A    0.092000        1.0080           0   0.00000   0.00000
     10631 HOAC     117      HOAC     H3       HDA3A    0.092000        1.0080           0   0.00000   0.00000
     10632 HOAC     117      HOAC     O1       OD2C3A   2.356500       15.5994           0   -0.922000   1.53900
     10633 HOAC     117      HOAC     DO1      DRUD    -2.356500        0.4000           0   0.00000   0.00000
     10634 HOAC     117      HOAC     O2       OD31F    2.776500       15.5990           0   -1.28000   1.12400
     10635 HOAC     117      HOAC     DO2      DRUD    -2.776500        0.4000           0   0.00000   0.00000
     10636 HOAC     117      HOAC     H        HDP1A    0.374000        1.0080           0   0.00000   0.00000
     10637 HOAC     117      HOAC     LPO11    LPD     -0.319000        0.0000           -1   0.00000   0.00000
     10638 HOAC     117      HOAC     LPO12    LPD     -0.319000        0.0000           -1   0.00000   0.00000
     10639 HOAC     117      HOAC     LPO21    LPD     -0.285000        0.0000           -1   0.00000   0.00000
     10640 HOAC     117      HOAC     LPO22    LPD     -0.285000        0.0000           -1   0.00000   0.00000
     10641 HOAC     118      HOAC     C1       CD2O3A   3.554200       11.6110           0   -1.20700   0.708000
     10642 HOAC     118      HOAC     DC1      DRUD    -2.696200        0.4000           0   0.00000   0.00000
     10643 HOAC     118      HOAC     C2       CD33C    3.268200       11.6110           0   -2.11400   0.750000
     10644 HOAC     118      HOAC     DC2      DRUD    -3.568200        0.4000           0   0.00000   0.00000
     10645 HOAC     118      HOAC     H1       HDA3A    0.092000        1.0080           0   0.00000   0.00000
     10646 HOAC     118      HOAC     H2       HDA3A    0.092000        1.0080           0   0.00000   0.00000
     10647 HOAC     118      HOAC     H3       HDA3A    0.092000        1.0080           0   0.00000   0.00000
     10648 HOAC     118      HOAC     O1       OD2C3A   2.356500       15.5994           0   -0.922000   1.53900
     10649 HOAC     118      HOAC     DO1      DRUD    -2.356500        0.4000           0   0.00000   0.00000
     10650 HOAC     118      HOAC     O2       OD31F    2.776500       15.5990           0   -1.28000   1.12400
     10651 HOAC     118      HOAC     DO2      DRUD    -2.776500        0.4000           0   0.00000   0.00000
     10652 HOAC     118      HOAC     H        HDP1A    0.374000        1.0080           0   0.00000   0.00000
     10653 HOAC     118      HOAC     LPO11    LPD     -0.319000        0.0000           -1   0.00000   0.00000
     10654 HOAC     118      HOAC     LPO12    LPD     -0.319000        0.0000           -1   0.00000   0.00000
     10655 HOAC     118      HOAC     LPO21    LPD     -0.285000        0.0000           -1   0.00000   0.00000
     10656 HOAC     118      HOAC     LPO22    LPD     -0.285000        0.0000           -1   0.00000   0.00000
     10657 HOAC     119      HOAC     C1       CD2O3A   3.554200       11.6110           0   -1.20700   0.708000
     10658 HOAC     119      HOAC     DC1      DRUD    -2.696200        0.4000           0   0.00000   0.00000
     10659 HOAC     119      HOAC     C2       CD33C    3.268200       11.6110           0   -2.11400   0.750000
     10660 HOAC     119      HOAC     DC2      DRUD    -3.568200        0.4000           0   0.00000   0.00000
     10661 HOAC     119      HOAC     H1       HDA3A    0.092000        1.0080           0   0.00000   0.00000
     10662 HOAC     119      HOAC     H2       HDA3A    0.092000        1.0080           0   0.00000   0.00000
     10663 HOAC     119      HOAC     H3       HDA3A    0.092000        1.0080           0   0.00000   0.00000
     10664 HOAC     119      HOAC     O1       OD2C3A   2.356500       15.5994           0   -0.922000   1.53900
     10665 HOAC     119      HOAC     DO1      DRUD    -2.356500        0.4000           0   0.00000   0.00000
     10666 HOAC     119      HOAC     O2       OD31F    2.776500       15.5990           0   -1.28000   1.12400
     10667 HOAC     119      HOAC     DO2      DRUD    -2.776500        0.4000           0   0.00000   0.00000
     10668 HOAC     119      HOAC     H        HDP1A    0.374000        1.0080           0   0.00000   0.00000
     10669 HOAC     119      HOAC     LPO11    LPD     -0.319000        0.0000           -1   0.00000   0.00000
     10670 HOAC     119      HOAC     LPO12    LPD     -0.319000        0.0000           -1   0.00000   0.00000
     10671 HOAC     119      HOAC     LPO21    LPD     -0.285000        0.0000           -1   0.00000   0.00000
     10672 HOAC     119      HOAC     LPO22    LPD     -0.285000        0.0000           -1   0.00000   0.00000
     10673 HOAC     120      HOAC     C1       CD2O3A   3.554200       11.6110           0   -1.20700   0.708000
     10674 HOAC     120      HOAC     DC1      DRUD    -2.696200        0.4000           0   0.00000   0.00000
     10675 HOAC     120      HOAC     C2       CD33C    3.268200       11.6110           0   -2.11400   0.750000
     10676 HOAC     120      HOAC     DC2      DRUD    -3.568200        0.4000           0   0.00000   0.00000
     10677 HOAC     120      HOAC     H1       HDA3A    0.092000        1.0080           0   0.00000   0.00000
     10678 HOAC     120      HOAC     H2       HDA3A    0.092000        1.0080           0   0.00000   0.00000
     10679 HOAC     120      HOAC     H3       HDA3A    0.092000        1.0080           0   0.00000   0.00000
     10680 HOAC     120      HOAC     O1       OD2C3A   2.356500       15.5994           0   -0.922000   1.53900
     10681 HOAC     120      HOAC     DO1      DRUD    -2.356500        0.4000           0   0.00000   0.00000
     10682 HOAC     120      HOAC     O2       OD31F    2.776500       15.5990           0   -1.28000   1.12400
     10683 HOAC     120      HOAC     DO2      DRUD    -2.776500        0.4000           0   0.00000   0.00000
     10684 HOAC     120      HOAC     H        HDP1A    0.374000        1.0080           0   0.00000   0.00000
     10685 HOAC     120      HOAC     LPO11    LPD     -0.319000        0.0000           -1   0.00000   0.00000
     10686 HOAC     120      HOAC     LPO12    LPD     -0.319000        0.0000           -1   0.00000   0.00000
     10687 HOAC     120      HOAC     LPO21    LPD     -0.285000        0.0000           -1   0.00000   0.00000
     10688 HOAC     120      HOAC     LPO22    LPD     -0.285000        0.0000           -1   0.00000   0.00000
     10689 HOAC     121      HOAC     C1       CD2O3A   3.554200       11.6110           0   -1.20700   0.708000
     10690 HOAC     121      HOAC     DC1      DRUD    -2.696200        0.4000           0   0.00000   0.00000
     10691 HOAC     121      HOAC     C2       CD33C    3.268200       11.6110           0   -2.11400   0.750000
     10692 HOAC     121      HOAC     DC2      DRUD    -3.568200        0.4000           0   0.00000   0.00000
     10693 HOAC     121      HOAC     H1       HDA3A    0.092000        1.0080           0   0.00000   0.00000
     10694 HOAC     121      HOAC     H2       HDA3A    0.092000        1.0080           0   0.00000   0.00000
     10695 HOAC     121      HOAC     H3       HDA3A    0.092000        1.0080           0   0.00000   0.00000
     10696 HOAC     121      HOAC     O1       OD2C3A   2.356500       15.5994           0   -0.922000   1.53900
     10697 HOAC     121      HOAC     DO1      DRUD    -2.356500        0.4000           0   0.00000   0.00000
     10698 HOAC     121      HOAC     O2       OD31F    2.776500       15.5990           0   -1.28000   1.12400
     10699 HOAC     121      HOAC     DO2      DRUD    -2.776500        0.4000           0   0.00000   0.00000
     10700 HOAC     121      HOAC     H        HDP1A    0.374000        1.0080           0   0.00000   0.00000
     10701 HOAC     121      HOAC     LPO11    LPD     -0.319000        0.0000           -1   0.00000   0.00000
     10702 HOAC     121      HOAC     LPO12    LPD     -0.319000        0.0000           -1   0.00000   0.00000
     10703 HOAC     121      HOAC     LPO21    LPD     -0.285000        0.0000           -1   0.00000   0.00000
     10704 HOAC     121      HOAC     LPO22    LPD     -0.285000        0.0000           -1   0.00000   0.00000
     10705 HOAC     122      HOAC     C1       CD2O3A   3.554200       11.6110           0   -1.20700   0.708000
     10706 HOAC     122      HOAC     DC1      DRUD    -2.696200        0.4000           0   0.00000   0.00000
     10707 HOAC     122      HOAC     C2       CD33C    3.268200       11.6110           0   -2.11400   0.750000
     10708 HOAC     122      HOAC     DC2      DRUD    -3.568200        0.4000           0   0.00000   0.00000
     10709 HOAC     122      HOAC     H1       HDA3A    0.092000        1.0080           0   0.00000   0.00000
     10710 HOAC     122      HOAC     H2       HDA3A    0.092000        1.0080           0   0.00000   0.00000
     10711 HOAC     122      HOAC     H3       HDA3A    0.092000        1.0080           0   0.00000   0.00000
     10712 HOAC     122      HOAC     O1       OD2C3A   2.356500       15.5994           0   -0.922000   1.53900
     10713 HOAC     122      HOAC     DO1      DRUD    -2.356500        0.4000           0   0.00000   0.00000
     10714 HOAC     122      HOAC     O2       OD31F    2.776500       15.5990           0   -1.28000   1.12400
     10715 HOAC     122      HOAC     DO2      DRUD    -2.776500        0.4000           0   0.00000   0.00000
     10716 HOAC     122      HOAC     H        HDP1A    0.374000        1.0080           0   0.00000   0.00000
     10717 HOAC     122      HOAC     LPO11    LPD     -0.319000        0.0000           -1   0.00000   0.00000
     10718 HOAC     122      HOAC     LPO12    LPD     -0.319000        0.0000           -1   0.00000   0.00000
     10719 HOAC     122      HOAC     LPO21    LPD     -0.285000        0.0000           -1   0.00000   0.00000
     10720 HOAC     122      HOAC     LPO22    LPD     -0.285000        0.0000           -1   0.00000   0.00000
     10721 HOAC     123      HOAC     C1       CD2O3A   3.554200       11.6110           0   -1.20700   0.708000
     10722 HOAC     123      HOAC     DC1      DRUD    -2.696200        0.4000           0   0.00000   0.00000
     10723 HOAC     123      HOAC     C2       CD33C    3.268200       11.6110           0   -2.11400   0.750000
     10724 HOAC     123      HOAC     DC2      DRUD    -3.568200        0.4000           0   0.00000   0.00000
     10725 HOAC     123      HOAC     H1       HDA3A    0.092000        1.0080           0   0.00000   0.00000
     10726 HOAC     123      HOAC     H2       HDA3A    0.092000        1.0080           0   0.00000   0.00000
     10727 HOAC     123      HOAC     H3       HDA3A    0.092000        1.0080           0   0.00000   0.00000
     10728 HOAC     123      HOAC     O1       OD2C3A   2.356500       15.5994           0   -0.922000   1.53900
     10729 HOAC     123      HOAC     DO1      DRUD    -2.356500        0.4000           0   0.00000   0.00000
     10730 HOAC     123      HOAC     O2       OD31F    2.776500       15.5990           0   -1.28000   1.12400
     10731 HOAC     123      HOAC     DO2      DRUD    -2.776500        0.4000           0   0.00000   0.00000
     10732 HOAC     123      HOAC     H        HDP1A    0.374000        1.0080           0   0.00000   0.00000
     10733 HOAC     123      HOAC     LPO11    LPD     -0.319000        0.0000           -1   0.00000   0.00000
     10734 HOAC     123      HOAC     LPO12    LPD     -0.319000        0.0000           -1   0.00000   0.00000
     10735 HOAC     123      HOAC     LPO21    LPD     -0.285000        0.0000           -1   0.00000   0.00000
     10736 HOAC     123      HOAC     LPO22    LPD     -0.285000        0.0000           -1   0.00000   0.00000
     10737 HOAC     124      HOAC     C1       CD2O3A   3.554200       11.6110           0   -1.20700   0.708000
     10738 HOAC     124      HOAC     DC1      DRUD    -2.696200        0.4000           0   0.00000   0.00000
     10739 HOAC     124      HOAC     C2       CD33C    3.268200       11.6110           0   -2.11400   0.750000
     10740 HOAC     124      HOAC     DC2      DRUD    -3.568200        0.4000           0   0.00000   0.00000
     10741 HOAC     124      HOAC     H1       HDA3A    0.092000        1.0080           0   0.00000   0.00000
     10742 HOAC     124      HOAC     H2       HDA3A    0.092000        1.0080           0   0.00000   0.00000
     10743 HOAC     124      HOAC     H3       HDA3A    0.092000        1.0080           0   0.00000   0.00000
     10744 HOAC     124      HOAC     O1       OD2C3A   2.356500       15.5994           0   -0.922000   1.53900
     10745 HOAC     124      HOAC     DO1      DRUD    -2.356500        0.4000           0   0.00000   0.00000
     10746 HOAC     124      HOAC     O2       OD31F    2.776500       15.5990           0   -1.28000   1.12400
     10747 HOAC     124      HOAC     DO2      DRUD    -2.776500        0.4000           0   0.00000   0.00000
     10748 HOAC     124      HOAC     H        HDP1A    0.374000        1.0080           0   0.00000   0.00000
     10749 HOAC     124      HOAC     LPO11    LPD     -0.319000        0.0000           -1   0.00000   0.00000
     10750 HOAC     124      HOAC     LPO12    LPD     -0.319000        0.0000           -1   0.00000   0.00000
     10751 HOAC     124      HOAC     LPO21    LPD     -0.285000        0.0000           -1   0.00000   0.00000
     10752 HOAC     124      HOAC     LPO22    LPD     -0.285000        0.0000           -1   0.00000   0.00000
     10753 HOAC     125      HOAC     C1       CD2O3A   3.554200       11.6110           0   -1.20700   0.708000
     10754 HOAC     125      HOAC     DC1      DRUD    -2.696200        0.4000           0   0.00000   0.00000
     10755 HOAC     125      HOAC     C2       CD33C    3.268200       11.6110           0   -2.11400   0.750000
     10756 HOAC     125      HOAC     DC2      DRUD    -3.568200        0.4000           0   0.00000   0.00000
     10757 HOAC     125      HOAC     H1       HDA3A    0.092000        1.0080           0   0.00000   0.00000
     10758 HOAC     125      HOAC     H2       HDA3A    0.092000        1.0080           0   0.00000   0.00000
     10759 HOAC     125      HOAC     H3       HDA3A    0.092000        1.0080           0   0.00000   0.00000
     10760 HOAC     125      HOAC     O1       OD2C3A   2.356500       15.5994           0   -0.922000   1.53900
     10761 HOAC     125      HOAC     DO1      DRUD    -2.356500        0.4000           0   0.00000   0.00000
     10762 HOAC     125      HOAC     O2       OD31F    2.776500       15.5990           0   -1.28000   1.12400
     10763 HOAC     125      HOAC     DO2      DRUD    -2.776500        0.4000           0   0.00000   0.00000
     10764 HOAC     125      HOAC     H        HDP1A    0.374000        1.0080           0   0.00000   0.00000
     10765 HOAC     125      HOAC     LPO11    LPD     -0.319000        0.0000           -1   0.00000   0.00000
     10766 HOAC     125      HOAC     LPO12    LPD     -0.319000        0.0000           -1   0.00000   0.00000
     10767 HOAC     125      HOAC     LPO21    LPD     -0.285000        0.0000           -1   0.00000   0.00000
     10768 HOAC     125      HOAC     LPO22    LPD     -0.285000        0.0000           -1   0.00000   0.00000
     10769 HOAC     126      HOAC     C1       CD2O3A   3.554200       11.6110           0   -1.20700   0.708000
     10770 HOAC     126      HOAC     DC1      DRUD    -2.696200        0.4000           0   0.00000   0.00000
     10771 HOAC     126      HOAC     C2       CD33C    3.268200       11.6110           0   -2.11400   0.750000
     10772 HOAC     126      HOAC     DC2      DRUD    -3.568200        0.4000           0   0.00000   0.00000
     10773 HOAC     126      HOAC     H1       HDA3A    0.092000        1.0080           0   0.00000   0.00000
     10774 HOAC     126      HOAC     H2       HDA3A    0.092000        1.0080           0   0.00000   0.00000
     10775 HOAC     126      HOAC     H3       HDA3A    0.092000        1.0080           0   0.00000   0.00000
     10776 HOAC     126      HOAC     O1       OD2C3A   2.356500       15.5994           0   -0.922000   1.53900
     10777 HOAC     126      HOAC     DO1      DRUD    -2.356500        0.4000           0   0.00000   0.00000
     10778 HOAC     126      HOAC     O2       OD31F    2.776500       15.5990           0   -1.28000   1.12400
     10779 HOAC     126      HOAC     DO2      DRUD    -2.776500        0.4000           0   0.00000   0.00000
     10780 HOAC     126      HOAC     H        HDP1A    0.374000        1.0080           0   0.00000   0.00000
     10781 HOAC     126      HOAC     LPO11    LPD     -0.319000        0.0000           -1   0.00000   0.00000
     10782 HOAC     126      HOAC     LPO12    LPD     -0.319000        0.0000           -1   0.00000   0.00000
     10783 HOAC     126      HOAC     LPO21    LPD     -0.285000        0.0000           -1   0.00000   0.00000
     10784 HOAC     126      HOAC     LPO22    LPD     -0.285000        0.0000           -1   0.00000   0.00000
     10785 HOAC     127      HOAC     C1       CD2O3A   3.554200       11.6110           0   -1.20700   0.708000
     10786 HOAC     127      HOAC     DC1      DRUD    -2.696200        0.4000           0   0.00000   0.00000
     10787 HOAC     127      HOAC     C2       CD33C    3.268200       11.6110           0   -2.11400   0.750000
     10788 HOAC     127      HOAC     DC2      DRUD    -3.568200        0.4000           0   0.00000   0.00000
     10789 HOAC     127      HOAC     H1       HDA3A    0.092000        1.0080           0   0.00000   0.00000
     10790 HOAC     127      HOAC     H2       HDA3A    0.092000        1.0080           0   0.00000   0.00000
     10791 HOAC     127      HOAC     H3       HDA3A    0.092000        1.0080           0   0.00000   0.00000
     10792 HOAC     127      HOAC     O1       OD2C3A   2.356500       15.5994           0   -0.922000   1.53900
     10793 HOAC     127      HOAC     DO1      DRUD    -2.356500        0.4000           0   0.00000   0.00000
     10794 HOAC     127      HOAC     O2       OD31F    2.776500       15.5990           0   -1.28000   1.12400
     10795 HOAC     127      HOAC     DO2      DRUD    -2.776500        0.4000           0   0.00000   0.00000
     10796 HOAC     127      HOAC     H        HDP1A    0.374000        1.0080           0   0.00000   0.00000
     10797 HOAC     127      HOAC     LPO11    LPD     -0.319000        0.0000           -1   0.00000   0.00000
     10798 HOAC     127      HOAC     LPO12    LPD     -0.319000        0.0000           -1   0.00000   0.00000
     10799 HOAC     127      HOAC     LPO21    LPD     -0.285000        0.0000           -1   0.00000   0.00000
     10800 HOAC     127      HOAC     LPO22    LPD     -0.285000        0.0000           -1   0.00000   0.00000
     10801 HOAC     128      HOAC     C1       CD2O3A   3.554200       11.6110           0   -1.20700   0.708000
     10802 HOAC     128      HOAC     DC1      DRUD    -2.696200        0.4000           0   0.00000   0.00000
     10803 HOAC     128      HOAC     C2       CD33C    3.268200       11.6110           0   -2.11400   0.750000
     10804 HOAC     128      HOAC     DC2      DRUD    -3.568200        0.4000           0   0.00000   0.00000
     10805 HOAC     128      HOAC     H1       HDA3A    0.092000        1.0080           0   0.00000   0.00000
     10806 HOAC     128      HOAC     H2       HDA3A    0.092000        1.0080           0   0.00000   0.00000
     10807 HOAC     128      HOAC     H3       HDA3A    0.092000        1.0080           0   0.00000   0.00000
     10808 HOAC     128      HOAC     O1       OD2C3A   2.356500       15.5994           0   -0.922000   1.53900
     10809 HOAC     128      HOAC     DO1      DRUD    -2.356500        0.4000           0   0.00000   0.00000
     10810 HOAC     128      HOAC     O2       OD31F    2.776500       15.5990           0   -1.28000   1.12400
     10811 HOAC     128      HOAC     DO2      DRUD    -2.776500        0.4000           0   0.00000   0.00000
     10812 HOAC     128      HOAC     H        HDP1A    0.374000        1.0080           0   0.00000   0.00000
     10813 HOAC     128      HOAC     LPO11    LPD     -0.319000        0.0000           -1   0.00000   0.00000
     10814 HOAC     128      HOAC     LPO12    LPD     -0.319000        0.0000           -1   0.00000   0.00000
     10815 HOAC     128      HOAC     LPO21    LPD     -0.285000        0.0000           -1   0.00000   0.00000
     10816 HOAC     128      HOAC     LPO22    LPD     -0.285000        0.0000           -1   0.00000   0.00000
     10817 HOAC     129      HOAC     C1       CD2O3A   3.554200       11.6110           0   -1.20700   0.708000
     10818 HOAC     129      HOAC     DC1      DRUD    -2.696200        0.4000           0   0.00000   0.00000
     10819 HOAC     129      HOAC     C2       CD33C    3.268200       11.6110           0   -2.11400   0.750000
     10820 HOAC     129      HOAC     DC2      DRUD    -3.568200        0.4000           0   0.00000   0.00000
     10821 HOAC     129      HOAC     H1       HDA3A    0.092000        1.0080           0   0.00000   0.00000
     10822 HOAC     129      HOAC     H2       HDA3A    0.092000        1.0080           0   0.00000   0.00000
     10823 HOAC     129      HOAC     H3       HDA3A    0.092000        1.0080           0   0.00000   0.00000
     10824 HOAC     129      HOAC     O1       OD2C3A   2.356500       15.5994           0   -0.922000   1.53900
     10825 HOAC     129      HOAC     DO1      DRUD    -2.356500        0.4000           0   0.00000   0.00000
     10826 HOAC     129      HOAC     O2       OD31F    2.776500       15.5990           0   -1.28000   1.12400
     10827 HOAC     129      HOAC     DO2      DRUD    -2.776500        0.4000           0   0.00000   0.00000
     10828 HOAC     129      HOAC     H        HDP1A    0.374000        1.0080           0   0.00000   0.00000
     10829 HOAC     129      HOAC     LPO11    LPD     -0.319000        0.0000           -1   0.00000   0.00000
     10830 HOAC     129      HOAC     LPO12    LPD     -0.319000        0.0000           -1   0.00000   0.00000
     10831 HOAC     129      HOAC     LPO21    LPD     -0.285000        0.0000           -1   0.00000   0.00000
     10832 HOAC     129      HOAC     LPO22    LPD     -0.285000        0.0000           -1   0.00000   0.00000
     10833 HOAC     130      HOAC     C1       CD2O3A   3.554200       11.6110           0   -1.20700   0.708000
     10834 HOAC     130      HOAC     DC1      DRUD    -2.696200        0.4000           0   0.00000   0.00000
     10835 HOAC     130      HOAC     C2       CD33C    3.268200       11.6110           0   -2.11400   0.750000
     10836 HOAC     130      HOAC     DC2      DRUD    -3.568200        0.4000           0   0.00000   0.00000
     10837 HOAC     130      HOAC     H1       HDA3A    0.092000        1.0080           0   0.00000   0.00000
     10838 HOAC     130      HOAC     H2       HDA3A    0.092000        1.0080           0   0.00000   0.00000
     10839 HOAC     130      HOAC     H3       HDA3A    0.092000        1.0080           0   0.00000   0.00000
     10840 HOAC     130      HOAC     O1       OD2C3A   2.356500       15.5994           0   -0.922000   1.53900
     10841 HOAC     130      HOAC     DO1      DRUD    -2.356500        0.4000           0   0.00000   0.00000
     10842 HOAC     130      HOAC     O2       OD31F    2.776500       15.5990           0   -1.28000   1.12400
     10843 HOAC     130      HOAC     DO2      DRUD    -2.776500        0.4000           0   0.00000   0.00000
     10844 HOAC     130      HOAC     H        HDP1A    0.374000        1.0080           0   0.00000   0.00000
     10845 HOAC     130      HOAC     LPO11    LPD     -0.319000        0.0000           -1   0.00000   0.00000
     10846 HOAC     130      HOAC     LPO12    LPD     -0.319000        0.0000           -1   0.00000   0.00000
     10847 HOAC     130      HOAC     LPO21    LPD     -0.285000        0.0000           -1   0.00000   0.00000
     10848 HOAC     130      HOAC     LPO22    LPD     -0.285000        0.0000           -1   0.00000   0.00000
     10849 HOAC     131      HOAC     C1       CD2O3A   3.554200       11.6110           0   -1.20700   0.708000
     10850 HOAC     131      HOAC     DC1      DRUD    -2.696200        0.4000           0   0.00000   0.00000
     10851 HOAC     131      HOAC     C2       CD33C    3.268200       11.6110           0   -2.11400   0.750000
     10852 HOAC     131      HOAC     DC2      DRUD    -3.568200        0.4000           0   0.00000   0.00000
     10853 HOAC     131      HOAC     H1       HDA3A    0.092000        1.0080           0   0.00000   0.00000
     10854 HOAC     131      HOAC     H2       HDA3A    0.092000        1.0080           0   0.00000   0.00000
     10855 HOAC     131      HOAC     H3       HDA3A    0.092000        1.0080           0   0.00000   0.00000
     10856 HOAC     131      HOAC     O1       OD2C3A   2.356500       15.5994           0   -0.922000   1.53900
     10857 HOAC     131      HOAC     DO1      DRUD    -2.356500        0.4000           0   0.00000   0.00000
     10858 HOAC     131      HOAC     O2       OD31F    2.776500       15.5990           0   -1.28000   1.12400
     10859 HOAC     131      HOAC     DO2      DRUD    -2.776500        0.4000           0   0.00000   0.00000
     10860 HOAC     131      HOAC     H        HDP1A    0.374000        1.0080           0   0.00000   0.00000
     10861 HOAC     131      HOAC     LPO11    LPD     -0.319000        0.0000           -1   0.00000   0.00000
     10862 HOAC     131      HOAC     LPO12    LPD     -0.319000        0.0000           -1   0.00000   0.00000
     10863 HOAC     131      HOAC     LPO21    LPD     -0.285000        0.0000           -1   0.00000   0.00000
     10864 HOAC     131      HOAC     LPO22    LPD     -0.285000        0.0000           -1   0.00000   0.00000
     10865 HOAC     132      HOAC     C1       CD2O3A   3.554200       11.6110           0   -1.20700   0.708000
     10866 HOAC     132      HOAC     DC1      DRUD    -2.696200        0.4000           0   0.00000   0.00000
     10867 HOAC     132      HOAC     C2       CD33C    3.268200       11.6110           0   -2.11400   0.750000
     10868 HOAC     132      HOAC     DC2      DRUD    -3.568200        0.4000           0   0.00000   0.00000
     10869 HOAC     132      HOAC     H1       HDA3A    0.092000        1.0080           0   0.00000   0.00000
     10870 HOAC     132      HOAC     H2       HDA3A    0.092000        1.0080           0   0.00000   0.00000
     10871 HOAC     132      HOAC     H3       HDA3A    0.092000        1.0080           0   0.00000   0.00000
     10872 HOAC     132      HOAC     O1       OD2C3A   2.356500       15.5994           0   -0.922000   1.53900
     10873 HOAC     132      HOAC     DO1      DRUD    -2.356500        0.4000           0   0.00000   0.00000
     10874 HOAC     132      HOAC     O2       OD31F    2.776500       15.5990           0   -1.28000   1.12400
     10875 HOAC     132      HOAC     DO2      DRUD    -2.776500        0.4000           0   0.00000   0.00000
     10876 HOAC     132      HOAC     H        HDP1A    0.374000        1.0080           0   0.00000   0.00000
     10877 HOAC     132      HOAC     LPO11    LPD     -0.319000        0.0000           -1   0.00000   0.00000
     10878 HOAC     132      HOAC     LPO12    LPD     -0.319000        0.0000           -1   0.00000   0.00000
     10879 HOAC     132      HOAC     LPO21    LPD     -0.285000        0.0000           -1   0.00000   0.00000
     10880 HOAC     132      HOAC     LPO22    LPD     -0.285000        0.0000           -1   0.00000   0.00000
     10881 HOAC     133      HOAC     C1       CD2O3A   3.554200       11.6110           0   -1.20700   0.708000
     10882 HOAC     133      HOAC     DC1      DRUD    -2.696200        0.4000           0   0.00000   0.00000
     10883 HOAC     133      HOAC     C2       CD33C    3.268200       11.6110           0   -2.11400   0.750000
     10884 HOAC     133      HOAC     DC2      DRUD    -3.568200        0.4000           0   0.00000   0.00000
     10885 HOAC     133      HOAC     H1       HDA3A    0.092000        1.0080           0   0.00000   0.00000
     10886 HOAC     133      HOAC     H2       HDA3A    0.092000        1.0080           0   0.00000   0.00000
     10887 HOAC     133      HOAC     H3       HDA3A    0.092000        1.0080           0   0.00000   0.00000
     10888 HOAC     133      HOAC     O1       OD2C3A   2.356500       15.5994           0   -0.922000   1.53900
     10889 HOAC     133      HOAC     DO1      DRUD    -2.356500        0.4000           0   0.00000   0.00000
     10890 HOAC     133      HOAC     O2       OD31F    2.776500       15.5990           0   -1.28000   1.12400
     10891 HOAC     133      HOAC     DO2      DRUD    -2.776500        0.4000           0   0.00000   0.00000
     10892 HOAC     133      HOAC     H        HDP1A    0.374000        1.0080           0   0.00000   0.00000
     10893 HOAC     133      HOAC     LPO11    LPD     -0.319000        0.0000           -1   0.00000   0.00000
     10894 HOAC     133      HOAC     LPO12    LPD     -0.319000        0.0000           -1   0.00000   0.00000
     10895 HOAC     133      HOAC     LPO21    LPD     -0.285000        0.0000           -1   0.00000   0.00000
     10896 HOAC     133      HOAC     LPO22    LPD     -0.285000        0.0000           -1   0.00000   0.00000
     10897 HOAC     134      HOAC     C1       CD2O3A   3.554200       11.6110           0   -1.20700   0.708000
     10898 HOAC     134      HOAC     DC1      DRUD    -2.696200        0.4000           0   0.00000   0.00000
     10899 HOAC     134      HOAC     C2       CD33C    3.268200       11.6110           0   -2.11400   0.750000
     10900 HOAC     134      HOAC     DC2      DRUD    -3.568200        0.4000           0   0.00000   0.00000
     10901 HOAC     134      HOAC     H1       HDA3A    0.092000        1.0080           0   0.00000   0.00000
     10902 HOAC     134      HOAC     H2       HDA3A    0.092000        1.0080           0   0.00000   0.00000
     10903 HOAC     134      HOAC     H3       HDA3A    0.092000        1.0080           0   0.00000   0.00000
     10904 HOAC     134      HOAC     O1       OD2C3A   2.356500       15.5994           0   -0.922000   1.53900
     10905 HOAC     134      HOAC     DO1      DRUD    -2.356500        0.4000           0   0.00000   0.00000
     10906 HOAC     134      HOAC     O2       OD31F    2.776500       15.5990           0   -1.28000   1.12400
     10907 HOAC     134      HOAC     DO2      DRUD    -2.776500        0.4000           0   0.00000   0.00000
     10908 HOAC     134      HOAC     H        HDP1A    0.374000        1.0080           0   0.00000   0.00000
     10909 HOAC     134      HOAC     LPO11    LPD     -0.319000        0.0000           -1   0.00000   0.00000
     10910 HOAC     134      HOAC     LPO12    LPD     -0.319000        0.0000           -1   0.00000   0.00000
     10911 HOAC     134      HOAC     LPO21    LPD     -0.285000        0.0000           -1   0.00000   0.00000
     10912 HOAC     134      HOAC     LPO22    LPD     -0.285000        0.0000           -1   0.00000   0.00000
     10913 HOAC     135      HOAC     C1       CD2O3A   3.554200       11.6110           0   -1.20700   0.708000
     10914 HOAC     135      HOAC     DC1      DRUD    -2.696200        0.4000           0   0.00000   0.00000
     10915 HOAC     135      HOAC     C2       CD33C    3.268200       11.6110           0   -2.11400   0.750000
     10916 HOAC     135      HOAC     DC2      DRUD    -3.568200        0.4000           0   0.00000   0.00000
     10917 HOAC     135      HOAC     H1       HDA3A    0.092000        1.0080           0   0.00000   0.00000
     10918 HOAC     135      HOAC     H2       HDA3A    0.092000        1.0080           0   0.00000   0.00000
     10919 HOAC     135      HOAC     H3       HDA3A    0.092000        1.0080           0   0.00000   0.00000
     10920 HOAC     135      HOAC     O1       OD2C3A   2.356500       15.5994           0   -0.922000   1.53900
     10921 HOAC     135      HOAC     DO1      DRUD    -2.356500        0.4000           0   0.00000   0.00000
     10922 HOAC     135      HOAC     O2       OD31F    2.776500       15.5990           0   -1.28000   1.12400
     10923 HOAC     135      HOAC     DO2      DRUD    -2.776500        0.4000           0   0.00000   0.00000
     10924 HOAC     135      HOAC     H        HDP1A    0.374000        1.0080           0   0.00000   0.00000
     10925 HOAC     135      HOAC     LPO11    LPD     -0.319000        0.0000           -1   0.00000   0.00000
     10926 HOAC     135      HOAC     LPO12    LPD     -0.319000        0.0000           -1   0.00000   0.00000
     10927 HOAC     135      HOAC     LPO21    LPD     -0.285000        0.0000           -1   0.00000   0.00000
     10928 HOAC     135      HOAC     LPO22    LPD     -0.285000        0.0000           -1   0.00000   0.00000
     10929 HOAC     136      HOAC     C1       CD2O3A   3.554200       11.6110           0   -1.20700   0.708000
     10930 HOAC     136      HOAC     DC1      DRUD    -2.696200        0.4000           0   0.00000   0.00000
     10931 HOAC     136      HOAC     C2       CD33C    3.268200       11.6110           0   -2.11400   0.750000
     10932 HOAC     136      HOAC     DC2      DRUD    -3.568200        0.4000           0   0.00000   0.00000
     10933 HOAC     136      HOAC     H1       HDA3A    0.092000        1.0080           0   0.00000   0.00000
     10934 HOAC     136      HOAC     H2       HDA3A    0.092000        1.0080           0   0.00000   0.00000
     10935 HOAC     136      HOAC     H3       HDA3A    0.092000        1.0080           0   0.00000   0.00000
     10936 HOAC     136      HOAC     O1       OD2C3A   2.356500       15.5994           0   -0.922000   1.53900
     10937 HOAC     136      HOAC     DO1      DRUD    -2.356500        0.4000           0   0.00000   0.00000
     10938 HOAC     136      HOAC     O2       OD31F    2.776500       15.5990           0   -1.28000   1.12400
     10939 HOAC     136      HOAC     DO2      DRUD    -2.776500        0.4000           0   0.00000   0.00000
     10940 HOAC     136      HOAC     H        HDP1A    0.374000        1.0080           0   0.00000   0.00000
     10941 HOAC     136      HOAC     LPO11    LPD     -0.319000        0.0000           -1   0.00000   0.00000
     10942 HOAC     136      HOAC     LPO12    LPD     -0.319000        0.0000           -1   0.00000   0.00000
     10943 HOAC     136      HOAC     LPO21    LPD     -0.285000        0.0000           -1   0.00000   0.00000
     10944 HOAC     136      HOAC     LPO22    LPD     -0.285000        0.0000           -1   0.00000   0.00000
     10945 HOAC     137      HOAC     C1       CD2O3A   3.554200       11.6110           0   -1.20700   0.708000
     10946 HOAC     137      HOAC     DC1      DRUD    -2.696200        0.4000           0   0.00000   0.00000
     10947 HOAC     137      HOAC     C2       CD33C    3.268200       11.6110           0   -2.11400   0.750000
     10948 HOAC     137      HOAC     DC2      DRUD    -3.568200        0.4000           0   0.00000   0.00000
     10949 HOAC     137      HOAC     H1       HDA3A    0.092000        1.0080           0   0.00000   0.00000
     10950 HOAC     137      HOAC     H2       HDA3A    0.092000        1.0080           0   0.00000   0.00000
     10951 HOAC     137      HOAC     H3       HDA3A    0.092000        1.0080           0   0.00000   0.00000
     10952 HOAC     137      HOAC     O1       OD2C3A   2.356500       15.5994           0   -0.922000   1.53900
     10953 HOAC     137      HOAC     DO1      DRUD    -2.356500        0.4000           0   0.00000   0.00000
     10954 HOAC     137      HOAC     O2       OD31F    2.776500       15.5990           0   -1.28000   1.12400
     10955 HOAC     137      HOAC     DO2      DRUD    -2.776500        0.4000           0   0.00000   0.00000
     10956 HOAC     137      HOAC     H        HDP1A    0.374000        1.0080           0   0.00000   0.00000
     10957 HOAC     137      HOAC     LPO11    LPD     -0.319000        0.0000           -1   0.00000   0.00000
     10958 HOAC     137      HOAC     LPO12    LPD     -0.319000        0.0000           -1   0.00000   0.00000
     10959 HOAC     137      HOAC     LPO21    LPD     -0.285000        0.0000           -1   0.00000   0.00000
     10960 HOAC     137      HOAC     LPO22    LPD     -0.285000        0.0000           -1   0.00000   0.00000
     10961 HOAC     138      HOAC     C1       CD2O3A   3.554200       11.6110           0   -1.20700   0.708000
     10962 HOAC     138      HOAC     DC1      DRUD    -2.696200        0.4000           0   0.00000   0.00000
     10963 HOAC     138      HOAC     C2       CD33C    3.268200       11.6110           0   -2.11400   0.750000
     10964 HOAC     138      HOAC     DC2      DRUD    -3.568200        0.4000           0   0.00000   0.00000
     10965 HOAC     138      HOAC     H1       HDA3A    0.092000        1.0080           0   0.00000   0.00000
     10966 HOAC     138      HOAC     H2       HDA3A    0.092000        1.0080           0   0.00000   0.00000
     10967 HOAC     138      HOAC     H3       HDA3A    0.092000        1.0080           0   0.00000   0.00000
     10968 HOAC     138      HOAC     O1       OD2C3A   2.356500       15.5994           0   -0.922000   1.53900
     10969 HOAC     138      HOAC     DO1      DRUD    -2.356500        0.4000           0   0.00000   0.00000
     10970 HOAC     138      HOAC     O2       OD31F    2.776500       15.5990           0   -1.28000   1.12400
     10971 HOAC     138      HOAC     DO2      DRUD    -2.776500        0.4000           0   0.00000   0.00000
     10972 HOAC     138      HOAC     H        HDP1A    0.374000        1.0080           0   0.00000   0.00000
     10973 HOAC     138      HOAC     LPO11    LPD     -0.319000        0.0000           -1   0.00000   0.00000
     10974 HOAC     138      HOAC     LPO12    LPD     -0.319000        0.0000           -1   0.00000   0.00000
     10975 HOAC     138      HOAC     LPO21    LPD     -0.285000        0.0000           -1   0.00000   0.00000
     10976 HOAC     138      HOAC     LPO22    LPD     -0.285000        0.0000           -1   0.00000   0.00000
     10977 HOAC     139      HOAC     C1       CD2O3A   3.554200       11.6110           0   -1.20700   0.708000
     10978 HOAC     139      HOAC     DC1      DRUD    -2.696200        0.4000           0   0.00000   0.00000
     10979 HOAC     139      HOAC     C2       CD33C    3.268200       11.6110           0   -2.11400   0.750000
     10980 HOAC     139      HOAC     DC2      DRUD    -3.568200        0.4000           0   0.00000   0.00000
     10981 HOAC     139      HOAC     H1       HDA3A    0.092000        1.0080           0   0.00000   0.00000
     10982 HOAC     139      HOAC     H2       HDA3A    0.092000        1.0080           0   0.00000   0.00000
     10983 HOAC     139      HOAC     H3       HDA3A    0.092000        1.0080           0   0.00000   0.00000
     10984 HOAC     139      HOAC     O1       OD2C3A   2.356500       15.5994           0   -0.922000   1.53900
     10985 HOAC     139      HOAC     DO1      DRUD    -2.356500        0.4000           0   0.00000   0.00000
     10986 HOAC     139      HOAC     O2       OD31F    2.776500       15.5990           0   -1.28000   1.12400
     10987 HOAC     139      HOAC     DO2      DRUD    -2.776500        0.4000           0   0.00000   0.00000
     10988 HOAC     139      HOAC     H        HDP1A    0.374000        1.0080           0   0.00000   0.00000
     10989 HOAC     139      HOAC     LPO11    LPD     -0.319000        0.0000           -1   0.00000   0.00000
     10990 HOAC     139      HOAC     LPO12    LPD     -0.319000        0.0000           -1   0.00000   0.00000
     10991 HOAC     139      HOAC     LPO21    LPD     -0.285000        0.0000           -1   0.00000   0.00000
     10992 HOAC     139      HOAC     LPO22    LPD     -0.285000        0.0000           -1   0.00000   0.00000
     10993 HOAC     140      HOAC     C1       CD2O3A   3.554200       11.6110           0   -1.20700   0.708000
     10994 HOAC     140      HOAC     DC1      DRUD    -2.696200        0.4000           0   0.00000   0.00000
     10995 HOAC     140      HOAC     C2       CD33C    3.268200       11.6110           0   -2.11400   0.750000
     10996 HOAC     140      HOAC     DC2      DRUD    -3.568200        0.4000           0   0.00000   0.00000
     10997 HOAC     140      HOAC     H1       HDA3A    0.092000        1.0080           0   0.00000   0.00000
     10998 HOAC     140      HOAC     H2       HDA3A    0.092000        1.0080           0   0.00000   0.00000
     10999 HOAC     140      HOAC     H3       HDA3A    0.092000        1.0080           0   0.00000   0.00000
     11000 HOAC     140      HOAC     O1       OD2C3A   2.356500       15.5994           0   -0.922000   1.53900
     11001 HOAC     140      HOAC     DO1      DRUD    -2.356500        0.4000           0   0.00000   0.00000
     11002 HOAC     140      HOAC     O2       OD31F    2.776500       15.5990           0   -1.28000   1.12400
     11003 HOAC     140      HOAC     DO2      DRUD    -2.776500        0.4000           0   0.00000   0.00000
     11004 HOAC     140      HOAC     H        HDP1A    0.374000        1.0080           0   0.00000   0.00000
     11005 HOAC     140      HOAC     LPO11    LPD     -0.319000        0.0000           -1   0.00000   0.00000
     11006 HOAC     140      HOAC     LPO12    LPD     -0.319000        0.0000           -1   0.00000   0.00000
     11007 HOAC     140      HOAC     LPO21    LPD     -0.285000        0.0000           -1   0.00000   0.00000
     11008 HOAC     140      HOAC     LPO22    LPD     -0.285000        0.0000           -1   0.00000   0.00000
     11009 HOAC     141      HOAC     C1       CD2O3A   3.554200       11.6110           0   -1.20700   0.708000
     11010 HOAC     141      HOAC     DC1      DRUD    -2.696200        0.4000           0   0.00000   0.00000
     11011 HOAC     141      HOAC     C2       CD33C    3.268200       11.6110           0   -2.11400   0.750000
     11012 HOAC     141      HOAC     DC2      DRUD    -3.568200        0.4000           0   0.00000   0.00000
     11013 HOAC     141      HOAC     H1       HDA3A    0.092000        1.0080           0   0.00000   0.00000
     11014 HOAC     141      HOAC     H2       HDA3A    0.092000        1.0080           0   0.00000   0.00000
     11015 HOAC     141      HOAC     H3       HDA3A    0.092000        1.0080           0   0.00000   0.00000
     11016 HOAC     141      HOAC     O1       OD2C3A   2.356500       15.5994           0   -0.922000   1.53900
     11017 HOAC     141      HOAC     DO1      DRUD    -2.356500        0.4000           0   0.00000   0.00000
     11018 HOAC     141      HOAC     O2       OD31F    2.776500       15.5990           0   -1.28000   1.12400
     11019 HOAC     141      HOAC     DO2      DRUD    -2.776500        0.4000           0   0.00000   0.00000
     11020 HOAC     141      HOAC     H        HDP1A    0.374000        1.0080           0   0.00000   0.00000
     11021 HOAC     141      HOAC     LPO11    LPD     -0.319000        0.0000           -1   0.00000   0.00000
     11022 HOAC     141      HOAC     LPO12    LPD     -0.319000        0.0000           -1   0.00000   0.00000
     11023 HOAC     141      HOAC     LPO21    LPD     -0.285000        0.0000           -1   0.00000   0.00000
     11024 HOAC     141      HOAC     LPO22    LPD     -0.285000        0.0000           -1   0.00000   0.00000
     11025 HOAC     142      HOAC     C1       CD2O3A   3.554200       11.6110           0   -1.20700   0.708000
     11026 HOAC     142      HOAC     DC1      DRUD    -2.696200        0.4000           0   0.00000   0.00000
     11027 HOAC     142      HOAC     C2       CD33C    3.268200       11.6110           0   -2.11400   0.750000
     11028 HOAC     142      HOAC     DC2      DRUD    -3.568200        0.4000           0   0.00000   0.00000
     11029 HOAC     142      HOAC     H1       HDA3A    0.092000        1.0080           0   0.00000   0.00000
     11030 HOAC     142      HOAC     H2       HDA3A    0.092000        1.0080           0   0.00000   0.00000
     11031 HOAC     142      HOAC     H3       HDA3A    0.092000        1.0080           0   0.00000   0.00000
     11032 HOAC     142      HOAC     O1       OD2C3A   2.356500       15.5994           0   -0.922000   1.53900
     11033 HOAC     142      HOAC     DO1      DRUD    -2.356500        0.4000           0   0.00000   0.00000
     11034 HOAC     142      HOAC     O2       OD31F    2.776500       15.5990           0   -1.28000   1.12400
     11035 HOAC     142      HOAC     DO2      DRUD    -2.776500        0.4000           0   0.00000   0.00000
     11036 HOAC     142      HOAC     H        HDP1A    0.374000        1.0080           0   0.00000   0.00000
     11037 HOAC     142      HOAC     LPO11    LPD     -0.319000        0.0000           -1   0.00000   0.00000
     11038 HOAC     142      HOAC     LPO12    LPD     -0.319000        0.0000           -1   0.00000   0.00000
     11039 HOAC     142      HOAC     LPO21    LPD     -0.285000        0.0000           -1   0.00000   0.00000
     11040 HOAC     142      HOAC     LPO22    LPD     -0.285000        0.0000           -1   0.00000   0.00000
     11041 HOAC     143      HOAC     C1       CD2O3A   3.554200       11.6110           0   -1.20700   0.708000
     11042 HOAC     143      HOAC     DC1      DRUD    -2.696200        0.4000           0   0.00000   0.00000
     11043 HOAC     143      HOAC     C2       CD33C    3.268200       11.6110           0   -2.11400   0.750000
     11044 HOAC     143      HOAC     DC2      DRUD    -3.568200        0.4000           0   0.00000   0.00000
     11045 HOAC     143      HOAC     H1       HDA3A    0.092000        1.0080           0   0.00000   0.00000
     11046 HOAC     143      HOAC     H2       HDA3A    0.092000        1.0080           0   0.00000   0.00000
     11047 HOAC     143      HOAC     H3       HDA3A    0.092000        1.0080           0   0.00000   0.00000
     11048 HOAC     143      HOAC     O1       OD2C3A   2.356500       15.5994           0   -0.922000   1.53900
     11049 HOAC     143      HOAC     DO1      DRUD    -2.356500        0.4000           0   0.00000   0.00000
     11050 HOAC     143      HOAC     O2       OD31F    2.776500       15.5990           0   -1.28000   1.12400
     11051 HOAC     143      HOAC     DO2      DRUD    -2.776500        0.4000           0   0.00000   0.00000
     11052 HOAC     143      HOAC     H        HDP1A    0.374000        1.0080           0   0.00000   0.00000
     11053 HOAC     143      HOAC     LPO11    LPD     -0.319000        0.0000           -1   0.00000   0.00000
     11054 HOAC     143      HOAC     LPO12    LPD     -0.319000        0.0000           -1   0.00000   0.00000
     11055 HOAC     143      HOAC     LPO21    LPD     -0.285000        0.0000           -1   0.00000   0.00000
     11056 HOAC     143      HOAC     LPO22    LPD     -0.285000        0.0000           -1   0.00000   0.00000
     11057 HOAC     144      HOAC     C1       CD2O3A   3.554200       11.6110           0   -1.20700   0.708000
     11058 HOAC     144      HOAC     DC1      DRUD    -2.696200        0.4000           0   0.00000   0.00000
     11059 HOAC     144      HOAC     C2       CD33C    3.268200       11.6110           0   -2.11400   0.750000
     11060 HOAC     144      HOAC     DC2      DRUD    -3.568200        0.4000           0   0.00000   0.00000
     11061 HOAC     144      HOAC     H1       HDA3A    0.092000        1.0080           0   0.00000   0.00000
     11062 HOAC     144      HOAC     H2       HDA3A    0.092000        1.0080           0   0.00000   0.00000
     11063 HOAC     144      HOAC     H3       HDA3A    0.092000        1.0080           0   0.00000   0.00000
     11064 HOAC     144      HOAC     O1       OD2C3A   2.356500       15.5994           0   -0.922000   1.53900
     11065 HOAC     144      HOAC     DO1      DRUD    -2.356500        0.4000           0   0.00000   0.00000
     11066 HOAC     144      HOAC     O2       OD31F    2.776500       15.5990           0   -1.28000   1.12400
     11067 HOAC     144      HOAC     DO2      DRUD    -2.776500        0.4000           0   0.00000   0.00000
     11068 HOAC     144      HOAC     H        HDP1A    0.374000        1.0080           0   0.00000   0.00000
     11069 HOAC     144      HOAC     LPO11    LPD     -0.319000        0.0000           -1   0.00000   0.00000
     11070 HOAC     144      HOAC     LPO12    LPD     -0.319000        0.0000           -1   0.00000   0.00000
     11071 HOAC     144      HOAC     LPO21    LPD     -0.285000        0.0000           -1   0.00000   0.00000
     11072 HOAC     144      HOAC     LPO22    LPD     -0.285000        0.0000           -1   0.00000   0.00000
     11073 HOAC     145      HOAC     C1       CD2O3A   3.554200       11.6110           0   -1.20700   0.708000
     11074 HOAC     145      HOAC     DC1      DRUD    -2.696200        0.4000           0   0.00000   0.00000
     11075 HOAC     145      HOAC     C2       CD33C    3.268200       11.6110           0   -2.11400   0.750000
     11076 HOAC     145      HOAC     DC2      DRUD    -3.568200        0.4000           0   0.00000   0.00000
     11077 HOAC     145      HOAC     H1       HDA3A    0.092000        1.0080           0   0.00000   0.00000
     11078 HOAC     145      HOAC     H2       HDA3A    0.092000        1.0080           0   0.00000   0.00000
     11079 HOAC     145      HOAC     H3       HDA3A    0.092000        1.0080           0   0.00000   0.00000
     11080 HOAC     145      HOAC     O1       OD2C3A   2.356500       15.5994           0   -0.922000   1.53900
     11081 HOAC     145      HOAC     DO1      DRUD    -2.356500        0.4000           0   0.00000   0.00000
     11082 HOAC     145      HOAC     O2       OD31F    2.776500       15.5990           0   -1.28000   1.12400
     11083 HOAC     145      HOAC     DO2      DRUD    -2.776500        0.4000           0   0.00000   0.00000
     11084 HOAC     145      HOAC     H        HDP1A    0.374000        1.0080           0   0.00000   0.00000
     11085 HOAC     145      HOAC     LPO11    LPD     -0.319000        0.0000           -1   0.00000   0.00000
     11086 HOAC     145      HOAC     LPO12    LPD     -0.319000        0.0000           -1   0.00000   0.00000
     11087 HOAC     145      HOAC     LPO21    LPD     -0.285000        0.0000           -1   0.00000   0.00000
     11088 HOAC     145      HOAC     LPO22    LPD     -0.285000        0.0000           -1   0.00000   0.00000
     11089 HOAC     146      HOAC     C1       CD2O3A   3.554200       11.6110           0   -1.20700   0.708000
     11090 HOAC     146      HOAC     DC1      DRUD    -2.696200        0.4000           0   0.00000   0.00000
     11091 HOAC     146      HOAC     C2       CD33C    3.268200       11.6110           0   -2.11400   0.750000
     11092 HOAC     146      HOAC     DC2      DRUD    -3.568200        0.4000           0   0.00000   0.00000
     11093 HOAC     146      HOAC     H1       HDA3A    0.092000        1.0080           0   0.00000   0.00000
     11094 HOAC     146      HOAC     H2       HDA3A    0.092000        1.0080           0   0.00000   0.00000
     11095 HOAC     146      HOAC     H3       HDA3A    0.092000        1.0080           0   0.00000   0.00000
     11096 HOAC     146      HOAC     O1       OD2C3A   2.356500       15.5994           0   -0.922000   1.53900
     11097 HOAC     146      HOAC     DO1      DRUD    -2.356500        0.4000           0   0.00000   0.00000
     11098 HOAC     146      HOAC     O2       OD31F    2.776500       15.5990           0   -1.28000   1.12400
     11099 HOAC     146      HOAC     DO2      DRUD    -2.776500        0.4000           0   0.00000   0.00000
     11100 HOAC     146      HOAC     H        HDP1A    0.374000        1.0080           0   0.00000   0.00000
     11101 HOAC     146      HOAC     LPO11    LPD     -0.319000        0.0000           -1   0.00000   0.00000
     11102 HOAC     146      HOAC     LPO12    LPD     -0.319000        0.0000           -1   0.00000   0.00000
     11103 HOAC     146      HOAC     LPO21    LPD     -0.285000        0.0000           -1   0.00000   0.00000
     11104 HOAC     146      HOAC     LPO22    LPD     -0.285000        0.0000           -1   0.00000   0.00000
     11105 HOAC     147      HOAC     C1       CD2O3A   3.554200       11.6110           0   -1.20700   0.708000
     11106 HOAC     147      HOAC     DC1      DRUD    -2.696200        0.4000           0   0.00000   0.00000
     11107 HOAC     147      HOAC     C2       CD33C    3.268200       11.6110           0   -2.11400   0.750000
     11108 HOAC     147      HOAC     DC2      DRUD    -3.568200        0.4000           0   0.00000   0.00000
     11109 HOAC     147      HOAC     H1       HDA3A    0.092000        1.0080           0   0.00000   0.00000
     11110 HOAC     147      HOAC     H2       HDA3A    0.092000        1.0080           0   0.00000   0.00000
     11111 HOAC     147      HOAC     H3       HDA3A    0.092000        1.0080           0   0.00000   0.00000
     11112 HOAC     147      HOAC     O1       OD2C3A   2.356500       15.5994           0   -0.922000   1.53900
     11113 HOAC     147      HOAC     DO1      DRUD    -2.356500        0.4000           0   0.00000   0.00000
     11114 HOAC     147      HOAC     O2       OD31F    2.776500       15.5990           0   -1.28000   1.12400
     11115 HOAC     147      HOAC     DO2      DRUD    -2.776500        0.4000           0   0.00000   0.00000
     11116 HOAC     147      HOAC     H        HDP1A    0.374000        1.0080           0   0.00000   0.00000
     11117 HOAC     147      HOAC     LPO11    LPD     -0.319000        0.0000           -1   0.00000   0.00000
     11118 HOAC     147      HOAC     LPO12    LPD     -0.319000        0.0000           -1   0.00000   0.00000
     11119 HOAC     147      HOAC     LPO21    LPD     -0.285000        0.0000           -1   0.00000   0.00000
     11120 HOAC     147      HOAC     LPO22    LPD     -0.285000        0.0000           -1   0.00000   0.00000
     11121 HOAC     148      HOAC     C1       CD2O3A   3.554200       11.6110           0   -1.20700   0.708000
     11122 HOAC     148      HOAC     DC1      DRUD    -2.696200        0.4000           0   0.00000   0.00000
     11123 HOAC     148      HOAC     C2       CD33C    3.268200       11.6110           0   -2.11400   0.750000
     11124 HOAC     148      HOAC     DC2      DRUD    -3.568200        0.4000           0   0.00000   0.00000
     11125 HOAC     148      HOAC     H1       HDA3A    0.092000        1.0080           0   0.00000   0.00000
     11126 HOAC     148      HOAC     H2       HDA3A    0.092000        1.0080           0   0.00000   0.00000
     11127 HOAC     148      HOAC     H3       HDA3A    0.092000        1.0080           0   0.00000   0.00000
     11128 HOAC     148      HOAC     O1       OD2C3A   2.356500       15.5994           0   -0.922000   1.53900
     11129 HOAC     148      HOAC     DO1      DRUD    -2.356500        0.4000           0   0.00000   0.00000
     11130 HOAC     148      HOAC     O2       OD31F    2.776500       15.5990           0   -1.28000   1.12400
     11131 HOAC     148      HOAC     DO2      DRUD    -2.776500        0.4000           0   0.00000   0.00000
     11132 HOAC     148      HOAC     H        HDP1A    0.374000        1.0080           0   0.00000   0.00000
     11133 HOAC     148      HOAC     LPO11    LPD     -0.319000        0.0000           -1   0.00000   0.00000
     11134 HOAC     148      HOAC     LPO12    LPD     -0.319000        0.0000           -1   0.00000   0.00000
     11135 HOAC     148      HOAC     LPO21    LPD     -0.285000        0.0000           -1   0.00000   0.00000
     11136 HOAC     148      HOAC     LPO22    LPD     -0.285000        0.0000           -1   0.00000   0.00000
     11137 HOAC     149      HOAC     C1       CD2O3A   3.554200       11.6110           0   -1.20700   0.708000
     11138 HOAC     149      HOAC     DC1      DRUD    -2.696200        0.4000           0   0.00000   0.00000
     11139 HOAC     149      HOAC     C2       CD33C    3.268200       11.6110           0   -2.11400   0.750000
     11140 HOAC     149      HOAC     DC2      DRUD    -3.568200        0.4000           0   0.00000   0.00000
     11141 HOAC     149      HOAC     H1       HDA3A    0.092000        1.0080           0   0.00000   0.00000
     11142 HOAC     149      HOAC     H2       HDA3A    0.092000        1.0080           0   0.00000   0.00000
     11143 HOAC     149      HOAC     H3       HDA3A    0.092000        1.0080           0   0.00000   0.00000
     11144 HOAC     149      HOAC     O1       OD2C3A   2.356500       15.5994           0   -0.922000   1.53900
     11145 HOAC     149      HOAC     DO1      DRUD    -2.356500        0.4000           0   0.00000   0.00000
     11146 HOAC     149      HOAC     O2       OD31F    2.776500       15.5990           0   -1.28000   1.12400
     11147 HOAC     149      HOAC     DO2      DRUD    -2.776500        0.4000           0   0.00000   0.00000
     11148 HOAC     149      HOAC     H        HDP1A    0.374000        1.0080           0   0.00000   0.00000
     11149 HOAC     149      HOAC     LPO11    LPD     -0.319000        0.0000           -1   0.00000   0.00000
     11150 HOAC     149      HOAC     LPO12    LPD     -0.319000        0.0000           -1   0.00000   0.00000
     11151 HOAC     149      HOAC     LPO21    LPD     -0.285000        0.0000           -1   0.00000   0.00000
     11152 HOAC     149      HOAC     LPO22    LPD     -0.285000        0.0000           -1   0.00000   0.00000
     11153 HOAC     150      HOAC     C1       CD2O3A   3.554200       11.6110           0   -1.20700   0.708000
     11154 HOAC     150      HOAC     DC1      DRUD    -2.696200        0.4000           0   0.00000   0.00000
     11155 HOAC     150      HOAC     C2       CD33C    3.268200       11.6110           0   -2.11400   0.750000
     11156 HOAC     150      HOAC     DC2      DRUD    -3.568200        0.4000           0   0.00000   0.00000
     11157 HOAC     150      HOAC     H1       HDA3A    0.092000        1.0080           0   0.00000   0.00000
     11158 HOAC     150      HOAC     H2       HDA3A    0.092000        1.0080           0   0.00000   0.00000
     11159 HOAC     150      HOAC     H3       HDA3A    0.092000        1.0080           0   0.00000   0.00000
     11160 HOAC     150      HOAC     O1       OD2C3A   2.356500       15.5994           0   -0.922000   1.53900
     11161 HOAC     150      HOAC     DO1      DRUD    -2.356500        0.4000           0   0.00000   0.00000
     11162 HOAC     150      HOAC     O2       OD31F    2.776500       15.5990           0   -1.28000   1.12400
     11163 HOAC     150      HOAC     DO2      DRUD    -2.776500        0.4000           0   0.00000   0.00000
     11164 HOAC     150      HOAC     H        HDP1A    0.374000        1.0080           0   0.00000   0.00000
     11165 HOAC     150      HOAC     LPO11    LPD     -0.319000        0.0000           -1   0.00000   0.00000
     11166 HOAC     150      HOAC     LPO12    LPD     -0.319000        0.0000           -1   0.00000   0.00000
     11167 HOAC     150      HOAC     LPO21    LPD     -0.285000        0.0000           -1   0.00000   0.00000
     11168 HOAC     150      HOAC     LPO22    LPD     -0.285000        0.0000           -1   0.00000   0.00000
     11169 HOAC     151      HOAC     C1       CD2O3A   3.554200       11.6110           0   -1.20700   0.708000
     11170 HOAC     151      HOAC     DC1      DRUD    -2.696200        0.4000           0   0.00000   0.00000
     11171 HOAC     151      HOAC     C2       CD33C    3.268200       11.6110           0   -2.11400   0.750000
     11172 HOAC     151      HOAC     DC2      DRUD    -3.568200        0.4000           0   0.00000   0.00000
     11173 HOAC     151      HOAC     H1       HDA3A    0.092000        1.0080           0   0.00000   0.00000
     11174 HOAC     151      HOAC     H2       HDA3A    0.092000        1.0080           0   0.00000   0.00000
     11175 HOAC     151      HOAC     H3       HDA3A    0.092000        1.0080           0   0.00000   0.00000
     11176 HOAC     151      HOAC     O1       OD2C3A   2.356500       15.5994           0   -0.922000   1.53900
     11177 HOAC     151      HOAC     DO1      DRUD    -2.356500        0.4000           0   0.00000   0.00000
     11178 HOAC     151      HOAC     O2       OD31F    2.776500       15.5990           0   -1.28000   1.12400
     11179 HOAC     151      HOAC     DO2      DRUD    -2.776500        0.4000           0   0.00000   0.00000
     11180 HOAC     151      HOAC     H        HDP1A    0.374000        1.0080           0   0.00000   0.00000
     11181 HOAC     151      HOAC     LPO11    LPD     -0.319000        0.0000           -1   0.00000   0.00000
     11182 HOAC     151      HOAC     LPO12    LPD     -0.319000        0.0000           -1   0.00000   0.00000
     11183 HOAC     151      HOAC     LPO21    LPD     -0.285000        0.0000           -1   0.00000   0.00000
     11184 HOAC     151      HOAC     LPO22    LPD     -0.285000        0.0000           -1   0.00000   0.00000
     11185 HOAC     152      HOAC     C1       CD2O3A   3.554200       11.6110           0   -1.20700   0.708000
     11186 HOAC     152      HOAC     DC1      DRUD    -2.696200        0.4000           0   0.00000   0.00000
     11187 HOAC     152      HOAC     C2       CD33C    3.268200       11.6110           0   -2.11400   0.750000
     11188 HOAC     152      HOAC     DC2      DRUD    -3.568200        0.4000           0   0.00000   0.00000
     11189 HOAC     152      HOAC     H1       HDA3A    0.092000        1.0080           0   0.00000   0.00000
     11190 HOAC     152      HOAC     H2       HDA3A    0.092000        1.0080           0   0.00000   0.00000
     11191 HOAC     152      HOAC     H3       HDA3A    0.092000        1.0080           0   0.00000   0.00000
     11192 HOAC     152      HOAC     O1       OD2C3A   2.356500       15.5994           0   -0.922000   1.53900
     11193 HOAC     152      HOAC     DO1      DRUD    -2.356500        0.4000           0   0.00000   0.00000
     11194 HOAC     152      HOAC     O2       OD31F    2.776500       15.5990           0   -1.28000   1.12400
     11195 HOAC     152      HOAC     DO2      DRUD    -2.776500        0.4000           0   0.00000   0.00000
     11196 HOAC     152      HOAC     H        HDP1A    0.374000        1.0080           0   0.00000   0.00000
     11197 HOAC     152      HOAC     LPO11    LPD     -0.319000        0.0000           -1   0.00000   0.00000
     11198 HOAC     152      HOAC     LPO12    LPD     -0.319000        0.0000           -1   0.00000   0.00000
     11199 HOAC     152      HOAC     LPO21    LPD     -0.285000        0.0000           -1   0.00000   0.00000
     11200 HOAC     152      HOAC     LPO22    LPD     -0.285000        0.0000           -1   0.00000   0.00000
     11201 HOAC     153      HOAC     C1       CD2O3A   3.554200       11.6110           0   -1.20700   0.708000
     11202 HOAC     153      HOAC     DC1      DRUD    -2.696200        0.4000           0   0.00000   0.00000
     11203 HOAC     153      HOAC     C2       CD33C    3.268200       11.6110           0   -2.11400   0.750000
     11204 HOAC     153      HOAC     DC2      DRUD    -3.568200        0.4000           0   0.00000   0.00000
     11205 HOAC     153      HOAC     H1       HDA3A    0.092000        1.0080           0   0.00000   0.00000
     11206 HOAC     153      HOAC     H2       HDA3A    0.092000        1.0080           0   0.00000   0.00000
     11207 HOAC     153      HOAC     H3       HDA3A    0.092000        1.0080           0   0.00000   0.00000
     11208 HOAC     153      HOAC     O1       OD2C3A   2.356500       15.5994           0   -0.922000   1.53900
     11209 HOAC     153      HOAC     DO1      DRUD    -2.356500        0.4000           0   0.00000   0.00000
     11210 HOAC     153      HOAC     O2       OD31F    2.776500       15.5990           0   -1.28000   1.12400
     11211 HOAC     153      HOAC     DO2      DRUD    -2.776500        0.4000           0   0.00000   0.00000
     11212 HOAC     153      HOAC     H        HDP1A    0.374000        1.0080           0   0.00000   0.00000
     11213 HOAC     153      HOAC     LPO11    LPD     -0.319000        0.0000           -1   0.00000   0.00000
     11214 HOAC     153      HOAC     LPO12    LPD     -0.319000        0.0000           -1   0.00000   0.00000
     11215 HOAC     153      HOAC     LPO21    LPD     -0.285000        0.0000           -1   0.00000   0.00000
     11216 HOAC     153      HOAC     LPO22    LPD     -0.285000        0.0000           -1   0.00000   0.00000
     11217 HOAC     154      HOAC     C1       CD2O3A   3.554200       11.6110           0   -1.20700   0.708000
     11218 HOAC     154      HOAC     DC1      DRUD    -2.696200        0.4000           0   0.00000   0.00000
     11219 HOAC     154      HOAC     C2       CD33C    3.268200       11.6110           0   -2.11400   0.750000
     11220 HOAC     154      HOAC     DC2      DRUD    -3.568200        0.4000           0   0.00000   0.00000
     11221 HOAC     154      HOAC     H1       HDA3A    0.092000        1.0080           0   0.00000   0.00000
     11222 HOAC     154      HOAC     H2       HDA3A    0.092000        1.0080           0   0.00000   0.00000
     11223 HOAC     154      HOAC     H3       HDA3A    0.092000        1.0080           0   0.00000   0.00000
     11224 HOAC     154      HOAC     O1       OD2C3A   2.356500       15.5994           0   -0.922000   1.53900
     11225 HOAC     154      HOAC     DO1      DRUD    -2.356500        0.4000           0   0.00000   0.00000
     11226 HOAC     154      HOAC     O2       OD31F    2.776500       15.5990           0   -1.28000   1.12400
     11227 HOAC     154      HOAC     DO2      DRUD    -2.776500        0.4000           0   0.00000   0.00000
     11228 HOAC     154      HOAC     H        HDP1A    0.374000        1.0080           0   0.00000   0.00000
     11229 HOAC     154      HOAC     LPO11    LPD     -0.319000        0.0000           -1   0.00000   0.00000
     11230 HOAC     154      HOAC     LPO12    LPD     -0.319000        0.0000           -1   0.00000   0.00000
     11231 HOAC     154      HOAC     LPO21    LPD     -0.285000        0.0000           -1   0.00000   0.00000
     11232 HOAC     154      HOAC     LPO22    LPD     -0.285000        0.0000           -1   0.00000   0.00000
     11233 HOAC     155      HOAC     C1       CD2O3A   3.554200       11.6110           0   -1.20700   0.708000
     11234 HOAC     155      HOAC     DC1      DRUD    -2.696200        0.4000           0   0.00000   0.00000
     11235 HOAC     155      HOAC     C2       CD33C    3.268200       11.6110           0   -2.11400   0.750000
     11236 HOAC     155      HOAC     DC2      DRUD    -3.568200        0.4000           0   0.00000   0.00000
     11237 HOAC     155      HOAC     H1       HDA3A    0.092000        1.0080           0   0.00000   0.00000
     11238 HOAC     155      HOAC     H2       HDA3A    0.092000        1.0080           0   0.00000   0.00000
     11239 HOAC     155      HOAC     H3       HDA3A    0.092000        1.0080           0   0.00000   0.00000
     11240 HOAC     155      HOAC     O1       OD2C3A   2.356500       15.5994           0   -0.922000   1.53900
     11241 HOAC     155      HOAC     DO1      DRUD    -2.356500        0.4000           0   0.00000   0.00000
     11242 HOAC     155      HOAC     O2       OD31F    2.776500       15.5990           0   -1.28000   1.12400
     11243 HOAC     155      HOAC     DO2      DRUD    -2.776500        0.4000           0   0.00000   0.00000
     11244 HOAC     155      HOAC     H        HDP1A    0.374000        1.0080           0   0.00000   0.00000
     11245 HOAC     155      HOAC     LPO11    LPD     -0.319000        0.0000           -1   0.00000   0.00000
     11246 HOAC     155      HOAC     LPO12    LPD     -0.319000        0.0000           -1   0.00000   0.00000
     11247 HOAC     155      HOAC     LPO21    LPD     -0.285000        0.0000           -1   0.00000   0.00000
     11248 HOAC     155      HOAC     LPO22    LPD     -0.285000        0.0000           -1   0.00000   0.00000
     11249 HOAC     156      HOAC     C1       CD2O3A   3.554200       11.6110           0   -1.20700   0.708000
     11250 HOAC     156      HOAC     DC1      DRUD    -2.696200        0.4000           0   0.00000   0.00000
     11251 HOAC     156      HOAC     C2       CD33C    3.268200       11.6110           0   -2.11400   0.750000
     11252 HOAC     156      HOAC     DC2      DRUD    -3.568200        0.4000           0   0.00000   0.00000
     11253 HOAC     156      HOAC     H1       HDA3A    0.092000        1.0080           0   0.00000   0.00000
     11254 HOAC     156      HOAC     H2       HDA3A    0.092000        1.0080           0   0.00000   0.00000
     11255 HOAC     156      HOAC     H3       HDA3A    0.092000        1.0080           0   0.00000   0.00000
     11256 HOAC     156      HOAC     O1       OD2C3A   2.356500       15.5994           0   -0.922000   1.53900
     11257 HOAC     156      HOAC     DO1      DRUD    -2.356500        0.4000           0   0.00000   0.00000
     11258 HOAC     156      HOAC     O2       OD31F    2.776500       15.5990           0   -1.28000   1.12400
     11259 HOAC     156      HOAC     DO2      DRUD    -2.776500        0.4000           0   0.00000   0.00000
     11260 HOAC     156      HOAC     H        HDP1A    0.374000        1.0080           0   0.00000   0.00000
     11261 HOAC     156      HOAC     LPO11    LPD     -0.319000        0.0000           -1   0.00000   0.00000
     11262 HOAC     156      HOAC     LPO12    LPD     -0.319000        0.0000           -1   0.00000   0.00000
     11263 HOAC     156      HOAC     LPO21    LPD     -0.285000        0.0000           -1   0.00000   0.00000
     11264 HOAC     156      HOAC     LPO22    LPD     -0.285000        0.0000           -1   0.00000   0.00000
     11265 HOAC     157      HOAC     C1       CD2O3A   3.554200       11.6110           0   -1.20700   0.708000
     11266 HOAC     157      HOAC     DC1      DRUD    -2.696200        0.4000           0   0.00000   0.00000
     11267 HOAC     157      HOAC     C2       CD33C    3.268200       11.6110           0   -2.11400   0.750000
     11268 HOAC     157      HOAC     DC2      DRUD    -3.568200        0.4000           0   0.00000   0.00000
     11269 HOAC     157      HOAC     H1       HDA3A    0.092000        1.0080           0   0.00000   0.00000
     11270 HOAC     157      HOAC     H2       HDA3A    0.092000        1.0080           0   0.00000   0.00000
     11271 HOAC     157      HOAC     H3       HDA3A    0.092000        1.0080           0   0.00000   0.00000
     11272 HOAC     157      HOAC     O1       OD2C3A   2.356500       15.5994           0   -0.922000   1.53900
     11273 HOAC     157      HOAC     DO1      DRUD    -2.356500        0.4000           0   0.00000   0.00000
     11274 HOAC     157      HOAC     O2       OD31F    2.776500       15.5990           0   -1.28000   1.12400
     11275 HOAC     157      HOAC     DO2      DRUD    -2.776500        0.4000           0   0.00000   0.00000
     11276 HOAC     157      HOAC     H        HDP1A    0.374000        1.0080           0   0.00000   0.00000
     11277 HOAC     157      HOAC     LPO11    LPD     -0.319000        0.0000           -1   0.00000   0.00000
     11278 HOAC     157      HOAC     LPO12    LPD     -0.319000        0.0000           -1   0.00000   0.00000
     11279 HOAC     157      HOAC     LPO21    LPD     -0.285000        0.0000           -1   0.00000   0.00000
     11280 HOAC     157      HOAC     LPO22    LPD     -0.285000        0.0000           -1   0.00000   0.00000
     11281 HOAC     158      HOAC     C1       CD2O3A   3.554200       11.6110           0   -1.20700   0.708000
     11282 HOAC     158      HOAC     DC1      DRUD    -2.696200        0.4000           0   0.00000   0.00000
     11283 HOAC     158      HOAC     C2       CD33C    3.268200       11.6110           0   -2.11400   0.750000
     11284 HOAC     158      HOAC     DC2      DRUD    -3.568200        0.4000           0   0.00000   0.00000
     11285 HOAC     158      HOAC     H1       HDA3A    0.092000        1.0080           0   0.00000   0.00000
     11286 HOAC     158      HOAC     H2       HDA3A    0.092000        1.0080           0   0.00000   0.00000
     11287 HOAC     158      HOAC     H3       HDA3A    0.092000        1.0080           0   0.00000   0.00000
     11288 HOAC     158      HOAC     O1       OD2C3A   2.356500       15.5994           0   -0.922000   1.53900
     11289 HOAC     158      HOAC     DO1      DRUD    -2.356500        0.4000           0   0.00000   0.00000
     11290 HOAC     158      HOAC     O2       OD31F    2.776500       15.5990           0   -1.28000   1.12400
     11291 HOAC     158      HOAC     DO2      DRUD    -2.776500        0.4000           0   0.00000   0.00000
     11292 HOAC     158      HOAC     H        HDP1A    0.374000        1.0080           0   0.00000   0.00000
     11293 HOAC     158      HOAC     LPO11    LPD     -0.319000        0.0000           -1   0.00000   0.00000
     11294 HOAC     158      HOAC     LPO12    LPD     -0.319000        0.0000           -1   0.00000   0.00000
     11295 HOAC     158      HOAC     LPO21    LPD     -0.285000        0.0000           -1   0.00000   0.00000
     11296 HOAC     158      HOAC     LPO22    LPD     -0.285000        0.0000           -1   0.00000   0.00000
     11297 HOAC     159      HOAC     C1       CD2O3A   3.554200       11.6110           0   -1.20700   0.708000
     11298 HOAC     159      HOAC     DC1      DRUD    -2.696200        0.4000           0   0.00000   0.00000
     11299 HOAC     159      HOAC     C2       CD33C    3.268200       11.6110           0   -2.11400   0.750000
     11300 HOAC     159      HOAC     DC2      DRUD    -3.568200        0.4000           0   0.00000   0.00000
     11301 HOAC     159      HOAC     H1       HDA3A    0.092000        1.0080           0   0.00000   0.00000
     11302 HOAC     159      HOAC     H2       HDA3A    0.092000        1.0080           0   0.00000   0.00000
     11303 HOAC     159      HOAC     H3       HDA3A    0.092000        1.0080           0   0.00000   0.00000
     11304 HOAC     159      HOAC     O1       OD2C3A   2.356500       15.5994           0   -0.922000   1.53900
     11305 HOAC     159      HOAC     DO1      DRUD    -2.356500        0.4000           0   0.00000   0.00000
     11306 HOAC     159      HOAC     O2       OD31F    2.776500       15.5990           0   -1.28000   1.12400
     11307 HOAC     159      HOAC     DO2      DRUD    -2.776500        0.4000           0   0.00000   0.00000
     11308 HOAC     159      HOAC     H        HDP1A    0.374000        1.0080           0   0.00000   0.00000
     11309 HOAC     159      HOAC     LPO11    LPD     -0.319000        0.0000           -1   0.00000   0.00000
     11310 HOAC     159      HOAC     LPO12    LPD     -0.319000        0.0000           -1   0.00000   0.00000
     11311 HOAC     159      HOAC     LPO21    LPD     -0.285000        0.0000           -1   0.00000   0.00000
     11312 HOAC     159      HOAC     LPO22    LPD     -0.285000        0.0000           -1   0.00000   0.00000
     11313 HOAC     160      HOAC     C1       CD2O3A   3.554200       11.6110           0   -1.20700   0.708000
     11314 HOAC     160      HOAC     DC1      DRUD    -2.696200        0.4000           0   0.00000   0.00000
     11315 HOAC     160      HOAC     C2       CD33C    3.268200       11.6110           0   -2.11400   0.750000
     11316 HOAC     160      HOAC     DC2      DRUD    -3.568200        0.4000           0   0.00000   0.00000
     11317 HOAC     160      HOAC     H1       HDA3A    0.092000        1.0080           0   0.00000   0.00000
     11318 HOAC     160      HOAC     H2       HDA3A    0.092000        1.0080           0   0.00000   0.00000
     11319 HOAC     160      HOAC     H3       HDA3A    0.092000        1.0080           0   0.00000   0.00000
     11320 HOAC     160      HOAC     O1       OD2C3A   2.356500       15.5994           0   -0.922000   1.53900
     11321 HOAC     160      HOAC     DO1      DRUD    -2.356500        0.4000           0   0.00000   0.00000
     11322 HOAC     160      HOAC     O2       OD31F    2.776500       15.5990           0   -1.28000   1.12400
     11323 HOAC     160      HOAC     DO2      DRUD    -2.776500        0.4000           0   0.00000   0.00000
     11324 HOAC     160      HOAC     H        HDP1A    0.374000        1.0080           0   0.00000   0.00000
     11325 HOAC     160      HOAC     LPO11    LPD     -0.319000        0.0000           -1   0.00000   0.00000
     11326 HOAC     160      HOAC     LPO12    LPD     -0.319000        0.0000           -1   0.00000   0.00000
     11327 HOAC     160      HOAC     LPO21    LPD     -0.285000        0.0000           -1   0.00000   0.00000
     11328 HOAC     160      HOAC     LPO22    LPD     -0.285000        0.0000           -1   0.00000   0.00000
     11329 HOAC     161      HOAC     C1       CD2O3A   3.554200       11.6110           0   -1.20700   0.708000
     11330 HOAC     161      HOAC     DC1      DRUD    -2.696200        0.4000           0   0.00000   0.00000
     11331 HOAC     161      HOAC     C2       CD33C    3.268200       11.6110           0   -2.11400   0.750000
     11332 HOAC     161      HOAC     DC2      DRUD    -3.568200        0.4000           0   0.00000   0.00000
     11333 HOAC     161      HOAC     H1       HDA3A    0.092000        1.0080           0   0.00000   0.00000
     11334 HOAC     161      HOAC     H2       HDA3A    0.092000        1.0080           0   0.00000   0.00000
     11335 HOAC     161      HOAC     H3       HDA3A    0.092000        1.0080           0   0.00000   0.00000
     11336 HOAC     161      HOAC     O1       OD2C3A   2.356500       15.5994           0   -0.922000   1.53900
     11337 HOAC     161      HOAC     DO1      DRUD    -2.356500        0.4000           0   0.00000   0.00000
     11338 HOAC     161      HOAC     O2       OD31F    2.776500       15.5990           0   -1.28000   1.12400
     11339 HOAC     161      HOAC     DO2      DRUD    -2.776500        0.4000           0   0.00000   0.00000
     11340 HOAC     161      HOAC     H        HDP1A    0.374000        1.0080           0   0.00000   0.00000
     11341 HOAC     161      HOAC     LPO11    LPD     -0.319000        0.0000           -1   0.00000   0.00000
     11342 HOAC     161      HOAC     LPO12    LPD     -0.319000        0.0000           -1   0.00000   0.00000
     11343 HOAC     161      HOAC     LPO21    LPD     -0.285000        0.0000           -1   0.00000   0.00000
     11344 HOAC     161      HOAC     LPO22    LPD     -0.285000        0.0000           -1   0.00000   0.00000
     11345 HOAC     162      HOAC     C1       CD2O3A   3.554200       11.6110           0   -1.20700   0.708000
     11346 HOAC     162      HOAC     DC1      DRUD    -2.696200        0.4000           0   0.00000   0.00000
     11347 HOAC     162      HOAC     C2       CD33C    3.268200       11.6110           0   -2.11400   0.750000
     11348 HOAC     162      HOAC     DC2      DRUD    -3.568200        0.4000           0   0.00000   0.00000
     11349 HOAC     162      HOAC     H1       HDA3A    0.092000        1.0080           0   0.00000   0.00000
     11350 HOAC     162      HOAC     H2       HDA3A    0.092000        1.0080           0   0.00000   0.00000
     11351 HOAC     162      HOAC     H3       HDA3A    0.092000        1.0080           0   0.00000   0.00000
     11352 HOAC     162      HOAC     O1       OD2C3A   2.356500       15.5994           0   -0.922000   1.53900
     11353 HOAC     162      HOAC     DO1      DRUD    -2.356500        0.4000           0   0.00000   0.00000
     11354 HOAC     162      HOAC     O2       OD31F    2.776500       15.5990           0   -1.28000   1.12400
     11355 HOAC     162      HOAC     DO2      DRUD    -2.776500        0.4000           0   0.00000   0.00000
     11356 HOAC     162      HOAC     H        HDP1A    0.374000        1.0080           0   0.00000   0.00000
     11357 HOAC     162      HOAC     LPO11    LPD     -0.319000        0.0000           -1   0.00000   0.00000
     11358 HOAC     162      HOAC     LPO12    LPD     -0.319000        0.0000           -1   0.00000   0.00000
     11359 HOAC     162      HOAC     LPO21    LPD     -0.285000        0.0000           -1   0.00000   0.00000
     11360 HOAC     162      HOAC     LPO22    LPD     -0.285000        0.0000           -1   0.00000   0.00000
     11361 HOAC     163      HOAC     C1       CD2O3A   3.554200       11.6110           0   -1.20700   0.708000
     11362 HOAC     163      HOAC     DC1      DRUD    -2.696200        0.4000           0   0.00000   0.00000
     11363 HOAC     163      HOAC     C2       CD33C    3.268200       11.6110           0   -2.11400   0.750000
     11364 HOAC     163      HOAC     DC2      DRUD    -3.568200        0.4000           0   0.00000   0.00000
     11365 HOAC     163      HOAC     H1       HDA3A    0.092000        1.0080           0   0.00000   0.00000
     11366 HOAC     163      HOAC     H2       HDA3A    0.092000        1.0080           0   0.00000   0.00000
     11367 HOAC     163      HOAC     H3       HDA3A    0.092000        1.0080           0   0.00000   0.00000
     11368 HOAC     163      HOAC     O1       OD2C3A   2.356500       15.5994           0   -0.922000   1.53900
     11369 HOAC     163      HOAC     DO1      DRUD    -2.356500        0.4000           0   0.00000   0.00000
     11370 HOAC     163      HOAC     O2       OD31F    2.776500       15.5990           0   -1.28000   1.12400
     11371 HOAC     163      HOAC     DO2      DRUD    -2.776500        0.4000           0   0.00000   0.00000
     11372 HOAC     163      HOAC     H        HDP1A    0.374000        1.0080           0   0.00000   0.00000
     11373 HOAC     163      HOAC     LPO11    LPD     -0.319000        0.0000           -1   0.00000   0.00000
     11374 HOAC     163      HOAC     LPO12    LPD     -0.319000        0.0000           -1   0.00000   0.00000
     11375 HOAC     163      HOAC     LPO21    LPD     -0.285000        0.0000           -1   0.00000   0.00000
     11376 HOAC     163      HOAC     LPO22    LPD     -0.285000        0.0000           -1   0.00000   0.00000
     11377 HOAC     164      HOAC     C1       CD2O3A   3.554200       11.6110           0   -1.20700   0.708000
     11378 HOAC     164      HOAC     DC1      DRUD    -2.696200        0.4000           0   0.00000   0.00000
     11379 HOAC     164      HOAC     C2       CD33C    3.268200       11.6110           0   -2.11400   0.750000
     11380 HOAC     164      HOAC     DC2      DRUD    -3.568200        0.4000           0   0.00000   0.00000
     11381 HOAC     164      HOAC     H1       HDA3A    0.092000        1.0080           0   0.00000   0.00000
     11382 HOAC     164      HOAC     H2       HDA3A    0.092000        1.0080           0   0.00000   0.00000
     11383 HOAC     164      HOAC     H3       HDA3A    0.092000        1.0080           0   0.00000   0.00000
     11384 HOAC     164      HOAC     O1       OD2C3A   2.356500       15.5994           0   -0.922000   1.53900
     11385 HOAC     164      HOAC     DO1      DRUD    -2.356500        0.4000           0   0.00000   0.00000
     11386 HOAC     164      HOAC     O2       OD31F    2.776500       15.5990           0   -1.28000   1.12400
     11387 HOAC     164      HOAC     DO2      DRUD    -2.776500        0.4000           0   0.00000   0.00000
     11388 HOAC     164      HOAC     H        HDP1A    0.374000        1.0080           0   0.00000   0.00000
     11389 HOAC     164      HOAC     LPO11    LPD     -0.319000        0.0000           -1   0.00000   0.00000
     11390 HOAC     164      HOAC     LPO12    LPD     -0.319000        0.0000           -1   0.00000   0.00000
     11391 HOAC     164      HOAC     LPO21    LPD     -0.285000        0.0000           -1   0.00000   0.00000
     11392 HOAC     164      HOAC     LPO22    LPD     -0.285000        0.0000           -1   0.00000   0.00000
     11393 HOAC     165      HOAC     C1       CD2O3A   3.554200       11.6110           0   -1.20700   0.708000
     11394 HOAC     165      HOAC     DC1      DRUD    -2.696200        0.4000           0   0.00000   0.00000
     11395 HOAC     165      HOAC     C2       CD33C    3.268200       11.6110           0   -2.11400   0.750000
     11396 HOAC     165      HOAC     DC2      DRUD    -3.568200        0.4000           0   0.00000   0.00000
     11397 HOAC     165      HOAC     H1       HDA3A    0.092000        1.0080           0   0.00000   0.00000
     11398 HOAC     165      HOAC     H2       HDA3A    0.092000        1.0080           0   0.00000   0.00000
     11399 HOAC     165      HOAC     H3       HDA3A    0.092000        1.0080           0   0.00000   0.00000
     11400 HOAC     165      HOAC     O1       OD2C3A   2.356500       15.5994           0   -0.922000   1.53900
     11401 HOAC     165      HOAC     DO1      DRUD    -2.356500        0.4000           0   0.00000   0.00000
     11402 HOAC     165      HOAC     O2       OD31F    2.776500       15.5990           0   -1.28000   1.12400
     11403 HOAC     165      HOAC     DO2      DRUD    -2.776500        0.4000           0   0.00000   0.00000
     11404 HOAC     165      HOAC     H        HDP1A    0.374000        1.0080           0   0.00000   0.00000
     11405 HOAC     165      HOAC     LPO11    LPD     -0.319000        0.0000           -1   0.00000   0.00000
     11406 HOAC     165      HOAC     LPO12    LPD     -0.319000        0.0000           -1   0.00000   0.00000
     11407 HOAC     165      HOAC     LPO21    LPD     -0.285000        0.0000           -1   0.00000   0.00000
     11408 HOAC     165      HOAC     LPO22    LPD     -0.285000        0.0000           -1   0.00000   0.00000
     11409 HOAC     166      HOAC     C1       CD2O3A   3.554200       11.6110           0   -1.20700   0.708000
     11410 HOAC     166      HOAC     DC1      DRUD    -2.696200        0.4000           0   0.00000   0.00000
     11411 HOAC     166      HOAC     C2       CD33C    3.268200       11.6110           0   -2.11400   0.750000
     11412 HOAC     166      HOAC     DC2      DRUD    -3.568200        0.4000           0   0.00000   0.00000
     11413 HOAC     166      HOAC     H1       HDA3A    0.092000        1.0080           0   0.00000   0.00000
     11414 HOAC     166      HOAC     H2       HDA3A    0.092000        1.0080           0   0.00000   0.00000
     11415 HOAC     166      HOAC     H3       HDA3A    0.092000        1.0080           0   0.00000   0.00000
     11416 HOAC     166      HOAC     O1       OD2C3A   2.356500       15.5994           0   -0.922000   1.53900
     11417 HOAC     166      HOAC     DO1      DRUD    -2.356500        0.4000           0   0.00000   0.00000
     11418 HOAC     166      HOAC     O2       OD31F    2.776500       15.5990           0   -1.28000   1.12400
     11419 HOAC     166      HOAC     DO2      DRUD    -2.776500        0.4000           0   0.00000   0.00000
     11420 HOAC     166      HOAC     H        HDP1A    0.374000        1.0080           0   0.00000   0.00000
     11421 HOAC     166      HOAC     LPO11    LPD     -0.319000        0.0000           -1   0.00000   0.00000
     11422 HOAC     166      HOAC     LPO12    LPD     -0.319000        0.0000           -1   0.00000   0.00000
     11423 HOAC     166      HOAC     LPO21    LPD     -0.285000        0.0000           -1   0.00000   0.00000
     11424 HOAC     166      HOAC     LPO22    LPD     -0.285000        0.0000           -1   0.00000   0.00000
     11425 HOAC     167      HOAC     C1       CD2O3A   3.554200       11.6110           0   -1.20700   0.708000
     11426 HOAC     167      HOAC     DC1      DRUD    -2.696200        0.4000           0   0.00000   0.00000
     11427 HOAC     167      HOAC     C2       CD33C    3.268200       11.6110           0   -2.11400   0.750000
     11428 HOAC     167      HOAC     DC2      DRUD    -3.568200        0.4000           0   0.00000   0.00000
     11429 HOAC     167      HOAC     H1       HDA3A    0.092000        1.0080           0   0.00000   0.00000
     11430 HOAC     167      HOAC     H2       HDA3A    0.092000        1.0080           0   0.00000   0.00000
     11431 HOAC     167      HOAC     H3       HDA3A    0.092000        1.0080           0   0.00000   0.00000
     11432 HOAC     167      HOAC     O1       OD2C3A   2.356500       15.5994           0   -0.922000   1.53900
     11433 HOAC     167      HOAC     DO1      DRUD    -2.356500        0.4000           0   0.00000   0.00000
     11434 HOAC     167      HOAC     O2       OD31F    2.776500       15.5990           0   -1.28000   1.12400
     11435 HOAC     167      HOAC     DO2      DRUD    -2.776500        0.4000           0   0.00000   0.00000
     11436 HOAC     167      HOAC     H        HDP1A    0.374000        1.0080           0   0.00000   0.00000
     11437 HOAC     167      HOAC     LPO11    LPD     -0.319000        0.0000           -1   0.00000   0.00000
     11438 HOAC     167      HOAC     LPO12    LPD     -0.319000        0.0000           -1   0.00000   0.00000
     11439 HOAC     167      HOAC     LPO21    LPD     -0.285000        0.0000           -1   0.00000   0.00000
     11440 HOAC     167      HOAC     LPO22    LPD     -0.285000        0.0000           -1   0.00000   0.00000
     11441 HOAC     168      HOAC     C1       CD2O3A   3.554200       11.6110           0   -1.20700   0.708000
     11442 HOAC     168      HOAC     DC1      DRUD    -2.696200        0.4000           0   0.00000   0.00000
     11443 HOAC     168      HOAC     C2       CD33C    3.268200       11.6110           0   -2.11400   0.750000
     11444 HOAC     168      HOAC     DC2      DRUD    -3.568200        0.4000           0   0.00000   0.00000
     11445 HOAC     168      HOAC     H1       HDA3A    0.092000        1.0080           0   0.00000   0.00000
     11446 HOAC     168      HOAC     H2       HDA3A    0.092000        1.0080           0   0.00000   0.00000
     11447 HOAC     168      HOAC     H3       HDA3A    0.092000        1.0080           0   0.00000   0.00000
     11448 HOAC     168      HOAC     O1       OD2C3A   2.356500       15.5994           0   -0.922000   1.53900
     11449 HOAC     168      HOAC     DO1      DRUD    -2.356500        0.4000           0   0.00000   0.00000
     11450 HOAC     168      HOAC     O2       OD31F    2.776500       15.5990           0   -1.28000   1.12400
     11451 HOAC     168      HOAC     DO2      DRUD    -2.776500        0.4000           0   0.00000   0.00000
     11452 HOAC     168      HOAC     H        HDP1A    0.374000        1.0080           0   0.00000   0.00000
     11453 HOAC     168      HOAC     LPO11    LPD     -0.319000        0.0000           -1   0.00000   0.00000
     11454 HOAC     168      HOAC     LPO12    LPD     -0.319000        0.0000           -1   0.00000   0.00000
     11455 HOAC     168      HOAC     LPO21    LPD     -0.285000        0.0000           -1   0.00000   0.00000
     11456 HOAC     168      HOAC     LPO22    LPD     -0.285000        0.0000           -1   0.00000   0.00000
     11457 HOAC     169      HOAC     C1       CD2O3A   3.554200       11.6110           0   -1.20700   0.708000
     11458 HOAC     169      HOAC     DC1      DRUD    -2.696200        0.4000           0   0.00000   0.00000
     11459 HOAC     169      HOAC     C2       CD33C    3.268200       11.6110           0   -2.11400   0.750000
     11460 HOAC     169      HOAC     DC2      DRUD    -3.568200        0.4000           0   0.00000   0.00000
     11461 HOAC     169      HOAC     H1       HDA3A    0.092000        1.0080           0   0.00000   0.00000
     11462 HOAC     169      HOAC     H2       HDA3A    0.092000        1.0080           0   0.00000   0.00000
     11463 HOAC     169      HOAC     H3       HDA3A    0.092000        1.0080           0   0.00000   0.00000
     11464 HOAC     169      HOAC     O1       OD2C3A   2.356500       15.5994           0   -0.922000   1.53900
     11465 HOAC     169      HOAC     DO1      DRUD    -2.356500        0.4000           0   0.00000   0.00000
     11466 HOAC     169      HOAC     O2       OD31F    2.776500       15.5990           0   -1.28000   1.12400
     11467 HOAC     169      HOAC     DO2      DRUD    -2.776500        0.4000           0   0.00000   0.00000
     11468 HOAC     169      HOAC     H        HDP1A    0.374000        1.0080           0   0.00000   0.00000
     11469 HOAC     169      HOAC     LPO11    LPD     -0.319000        0.0000           -1   0.00000   0.00000
     11470 HOAC     169      HOAC     LPO12    LPD     -0.319000        0.0000           -1   0.00000   0.00000
     11471 HOAC     169      HOAC     LPO21    LPD     -0.285000        0.0000           -1   0.00000   0.00000
     11472 HOAC     169      HOAC     LPO22    LPD     -0.285000        0.0000           -1   0.00000   0.00000
     11473 HOAC     170      HOAC     C1       CD2O3A   3.554200       11.6110           0   -1.20700   0.708000
     11474 HOAC     170      HOAC     DC1      DRUD    -2.696200        0.4000           0   0.00000   0.00000
     11475 HOAC     170      HOAC     C2       CD33C    3.268200       11.6110           0   -2.11400   0.750000
     11476 HOAC     170      HOAC     DC2      DRUD    -3.568200        0.4000           0   0.00000   0.00000
     11477 HOAC     170      HOAC     H1       HDA3A    0.092000        1.0080           0   0.00000   0.00000
     11478 HOAC     170      HOAC     H2       HDA3A    0.092000        1.0080           0   0.00000   0.00000
     11479 HOAC     170      HOAC     H3       HDA3A    0.092000        1.0080           0   0.00000   0.00000
     11480 HOAC     170      HOAC     O1       OD2C3A   2.356500       15.5994           0   -0.922000   1.53900
     11481 HOAC     170      HOAC     DO1      DRUD    -2.356500        0.4000           0   0.00000   0.00000
     11482 HOAC     170      HOAC     O2       OD31F    2.776500       15.5990           0   -1.28000   1.12400
     11483 HOAC     170      HOAC     DO2      DRUD    -2.776500        0.4000           0   0.00000   0.00000
     11484 HOAC     170      HOAC     H        HDP1A    0.374000        1.0080           0   0.00000   0.00000
     11485 HOAC     170      HOAC     LPO11    LPD     -0.319000        0.0000           -1   0.00000   0.00000
     11486 HOAC     170      HOAC     LPO12    LPD     -0.319000        0.0000           -1   0.00000   0.00000
     11487 HOAC     170      HOAC     LPO21    LPD     -0.285000        0.0000           -1   0.00000   0.00000
     11488 HOAC     170      HOAC     LPO22    LPD     -0.285000        0.0000           -1   0.00000   0.00000
     11489 HOAC     171      HOAC     C1       CD2O3A   3.554200       11.6110           0   -1.20700   0.708000
     11490 HOAC     171      HOAC     DC1      DRUD    -2.696200        0.4000           0   0.00000   0.00000
     11491 HOAC     171      HOAC     C2       CD33C    3.268200       11.6110           0   -2.11400   0.750000
     11492 HOAC     171      HOAC     DC2      DRUD    -3.568200        0.4000           0   0.00000   0.00000
     11493 HOAC     171      HOAC     H1       HDA3A    0.092000        1.0080           0   0.00000   0.00000
     11494 HOAC     171      HOAC     H2       HDA3A    0.092000        1.0080           0   0.00000   0.00000
     11495 HOAC     171      HOAC     H3       HDA3A    0.092000        1.0080           0   0.00000   0.00000
     11496 HOAC     171      HOAC     O1       OD2C3A   2.356500       15.5994           0   -0.922000   1.53900
     11497 HOAC     171      HOAC     DO1      DRUD    -2.356500        0.4000           0   0.00000   0.00000
     11498 HOAC     171      HOAC     O2       OD31F    2.776500       15.5990           0   -1.28000   1.12400
     11499 HOAC     171      HOAC     DO2      DRUD    -2.776500        0.4000           0   0.00000   0.00000
     11500 HOAC     171      HOAC     H        HDP1A    0.374000        1.0080           0   0.00000   0.00000
     11501 HOAC     171      HOAC     LPO11    LPD     -0.319000        0.0000           -1   0.00000   0.00000
     11502 HOAC     171      HOAC     LPO12    LPD     -0.319000        0.0000           -1   0.00000   0.00000
     11503 HOAC     171      HOAC     LPO21    LPD     -0.285000        0.0000           -1   0.00000   0.00000
     11504 HOAC     171      HOAC     LPO22    LPD     -0.285000        0.0000           -1   0.00000   0.00000
     11505 HOAC     172      HOAC     C1       CD2O3A   3.554200       11.6110           0   -1.20700   0.708000
     11506 HOAC     172      HOAC     DC1      DRUD    -2.696200        0.4000           0   0.00000   0.00000
     11507 HOAC     172      HOAC     C2       CD33C    3.268200       11.6110           0   -2.11400   0.750000
     11508 HOAC     172      HOAC     DC2      DRUD    -3.568200        0.4000           0   0.00000   0.00000
     11509 HOAC     172      HOAC     H1       HDA3A    0.092000        1.0080           0   0.00000   0.00000
     11510 HOAC     172      HOAC     H2       HDA3A    0.092000        1.0080           0   0.00000   0.00000
     11511 HOAC     172      HOAC     H3       HDA3A    0.092000        1.0080           0   0.00000   0.00000
     11512 HOAC     172      HOAC     O1       OD2C3A   2.356500       15.5994           0   -0.922000   1.53900
     11513 HOAC     172      HOAC     DO1      DRUD    -2.356500        0.4000           0   0.00000   0.00000
     11514 HOAC     172      HOAC     O2       OD31F    2.776500       15.5990           0   -1.28000   1.12400
     11515 HOAC     172      HOAC     DO2      DRUD    -2.776500        0.4000           0   0.00000   0.00000
     11516 HOAC     172      HOAC     H        HDP1A    0.374000        1.0080           0   0.00000   0.00000
     11517 HOAC     172      HOAC     LPO11    LPD     -0.319000        0.0000           -1   0.00000   0.00000
     11518 HOAC     172      HOAC     LPO12    LPD     -0.319000        0.0000           -1   0.00000   0.00000
     11519 HOAC     172      HOAC     LPO21    LPD     -0.285000        0.0000           -1   0.00000   0.00000
     11520 HOAC     172      HOAC     LPO22    LPD     -0.285000        0.0000           -1   0.00000   0.00000
     11521 HOAC     173      HOAC     C1       CD2O3A   3.554200       11.6110           0   -1.20700   0.708000
     11522 HOAC     173      HOAC     DC1      DRUD    -2.696200        0.4000           0   0.00000   0.00000
     11523 HOAC     173      HOAC     C2       CD33C    3.268200       11.6110           0   -2.11400   0.750000
     11524 HOAC     173      HOAC     DC2      DRUD    -3.568200        0.4000           0   0.00000   0.00000
     11525 HOAC     173      HOAC     H1       HDA3A    0.092000        1.0080           0   0.00000   0.00000
     11526 HOAC     173      HOAC     H2       HDA3A    0.092000        1.0080           0   0.00000   0.00000
     11527 HOAC     173      HOAC     H3       HDA3A    0.092000        1.0080           0   0.00000   0.00000
     11528 HOAC     173      HOAC     O1       OD2C3A   2.356500       15.5994           0   -0.922000   1.53900
     11529 HOAC     173      HOAC     DO1      DRUD    -2.356500        0.4000           0   0.00000   0.00000
     11530 HOAC     173      HOAC     O2       OD31F    2.776500       15.5990           0   -1.28000   1.12400
     11531 HOAC     173      HOAC     DO2      DRUD    -2.776500        0.4000           0   0.00000   0.00000
     11532 HOAC     173      HOAC     H        HDP1A    0.374000        1.0080           0   0.00000   0.00000
     11533 HOAC     173      HOAC     LPO11    LPD     -0.319000        0.0000           -1   0.00000   0.00000
     11534 HOAC     173      HOAC     LPO12    LPD     -0.319000        0.0000           -1   0.00000   0.00000
     11535 HOAC     173      HOAC     LPO21    LPD     -0.285000        0.0000           -1   0.00000   0.00000
     11536 HOAC     173      HOAC     LPO22    LPD     -0.285000        0.0000           -1   0.00000   0.00000
     11537 HOAC     174      HOAC     C1       CD2O3A   3.554200       11.6110           0   -1.20700   0.708000
     11538 HOAC     174      HOAC     DC1      DRUD    -2.696200        0.4000           0   0.00000   0.00000
     11539 HOAC     174      HOAC     C2       CD33C    3.268200       11.6110           0   -2.11400   0.750000
     11540 HOAC     174      HOAC     DC2      DRUD    -3.568200        0.4000           0   0.00000   0.00000
     11541 HOAC     174      HOAC     H1       HDA3A    0.092000        1.0080           0   0.00000   0.00000
     11542 HOAC     174      HOAC     H2       HDA3A    0.092000        1.0080           0   0.00000   0.00000
     11543 HOAC     174      HOAC     H3       HDA3A    0.092000        1.0080           0   0.00000   0.00000
     11544 HOAC     174      HOAC     O1       OD2C3A   2.356500       15.5994           0   -0.922000   1.53900
     11545 HOAC     174      HOAC     DO1      DRUD    -2.356500        0.4000           0   0.00000   0.00000
     11546 HOAC     174      HOAC     O2       OD31F    2.776500       15.5990           0   -1.28000   1.12400
     11547 HOAC     174      HOAC     DO2      DRUD    -2.776500        0.4000           0   0.00000   0.00000
     11548 HOAC     174      HOAC     H        HDP1A    0.374000        1.0080           0   0.00000   0.00000
     11549 HOAC     174      HOAC     LPO11    LPD     -0.319000        0.0000           -1   0.00000   0.00000
     11550 HOAC     174      HOAC     LPO12    LPD     -0.319000        0.0000           -1   0.00000   0.00000
     11551 HOAC     174      HOAC     LPO21    LPD     -0.285000        0.0000           -1   0.00000   0.00000
     11552 HOAC     174      HOAC     LPO22    LPD     -0.285000        0.0000           -1   0.00000   0.00000
     11553 HOAC     175      HOAC     C1       CD2O3A   3.554200       11.6110           0   -1.20700   0.708000
     11554 HOAC     175      HOAC     DC1      DRUD    -2.696200        0.4000           0   0.00000   0.00000
     11555 HOAC     175      HOAC     C2       CD33C    3.268200       11.6110           0   -2.11400   0.750000
     11556 HOAC     175      HOAC     DC2      DRUD    -3.568200        0.4000           0   0.00000   0.00000
     11557 HOAC     175      HOAC     H1       HDA3A    0.092000        1.0080           0   0.00000   0.00000
     11558 HOAC     175      HOAC     H2       HDA3A    0.092000        1.0080           0   0.00000   0.00000
     11559 HOAC     175      HOAC     H3       HDA3A    0.092000        1.0080           0   0.00000   0.00000
     11560 HOAC     175      HOAC     O1       OD2C3A   2.356500       15.5994           0   -0.922000   1.53900
     11561 HOAC     175      HOAC     DO1      DRUD    -2.356500        0.4000           0   0.00000   0.00000
     11562 HOAC     175      HOAC     O2       OD31F    2.776500       15.5990           0   -1.28000   1.12400
     11563 HOAC     175      HOAC     DO2      DRUD    -2.776500        0.4000           0   0.00000   0.00000
     11564 HOAC     175      HOAC     H        HDP1A    0.374000        1.0080           0   0.00000   0.00000
     11565 HOAC     175      HOAC     LPO11    LPD     -0.319000        0.0000           -1   0.00000   0.00000
     11566 HOAC     175      HOAC     LPO12    LPD     -0.319000        0.0000           -1   0.00000   0.00000
     11567 HOAC     175      HOAC     LPO21    LPD     -0.285000        0.0000           -1   0.00000   0.00000
     11568 HOAC     175      HOAC     LPO22    LPD     -0.285000        0.0000           -1   0.00000   0.00000
     11569 HOAC     176      HOAC     C1       CD2O3A   3.554200       11.6110           0   -1.20700   0.708000
     11570 HOAC     176      HOAC     DC1      DRUD    -2.696200        0.4000           0   0.00000   0.00000
     11571 HOAC     176      HOAC     C2       CD33C    3.268200       11.6110           0   -2.11400   0.750000
     11572 HOAC     176      HOAC     DC2      DRUD    -3.568200        0.4000           0   0.00000   0.00000
     11573 HOAC     176      HOAC     H1       HDA3A    0.092000        1.0080           0   0.00000   0.00000
     11574 HOAC     176      HOAC     H2       HDA3A    0.092000        1.0080           0   0.00000   0.00000
     11575 HOAC     176      HOAC     H3       HDA3A    0.092000        1.0080           0   0.00000   0.00000
     11576 HOAC     176      HOAC     O1       OD2C3A   2.356500       15.5994           0   -0.922000   1.53900
     11577 HOAC     176      HOAC     DO1      DRUD    -2.356500        0.4000           0   0.00000   0.00000
     11578 HOAC     176      HOAC     O2       OD31F    2.776500       15.5990           0   -1.28000   1.12400
     11579 HOAC     176      HOAC     DO2      DRUD    -2.776500        0.4000           0   0.00000   0.00000
     11580 HOAC     176      HOAC     H        HDP1A    0.374000        1.0080           0   0.00000   0.00000
     11581 HOAC     176      HOAC     LPO11    LPD     -0.319000        0.0000           -1   0.00000   0.00000
     11582 HOAC     176      HOAC     LPO12    LPD     -0.319000        0.0000           -1   0.00000   0.00000
     11583 HOAC     176      HOAC     LPO21    LPD     -0.285000        0.0000           -1   0.00000   0.00000
     11584 HOAC     176      HOAC     LPO22    LPD     -0.285000        0.0000           -1   0.00000   0.00000
     11585 HOAC     177      HOAC     C1       CD2O3A   3.554200       11.6110           0   -1.20700   0.708000
     11586 HOAC     177      HOAC     DC1      DRUD    -2.696200        0.4000           0   0.00000   0.00000
     11587 HOAC     177      HOAC     C2       CD33C    3.268200       11.6110           0   -2.11400   0.750000
     11588 HOAC     177      HOAC     DC2      DRUD    -3.568200        0.4000           0   0.00000   0.00000
     11589 HOAC     177      HOAC     H1       HDA3A    0.092000        1.0080           0   0.00000   0.00000
     11590 HOAC     177      HOAC     H2       HDA3A    0.092000        1.0080           0   0.00000   0.00000
     11591 HOAC     177      HOAC     H3       HDA3A    0.092000        1.0080           0   0.00000   0.00000
     11592 HOAC     177      HOAC     O1       OD2C3A   2.356500       15.5994           0   -0.922000   1.53900
     11593 HOAC     177      HOAC     DO1      DRUD    -2.356500        0.4000           0   0.00000   0.00000
     11594 HOAC     177      HOAC     O2       OD31F    2.776500       15.5990           0   -1.28000   1.12400
     11595 HOAC     177      HOAC     DO2      DRUD    -2.776500        0.4000           0   0.00000   0.00000
     11596 HOAC     177      HOAC     H        HDP1A    0.374000        1.0080           0   0.00000   0.00000
     11597 HOAC     177      HOAC     LPO11    LPD     -0.319000        0.0000           -1   0.00000   0.00000
     11598 HOAC     177      HOAC     LPO12    LPD     -0.319000        0.0000           -1   0.00000   0.00000
     11599 HOAC     177      HOAC     LPO21    LPD     -0.285000        0.0000           -1   0.00000   0.00000
     11600 HOAC     177      HOAC     LPO22    LPD     -0.285000        0.0000           -1   0.00000   0.00000
     11601 HOAC     178      HOAC     C1       CD2O3A   3.554200       11.6110           0   -1.20700   0.708000
     11602 HOAC     178      HOAC     DC1      DRUD    -2.696200        0.4000           0   0.00000   0.00000
     11603 HOAC     178      HOAC     C2       CD33C    3.268200       11.6110           0   -2.11400   0.750000
     11604 HOAC     178      HOAC     DC2      DRUD    -3.568200        0.4000           0   0.00000   0.00000
     11605 HOAC     178      HOAC     H1       HDA3A    0.092000        1.0080           0   0.00000   0.00000
     11606 HOAC     178      HOAC     H2       HDA3A    0.092000        1.0080           0   0.00000   0.00000
     11607 HOAC     178      HOAC     H3       HDA3A    0.092000        1.0080           0   0.00000   0.00000
     11608 HOAC     178      HOAC     O1       OD2C3A   2.356500       15.5994           0   -0.922000   1.53900
     11609 HOAC     178      HOAC     DO1      DRUD    -2.356500        0.4000           0   0.00000   0.00000
     11610 HOAC     178      HOAC     O2       OD31F    2.776500       15.5990           0   -1.28000   1.12400
     11611 HOAC     178      HOAC     DO2      DRUD    -2.776500        0.4000           0   0.00000   0.00000
     11612 HOAC     178      HOAC     H        HDP1A    0.374000        1.0080           0   0.00000   0.00000
     11613 HOAC     178      HOAC     LPO11    LPD     -0.319000        0.0000           -1   0.00000   0.00000
     11614 HOAC     178      HOAC     LPO12    LPD     -0.319000        0.0000           -1   0.00000   0.00000
     11615 HOAC     178      HOAC     LPO21    LPD     -0.285000        0.0000           -1   0.00000   0.00000
     11616 HOAC     178      HOAC     LPO22    LPD     -0.285000        0.0000           -1   0.00000   0.00000
     11617 HOAC     179      HOAC     C1       CD2O3A   3.554200       11.6110           0   -1.20700   0.708000
     11618 HOAC     179      HOAC     DC1      DRUD    -2.696200        0.4000           0   0.00000   0.00000
     11619 HOAC     179      HOAC     C2       CD33C    3.268200       11.6110           0   -2.11400   0.750000
     11620 HOAC     179      HOAC     DC2      DRUD    -3.568200        0.4000           0   0.00000   0.00000
     11621 HOAC     179      HOAC     H1       HDA3A    0.092000        1.0080           0   0.00000   0.00000
     11622 HOAC     179      HOAC     H2       HDA3A    0.092000        1.0080           0   0.00000   0.00000
     11623 HOAC     179      HOAC     H3       HDA3A    0.092000        1.0080           0   0.00000   0.00000
     11624 HOAC     179      HOAC     O1       OD2C3A   2.356500       15.5994           0   -0.922000   1.53900
     11625 HOAC     179      HOAC     DO1      DRUD    -2.356500        0.4000           0   0.00000   0.00000
     11626 HOAC     179      HOAC     O2       OD31F    2.776500       15.5990           0   -1.28000   1.12400
     11627 HOAC     179      HOAC     DO2      DRUD    -2.776500        0.4000           0   0.00000   0.00000
     11628 HOAC     179      HOAC     H        HDP1A    0.374000        1.0080           0   0.00000   0.00000
     11629 HOAC     179      HOAC     LPO11    LPD     -0.319000        0.0000           -1   0.00000   0.00000
     11630 HOAC     179      HOAC     LPO12    LPD     -0.319000        0.0000           -1   0.00000   0.00000
     11631 HOAC     179      HOAC     LPO21    LPD     -0.285000        0.0000           -1   0.00000   0.00000
     11632 HOAC     179      HOAC     LPO22    LPD     -0.285000        0.0000           -1   0.00000   0.00000
     11633 HOAC     180      HOAC     C1       CD2O3A   3.554200       11.6110           0   -1.20700   0.708000
     11634 HOAC     180      HOAC     DC1      DRUD    -2.696200        0.4000           0   0.00000   0.00000
     11635 HOAC     180      HOAC     C2       CD33C    3.268200       11.6110           0   -2.11400   0.750000
     11636 HOAC     180      HOAC     DC2      DRUD    -3.568200        0.4000           0   0.00000   0.00000
     11637 HOAC     180      HOAC     H1       HDA3A    0.092000        1.0080           0   0.00000   0.00000
     11638 HOAC     180      HOAC     H2       HDA3A    0.092000        1.0080           0   0.00000   0.00000
     11639 HOAC     180      HOAC     H3       HDA3A    0.092000        1.0080           0   0.00000   0.00000
     11640 HOAC     180      HOAC     O1       OD2C3A   2.356500       15.5994           0   -0.922000   1.53900
     11641 HOAC     180      HOAC     DO1      DRUD    -2.356500        0.4000           0   0.00000   0.00000
     11642 HOAC     180      HOAC     O2       OD31F    2.776500       15.5990           0   -1.28000   1.12400
     11643 HOAC     180      HOAC     DO2      DRUD    -2.776500        0.4000           0   0.00000   0.00000
     11644 HOAC     180      HOAC     H        HDP1A    0.374000        1.0080           0   0.00000   0.00000
     11645 HOAC     180      HOAC     LPO11    LPD     -0.319000        0.0000           -1   0.00000   0.00000
     11646 HOAC     180      HOAC     LPO12    LPD     -0.319000        0.0000           -1   0.00000   0.00000
     11647 HOAC     180      HOAC     LPO21    LPD     -0.285000        0.0000           -1   0.00000   0.00000
     11648 HOAC     180      HOAC     LPO22    LPD     -0.285000        0.0000           -1   0.00000   0.00000
     11649 HOAC     181      HOAC     C1       CD2O3A   3.554200       11.6110           0   -1.20700   0.708000
     11650 HOAC     181      HOAC     DC1      DRUD    -2.696200        0.4000           0   0.00000   0.00000
     11651 HOAC     181      HOAC     C2       CD33C    3.268200       11.6110           0   -2.11400   0.750000
     11652 HOAC     181      HOAC     DC2      DRUD    -3.568200        0.4000           0   0.00000   0.00000
     11653 HOAC     181      HOAC     H1       HDA3A    0.092000        1.0080           0   0.00000   0.00000
     11654 HOAC     181      HOAC     H2       HDA3A    0.092000        1.0080           0   0.00000   0.00000
     11655 HOAC     181      HOAC     H3       HDA3A    0.092000        1.0080           0   0.00000   0.00000
     11656 HOAC     181      HOAC     O1       OD2C3A   2.356500       15.5994           0   -0.922000   1.53900
     11657 HOAC     181      HOAC     DO1      DRUD    -2.356500        0.4000           0   0.00000   0.00000
     11658 HOAC     181      HOAC     O2       OD31F    2.776500       15.5990           0   -1.28000   1.12400
     11659 HOAC     181      HOAC     DO2      DRUD    -2.776500        0.4000           0   0.00000   0.00000
     11660 HOAC     181      HOAC     H        HDP1A    0.374000        1.0080           0   0.00000   0.00000
     11661 HOAC     181      HOAC     LPO11    LPD     -0.319000        0.0000           -1   0.00000   0.00000
     11662 HOAC     181      HOAC     LPO12    LPD     -0.319000        0.0000           -1   0.00000   0.00000
     11663 HOAC     181      HOAC     LPO21    LPD     -0.285000        0.0000           -1   0.00000   0.00000
     11664 HOAC     181      HOAC     LPO22    LPD     -0.285000        0.0000           -1   0.00000   0.00000
     11665 HOAC     182      HOAC     C1       CD2O3A   3.554200       11.6110           0   -1.20700   0.708000
     11666 HOAC     182      HOAC     DC1      DRUD    -2.696200        0.4000           0   0.00000   0.00000
     11667 HOAC     182      HOAC     C2       CD33C    3.268200       11.6110           0   -2.11400   0.750000
     11668 HOAC     182      HOAC     DC2      DRUD    -3.568200        0.4000           0   0.00000   0.00000
     11669 HOAC     182      HOAC     H1       HDA3A    0.092000        1.0080           0   0.00000   0.00000
     11670 HOAC     182      HOAC     H2       HDA3A    0.092000        1.0080           0   0.00000   0.00000
     11671 HOAC     182      HOAC     H3       HDA3A    0.092000        1.0080           0   0.00000   0.00000
     11672 HOAC     182      HOAC     O1       OD2C3A   2.356500       15.5994           0   -0.922000   1.53900
     11673 HOAC     182      HOAC     DO1      DRUD    -2.356500        0.4000           0   0.00000   0.00000
     11674 HOAC     182      HOAC     O2       OD31F    2.776500       15.5990           0   -1.28000   1.12400
     11675 HOAC     182      HOAC     DO2      DRUD    -2.776500        0.4000           0   0.00000   0.00000
     11676 HOAC     182      HOAC     H        HDP1A    0.374000        1.0080           0   0.00000   0.00000
     11677 HOAC     182      HOAC     LPO11    LPD     -0.319000        0.0000           -1   0.00000   0.00000
     11678 HOAC     182      HOAC     LPO12    LPD     -0.319000        0.0000           -1   0.00000   0.00000
     11679 HOAC     182      HOAC     LPO21    LPD     -0.285000        0.0000           -1   0.00000   0.00000
     11680 HOAC     182      HOAC     LPO22    LPD     -0.285000        0.0000           -1   0.00000   0.00000
     11681 HOAC     183      HOAC     C1       CD2O3A   3.554200       11.6110           0   -1.20700   0.708000
     11682 HOAC     183      HOAC     DC1      DRUD    -2.696200        0.4000           0   0.00000   0.00000
     11683 HOAC     183      HOAC     C2       CD33C    3.268200       11.6110           0   -2.11400   0.750000
     11684 HOAC     183      HOAC     DC2      DRUD    -3.568200        0.4000           0   0.00000   0.00000
     11685 HOAC     183      HOAC     H1       HDA3A    0.092000        1.0080           0   0.00000   0.00000
     11686 HOAC     183      HOAC     H2       HDA3A    0.092000        1.0080           0   0.00000   0.00000
     11687 HOAC     183      HOAC     H3       HDA3A    0.092000        1.0080           0   0.00000   0.00000
     11688 HOAC     183      HOAC     O1       OD2C3A   2.356500       15.5994           0   -0.922000   1.53900
     11689 HOAC     183      HOAC     DO1      DRUD    -2.356500        0.4000           0   0.00000   0.00000
     11690 HOAC     183      HOAC     O2       OD31F    2.776500       15.5990           0   -1.28000   1.12400
     11691 HOAC     183      HOAC     DO2      DRUD    -2.776500        0.4000           0   0.00000   0.00000
     11692 HOAC     183      HOAC     H        HDP1A    0.374000        1.0080           0   0.00000   0.00000
     11693 HOAC     183      HOAC     LPO11    LPD     -0.319000        0.0000           -1   0.00000   0.00000
     11694 HOAC     183      HOAC     LPO12    LPD     -0.319000        0.0000           -1   0.00000   0.00000
     11695 HOAC     183      HOAC     LPO21    LPD     -0.285000        0.0000           -1   0.00000   0.00000
     11696 HOAC     183      HOAC     LPO22    LPD     -0.285000        0.0000           -1   0.00000   0.00000
     11697 HOAC     184      HOAC     C1       CD2O3A   3.554200       11.6110           0   -1.20700   0.708000
     11698 HOAC     184      HOAC     DC1      DRUD    -2.696200        0.4000           0   0.00000   0.00000
     11699 HOAC     184      HOAC     C2       CD33C    3.268200       11.6110           0   -2.11400   0.750000
     11700 HOAC     184      HOAC     DC2      DRUD    -3.568200        0.4000           0   0.00000   0.00000
     11701 HOAC     184      HOAC     H1       HDA3A    0.092000        1.0080           0   0.00000   0.00000
     11702 HOAC     184      HOAC     H2       HDA3A    0.092000        1.0080           0   0.00000   0.00000
     11703 HOAC     184      HOAC     H3       HDA3A    0.092000        1.0080           0   0.00000   0.00000
     11704 HOAC     184      HOAC     O1       OD2C3A   2.356500       15.5994           0   -0.922000   1.53900
     11705 HOAC     184      HOAC     DO1      DRUD    -2.356500        0.4000           0   0.00000   0.00000
     11706 HOAC     184      HOAC     O2       OD31F    2.776500       15.5990           0   -1.28000   1.12400
     11707 HOAC     184      HOAC     DO2      DRUD    -2.776500        0.4000           0   0.00000   0.00000
     11708 HOAC     184      HOAC     H        HDP1A    0.374000        1.0080           0   0.00000   0.00000
     11709 HOAC     184      HOAC     LPO11    LPD     -0.319000        0.0000           -1   0.00000   0.00000
     11710 HOAC     184      HOAC     LPO12    LPD     -0.319000        0.0000           -1   0.00000   0.00000
     11711 HOAC     184      HOAC     LPO21    LPD     -0.285000        0.0000           -1   0.00000   0.00000
     11712 HOAC     184      HOAC     LPO22    LPD     -0.285000        0.0000           -1   0.00000   0.00000
     11713 HOAC     185      HOAC     C1       CD2O3A   3.554200       11.6110           0   -1.20700   0.708000
     11714 HOAC     185      HOAC     DC1      DRUD    -2.696200        0.4000           0   0.00000   0.00000
     11715 HOAC     185      HOAC     C2       CD33C    3.268200       11.6110           0   -2.11400   0.750000
     11716 HOAC     185      HOAC     DC2      DRUD    -3.568200        0.4000           0   0.00000   0.00000
     11717 HOAC     185      HOAC     H1       HDA3A    0.092000        1.0080           0   0.00000   0.00000
     11718 HOAC     185      HOAC     H2       HDA3A    0.092000        1.0080           0   0.00000   0.00000
     11719 HOAC     185      HOAC     H3       HDA3A    0.092000        1.0080           0   0.00000   0.00000
     11720 HOAC     185      HOAC     O1       OD2C3A   2.356500       15.5994           0   -0.922000   1.53900
     11721 HOAC     185      HOAC     DO1      DRUD    -2.356500        0.4000           0   0.00000   0.00000
     11722 HOAC     185      HOAC     O2       OD31F    2.776500       15.5990           0   -1.28000   1.12400
     11723 HOAC     185      HOAC     DO2      DRUD    -2.776500        0.4000           0   0.00000   0.00000
     11724 HOAC     185      HOAC     H        HDP1A    0.374000        1.0080           0   0.00000   0.00000
     11725 HOAC     185      HOAC     LPO11    LPD     -0.319000        0.0000           -1   0.00000   0.00000
     11726 HOAC     185      HOAC     LPO12    LPD     -0.319000        0.0000           -1   0.00000   0.00000
     11727 HOAC     185      HOAC     LPO21    LPD     -0.285000        0.0000           -1   0.00000   0.00000
     11728 HOAC     185      HOAC     LPO22    LPD     -0.285000        0.0000           -1   0.00000   0.00000
     11729 HOAC     186      HOAC     C1       CD2O3A   3.554200       11.6110           0   -1.20700   0.708000
     11730 HOAC     186      HOAC     DC1      DRUD    -2.696200        0.4000           0   0.00000   0.00000
     11731 HOAC     186      HOAC     C2       CD33C    3.268200       11.6110           0   -2.11400   0.750000
     11732 HOAC     186      HOAC     DC2      DRUD    -3.568200        0.4000           0   0.00000   0.00000
     11733 HOAC     186      HOAC     H1       HDA3A    0.092000        1.0080           0   0.00000   0.00000
     11734 HOAC     186      HOAC     H2       HDA3A    0.092000        1.0080           0   0.00000   0.00000
     11735 HOAC     186      HOAC     H3       HDA3A    0.092000        1.0080           0   0.00000   0.00000
     11736 HOAC     186      HOAC     O1       OD2C3A   2.356500       15.5994           0   -0.922000   1.53900
     11737 HOAC     186      HOAC     DO1      DRUD    -2.356500        0.4000           0   0.00000   0.00000
     11738 HOAC     186      HOAC     O2       OD31F    2.776500       15.5990           0   -1.28000   1.12400
     11739 HOAC     186      HOAC     DO2      DRUD    -2.776500        0.4000           0   0.00000   0.00000
     11740 HOAC     186      HOAC     H        HDP1A    0.374000        1.0080           0   0.00000   0.00000
     11741 HOAC     186      HOAC     LPO11    LPD     -0.319000        0.0000           -1   0.00000   0.00000
     11742 HOAC     186      HOAC     LPO12    LPD     -0.319000        0.0000           -1   0.00000   0.00000
     11743 HOAC     186      HOAC     LPO21    LPD     -0.285000        0.0000           -1   0.00000   0.00000
     11744 HOAC     186      HOAC     LPO22    LPD     -0.285000        0.0000           -1   0.00000   0.00000
     11745 HOAC     187      HOAC     C1       CD2O3A   3.554200       11.6110           0   -1.20700   0.708000
     11746 HOAC     187      HOAC     DC1      DRUD    -2.696200        0.4000           0   0.00000   0.00000
     11747 HOAC     187      HOAC     C2       CD33C    3.268200       11.6110           0   -2.11400   0.750000
     11748 HOAC     187      HOAC     DC2      DRUD    -3.568200        0.4000           0   0.00000   0.00000
     11749 HOAC     187      HOAC     H1       HDA3A    0.092000        1.0080           0   0.00000   0.00000
     11750 HOAC     187      HOAC     H2       HDA3A    0.092000        1.0080           0   0.00000   0.00000
     11751 HOAC     187      HOAC     H3       HDA3A    0.092000        1.0080           0   0.00000   0.00000
     11752 HOAC     187      HOAC     O1       OD2C3A   2.356500       15.5994           0   -0.922000   1.53900
     11753 HOAC     187      HOAC     DO1      DRUD    -2.356500        0.4000           0   0.00000   0.00000
     11754 HOAC     187      HOAC     O2       OD31F    2.776500       15.5990           0   -1.28000   1.12400
     11755 HOAC     187      HOAC     DO2      DRUD    -2.776500        0.4000           0   0.00000   0.00000
     11756 HOAC     187      HOAC     H        HDP1A    0.374000        1.0080           0   0.00000   0.00000
     11757 HOAC     187      HOAC     LPO11    LPD     -0.319000        0.0000           -1   0.00000   0.00000
     11758 HOAC     187      HOAC     LPO12    LPD     -0.319000        0.0000           -1   0.00000   0.00000
     11759 HOAC     187      HOAC     LPO21    LPD     -0.285000        0.0000           -1   0.00000   0.00000
     11760 HOAC     187      HOAC     LPO22    LPD     -0.285000        0.0000           -1   0.00000   0.00000
     11761 HOAC     188      HOAC     C1       CD2O3A   3.554200       11.6110           0   -1.20700   0.708000
     11762 HOAC     188      HOAC     DC1      DRUD    -2.696200        0.4000           0   0.00000   0.00000
     11763 HOAC     188      HOAC     C2       CD33C    3.268200       11.6110           0   -2.11400   0.750000
     11764 HOAC     188      HOAC     DC2      DRUD    -3.568200        0.4000           0   0.00000   0.00000
     11765 HOAC     188      HOAC     H1       HDA3A    0.092000        1.0080           0   0.00000   0.00000
     11766 HOAC     188      HOAC     H2       HDA3A    0.092000        1.0080           0   0.00000   0.00000
     11767 HOAC     188      HOAC     H3       HDA3A    0.092000        1.0080           0   0.00000   0.00000
     11768 HOAC     188      HOAC     O1       OD2C3A   2.356500       15.5994           0   -0.922000   1.53900
     11769 HOAC     188      HOAC     DO1      DRUD    -2.356500        0.4000           0   0.00000   0.00000
     11770 HOAC     188      HOAC     O2       OD31F    2.776500       15.5990           0   -1.28000   1.12400
     11771 HOAC     188      HOAC     DO2      DRUD    -2.776500        0.4000           0   0.00000   0.00000
     11772 HOAC     188      HOAC     H        HDP1A    0.374000        1.0080           0   0.00000   0.00000
     11773 HOAC     188      HOAC     LPO11    LPD     -0.319000        0.0000           -1   0.00000   0.00000
     11774 HOAC     188      HOAC     LPO12    LPD     -0.319000        0.0000           -1   0.00000   0.00000
     11775 HOAC     188      HOAC     LPO21    LPD     -0.285000        0.0000           -1   0.00000   0.00000
     11776 HOAC     188      HOAC     LPO22    LPD     -0.285000        0.0000           -1   0.00000   0.00000
     11777 HOAC     189      HOAC     C1       CD2O3A   3.554200       11.6110           0   -1.20700   0.708000
     11778 HOAC     189      HOAC     DC1      DRUD    -2.696200        0.4000           0   0.00000   0.00000
     11779 HOAC     189      HOAC     C2       CD33C    3.268200       11.6110           0   -2.11400   0.750000
     11780 HOAC     189      HOAC     DC2      DRUD    -3.568200        0.4000           0   0.00000   0.00000
     11781 HOAC     189      HOAC     H1       HDA3A    0.092000        1.0080           0   0.00000   0.00000
     11782 HOAC     189      HOAC     H2       HDA3A    0.092000        1.0080           0   0.00000   0.00000
     11783 HOAC     189      HOAC     H3       HDA3A    0.092000        1.0080           0   0.00000   0.00000
     11784 HOAC     189      HOAC     O1       OD2C3A   2.356500       15.5994           0   -0.922000   1.53900
     11785 HOAC     189      HOAC     DO1      DRUD    -2.356500        0.4000           0   0.00000   0.00000
     11786 HOAC     189      HOAC     O2       OD31F    2.776500       15.5990           0   -1.28000   1.12400
     11787 HOAC     189      HOAC     DO2      DRUD    -2.776500        0.4000           0   0.00000   0.00000
     11788 HOAC     189      HOAC     H        HDP1A    0.374000        1.0080           0   0.00000   0.00000
     11789 HOAC     189      HOAC     LPO11    LPD     -0.319000        0.0000           -1   0.00000   0.00000
     11790 HOAC     189      HOAC     LPO12    LPD     -0.319000        0.0000           -1   0.00000   0.00000
     11791 HOAC     189      HOAC     LPO21    LPD     -0.285000        0.0000           -1   0.00000   0.00000
     11792 HOAC     189      HOAC     LPO22    LPD     -0.285000        0.0000           -1   0.00000   0.00000
     11793 HOAC     190      HOAC     C1       CD2O3A   3.554200       11.6110           0   -1.20700   0.708000
     11794 HOAC     190      HOAC     DC1      DRUD    -2.696200        0.4000           0   0.00000   0.00000
     11795 HOAC     190      HOAC     C2       CD33C    3.268200       11.6110           0   -2.11400   0.750000
     11796 HOAC     190      HOAC     DC2      DRUD    -3.568200        0.4000           0   0.00000   0.00000
     11797 HOAC     190      HOAC     H1       HDA3A    0.092000        1.0080           0   0.00000   0.00000
     11798 HOAC     190      HOAC     H2       HDA3A    0.092000        1.0080           0   0.00000   0.00000
     11799 HOAC     190      HOAC     H3       HDA3A    0.092000        1.0080           0   0.00000   0.00000
     11800 HOAC     190      HOAC     O1       OD2C3A   2.356500       15.5994           0   -0.922000   1.53900
     11801 HOAC     190      HOAC     DO1      DRUD    -2.356500        0.4000           0   0.00000   0.00000
     11802 HOAC     190      HOAC     O2       OD31F    2.776500       15.5990           0   -1.28000   1.12400
     11803 HOAC     190      HOAC     DO2      DRUD    -2.776500        0.4000           0   0.00000   0.00000
     11804 HOAC     190      HOAC     H        HDP1A    0.374000        1.0080           0   0.00000   0.00000
     11805 HOAC     190      HOAC     LPO11    LPD     -0.319000        0.0000           -1   0.00000   0.00000
     11806 HOAC     190      HOAC     LPO12    LPD     -0.319000        0.0000           -1   0.00000   0.00000
     11807 HOAC     190      HOAC     LPO21    LPD     -0.285000        0.0000           -1   0.00000   0.00000
     11808 HOAC     190      HOAC     LPO22    LPD     -0.285000        0.0000           -1   0.00000   0.00000
     11809 HOAC     191      HOAC     C1       CD2O3A   3.554200       11.6110           0   -1.20700   0.708000
     11810 HOAC     191      HOAC     DC1      DRUD    -2.696200        0.4000           0   0.00000   0.00000
     11811 HOAC     191      HOAC     C2       CD33C    3.268200       11.6110           0   -2.11400   0.750000
     11812 HOAC     191      HOAC     DC2      DRUD    -3.568200        0.4000           0   0.00000   0.00000
     11813 HOAC     191      HOAC     H1       HDA3A    0.092000        1.0080           0   0.00000   0.00000
     11814 HOAC     191      HOAC     H2       HDA3A    0.092000        1.0080           0   0.00000   0.00000
     11815 HOAC     191      HOAC     H3       HDA3A    0.092000        1.0080           0   0.00000   0.00000
     11816 HOAC     191      HOAC     O1       OD2C3A   2.356500       15.5994           0   -0.922000   1.53900
     11817 HOAC     191      HOAC     DO1      DRUD    -2.356500        0.4000           0   0.00000   0.00000
     11818 HOAC     191      HOAC     O2       OD31F    2.776500       15.5990           0   -1.28000   1.12400
     11819 HOAC     191      HOAC     DO2      DRUD    -2.776500        0.4000           0   0.00000   0.00000
     11820 HOAC     191      HOAC     H        HDP1A    0.374000        1.0080           0   0.00000   0.00000
     11821 HOAC     191      HOAC     LPO11    LPD     -0.319000        0.0000           -1   0.00000   0.00000
     11822 HOAC     191      HOAC     LPO12    LPD     -0.319000        0.0000           -1   0.00000   0.00000
     11823 HOAC     191      HOAC     LPO21    LPD     -0.285000        0.0000           -1   0.00000   0.00000
     11824 HOAC     191      HOAC     LPO22    LPD     -0.285000        0.0000           -1   0.00000   0.00000
     11825 HOAC     192      HOAC     C1       CD2O3A   3.554200       11.6110           0   -1.20700   0.708000
     11826 HOAC     192      HOAC     DC1      DRUD    -2.696200        0.4000           0   0.00000   0.00000
     11827 HOAC     192      HOAC     C2       CD33C    3.268200       11.6110           0   -2.11400   0.750000
     11828 HOAC     192      HOAC     DC2      DRUD    -3.568200        0.4000           0   0.00000   0.00000
     11829 HOAC     192      HOAC     H1       HDA3A    0.092000        1.0080           0   0.00000   0.00000
     11830 HOAC     192      HOAC     H2       HDA3A    0.092000        1.0080           0   0.00000   0.00000
     11831 HOAC     192      HOAC     H3       HDA3A    0.092000        1.0080           0   0.00000   0.00000
     11832 HOAC     192      HOAC     O1       OD2C3A   2.356500       15.5994           0   -0.922000   1.53900
     11833 HOAC     192      HOAC     DO1      DRUD    -2.356500        0.4000           0   0.00000   0.00000
     11834 HOAC     192      HOAC     O2       OD31F    2.776500       15.5990           0   -1.28000   1.12400
     11835 HOAC     192      HOAC     DO2      DRUD    -2.776500        0.4000           0   0.00000   0.00000
     11836 HOAC     192      HOAC     H        HDP1A    0.374000        1.0080           0   0.00000   0.00000
     11837 HOAC     192      HOAC     LPO11    LPD     -0.319000        0.0000           -1   0.00000   0.00000
     11838 HOAC     192      HOAC     LPO12    LPD     -0.319000        0.0000           -1   0.00000   0.00000
     11839 HOAC     192      HOAC     LPO21    LPD     -0.285000        0.0000           -1   0.00000   0.00000
     11840 HOAC     192      HOAC     LPO22    LPD     -0.285000        0.0000           -1   0.00000   0.00000
     11841 HOAC     193      HOAC     C1       CD2O3A   3.554200       11.6110           0   -1.20700   0.708000
     11842 HOAC     193      HOAC     DC1      DRUD    -2.696200        0.4000           0   0.00000   0.00000
     11843 HOAC     193      HOAC     C2       CD33C    3.268200       11.6110           0   -2.11400   0.750000
     11844 HOAC     193      HOAC     DC2      DRUD    -3.568200        0.4000           0   0.00000   0.00000
     11845 HOAC     193      HOAC     H1       HDA3A    0.092000        1.0080           0   0.00000   0.00000
     11846 HOAC     193      HOAC     H2       HDA3A    0.092000        1.0080           0   0.00000   0.00000
     11847 HOAC     193      HOAC     H3       HDA3A    0.092000        1.0080           0   0.00000   0.00000
     11848 HOAC     193      HOAC     O1       OD2C3A   2.356500       15.5994           0   -0.922000   1.53900
     11849 HOAC     193      HOAC     DO1      DRUD    -2.356500        0.4000           0   0.00000   0.00000
     11850 HOAC     193      HOAC     O2       OD31F    2.776500       15.5990           0   -1.28000   1.12400
     11851 HOAC     193      HOAC     DO2      DRUD    -2.776500        0.4000           0   0.00000   0.00000
     11852 HOAC     193      HOAC     H        HDP1A    0.374000        1.0080           0   0.00000   0.00000
     11853 HOAC     193      HOAC     LPO11    LPD     -0.319000        0.0000           -1   0.00000   0.00000
     11854 HOAC     193      HOAC     LPO12    LPD     -0.319000        0.0000           -1   0.00000   0.00000
     11855 HOAC     193      HOAC     LPO21    LPD     -0.285000        0.0000           -1   0.00000   0.00000
     11856 HOAC     193      HOAC     LPO22    LPD     -0.285000        0.0000           -1   0.00000   0.00000
     11857 HOAC     194      HOAC     C1       CD2O3A   3.554200       11.6110           0   -1.20700   0.708000
     11858 HOAC     194      HOAC     DC1      DRUD    -2.696200        0.4000           0   0.00000   0.00000
     11859 HOAC     194      HOAC     C2       CD33C    3.268200       11.6110           0   -2.11400   0.750000
     11860 HOAC     194      HOAC     DC2      DRUD    -3.568200        0.4000           0   0.00000   0.00000
     11861 HOAC     194      HOAC     H1       HDA3A    0.092000        1.0080           0   0.00000   0.00000
     11862 HOAC     194      HOAC     H2       HDA3A    0.092000        1.0080           0   0.00000   0.00000
     11863 HOAC     194      HOAC     H3       HDA3A    0.092000        1.0080           0   0.00000   0.00000
     11864 HOAC     194      HOAC     O1       OD2C3A   2.356500       15.5994           0   -0.922000   1.53900
     11865 HOAC     194      HOAC     DO1      DRUD    -2.356500        0.4000           0   0.00000   0.00000
     11866 HOAC     194      HOAC     O2       OD31F    2.776500       15.5990           0   -1.28000   1.12400
     11867 HOAC     194      HOAC     DO2      DRUD    -2.776500        0.4000           0   0.00000   0.00000
     11868 HOAC     194      HOAC     H        HDP1A    0.374000        1.0080           0   0.00000   0.00000
     11869 HOAC     194      HOAC     LPO11    LPD     -0.319000        0.0000           -1   0.00000   0.00000
     11870 HOAC     194      HOAC     LPO12    LPD     -0.319000        0.0000           -1   0.00000   0.00000
     11871 HOAC     194      HOAC     LPO21    LPD     -0.285000        0.0000           -1   0.00000   0.00000
     11872 HOAC     194      HOAC     LPO22    LPD     -0.285000        0.0000           -1   0.00000   0.00000
     11873 HOAC     195      HOAC     C1       CD2O3A   3.554200       11.6110           0   -1.20700   0.708000
     11874 HOAC     195      HOAC     DC1      DRUD    -2.696200        0.4000           0   0.00000   0.00000
     11875 HOAC     195      HOAC     C2       CD33C    3.268200       11.6110           0   -2.11400   0.750000
     11876 HOAC     195      HOAC     DC2      DRUD    -3.568200        0.4000           0   0.00000   0.00000
     11877 HOAC     195      HOAC     H1       HDA3A    0.092000        1.0080           0   0.00000   0.00000
     11878 HOAC     195      HOAC     H2       HDA3A    0.092000        1.0080           0   0.00000   0.00000
     11879 HOAC     195      HOAC     H3       HDA3A    0.092000        1.0080           0   0.00000   0.00000
     11880 HOAC     195      HOAC     O1       OD2C3A   2.356500       15.5994           0   -0.922000   1.53900
     11881 HOAC     195      HOAC     DO1      DRUD    -2.356500        0.4000           0   0.00000   0.00000
     11882 HOAC     195      HOAC     O2       OD31F    2.776500       15.5990           0   -1.28000   1.12400
     11883 HOAC     195      HOAC     DO2      DRUD    -2.776500        0.4000           0   0.00000   0.00000
     11884 HOAC     195      HOAC     H        HDP1A    0.374000        1.0080           0   0.00000   0.00000
     11885 HOAC     195      HOAC     LPO11    LPD     -0.319000        0.0000           -1   0.00000   0.00000
     11886 HOAC     195      HOAC     LPO12    LPD     -0.319000        0.0000           -1   0.00000   0.00000
     11887 HOAC     195      HOAC     LPO21    LPD     -0.285000        0.0000           -1   0.00000   0.00000
     11888 HOAC     195      HOAC     LPO22    LPD     -0.285000        0.0000           -1   0.00000   0.00000
     11889 HOAC     196      HOAC     C1       CD2O3A   3.554200       11.6110           0   -1.20700   0.708000
     11890 HOAC     196      HOAC     DC1      DRUD    -2.696200        0.4000           0   0.00000   0.00000
     11891 HOAC     196      HOAC     C2       CD33C    3.268200       11.6110           0   -2.11400   0.750000
     11892 HOAC     196      HOAC     DC2      DRUD    -3.568200        0.4000           0   0.00000   0.00000
     11893 HOAC     196      HOAC     H1       HDA3A    0.092000        1.0080           0   0.00000   0.00000
     11894 HOAC     196      HOAC     H2       HDA3A    0.092000        1.0080           0   0.00000   0.00000
     11895 HOAC     196      HOAC     H3       HDA3A    0.092000        1.0080           0   0.00000   0.00000
     11896 HOAC     196      HOAC     O1       OD2C3A   2.356500       15.5994           0   -0.922000   1.53900
     11897 HOAC     196      HOAC     DO1      DRUD    -2.356500        0.4000           0   0.00000   0.00000
     11898 HOAC     196      HOAC     O2       OD31F    2.776500       15.5990           0   -1.28000   1.12400
     11899 HOAC     196      HOAC     DO2      DRUD    -2.776500        0.4000           0   0.00000   0.00000
     11900 HOAC     196      HOAC     H        HDP1A    0.374000        1.0080           0   0.00000   0.00000
     11901 HOAC     196      HOAC     LPO11    LPD     -0.319000        0.0000           -1   0.00000   0.00000
     11902 HOAC     196      HOAC     LPO12    LPD     -0.319000        0.0000           -1   0.00000   0.00000
     11903 HOAC     196      HOAC     LPO21    LPD     -0.285000        0.0000           -1   0.00000   0.00000
     11904 HOAC     196      HOAC     LPO22    LPD     -0.285000        0.0000           -1   0.00000   0.00000
     11905 HOAC     197      HOAC     C1       CD2O3A   3.554200       11.6110           0   -1.20700   0.708000
     11906 HOAC     197      HOAC     DC1      DRUD    -2.696200        0.4000           0   0.00000   0.00000
     11907 HOAC     197      HOAC     C2       CD33C    3.268200       11.6110           0   -2.11400   0.750000
     11908 HOAC     197      HOAC     DC2      DRUD    -3.568200        0.4000           0   0.00000   0.00000
     11909 HOAC     197      HOAC     H1       HDA3A    0.092000        1.0080           0   0.00000   0.00000
     11910 HOAC     197      HOAC     H2       HDA3A    0.092000        1.0080           0   0.00000   0.00000
     11911 HOAC     197      HOAC     H3       HDA3A    0.092000        1.0080           0   0.00000   0.00000
     11912 HOAC     197      HOAC     O1       OD2C3A   2.356500       15.5994           0   -0.922000   1.53900
     11913 HOAC     197      HOAC     DO1      DRUD    -2.356500        0.4000           0   0.00000   0.00000
     11914 HOAC     197      HOAC     O2       OD31F    2.776500       15.5990           0   -1.28000   1.12400
     11915 HOAC     197      HOAC     DO2      DRUD    -2.776500        0.4000           0   0.00000   0.00000
     11916 HOAC     197      HOAC     H        HDP1A    0.374000        1.0080           0   0.00000   0.00000
     11917 HOAC     197      HOAC     LPO11    LPD     -0.319000        0.0000           -1   0.00000   0.00000
     11918 HOAC     197      HOAC     LPO12    LPD     -0.319000        0.0000           -1   0.00000   0.00000
     11919 HOAC     197      HOAC     LPO21    LPD     -0.285000        0.0000           -1   0.00000   0.00000
     11920 HOAC     197      HOAC     LPO22    LPD     -0.285000        0.0000           -1   0.00000   0.00000
     11921 HOAC     198      HOAC     C1       CD2O3A   3.554200       11.6110           0   -1.20700   0.708000
     11922 HOAC     198      HOAC     DC1      DRUD    -2.696200        0.4000           0   0.00000   0.00000
     11923 HOAC     198      HOAC     C2       CD33C    3.268200       11.6110           0   -2.11400   0.750000
     11924 HOAC     198      HOAC     DC2      DRUD    -3.568200        0.4000           0   0.00000   0.00000
     11925 HOAC     198      HOAC     H1       HDA3A    0.092000        1.0080           0   0.00000   0.00000
     11926 HOAC     198      HOAC     H2       HDA3A    0.092000        1.0080           0   0.00000   0.00000
     11927 HOAC     198      HOAC     H3       HDA3A    0.092000        1.0080           0   0.00000   0.00000
     11928 HOAC     198      HOAC     O1       OD2C3A   2.356500       15.5994           0   -0.922000   1.53900
     11929 HOAC     198      HOAC     DO1      DRUD    -2.356500        0.4000           0   0.00000   0.00000
     11930 HOAC     198      HOAC     O2       OD31F    2.776500       15.5990           0   -1.28000   1.12400
     11931 HOAC     198      HOAC     DO2      DRUD    -2.776500        0.4000           0   0.00000   0.00000
     11932 HOAC     198      HOAC     H        HDP1A    0.374000        1.0080           0   0.00000   0.00000
     11933 HOAC     198      HOAC     LPO11    LPD     -0.319000        0.0000           -1   0.00000   0.00000
     11934 HOAC     198      HOAC     LPO12    LPD     -0.319000        0.0000           -1   0.00000   0.00000
     11935 HOAC     198      HOAC     LPO21    LPD     -0.285000        0.0000           -1   0.00000   0.00000
     11936 HOAC     198      HOAC     LPO22    LPD     -0.285000        0.0000           -1   0.00000   0.00000
     11937 HOAC     199      HOAC     C1       CD2O3A   3.554200       11.6110           0   -1.20700   0.708000
     11938 HOAC     199      HOAC     DC1      DRUD    -2.696200        0.4000           0   0.00000   0.00000
     11939 HOAC     199      HOAC     C2       CD33C    3.268200       11.6110           0   -2.11400   0.750000
     11940 HOAC     199      HOAC     DC2      DRUD    -3.568200        0.4000           0   0.00000   0.00000
     11941 HOAC     199      HOAC     H1       HDA3A    0.092000        1.0080           0   0.00000   0.00000
     11942 HOAC     199      HOAC     H2       HDA3A    0.092000        1.0080           0   0.00000   0.00000
     11943 HOAC     199      HOAC     H3       HDA3A    0.092000        1.0080           0   0.00000   0.00000
     11944 HOAC     199      HOAC     O1       OD2C3A   2.356500       15.5994           0   -0.922000   1.53900
     11945 HOAC     199      HOAC     DO1      DRUD    -2.356500        0.4000           0   0.00000   0.00000
     11946 HOAC     199      HOAC     O2       OD31F    2.776500       15.5990           0   -1.28000   1.12400
     11947 HOAC     199      HOAC     DO2      DRUD    -2.776500        0.4000           0   0.00000   0.00000
     11948 HOAC     199      HOAC     H        HDP1A    0.374000        1.0080           0   0.00000   0.00000
     11949 HOAC     199      HOAC     LPO11    LPD     -0.319000        0.0000           -1   0.00000   0.00000
     11950 HOAC     199      HOAC     LPO12    LPD     -0.319000        0.0000           -1   0.00000   0.00000
     11951 HOAC     199      HOAC     LPO21    LPD     -0.285000        0.0000           -1   0.00000   0.00000
     11952 HOAC     199      HOAC     LPO22    LPD     -0.285000        0.0000           -1   0.00000   0.00000
     11953 HOAC     200      HOAC     C1       CD2O3A   3.554200       11.6110           0   -1.20700   0.708000
     11954 HOAC     200      HOAC     DC1      DRUD    -2.696200        0.4000           0   0.00000   0.00000
     11955 HOAC     200      HOAC     C2       CD33C    3.268200       11.6110           0   -2.11400   0.750000
     11956 HOAC     200      HOAC     DC2      DRUD    -3.568200        0.4000           0   0.00000   0.00000
     11957 HOAC     200      HOAC     H1       HDA3A    0.092000        1.0080           0   0.00000   0.00000
     11958 HOAC     200      HOAC     H2       HDA3A    0.092000        1.0080           0   0.00000   0.00000
     11959 HOAC     200      HOAC     H3       HDA3A    0.092000        1.0080           0   0.00000   0.00000
     11960 HOAC     200      HOAC     O1       OD2C3A   2.356500       15.5994           0   -0.922000   1.53900
     11961 HOAC     200      HOAC     DO1      DRUD    -2.356500        0.4000           0   0.00000   0.00000
     11962 HOAC     200      HOAC     O2       OD31F    2.776500       15.5990           0   -1.28000   1.12400
     11963 HOAC     200      HOAC     DO2      DRUD    -2.776500        0.4000           0   0.00000   0.00000
     11964 HOAC     200      HOAC     H        HDP1A    0.374000        1.0080           0   0.00000   0.00000
     11965 HOAC     200      HOAC     LPO11    LPD     -0.319000        0.0000           -1   0.00000   0.00000
     11966 HOAC     200      HOAC     LPO12    LPD     -0.319000        0.0000           -1   0.00000   0.00000
     11967 HOAC     200      HOAC     LPO21    LPD     -0.285000        0.0000           -1   0.00000   0.00000
     11968 HOAC     200      HOAC     LPO22    LPD     -0.285000        0.0000           -1   0.00000   0.00000
     11969 HOAC     201      HOAC     C1       CD2O3A   3.554200       11.6110           0   -1.20700   0.708000
     11970 HOAC     201      HOAC     DC1      DRUD    -2.696200        0.4000           0   0.00000   0.00000
     11971 HOAC     201      HOAC     C2       CD33C    3.268200       11.6110           0   -2.11400   0.750000
     11972 HOAC     201      HOAC     DC2      DRUD    -3.568200        0.4000           0   0.00000   0.00000
     11973 HOAC     201      HOAC     H1       HDA3A    0.092000        1.0080           0   0.00000   0.00000
     11974 HOAC     201      HOAC     H2       HDA3A    0.092000        1.0080           0   0.00000   0.00000
     11975 HOAC     201      HOAC     H3       HDA3A    0.092000        1.0080           0   0.00000   0.00000
     11976 HOAC     201      HOAC     O1       OD2C3A   2.356500       15.5994           0   -0.922000   1.53900
     11977 HOAC     201      HOAC     DO1      DRUD    -2.356500        0.4000           0   0.00000   0.00000
     11978 HOAC     201      HOAC     O2       OD31F    2.776500       15.5990           0   -1.28000   1.12400
     11979 HOAC     201      HOAC     DO2      DRUD    -2.776500        0.4000           0   0.00000   0.00000
     11980 HOAC     201      HOAC     H        HDP1A    0.374000        1.0080           0   0.00000   0.00000
     11981 HOAC     201      HOAC     LPO11    LPD     -0.319000        0.0000           -1   0.00000   0.00000
     11982 HOAC     201      HOAC     LPO12    LPD     -0.319000        0.0000           -1   0.00000   0.00000
     11983 HOAC     201      HOAC     LPO21    LPD     -0.285000        0.0000           -1   0.00000   0.00000
     11984 HOAC     201      HOAC     LPO22    LPD     -0.285000        0.0000           -1   0.00000   0.00000
     11985 HOAC     202      HOAC     C1       CD2O3A   3.554200       11.6110           0   -1.20700   0.708000
     11986 HOAC     202      HOAC     DC1      DRUD    -2.696200        0.4000           0   0.00000   0.00000
     11987 HOAC     202      HOAC     C2       CD33C    3.268200       11.6110           0   -2.11400   0.750000
     11988 HOAC     202      HOAC     DC2      DRUD    -3.568200        0.4000           0   0.00000   0.00000
     11989 HOAC     202      HOAC     H1       HDA3A    0.092000        1.0080           0   0.00000   0.00000
     11990 HOAC     202      HOAC     H2       HDA3A    0.092000        1.0080           0   0.00000   0.00000
     11991 HOAC     202      HOAC     H3       HDA3A    0.092000        1.0080           0   0.00000   0.00000
     11992 HOAC     202      HOAC     O1       OD2C3A   2.356500       15.5994           0   -0.922000   1.53900
     11993 HOAC     202      HOAC     DO1      DRUD    -2.356500        0.4000           0   0.00000   0.00000
     11994 HOAC     202      HOAC     O2       OD31F    2.776500       15.5990           0   -1.28000   1.12400
     11995 HOAC     202      HOAC     DO2      DRUD    -2.776500        0.4000           0   0.00000   0.00000
     11996 HOAC     202      HOAC     H        HDP1A    0.374000        1.0080           0   0.00000   0.00000
     11997 HOAC     202      HOAC     LPO11    LPD     -0.319000        0.0000           -1   0.00000   0.00000
     11998 HOAC     202      HOAC     LPO12    LPD     -0.319000        0.0000           -1   0.00000   0.00000
     11999 HOAC     202      HOAC     LPO21    LPD     -0.285000        0.0000           -1   0.00000   0.00000
     12000 HOAC     202      HOAC     LPO22    LPD     -0.285000        0.0000           -1   0.00000   0.00000
     12001 HOAC     203      HOAC     C1       CD2O3A   3.554200       11.6110           0   -1.20700   0.708000
     12002 HOAC     203      HOAC     DC1      DRUD    -2.696200        0.4000           0   0.00000   0.00000
     12003 HOAC     203      HOAC     C2       CD33C    3.268200       11.6110           0   -2.11400   0.750000
     12004 HOAC     203      HOAC     DC2      DRUD    -3.568200        0.4000           0   0.00000   0.00000
     12005 HOAC     203      HOAC     H1       HDA3A    0.092000        1.0080           0   0.00000   0.00000
     12006 HOAC     203      HOAC     H2       HDA3A    0.092000        1.0080           0   0.00000   0.00000
     12007 HOAC     203      HOAC     H3       HDA3A    0.092000        1.0080           0   0.00000   0.00000
     12008 HOAC     203      HOAC     O1       OD2C3A   2.356500       15.5994           0   -0.922000   1.53900
     12009 HOAC     203      HOAC     DO1      DRUD    -2.356500        0.4000           0   0.00000   0.00000
     12010 HOAC     203      HOAC     O2       OD31F    2.776500       15.5990           0   -1.28000   1.12400
     12011 HOAC     203      HOAC     DO2      DRUD    -2.776500        0.4000           0   0.00000   0.00000
     12012 HOAC     203      HOAC     H        HDP1A    0.374000        1.0080           0   0.00000   0.00000
     12013 HOAC     203      HOAC     LPO11    LPD     -0.319000        0.0000           -1   0.00000   0.00000
     12014 HOAC     203      HOAC     LPO12    LPD     -0.319000        0.0000           -1   0.00000   0.00000
     12015 HOAC     203      HOAC     LPO21    LPD     -0.285000        0.0000           -1   0.00000   0.00000
     12016 HOAC     203      HOAC     LPO22    LPD     -0.285000        0.0000           -1   0.00000   0.00000
     12017 HOAC     204      HOAC     C1       CD2O3A   3.554200       11.6110           0   -1.20700   0.708000
     12018 HOAC     204      HOAC     DC1      DRUD    -2.696200        0.4000           0   0.00000   0.00000
     12019 HOAC     204      HOAC     C2       CD33C    3.268200       11.6110           0   -2.11400   0.750000
     12020 HOAC     204      HOAC     DC2      DRUD    -3.568200        0.4000           0   0.00000   0.00000
     12021 HOAC     204      HOAC     H1       HDA3A    0.092000        1.0080           0   0.00000   0.00000
     12022 HOAC     204      HOAC     H2       HDA3A    0.092000        1.0080           0   0.00000   0.00000
     12023 HOAC     204      HOAC     H3       HDA3A    0.092000        1.0080           0   0.00000   0.00000
     12024 HOAC     204      HOAC     O1       OD2C3A   2.356500       15.5994           0   -0.922000   1.53900
     12025 HOAC     204      HOAC     DO1      DRUD    -2.356500        0.4000           0   0.00000   0.00000
     12026 HOAC     204      HOAC     O2       OD31F    2.776500       15.5990           0   -1.28000   1.12400
     12027 HOAC     204      HOAC     DO2      DRUD    -2.776500        0.4000           0   0.00000   0.00000
     12028 HOAC     204      HOAC     H        HDP1A    0.374000        1.0080           0   0.00000   0.00000
     12029 HOAC     204      HOAC     LPO11    LPD     -0.319000        0.0000           -1   0.00000   0.00000
     12030 HOAC     204      HOAC     LPO12    LPD     -0.319000        0.0000           -1   0.00000   0.00000
     12031 HOAC     204      HOAC     LPO21    LPD     -0.285000        0.0000           -1   0.00000   0.00000
     12032 HOAC     204      HOAC     LPO22    LPD     -0.285000        0.0000           -1   0.00000   0.00000
     12033 HOAC     205      HOAC     C1       CD2O3A   3.554200       11.6110           0   -1.20700   0.708000
     12034 HOAC     205      HOAC     DC1      DRUD    -2.696200        0.4000           0   0.00000   0.00000
     12035 HOAC     205      HOAC     C2       CD33C    3.268200       11.6110           0   -2.11400   0.750000
     12036 HOAC     205      HOAC     DC2      DRUD    -3.568200        0.4000           0   0.00000   0.00000
     12037 HOAC     205      HOAC     H1       HDA3A    0.092000        1.0080           0   0.00000   0.00000
     12038 HOAC     205      HOAC     H2       HDA3A    0.092000        1.0080           0   0.00000   0.00000
     12039 HOAC     205      HOAC     H3       HDA3A    0.092000        1.0080           0   0.00000   0.00000
     12040 HOAC     205      HOAC     O1       OD2C3A   2.356500       15.5994           0   -0.922000   1.53900
     12041 HOAC     205      HOAC     DO1      DRUD    -2.356500        0.4000           0   0.00000   0.00000
     12042 HOAC     205      HOAC     O2       OD31F    2.776500       15.5990           0   -1.28000   1.12400
     12043 HOAC     205      HOAC     DO2      DRUD    -2.776500        0.4000           0   0.00000   0.00000
     12044 HOAC     205      HOAC     H        HDP1A    0.374000        1.0080           0   0.00000   0.00000
     12045 HOAC     205      HOAC     LPO11    LPD     -0.319000        0.0000           -1   0.00000   0.00000
     12046 HOAC     205      HOAC     LPO12    LPD     -0.319000        0.0000           -1   0.00000   0.00000
     12047 HOAC     205      HOAC     LPO21    LPD     -0.285000        0.0000           -1   0.00000   0.00000
     12048 HOAC     205      HOAC     LPO22    LPD     -0.285000        0.0000           -1   0.00000   0.00000
     12049 HOAC     206      HOAC     C1       CD2O3A   3.554200       11.6110           0   -1.20700   0.708000
     12050 HOAC     206      HOAC     DC1      DRUD    -2.696200        0.4000           0   0.00000   0.00000
     12051 HOAC     206      HOAC     C2       CD33C    3.268200       11.6110           0   -2.11400   0.750000
     12052 HOAC     206      HOAC     DC2      DRUD    -3.568200        0.4000           0   0.00000   0.00000
     12053 HOAC     206      HOAC     H1       HDA3A    0.092000        1.0080           0   0.00000   0.00000
     12054 HOAC     206      HOAC     H2       HDA3A    0.092000        1.0080           0   0.00000   0.00000
     12055 HOAC     206      HOAC     H3       HDA3A    0.092000        1.0080           0   0.00000   0.00000
     12056 HOAC     206      HOAC     O1       OD2C3A   2.356500       15.5994           0   -0.922000   1.53900
     12057 HOAC     206      HOAC     DO1      DRUD    -2.356500        0.4000           0   0.00000   0.00000
     12058 HOAC     206      HOAC     O2       OD31F    2.776500       15.5990           0   -1.28000   1.12400
     12059 HOAC     206      HOAC     DO2      DRUD    -2.776500        0.4000           0   0.00000   0.00000
     12060 HOAC     206      HOAC     H        HDP1A    0.374000        1.0080           0   0.00000   0.00000
     12061 HOAC     206      HOAC     LPO11    LPD     -0.319000        0.0000           -1   0.00000   0.00000
     12062 HOAC     206      HOAC     LPO12    LPD     -0.319000        0.0000           -1   0.00000   0.00000
     12063 HOAC     206      HOAC     LPO21    LPD     -0.285000        0.0000           -1   0.00000   0.00000
     12064 HOAC     206      HOAC     LPO22    LPD     -0.285000        0.0000           -1   0.00000   0.00000
     12065 HOAC     207      HOAC     C1       CD2O3A   3.554200       11.6110           0   -1.20700   0.708000
     12066 HOAC     207      HOAC     DC1      DRUD    -2.696200        0.4000           0   0.00000   0.00000
     12067 HOAC     207      HOAC     C2       CD33C    3.268200       11.6110           0   -2.11400   0.750000
     12068 HOAC     207      HOAC     DC2      DRUD    -3.568200        0.4000           0   0.00000   0.00000
     12069 HOAC     207      HOAC     H1       HDA3A    0.092000        1.0080           0   0.00000   0.00000
     12070 HOAC     207      HOAC     H2       HDA3A    0.092000        1.0080           0   0.00000   0.00000
     12071 HOAC     207      HOAC     H3       HDA3A    0.092000        1.0080           0   0.00000   0.00000
     12072 HOAC     207      HOAC     O1       OD2C3A   2.356500       15.5994           0   -0.922000   1.53900
     12073 HOAC     207      HOAC     DO1      DRUD    -2.356500        0.4000           0   0.00000   0.00000
     12074 HOAC     207      HOAC     O2       OD31F    2.776500       15.5990           0   -1.28000   1.12400
     12075 HOAC     207      HOAC     DO2      DRUD    -2.776500        0.4000           0   0.00000   0.00000
     12076 HOAC     207      HOAC     H        HDP1A    0.374000        1.0080           0   0.00000   0.00000
     12077 HOAC     207      HOAC     LPO11    LPD     -0.319000        0.0000           -1   0.00000   0.00000
     12078 HOAC     207      HOAC     LPO12    LPD     -0.319000        0.0000           -1   0.00000   0.00000
     12079 HOAC     207      HOAC     LPO21    LPD     -0.285000        0.0000           -1   0.00000   0.00000
     12080 HOAC     207      HOAC     LPO22    LPD     -0.285000        0.0000           -1   0.00000   0.00000
     12081 HOAC     208      HOAC     C1       CD2O3A   3.554200       11.6110           0   -1.20700   0.708000
     12082 HOAC     208      HOAC     DC1      DRUD    -2.696200        0.4000           0   0.00000   0.00000
     12083 HOAC     208      HOAC     C2       CD33C    3.268200       11.6110           0   -2.11400   0.750000
     12084 HOAC     208      HOAC     DC2      DRUD    -3.568200        0.4000           0   0.00000   0.00000
     12085 HOAC     208      HOAC     H1       HDA3A    0.092000        1.0080           0   0.00000   0.00000
     12086 HOAC     208      HOAC     H2       HDA3A    0.092000        1.0080           0   0.00000   0.00000
     12087 HOAC     208      HOAC     H3       HDA3A    0.092000        1.0080           0   0.00000   0.00000
     12088 HOAC     208      HOAC     O1       OD2C3A   2.356500       15.5994           0   -0.922000   1.53900
     12089 HOAC     208      HOAC     DO1      DRUD    -2.356500        0.4000           0   0.00000   0.00000
     12090 HOAC     208      HOAC     O2       OD31F    2.776500       15.5990           0   -1.28000   1.12400
     12091 HOAC     208      HOAC     DO2      DRUD    -2.776500        0.4000           0   0.00000   0.00000
     12092 HOAC     208      HOAC     H        HDP1A    0.374000        1.0080           0   0.00000   0.00000
     12093 HOAC     208      HOAC     LPO11    LPD     -0.319000        0.0000           -1   0.00000   0.00000
     12094 HOAC     208      HOAC     LPO12    LPD     -0.319000        0.0000           -1   0.00000   0.00000
     12095 HOAC     208      HOAC     LPO21    LPD     -0.285000        0.0000           -1   0.00000   0.00000
     12096 HOAC     208      HOAC     LPO22    LPD     -0.285000        0.0000           -1   0.00000   0.00000
     12097 HOAC     209      HOAC     C1       CD2O3A   3.554200       11.6110           0   -1.20700   0.708000
     12098 HOAC     209      HOAC     DC1      DRUD    -2.696200        0.4000           0   0.00000   0.00000
     12099 HOAC     209      HOAC     C2       CD33C    3.268200       11.6110           0   -2.11400   0.750000
     12100 HOAC     209      HOAC     DC2      DRUD    -3.568200        0.4000           0   0.00000   0.00000
     12101 HOAC     209      HOAC     H1       HDA3A    0.092000        1.0080           0   0.00000   0.00000
     12102 HOAC     209      HOAC     H2       HDA3A    0.092000        1.0080           0   0.00000   0.00000
     12103 HOAC     209      HOAC     H3       HDA3A    0.092000        1.0080           0   0.00000   0.00000
     12104 HOAC     209      HOAC     O1       OD2C3A   2.356500       15.5994           0   -0.922000   1.53900
     12105 HOAC     209      HOAC     DO1      DRUD    -2.356500        0.4000           0   0.00000   0.00000
     12106 HOAC     209      HOAC     O2       OD31F    2.776500       15.5990           0   -1.28000   1.12400
     12107 HOAC     209      HOAC     DO2      DRUD    -2.776500        0.4000           0   0.00000   0.00000
     12108 HOAC     209      HOAC     H        HDP1A    0.374000        1.0080           0   0.00000   0.00000
     12109 HOAC     209      HOAC     LPO11    LPD     -0.319000        0.0000           -1   0.00000   0.00000
     12110 HOAC     209      HOAC     LPO12    LPD     -0.319000        0.0000           -1   0.00000   0.00000
     12111 HOAC     209      HOAC     LPO21    LPD     -0.285000        0.0000           -1   0.00000   0.00000
     12112 HOAC     209      HOAC     LPO22    LPD     -0.285000        0.0000           -1   0.00000   0.00000
     12113 HOAC     210      HOAC     C1       CD2O3A   3.554200       11.6110           0   -1.20700   0.708000
     12114 HOAC     210      HOAC     DC1      DRUD    -2.696200        0.4000           0   0.00000   0.00000
     12115 HOAC     210      HOAC     C2       CD33C    3.268200       11.6110           0   -2.11400   0.750000
     12116 HOAC     210      HOAC     DC2      DRUD    -3.568200        0.4000           0   0.00000   0.00000
     12117 HOAC     210      HOAC     H1       HDA3A    0.092000        1.0080           0   0.00000   0.00000
     12118 HOAC     210      HOAC     H2       HDA3A    0.092000        1.0080           0   0.00000   0.00000
     12119 HOAC     210      HOAC     H3       HDA3A    0.092000        1.0080           0   0.00000   0.00000
     12120 HOAC     210      HOAC     O1       OD2C3A   2.356500       15.5994           0   -0.922000   1.53900
     12121 HOAC     210      HOAC     DO1      DRUD    -2.356500        0.4000           0   0.00000   0.00000
     12122 HOAC     210      HOAC     O2       OD31F    2.776500       15.5990           0   -1.28000   1.12400
     12123 HOAC     210      HOAC     DO2      DRUD    -2.776500        0.4000           0   0.00000   0.00000
     12124 HOAC     210      HOAC     H        HDP1A    0.374000        1.0080           0   0.00000   0.00000
     12125 HOAC     210      HOAC     LPO11    LPD     -0.319000        0.0000           -1   0.00000   0.00000
     12126 HOAC     210      HOAC     LPO12    LPD     -0.319000        0.0000           -1   0.00000   0.00000
     12127 HOAC     210      HOAC     LPO21    LPD     -0.285000        0.0000           -1   0.00000   0.00000
     12128 HOAC     210      HOAC     LPO22    LPD     -0.285000        0.0000           -1   0.00000   0.00000
     12129 HOAC     211      HOAC     C1       CD2O3A   3.554200       11.6110           0   -1.20700   0.708000
     12130 HOAC     211      HOAC     DC1      DRUD    -2.696200        0.4000           0   0.00000   0.00000
     12131 HOAC     211      HOAC     C2       CD33C    3.268200       11.6110           0   -2.11400   0.750000
     12132 HOAC     211      HOAC     DC2      DRUD    -3.568200        0.4000           0   0.00000   0.00000
     12133 HOAC     211      HOAC     H1       HDA3A    0.092000        1.0080           0   0.00000   0.00000
     12134 HOAC     211      HOAC     H2       HDA3A    0.092000        1.0080           0   0.00000   0.00000
     12135 HOAC     211      HOAC     H3       HDA3A    0.092000        1.0080           0   0.00000   0.00000
     12136 HOAC     211      HOAC     O1       OD2C3A   2.356500       15.5994           0   -0.922000   1.53900
     12137 HOAC     211      HOAC     DO1      DRUD    -2.356500        0.4000           0   0.00000   0.00000
     12138 HOAC     211      HOAC     O2       OD31F    2.776500       15.5990           0   -1.28000   1.12400
     12139 HOAC     211      HOAC     DO2      DRUD    -2.776500        0.4000           0   0.00000   0.00000
     12140 HOAC     211      HOAC     H        HDP1A    0.374000        1.0080           0   0.00000   0.00000
     12141 HOAC     211      HOAC     LPO11    LPD     -0.319000        0.0000           -1   0.00000   0.00000
     12142 HOAC     211      HOAC     LPO12    LPD     -0.319000        0.0000           -1   0.00000   0.00000
     12143 HOAC     211      HOAC     LPO21    LPD     -0.285000        0.0000           -1   0.00000   0.00000
     12144 HOAC     211      HOAC     LPO22    LPD     -0.285000        0.0000           -1   0.00000   0.00000
     12145 HOAC     212      HOAC     C1       CD2O3A   3.554200       11.6110           0   -1.20700   0.708000
     12146 HOAC     212      HOAC     DC1      DRUD    -2.696200        0.4000           0   0.00000   0.00000
     12147 HOAC     212      HOAC     C2       CD33C    3.268200       11.6110           0   -2.11400   0.750000
     12148 HOAC     212      HOAC     DC2      DRUD    -3.568200        0.4000           0   0.00000   0.00000
     12149 HOAC     212      HOAC     H1       HDA3A    0.092000        1.0080           0   0.00000   0.00000
     12150 HOAC     212      HOAC     H2       HDA3A    0.092000        1.0080           0   0.00000   0.00000
     12151 HOAC     212      HOAC     H3       HDA3A    0.092000        1.0080           0   0.00000   0.00000
     12152 HOAC     212      HOAC     O1       OD2C3A   2.356500       15.5994           0   -0.922000   1.53900
     12153 HOAC     212      HOAC     DO1      DRUD    -2.356500        0.4000           0   0.00000   0.00000
     12154 HOAC     212      HOAC     O2       OD31F    2.776500       15.5990           0   -1.28000   1.12400
     12155 HOAC     212      HOAC     DO2      DRUD    -2.776500        0.4000           0   0.00000   0.00000
     12156 HOAC     212      HOAC     H        HDP1A    0.374000        1.0080           0   0.00000   0.00000
     12157 HOAC     212      HOAC     LPO11    LPD     -0.319000        0.0000           -1   0.00000   0.00000
     12158 HOAC     212      HOAC     LPO12    LPD     -0.319000        0.0000           -1   0.00000   0.00000
     12159 HOAC     212      HOAC     LPO21    LPD     -0.285000        0.0000           -1   0.00000   0.00000
     12160 HOAC     212      HOAC     LPO22    LPD     -0.285000        0.0000           -1   0.00000   0.00000
     12161 HOAC     213      HOAC     C1       CD2O3A   3.554200       11.6110           0   -1.20700   0.708000
     12162 HOAC     213      HOAC     DC1      DRUD    -2.696200        0.4000           0   0.00000   0.00000
     12163 HOAC     213      HOAC     C2       CD33C    3.268200       11.6110           0   -2.11400   0.750000
     12164 HOAC     213      HOAC     DC2      DRUD    -3.568200        0.4000           0   0.00000   0.00000
     12165 HOAC     213      HOAC     H1       HDA3A    0.092000        1.0080           0   0.00000   0.00000
     12166 HOAC     213      HOAC     H2       HDA3A    0.092000        1.0080           0   0.00000   0.00000
     12167 HOAC     213      HOAC     H3       HDA3A    0.092000        1.0080           0   0.00000   0.00000
     12168 HOAC     213      HOAC     O1       OD2C3A   2.356500       15.5994           0   -0.922000   1.53900
     12169 HOAC     213      HOAC     DO1      DRUD    -2.356500        0.4000           0   0.00000   0.00000
     12170 HOAC     213      HOAC     O2       OD31F    2.776500       15.5990           0   -1.28000   1.12400
     12171 HOAC     213      HOAC     DO2      DRUD    -2.776500        0.4000           0   0.00000   0.00000
     12172 HOAC     213      HOAC     H        HDP1A    0.374000        1.0080           0   0.00000   0.00000
     12173 HOAC     213      HOAC     LPO11    LPD     -0.319000        0.0000           -1   0.00000   0.00000
     12174 HOAC     213      HOAC     LPO12    LPD     -0.319000        0.0000           -1   0.00000   0.00000
     12175 HOAC     213      HOAC     LPO21    LPD     -0.285000        0.0000           -1   0.00000   0.00000
     12176 HOAC     213      HOAC     LPO22    LPD     -0.285000        0.0000           -1   0.00000   0.00000
     12177 HOAC     214      HOAC     C1       CD2O3A   3.554200       11.6110           0   -1.20700   0.708000
     12178 HOAC     214      HOAC     DC1      DRUD    -2.696200        0.4000           0   0.00000   0.00000
     12179 HOAC     214      HOAC     C2       CD33C    3.268200       11.6110           0   -2.11400   0.750000
     12180 HOAC     214      HOAC     DC2      DRUD    -3.568200        0.4000           0   0.00000   0.00000
     12181 HOAC     214      HOAC     H1       HDA3A    0.092000        1.0080           0   0.00000   0.00000
     12182 HOAC     214      HOAC     H2       HDA3A    0.092000        1.0080           0   0.00000   0.00000
     12183 HOAC     214      HOAC     H3       HDA3A    0.092000        1.0080           0   0.00000   0.00000
     12184 HOAC     214      HOAC     O1       OD2C3A   2.356500       15.5994           0   -0.922000   1.53900
     12185 HOAC     214      HOAC     DO1      DRUD    -2.356500        0.4000           0   0.00000   0.00000
     12186 HOAC     214      HOAC     O2       OD31F    2.776500       15.5990           0   -1.28000   1.12400
     12187 HOAC     214      HOAC     DO2      DRUD    -2.776500        0.4000           0   0.00000   0.00000
     12188 HOAC     214      HOAC     H        HDP1A    0.374000        1.0080           0   0.00000   0.00000
     12189 HOAC     214      HOAC     LPO11    LPD     -0.319000        0.0000           -1   0.00000   0.00000
     12190 HOAC     214      HOAC     LPO12    LPD     -0.319000        0.0000           -1   0.00000   0.00000
     12191 HOAC     214      HOAC     LPO21    LPD     -0.285000        0.0000           -1   0.00000   0.00000
     12192 HOAC     214      HOAC     LPO22    LPD     -0.285000        0.0000           -1   0.00000   0.00000
     12193 HOAC     215      HOAC     C1       CD2O3A   3.554200       11.6110           0   -1.20700   0.708000
     12194 HOAC     215      HOAC     DC1      DRUD    -2.696200        0.4000           0   0.00000   0.00000
     12195 HOAC     215      HOAC     C2       CD33C    3.268200       11.6110           0   -2.11400   0.750000
     12196 HOAC     215      HOAC     DC2      DRUD    -3.568200        0.4000           0   0.00000   0.00000
     12197 HOAC     215      HOAC     H1       HDA3A    0.092000        1.0080           0   0.00000   0.00000
     12198 HOAC     215      HOAC     H2       HDA3A    0.092000        1.0080           0   0.00000   0.00000
     12199 HOAC     215      HOAC     H3       HDA3A    0.092000        1.0080           0   0.00000   0.00000
     12200 HOAC     215      HOAC     O1       OD2C3A   2.356500       15.5994           0   -0.922000   1.53900
     12201 HOAC     215      HOAC     DO1      DRUD    -2.356500        0.4000           0   0.00000   0.00000
     12202 HOAC     215      HOAC     O2       OD31F    2.776500       15.5990           0   -1.28000   1.12400
     12203 HOAC     215      HOAC     DO2      DRUD    -2.776500        0.4000           0   0.00000   0.00000
     12204 HOAC     215      HOAC     H        HDP1A    0.374000        1.0080           0   0.00000   0.00000
     12205 HOAC     215      HOAC     LPO11    LPD     -0.319000        0.0000           -1   0.00000   0.00000
     12206 HOAC     215      HOAC     LPO12    LPD     -0.319000        0.0000           -1   0.00000   0.00000
     12207 HOAC     215      HOAC     LPO21    LPD     -0.285000        0.0000           -1   0.00000   0.00000
     12208 HOAC     215      HOAC     LPO22    LPD     -0.285000        0.0000           -1   0.00000   0.00000
     12209 HOAC     216      HOAC     C1       CD2O3A   3.554200       11.6110           0   -1.20700   0.708000
     12210 HOAC     216      HOAC     DC1      DRUD    -2.696200        0.4000           0   0.00000   0.00000
     12211 HOAC     216      HOAC     C2       CD33C    3.268200       11.6110           0   -2.11400   0.750000
     12212 HOAC     216      HOAC     DC2      DRUD    -3.568200        0.4000           0   0.00000   0.00000
     12213 HOAC     216      HOAC     H1       HDA3A    0.092000        1.0080           0   0.00000   0.00000
     12214 HOAC     216      HOAC     H2       HDA3A    0.092000        1.0080           0   0.00000   0.00000
     12215 HOAC     216      HOAC     H3       HDA3A    0.092000        1.0080           0   0.00000   0.00000
     12216 HOAC     216      HOAC     O1       OD2C3A   2.356500       15.5994           0   -0.922000   1.53900
     12217 HOAC     216      HOAC     DO1      DRUD    -2.356500        0.4000           0   0.00000   0.00000
     12218 HOAC     216      HOAC     O2       OD31F    2.776500       15.5990           0   -1.28000   1.12400
     12219 HOAC     216      HOAC     DO2      DRUD    -2.776500        0.4000           0   0.00000   0.00000
     12220 HOAC     216      HOAC     H        HDP1A    0.374000        1.0080           0   0.00000   0.00000
     12221 HOAC     216      HOAC     LPO11    LPD     -0.319000        0.0000           -1   0.00000   0.00000
     12222 HOAC     216      HOAC     LPO12    LPD     -0.319000        0.0000           -1   0.00000   0.00000
     12223 HOAC     216      HOAC     LPO21    LPD     -0.285000        0.0000           -1   0.00000   0.00000
     12224 HOAC     216      HOAC     LPO22    LPD     -0.285000        0.0000           -1   0.00000   0.00000
     12225 HOAC     217      HOAC     C1       CD2O3A   3.554200       11.6110           0   -1.20700   0.708000
     12226 HOAC     217      HOAC     DC1      DRUD    -2.696200        0.4000           0   0.00000   0.00000
     12227 HOAC     217      HOAC     C2       CD33C    3.268200       11.6110           0   -2.11400   0.750000
     12228 HOAC     217      HOAC     DC2      DRUD    -3.568200        0.4000           0   0.00000   0.00000
     12229 HOAC     217      HOAC     H1       HDA3A    0.092000        1.0080           0   0.00000   0.00000
     12230 HOAC     217      HOAC     H2       HDA3A    0.092000        1.0080           0   0.00000   0.00000
     12231 HOAC     217      HOAC     H3       HDA3A    0.092000        1.0080           0   0.00000   0.00000
     12232 HOAC     217      HOAC     O1       OD2C3A   2.356500       15.5994           0   -0.922000   1.53900
     12233 HOAC     217      HOAC     DO1      DRUD    -2.356500        0.4000           0   0.00000   0.00000
     12234 HOAC     217      HOAC     O2       OD31F    2.776500       15.5990           0   -1.28000   1.12400
     12235 HOAC     217      HOAC     DO2      DRUD    -2.776500        0.4000           0   0.00000   0.00000
     12236 HOAC     217      HOAC     H        HDP1A    0.374000        1.0080           0   0.00000   0.00000
     12237 HOAC     217      HOAC     LPO11    LPD     -0.319000        0.0000           -1   0.00000   0.00000
     12238 HOAC     217      HOAC     LPO12    LPD     -0.319000        0.0000           -1   0.00000   0.00000
     12239 HOAC     217      HOAC     LPO21    LPD     -0.285000        0.0000           -1   0.00000   0.00000
     12240 HOAC     217      HOAC     LPO22    LPD     -0.285000        0.0000           -1   0.00000   0.00000
     12241 HPTSH    1        HPTSH    C1       CD2R6A   2.899200       11.6110           0   -1.50750   1.27010
     12242 HPTSH    1        HPTSH    DC1      DRUD    -3.013200        0.4000           0   0.00000   0.00000
     12243 HPTSH    1        HPTSH    C2       CD2R6A   2.898200       11.6110           0   -1.50750   1.27010
     12244 HPTSH    1        HPTSH    DC2      DRUD    -3.013200        0.4000           0   0.00000   0.00000
     12245 HPTSH    1        HPTSH    C3       CD2R6A   3.024200       11.6110           0   -1.50750   1.27010
     12246 HPTSH    1        HPTSH    DC3      DRUD    -3.013200        0.4000           0   0.00000   0.00000
     12247 HPTSH    1        HPTSH    C4       CD2R6A   2.993200       11.6110           0   -1.50750   1.27010
     12248 HPTSH    1        HPTSH    DC4      DRUD    -3.013200        0.4000           0   0.00000   0.00000
     12249 HPTSH    1        HPTSH    C5       CD2R6A   3.024200       11.6110           0   -1.50750   1.27010
     12250 HPTSH    1        HPTSH    DC5      DRUD    -3.013200        0.4000           0   0.00000   0.00000
     12251 HPTSH    1        HPTSH    C6       CD2R6A   2.607200       11.6110           0   -1.50750   1.27010
     12252 HPTSH    1        HPTSH    DC6      DRUD    -3.013200        0.4000           0   0.00000   0.00000
     12253 HPTSH    1        HPTSH    C7       CD2R6A   2.720200       11.6110           0   -1.50750   1.27010
     12254 HPTSH    1        HPTSH    DC7      DRUD    -3.013200        0.4000           0   0.00000   0.00000
     12255 HPTSH    1        HPTSH    C8       CD2R6A   2.607200       11.6110           0   -1.50750   1.27010
     12256 HPTSH    1        HPTSH    DC8      DRUD    -3.013200        0.4000           0   0.00000   0.00000
     12257 HPTSH    1        HPTSH    S1       SD30A    3.803100       31.6600           0   -1.00000   1.30000
     12258 HPTSH    1        HPTSH    DS1      DRUD    -2.454100        0.4000           0   0.00000   0.00000
     12259 HPTSH    1        HPTSH    O1       OD2C2B   2.368000       15.5994           0   -0.931000   1.08300
     12260 HPTSH    1        HPTSH    DO1      DRUD    -2.368000        0.4000           0   0.00000   0.00000
     12261 HPTSH    1        HPTSH    O2       OD2C2B   2.368000       15.5994           0   -0.931000   1.08300
     12262 HPTSH    1        HPTSH    DO2      DRUD    -2.368000        0.4000           0   0.00000   0.00000
     12263 HPTSH    1        HPTSH    O3       OD2C2B   2.368000       15.5994           0   -0.931000   1.08300
     12264 HPTSH    1        HPTSH    DO3      DRUD    -2.368000        0.4000           0   0.00000   0.00000
     12265 HPTSH    1        HPTSH    S2       SD30A    3.803100       31.6600           0   -1.00000   1.30000
     12266 HPTSH    1        HPTSH    DS2      DRUD    -2.454100        0.4000           0   0.00000   0.00000
     12267 HPTSH    1        HPTSH    O4       OD2C2B   2.368000       15.5994           0   -0.931000   1.08300
     12268 HPTSH    1        HPTSH    DO4      DRUD    -2.368000        0.4000           0   0.00000   0.00000
     12269 HPTSH    1        HPTSH    O5       OD2C2B   2.368000       15.5994           0   -0.931000   1.08300
     12270 HPTSH    1        HPTSH    DO5      DRUD    -2.368000        0.4000           0   0.00000   0.00000
     12271 HPTSH    1        HPTSH    O6       OD2C2B   2.368000       15.5994           0   -0.931000   1.08300
     12272 HPTSH    1        HPTSH    DO6      DRUD    -2.368000        0.4000           0   0.00000   0.00000
     12273 HPTSH    1        HPTSH    C9       CD2R6A   2.898200       11.6110           0   -1.50750   1.27010
     12274 HPTSH    1        HPTSH    DC9      DRUD    -3.013200        0.4000           0   0.00000   0.00000
     12275 HPTSH    1        HPTSH    C10      CD2R6A   2.898200       11.6110           0   -1.50750   1.27010
     12276 HPTSH    1        HPTSH    DC10     DRUD    -3.013200        0.4000           0   0.00000   0.00000
     12277 HPTSH    1        HPTSH    C11      CD2R6A   3.024200       11.6110           0   -1.50750   1.27010
     12278 HPTSH    1        HPTSH    DC11     DRUD    -3.013200        0.4000           0   0.00000   0.00000
     12279 HPTSH    1        HPTSH    C12      CD2R6A   2.608200       11.6110           0   -1.50750   1.27010
     12280 HPTSH    1        HPTSH    DC12     DRUD    -3.013200        0.4000           0   0.00000   0.00000
     12281 HPTSH    1        HPTSH    C13      CD2R6A   2.816200       11.6110           0   -1.50750   1.27010
     12282 HPTSH    1        HPTSH    DC13     DRUD    -3.013200        0.4000           0   0.00000   0.00000
     12283 HPTSH    1        HPTSH    C14      CD2R6A   3.116200       11.6110           0   -1.50750   1.27010
     12284 HPTSH    1        HPTSH    DC14     DRUD    -3.013200        0.4000           0   0.00000   0.00000
     12285 HPTSH    1        HPTSH    C15      CD2R6A   3.027200       11.6110           0   -1.50750   1.27010
     12286 HPTSH    1        HPTSH    DC15     DRUD    -3.013200        0.4000           0   0.00000   0.00000
     12287 HPTSH    1        HPTSH    C16      CD2R6A   2.994200       11.6110           0   -1.50750   1.27010
     12288 HPTSH    1        HPTSH    DC16     DRUD    -3.013200        0.4000           0   0.00000   0.00000
     12289 HPTSH    1        HPTSH    O7       OD31A    2.237800       15.5990           0   -0.831500   0.749400
     12290 HPTSH    1        HPTSH    DO7      DRUD    -2.237800        0.4000           0   0.00000   0.00000
     12291 HPTSH    1        HPTSH    S3       SD30A    3.803100       31.6600           0   -1.00000   1.30000
     12292 HPTSH    1        HPTSH    DS3      DRUD    -2.454100        0.4000           0   0.00000   0.00000
     12293 HPTSH    1        HPTSH    O8       OD2C2B   2.368000       15.5994           0   -0.931000   1.08300
     12294 HPTSH    1        HPTSH    DO8      DRUD    -2.368000        0.4000           0   0.00000   0.00000
     12295 HPTSH    1        HPTSH    O9       OD2C2B   2.368000       15.5994           0   -0.931000   1.08300
     12296 HPTSH    1        HPTSH    DO9      DRUD    -2.368000        0.4000           0   0.00000   0.00000
     12297 HPTSH    1        HPTSH    O10      OD2C2B   2.368000       15.5994           0   -0.931000   1.08300
     12298 HPTSH    1        HPTSH    DO10     DRUD    -2.368000        0.4000           0   0.00000   0.00000
     12299 HPTSH    1        HPTSH    H1       HDR6A    0.115000        1.0080           0   0.00000   0.00000
     12300 HPTSH    1        HPTSH    H2       HDR6A    0.115000        1.0080           0   0.00000   0.00000
     12301 HPTSH    1        HPTSH    H3       HDR6A    0.305000        1.0080           0   0.00000   0.00000
     12302 HPTSH    1        HPTSH    H4       HDR6A    0.115000        1.0080           0   0.00000   0.00000
     12303 HPTSH    1        HPTSH    H5       HDR6A    0.115000        1.0080           0   0.00000   0.00000
     12304 HPTSH    1        HPTSH    H6       HDR6A    0.210000        1.0080           0   0.00000   0.00000
     12305 HPTSH    1        HPTSH    H7       HDP1A    0.420000        1.0080           0   0.00000   0.00000
     12306 HPTSH    1        HPTSH    LPO11    LPDO1   -0.325000        0.0000           -1   0.00000   0.00000
     12307 HPTSH    1        HPTSH    LPO12    LPDO1   -0.325000        0.0000           -1   0.00000   0.00000
     12308 HPTSH    1        HPTSH    LPO21    LPDO1   -0.325000        0.0000           -1   0.00000   0.00000
     12309 HPTSH    1        HPTSH    LPO22    LPDO1   -0.325000        0.0000           -1   0.00000   0.00000
     12310 HPTSH    1        HPTSH    LPO31    LPDO1   -0.325000        0.0000           -1   0.00000   0.00000
     12311 HPTSH    1        HPTSH    LPO32    LPDO1   -0.325000        0.0000           -1   0.00000   0.00000
     12312 HPTSH    1        HPTSH    LPO41    LPDO1   -0.325000        0.0000           -1   0.00000   0.00000
     12313 HPTSH    1        HPTSH    LPO42    LPDO1   -0.325000        0.0000           -1   0.00000   0.00000
     12314 HPTSH    1        HPTSH    LPO51    LPDO1   -0.325000        0.0000           -1   0.00000   0.00000
     12315 HPTSH    1        HPTSH    LPO52    LPDO1   -0.325000        0.0000           -1   0.00000   0.00000
     12316 HPTSH    1        HPTSH    LPO61    LPDO1   -0.325000        0.0000           -1   0.00000   0.00000
     12317 HPTSH    1        HPTSH    LPO62    LPDO1   -0.325000        0.0000           -1   0.00000   0.00000
     12318 HPTSH    1        HPTSH    LPO71    LPD     -0.269000        0.0000           -1   0.00000   0.00000
     12319 HPTSH    1        HPTSH    LPO72    LPD     -0.268000        0.0000           -1   0.00000   0.00000
     12320 HPTSH    1        HPTSH    LPO81    LPDO1   -0.325000        0.0000           -1   0.00000   0.00000
     12321 HPTSH    1        HPTSH    LPO82    LPDO1   -0.325000        0.0000           -1   0.00000   0.00000
     12322 HPTSH    1        HPTSH    LPO91    LPDO1   -0.325000        0.0000           -1   0.00000   0.00000
     12323 HPTSH    1        HPTSH    LPO92    LPDO1   -0.325000        0.0000           -1   0.00000   0.00000
     12324 HPTSH    1        HPTSH    LPO101   LPDO1   -0.325000        0.0000           -1   0.00000   0.00000
     12325 HPTSH    1        HPTSH    LPO102   LPDO1   -0.325000        0.0000           -1   0.00000   0.00000
     12326 HPTSH    2        HPTSH    C1       CD2R6A   2.899200       11.6110           0   -1.50750   1.27010
     12327 HPTSH    2        HPTSH    DC1      DRUD    -3.013200        0.4000           0   0.00000   0.00000
     12328 HPTSH    2        HPTSH    C2       CD2R6A   2.898200       11.6110           0   -1.50750   1.27010
     12329 HPTSH    2        HPTSH    DC2      DRUD    -3.013200        0.4000           0   0.00000   0.00000
     12330 HPTSH    2        HPTSH    C3       CD2R6A   3.024200       11.6110           0   -1.50750   1.27010
     12331 HPTSH    2        HPTSH    DC3      DRUD    -3.013200        0.4000           0   0.00000   0.00000
     12332 HPTSH    2        HPTSH    C4       CD2R6A   2.993200       11.6110           0   -1.50750   1.27010
     12333 HPTSH    2        HPTSH    DC4      DRUD    -3.013200        0.4000           0   0.00000   0.00000
     12334 HPTSH    2        HPTSH    C5       CD2R6A   3.024200       11.6110           0   -1.50750   1.27010
     12335 HPTSH    2        HPTSH    DC5      DRUD    -3.013200        0.4000           0   0.00000   0.00000
     12336 HPTSH    2        HPTSH    C6       CD2R6A   2.607200       11.6110           0   -1.50750   1.27010
     12337 HPTSH    2        HPTSH    DC6      DRUD    -3.013200        0.4000           0   0.00000   0.00000
     12338 HPTSH    2        HPTSH    C7       CD2R6A   2.720200       11.6110           0   -1.50750   1.27010
     12339 HPTSH    2        HPTSH    DC7      DRUD    -3.013200        0.4000           0   0.00000   0.00000
     12340 HPTSH    2        HPTSH    C8       CD2R6A   2.607200       11.6110           0   -1.50750   1.27010
     12341 HPTSH    2        HPTSH    DC8      DRUD    -3.013200        0.4000           0   0.00000   0.00000
     12342 HPTSH    2        HPTSH    S1       SD30A    3.803100       31.6600           0   -1.00000   1.30000
     12343 HPTSH    2        HPTSH    DS1      DRUD    -2.454100        0.4000           0   0.00000   0.00000
     12344 HPTSH    2        HPTSH    O1       OD2C2B   2.368000       15.5994           0   -0.931000   1.08300
     12345 HPTSH    2        HPTSH    DO1      DRUD    -2.368000        0.4000           0   0.00000   0.00000
     12346 HPTSH    2        HPTSH    O2       OD2C2B   2.368000       15.5994           0   -0.931000   1.08300
     12347 HPTSH    2        HPTSH    DO2      DRUD    -2.368000        0.4000           0   0.00000   0.00000
     12348 HPTSH    2        HPTSH    O3       OD2C2B   2.368000       15.5994           0   -0.931000   1.08300
     12349 HPTSH    2        HPTSH    DO3      DRUD    -2.368000        0.4000           0   0.00000   0.00000
     12350 HPTSH    2        HPTSH    S2       SD30A    3.803100       31.6600           0   -1.00000   1.30000
     12351 HPTSH    2        HPTSH    DS2      DRUD    -2.454100        0.4000           0   0.00000   0.00000
     12352 HPTSH    2        HPTSH    O4       OD2C2B   2.368000       15.5994           0   -0.931000   1.08300
     12353 HPTSH    2        HPTSH    DO4      DRUD    -2.368000        0.4000           0   0.00000   0.00000
     12354 HPTSH    2        HPTSH    O5       OD2C2B   2.368000       15.5994           0   -0.931000   1.08300
     12355 HPTSH    2        HPTSH    DO5      DRUD    -2.368000        0.4000           0   0.00000   0.00000
     12356 HPTSH    2        HPTSH    O6       OD2C2B   2.368000       15.5994           0   -0.931000   1.08300
     12357 HPTSH    2        HPTSH    DO6      DRUD    -2.368000        0.4000           0   0.00000   0.00000
     12358 HPTSH    2        HPTSH    C9       CD2R6A   2.898200       11.6110           0   -1.50750   1.27010
     12359 HPTSH    2        HPTSH    DC9      DRUD    -3.013200        0.4000           0   0.00000   0.00000
     12360 HPTSH    2        HPTSH    C10      CD2R6A   2.898200       11.6110           0   -1.50750   1.27010
     12361 HPTSH    2        HPTSH    DC10     DRUD    -3.013200        0.4000           0   0.00000   0.00000
     12362 HPTSH    2        HPTSH    C11      CD2R6A   3.024200       11.6110           0   -1.50750   1.27010
     12363 HPTSH    2        HPTSH    DC11     DRUD    -3.013200        0.4000           0   0.00000   0.00000
     12364 HPTSH    2        HPTSH    C12      CD2R6A   2.608200       11.6110           0   -1.50750   1.27010
     12365 HPTSH    2        HPTSH    DC12     DRUD    -3.013200        0.4000           0   0.00000   0.00000
     12366 HPTSH    2        HPTSH    C13      CD2R6A   2.816200       11.6110           0   -1.50750   1.27010
     12367 HPTSH    2        HPTSH    DC13     DRUD    -3.013200        0.4000           0   0.00000   0.00000
     12368 HPTSH    2        HPTSH    C14      CD2R6A   3.116200       11.6110           0   -1.50750   1.27010
     12369 HPTSH    2        HPTSH    DC14     DRUD    -3.013200        0.4000           0   0.00000   0.00000
     12370 HPTSH    2        HPTSH    C15      CD2R6A   3.027200       11.6110           0   -1.50750   1.27010
     12371 HPTSH    2        HPTSH    DC15     DRUD    -3.013200        0.4000           0   0.00000   0.00000
     12372 HPTSH    2        HPTSH    C16      CD2R6A   2.994200       11.6110           0   -1.50750   1.27010
     12373 HPTSH    2        HPTSH    DC16     DRUD    -3.013200        0.4000           0   0.00000   0.00000
     12374 HPTSH    2        HPTSH    O7       OD31A    2.237800       15.5990           0   -0.831500   0.749400
     12375 HPTSH    2        HPTSH    DO7      DRUD    -2.237800        0.4000           0   0.00000   0.00000
     12376 HPTSH    2        HPTSH    S3       SD30A    3.803100       31.6600           0   -1.00000   1.30000
     12377 HPTSH    2        HPTSH    DS3      DRUD    -2.454100        0.4000           0   0.00000   0.00000
     12378 HPTSH    2        HPTSH    O8       OD2C2B   2.368000       15.5994           0   -0.931000   1.08300
     12379 HPTSH    2        HPTSH    DO8      DRUD    -2.368000        0.4000           0   0.00000   0.00000
     12380 HPTSH    2        HPTSH    O9       OD2C2B   2.368000       15.5994           0   -0.931000   1.08300
     12381 HPTSH    2        HPTSH    DO9      DRUD    -2.368000        0.4000           0   0.00000   0.00000
     12382 HPTSH    2        HPTSH    O10      OD2C2B   2.368000       15.5994           0   -0.931000   1.08300
     12383 HPTSH    2        HPTSH    DO10     DRUD    -2.368000        0.4000           0   0.00000   0.00000
     12384 HPTSH    2        HPTSH    H1       HDR6A    0.115000        1.0080           0   0.00000   0.00000
     12385 HPTSH    2        HPTSH    H2       HDR6A    0.115000        1.0080           0   0.00000   0.00000
     12386 HPTSH    2        HPTSH    H3       HDR6A    0.305000        1.0080           0   0.00000   0.00000
     12387 HPTSH    2        HPTSH    H4       HDR6A    0.115000        1.0080           0   0.00000   0.00000
     12388 HPTSH    2        HPTSH    H5       HDR6A    0.115000        1.0080           0   0.00000   0.00000
     12389 HPTSH    2        HPTSH    H6       HDR6A    0.210000        1.0080           0   0.00000   0.00000
     12390 HPTSH    2        HPTSH    H7       HDP1A    0.420000        1.0080           0   0.00000   0.00000
     12391 HPTSH    2        HPTSH    LPO11    LPDO1   -0.325000        0.0000           -1   0.00000   0.00000
     12392 HPTSH    2        HPTSH    LPO12    LPDO1   -0.325000        0.0000           -1   0.00000   0.00000
     12393 HPTSH    2        HPTSH    LPO21    LPDO1   -0.325000        0.0000           -1   0.00000   0.00000
     12394 HPTSH    2        HPTSH    LPO22    LPDO1   -0.325000        0.0000           -1   0.00000   0.00000
     12395 HPTSH    2        HPTSH    LPO31    LPDO1   -0.325000        0.0000           -1   0.00000   0.00000
     12396 HPTSH    2        HPTSH    LPO32    LPDO1   -0.325000        0.0000           -1   0.00000   0.00000
     12397 HPTSH    2        HPTSH    LPO41    LPDO1   -0.325000        0.0000           -1   0.00000   0.00000
     12398 HPTSH    2        HPTSH    LPO42    LPDO1   -0.325000        0.0000           -1   0.00000   0.00000
     12399 HPTSH    2        HPTSH    LPO51    LPDO1   -0.325000        0.0000           -1   0.00000   0.00000
     12400 HPTSH    2        HPTSH    LPO52    LPDO1   -0.325000        0.0000           -1   0.00000   0.00000
     12401 HPTSH    2        HPTSH    LPO61    LPDO1   -0.325000        0.0000           -1   0.00000   0.00000
     12402 HPTSH    2        HPTSH    LPO62    LPDO1   -0.325000        0.0000           -1   0.00000   0.00000
     12403 HPTSH    2        HPTSH    LPO71    LPD     -0.269000        0.0000           -1   0.00000   0.00000
     12404 HPTSH    2        HPTSH    LPO72    LPD     -0.268000        0.0000           -1   0.00000   0.00000
     12405 HPTSH    2        HPTSH    LPO81    LPDO1   -0.325000        0.0000           -1   0.00000   0.00000
     12406 HPTSH    2        HPTSH    LPO82    LPDO1   -0.325000        0.0000           -1   0.00000   0.00000
     12407 HPTSH    2        HPTSH    LPO91    LPDO1   -0.325000        0.0000           -1   0.00000   0.00000
     12408 HPTSH    2        HPTSH    LPO92    LPDO1   -0.325000        0.0000           -1   0.00000   0.00000
     12409 HPTSH    2        HPTSH    LPO101   LPDO1   -0.325000        0.0000           -1   0.00000   0.00000
     12410 HPTSH    2        HPTSH    LPO102   LPDO1   -0.325000        0.0000           -1   0.00000   0.00000
     12411 HPTSH    3        HPTSH    C1       CD2R6A   2.899200       11.6110           0   -1.50750   1.27010
     12412 HPTSH    3        HPTSH    DC1      DRUD    -3.013200        0.4000           0   0.00000   0.00000
     12413 HPTSH    3        HPTSH    C2       CD2R6A   2.898200       11.6110           0   -1.50750   1.27010
     12414 HPTSH    3        HPTSH    DC2      DRUD    -3.013200        0.4000           0   0.00000   0.00000
     12415 HPTSH    3        HPTSH    C3       CD2R6A   3.024200       11.6110           0   -1.50750   1.27010
     12416 HPTSH    3        HPTSH    DC3      DRUD    -3.013200        0.4000           0   0.00000   0.00000
     12417 HPTSH    3        HPTSH    C4       CD2R6A   2.993200       11.6110           0   -1.50750   1.27010
     12418 HPTSH    3        HPTSH    DC4      DRUD    -3.013200        0.4000           0   0.00000   0.00000
     12419 HPTSH    3        HPTSH    C5       CD2R6A   3.024200       11.6110           0   -1.50750   1.27010
     12420 HPTSH    3        HPTSH    DC5      DRUD    -3.013200        0.4000           0   0.00000   0.00000
     12421 HPTSH    3        HPTSH    C6       CD2R6A   2.607200       11.6110           0   -1.50750   1.27010
     12422 HPTSH    3        HPTSH    DC6      DRUD    -3.013200        0.4000           0   0.00000   0.00000
     12423 HPTSH    3        HPTSH    C7       CD2R6A   2.720200       11.6110           0   -1.50750   1.27010
     12424 HPTSH    3        HPTSH    DC7      DRUD    -3.013200        0.4000           0   0.00000   0.00000
     12425 HPTSH    3        HPTSH    C8       CD2R6A   2.607200       11.6110           0   -1.50750   1.27010
     12426 HPTSH    3        HPTSH    DC8      DRUD    -3.013200        0.4000           0   0.00000   0.00000
     12427 HPTSH    3        HPTSH    S1       SD30A    3.803100       31.6600           0   -1.00000   1.30000
     12428 HPTSH    3        HPTSH    DS1      DRUD    -2.454100        0.4000           0   0.00000   0.00000
     12429 HPTSH    3        HPTSH    O1       OD2C2B   2.368000       15.5994           0   -0.931000   1.08300
     12430 HPTSH    3        HPTSH    DO1      DRUD    -2.368000        0.4000           0   0.00000   0.00000
     12431 HPTSH    3        HPTSH    O2       OD2C2B   2.368000       15.5994           0   -0.931000   1.08300
     12432 HPTSH    3        HPTSH    DO2      DRUD    -2.368000        0.4000           0   0.00000   0.00000
     12433 HPTSH    3        HPTSH    O3       OD2C2B   2.368000       15.5994           0   -0.931000   1.08300
     12434 HPTSH    3        HPTSH    DO3      DRUD    -2.368000        0.4000           0   0.00000   0.00000
     12435 HPTSH    3        HPTSH    S2       SD30A    3.803100       31.6600           0   -1.00000   1.30000
     12436 HPTSH    3        HPTSH    DS2      DRUD    -2.454100        0.4000           0   0.00000   0.00000
     12437 HPTSH    3        HPTSH    O4       OD2C2B   2.368000       15.5994           0   -0.931000   1.08300
     12438 HPTSH    3        HPTSH    DO4      DRUD    -2.368000        0.4000           0   0.00000   0.00000
     12439 HPTSH    3        HPTSH    O5       OD2C2B   2.368000       15.5994           0   -0.931000   1.08300
     12440 HPTSH    3        HPTSH    DO5      DRUD    -2.368000        0.4000           0   0.00000   0.00000
     12441 HPTSH    3        HPTSH    O6       OD2C2B   2.368000       15.5994           0   -0.931000   1.08300
     12442 HPTSH    3        HPTSH    DO6      DRUD    -2.368000        0.4000           0   0.00000   0.00000
     12443 HPTSH    3        HPTSH    C9       CD2R6A   2.898200       11.6110           0   -1.50750   1.27010
     12444 HPTSH    3        HPTSH    DC9      DRUD    -3.013200        0.4000           0   0.00000   0.00000
     12445 HPTSH    3        HPTSH    C10      CD2R6A   2.898200       11.6110           0   -1.50750   1.27010
     12446 HPTSH    3        HPTSH    DC10     DRUD    -3.013200        0.4000           0   0.00000   0.00000
     12447 HPTSH    3        HPTSH    C11      CD2R6A   3.024200       11.6110           0   -1.50750   1.27010
     12448 HPTSH    3        HPTSH    DC11     DRUD    -3.013200        0.4000           0   0.00000   0.00000
     12449 HPTSH    3        HPTSH    C12      CD2R6A   2.608200       11.6110           0   -1.50750   1.27010
     12450 HPTSH    3        HPTSH    DC12     DRUD    -3.013200        0.4000           0   0.00000   0.00000
     12451 HPTSH    3        HPTSH    C13      CD2R6A   2.816200       11.6110           0   -1.50750   1.27010
     12452 HPTSH    3        HPTSH    DC13     DRUD    -3.013200        0.4000           0   0.00000   0.00000
     12453 HPTSH    3        HPTSH    C14      CD2R6A   3.116200       11.6110           0   -1.50750   1.27010
     12454 HPTSH    3        HPTSH    DC14     DRUD    -3.013200        0.4000           0   0.00000   0.00000
     12455 HPTSH    3        HPTSH    C15      CD2R6A   3.027200       11.6110           0   -1.50750   1.27010
     12456 HPTSH    3        HPTSH    DC15     DRUD    -3.013200        0.4000           0   0.00000   0.00000
     12457 HPTSH    3        HPTSH    C16      CD2R6A   2.994200       11.6110           0   -1.50750   1.27010
     12458 HPTSH    3        HPTSH    DC16     DRUD    -3.013200        0.4000           0   0.00000   0.00000
     12459 HPTSH    3        HPTSH    O7       OD31A    2.237800       15.5990           0   -0.831500   0.749400
     12460 HPTSH    3        HPTSH    DO7      DRUD    -2.237800        0.4000           0   0.00000   0.00000
     12461 HPTSH    3        HPTSH    S3       SD30A    3.803100       31.6600           0   -1.00000   1.30000
     12462 HPTSH    3        HPTSH    DS3      DRUD    -2.454100        0.4000           0   0.00000   0.00000
     12463 HPTSH    3        HPTSH    O8       OD2C2B   2.368000       15.5994           0   -0.931000   1.08300
     12464 HPTSH    3        HPTSH    DO8      DRUD    -2.368000        0.4000           0   0.00000   0.00000
     12465 HPTSH    3        HPTSH    O9       OD2C2B   2.368000       15.5994           0   -0.931000   1.08300
     12466 HPTSH    3        HPTSH    DO9      DRUD    -2.368000        0.4000           0   0.00000   0.00000
     12467 HPTSH    3        HPTSH    O10      OD2C2B   2.368000       15.5994           0   -0.931000   1.08300
     12468 HPTSH    3        HPTSH    DO10     DRUD    -2.368000        0.4000           0   0.00000   0.00000
     12469 HPTSH    3        HPTSH    H1       HDR6A    0.115000        1.0080           0   0.00000   0.00000
     12470 HPTSH    3        HPTSH    H2       HDR6A    0.115000        1.0080           0   0.00000   0.00000
     12471 HPTSH    3        HPTSH    H3       HDR6A    0.305000        1.0080           0   0.00000   0.00000
     12472 HPTSH    3        HPTSH    H4       HDR6A    0.115000        1.0080           0   0.00000   0.00000
     12473 HPTSH    3        HPTSH    H5       HDR6A    0.115000        1.0080           0   0.00000   0.00000
     12474 HPTSH    3        HPTSH    H6       HDR6A    0.210000        1.0080           0   0.00000   0.00000
     12475 HPTSH    3        HPTSH    H7       HDP1A    0.420000        1.0080           0   0.00000   0.00000
     12476 HPTSH    3        HPTSH    LPO11    LPDO1   -0.325000        0.0000           -1   0.00000   0.00000
     12477 HPTSH    3        HPTSH    LPO12    LPDO1   -0.325000        0.0000           -1   0.00000   0.00000
     12478 HPTSH    3        HPTSH    LPO21    LPDO1   -0.325000        0.0000           -1   0.00000   0.00000
     12479 HPTSH    3        HPTSH    LPO22    LPDO1   -0.325000        0.0000           -1   0.00000   0.00000
     12480 HPTSH    3        HPTSH    LPO31    LPDO1   -0.325000        0.0000           -1   0.00000   0.00000
     12481 HPTSH    3        HPTSH    LPO32    LPDO1   -0.325000        0.0000           -1   0.00000   0.00000
     12482 HPTSH    3        HPTSH    LPO41    LPDO1   -0.325000        0.0000           -1   0.00000   0.00000
     12483 HPTSH    3        HPTSH    LPO42    LPDO1   -0.325000        0.0000           -1   0.00000   0.00000
     12484 HPTSH    3        HPTSH    LPO51    LPDO1   -0.325000        0.0000           -1   0.00000   0.00000
     12485 HPTSH    3        HPTSH    LPO52    LPDO1   -0.325000        0.0000           -1   0.00000   0.00000
     12486 HPTSH    3        HPTSH    LPO61    LPDO1   -0.325000        0.0000           -1   0.00000   0.00000
     12487 HPTSH    3        HPTSH    LPO62    LPDO1   -0.325000        0.0000           -1   0.00000   0.00000
     12488 HPTSH    3        HPTSH    LPO71    LPD     -0.269000        0.0000           -1   0.00000   0.00000
     12489 HPTSH    3        HPTSH    LPO72    LPD     -0.268000        0.0000           -1   0.00000   0.00000
     12490 HPTSH    3        HPTSH    LPO81    LPDO1   -0.325000        0.0000           -1   0.00000   0.00000
     12491 HPTSH    3        HPTSH    LPO82    LPDO1   -0.325000        0.0000           -1   0.00000   0.00000
     12492 HPTSH    3        HPTSH    LPO91    LPDO1   -0.325000        0.0000           -1   0.00000   0.00000
     12493 HPTSH    3        HPTSH    LPO92    LPDO1   -0.325000        0.0000           -1   0.00000   0.00000
     12494 HPTSH    3        HPTSH    LPO101   LPDO1   -0.325000        0.0000           -1   0.00000   0.00000
     12495 HPTSH    3        HPTSH    LPO102   LPDO1   -0.325000        0.0000           -1   0.00000   0.00000
     12496 HPTSH    4        HPTSH    C1       CD2R6A   2.899200       11.6110           0   -1.50750   1.27010
     12497 HPTSH    4        HPTSH    DC1      DRUD    -3.013200        0.4000           0   0.00000   0.00000
     12498 HPTSH    4        HPTSH    C2       CD2R6A   2.898200       11.6110           0   -1.50750   1.27010
     12499 HPTSH    4        HPTSH    DC2      DRUD    -3.013200        0.4000           0   0.00000   0.00000
     12500 HPTSH    4        HPTSH    C3       CD2R6A   3.024200       11.6110           0   -1.50750   1.27010
     12501 HPTSH    4        HPTSH    DC3      DRUD    -3.013200        0.4000           0   0.00000   0.00000
     12502 HPTSH    4        HPTSH    C4       CD2R6A   2.993200       11.6110           0   -1.50750   1.27010
     12503 HPTSH    4        HPTSH    DC4      DRUD    -3.013200        0.4000           0   0.00000   0.00000
     12504 HPTSH    4        HPTSH    C5       CD2R6A   3.024200       11.6110           0   -1.50750   1.27010
     12505 HPTSH    4        HPTSH    DC5      DRUD    -3.013200        0.4000           0   0.00000   0.00000
     12506 HPTSH    4        HPTSH    C6       CD2R6A   2.607200       11.6110           0   -1.50750   1.27010
     12507 HPTSH    4        HPTSH    DC6      DRUD    -3.013200        0.4000           0   0.00000   0.00000
     12508 HPTSH    4        HPTSH    C7       CD2R6A   2.720200       11.6110           0   -1.50750   1.27010
     12509 HPTSH    4        HPTSH    DC7      DRUD    -3.013200        0.4000           0   0.00000   0.00000
     12510 HPTSH    4        HPTSH    C8       CD2R6A   2.607200       11.6110           0   -1.50750   1.27010
     12511 HPTSH    4        HPTSH    DC8      DRUD    -3.013200        0.4000           0   0.00000   0.00000
     12512 HPTSH    4        HPTSH    S1       SD30A    3.803100       31.6600           0   -1.00000   1.30000
     12513 HPTSH    4        HPTSH    DS1      DRUD    -2.454100        0.4000           0   0.00000   0.00000
     12514 HPTSH    4        HPTSH    O1       OD2C2B   2.368000       15.5994           0   -0.931000   1.08300
     12515 HPTSH    4        HPTSH    DO1      DRUD    -2.368000        0.4000           0   0.00000   0.00000
     12516 HPTSH    4        HPTSH    O2       OD2C2B   2.368000       15.5994           0   -0.931000   1.08300
     12517 HPTSH    4        HPTSH    DO2      DRUD    -2.368000        0.4000           0   0.00000   0.00000
     12518 HPTSH    4        HPTSH    O3       OD2C2B   2.368000       15.5994           0   -0.931000   1.08300
     12519 HPTSH    4        HPTSH    DO3      DRUD    -2.368000        0.4000           0   0.00000   0.00000
     12520 HPTSH    4        HPTSH    S2       SD30A    3.803100       31.6600           0   -1.00000   1.30000
     12521 HPTSH    4        HPTSH    DS2      DRUD    -2.454100        0.4000           0   0.00000   0.00000
     12522 HPTSH    4        HPTSH    O4       OD2C2B   2.368000       15.5994           0   -0.931000   1.08300
     12523 HPTSH    4        HPTSH    DO4      DRUD    -2.368000        0.4000           0   0.00000   0.00000
     12524 HPTSH    4        HPTSH    O5       OD2C2B   2.368000       15.5994           0   -0.931000   1.08300
     12525 HPTSH    4        HPTSH    DO5      DRUD    -2.368000        0.4000           0   0.00000   0.00000
     12526 HPTSH    4        HPTSH    O6       OD2C2B   2.368000       15.5994           0   -0.931000   1.08300
     12527 HPTSH    4        HPTSH    DO6      DRUD    -2.368000        0.4000           0   0.00000   0.00000
     12528 HPTSH    4        HPTSH    C9       CD2R6A   2.898200       11.6110           0   -1.50750   1.27010
     12529 HPTSH    4        HPTSH    DC9      DRUD    -3.013200        0.4000           0   0.00000   0.00000
     12530 HPTSH    4        HPTSH    C10      CD2R6A   2.898200       11.6110           0   -1.50750   1.27010
     12531 HPTSH    4        HPTSH    DC10     DRUD    -3.013200        0.4000           0   0.00000   0.00000
     12532 HPTSH    4        HPTSH    C11      CD2R6A   3.024200       11.6110           0   -1.50750   1.27010
     12533 HPTSH    4        HPTSH    DC11     DRUD    -3.013200        0.4000           0   0.00000   0.00000
     12534 HPTSH    4        HPTSH    C12      CD2R6A   2.608200       11.6110           0   -1.50750   1.27010
     12535 HPTSH    4        HPTSH    DC12     DRUD    -3.013200        0.4000           0   0.00000   0.00000
     12536 HPTSH    4        HPTSH    C13      CD2R6A   2.816200       11.6110           0   -1.50750   1.27010
     12537 HPTSH    4        HPTSH    DC13     DRUD    -3.013200        0.4000           0   0.00000   0.00000
     12538 HPTSH    4        HPTSH    C14      CD2R6A   3.116200       11.6110           0   -1.50750   1.27010
     12539 HPTSH    4        HPTSH    DC14     DRUD    -3.013200        0.4000           0   0.00000   0.00000
     12540 HPTSH    4        HPTSH    C15      CD2R6A   3.027200       11.6110           0   -1.50750   1.27010
     12541 HPTSH    4        HPTSH    DC15     DRUD    -3.013200        0.4000           0   0.00000   0.00000
     12542 HPTSH    4        HPTSH    C16      CD2R6A   2.994200       11.6110           0   -1.50750   1.27010
     12543 HPTSH    4        HPTSH    DC16     DRUD    -3.013200        0.4000           0   0.00000   0.00000
     12544 HPTSH    4        HPTSH    O7       OD31A    2.237800       15.5990           0   -0.831500   0.749400
     12545 HPTSH    4        HPTSH    DO7      DRUD    -2.237800        0.4000           0   0.00000   0.00000
     12546 HPTSH    4        HPTSH    S3       SD30A    3.803100       31.6600           0   -1.00000   1.30000
     12547 HPTSH    4        HPTSH    DS3      DRUD    -2.454100        0.4000           0   0.00000   0.00000
     12548 HPTSH    4        HPTSH    O8       OD2C2B   2.368000       15.5994           0   -0.931000   1.08300
     12549 HPTSH    4        HPTSH    DO8      DRUD    -2.368000        0.4000           0   0.00000   0.00000
     12550 HPTSH    4        HPTSH    O9       OD2C2B   2.368000       15.5994           0   -0.931000   1.08300
     12551 HPTSH    4        HPTSH    DO9      DRUD    -2.368000        0.4000           0   0.00000   0.00000
     12552 HPTSH    4        HPTSH    O10      OD2C2B   2.368000       15.5994           0   -0.931000   1.08300
     12553 HPTSH    4        HPTSH    DO10     DRUD    -2.368000        0.4000           0   0.00000   0.00000
     12554 HPTSH    4        HPTSH    H1       HDR6A    0.115000        1.0080           0   0.00000   0.00000
     12555 HPTSH    4        HPTSH    H2       HDR6A    0.115000        1.0080           0   0.00000   0.00000
     12556 HPTSH    4        HPTSH    H3       HDR6A    0.305000        1.0080           0   0.00000   0.00000
     12557 HPTSH    4        HPTSH    H4       HDR6A    0.115000        1.0080           0   0.00000   0.00000
     12558 HPTSH    4        HPTSH    H5       HDR6A    0.115000        1.0080           0   0.00000   0.00000
     12559 HPTSH    4        HPTSH    H6       HDR6A    0.210000        1.0080           0   0.00000   0.00000
     12560 HPTSH    4        HPTSH    H7       HDP1A    0.420000        1.0080           0   0.00000   0.00000
     12561 HPTSH    4        HPTSH    LPO11    LPDO1   -0.325000        0.0000           -1   0.00000   0.00000
     12562 HPTSH    4        HPTSH    LPO12    LPDO1   -0.325000        0.0000           -1   0.00000   0.00000
     12563 HPTSH    4        HPTSH    LPO21    LPDO1   -0.325000        0.0000           -1   0.00000   0.00000
     12564 HPTSH    4        HPTSH    LPO22    LPDO1   -0.325000        0.0000           -1   0.00000   0.00000
     12565 HPTSH    4        HPTSH    LPO31    LPDO1   -0.325000        0.0000           -1   0.00000   0.00000
     12566 HPTSH    4        HPTSH    LPO32    LPDO1   -0.325000        0.0000           -1   0.00000   0.00000
     12567 HPTSH    4        HPTSH    LPO41    LPDO1   -0.325000        0.0000           -1   0.00000   0.00000
     12568 HPTSH    4        HPTSH    LPO42    LPDO1   -0.325000        0.0000           -1   0.00000   0.00000
     12569 HPTSH    4        HPTSH    LPO51    LPDO1   -0.325000        0.0000           -1   0.00000   0.00000
     12570 HPTSH    4        HPTSH    LPO52    LPDO1   -0.325000        0.0000           -1   0.00000   0.00000
     12571 HPTSH    4        HPTSH    LPO61    LPDO1   -0.325000        0.0000           -1   0.00000   0.00000
     12572 HPTSH    4        HPTSH    LPO62    LPDO1   -0.325000        0.0000           -1   0.00000   0.00000
     12573 HPTSH    4        HPTSH    LPO71    LPD     -0.269000        0.0000           -1   0.00000   0.00000
     12574 HPTSH    4        HPTSH    LPO72    LPD     -0.268000        0.0000           -1   0.00000   0.00000
     12575 HPTSH    4        HPTSH    LPO81    LPDO1   -0.325000        0.0000           -1   0.00000   0.00000
     12576 HPTSH    4        HPTSH    LPO82    LPDO1   -0.325000        0.0000           -1   0.00000   0.00000
     12577 HPTSH    4        HPTSH    LPO91    LPDO1   -0.325000        0.0000           -1   0.00000   0.00000
     12578 HPTSH    4        HPTSH    LPO92    LPDO1   -0.325000        0.0000           -1   0.00000   0.00000
     12579 HPTSH    4        HPTSH    LPO101   LPDO1   -0.325000        0.0000           -1   0.00000   0.00000
     12580 HPTSH    4        HPTSH    LPO102   LPDO1   -0.325000        0.0000           -1   0.00000   0.00000
     12581 HPTSH    5        HPTSH    C1       CD2R6A   2.899200       11.6110           0   -1.50750   1.27010
     12582 HPTSH    5        HPTSH    DC1      DRUD    -3.013200        0.4000           0   0.00000   0.00000
     12583 HPTSH    5        HPTSH    C2       CD2R6A   2.898200       11.6110           0   -1.50750   1.27010
     12584 HPTSH    5        HPTSH    DC2      DRUD    -3.013200        0.4000           0   0.00000   0.00000
     12585 HPTSH    5        HPTSH    C3       CD2R6A   3.024200       11.6110           0   -1.50750   1.27010
     12586 HPTSH    5        HPTSH    DC3      DRUD    -3.013200        0.4000           0   0.00000   0.00000
     12587 HPTSH    5        HPTSH    C4       CD2R6A   2.993200       11.6110           0   -1.50750   1.27010
     12588 HPTSH    5        HPTSH    DC4      DRUD    -3.013200        0.4000           0   0.00000   0.00000
     12589 HPTSH    5        HPTSH    C5       CD2R6A   3.024200       11.6110           0   -1.50750   1.27010
     12590 HPTSH    5        HPTSH    DC5      DRUD    -3.013200        0.4000           0   0.00000   0.00000
     12591 HPTSH    5        HPTSH    C6       CD2R6A   2.607200       11.6110           0   -1.50750   1.27010
     12592 HPTSH    5        HPTSH    DC6      DRUD    -3.013200        0.4000           0   0.00000   0.00000
     12593 HPTSH    5        HPTSH    C7       CD2R6A   2.720200       11.6110           0   -1.50750   1.27010
     12594 HPTSH    5        HPTSH    DC7      DRUD    -3.013200        0.4000           0   0.00000   0.00000
     12595 HPTSH    5        HPTSH    C8       CD2R6A   2.607200       11.6110           0   -1.50750   1.27010
     12596 HPTSH    5        HPTSH    DC8      DRUD    -3.013200        0.4000           0   0.00000   0.00000
     12597 HPTSH    5        HPTSH    S1       SD30A    3.803100       31.6600           0   -1.00000   1.30000
     12598 HPTSH    5        HPTSH    DS1      DRUD    -2.454100        0.4000           0   0.00000   0.00000
     12599 HPTSH    5        HPTSH    O1       OD2C2B   2.368000       15.5994           0   -0.931000   1.08300
     12600 HPTSH    5        HPTSH    DO1      DRUD    -2.368000        0.4000           0   0.00000   0.00000
     12601 HPTSH    5        HPTSH    O2       OD2C2B   2.368000       15.5994           0   -0.931000   1.08300
     12602 HPTSH    5        HPTSH    DO2      DRUD    -2.368000        0.4000           0   0.00000   0.00000
     12603 HPTSH    5        HPTSH    O3       OD2C2B   2.368000       15.5994           0   -0.931000   1.08300
     12604 HPTSH    5        HPTSH    DO3      DRUD    -2.368000        0.4000           0   0.00000   0.00000
     12605 HPTSH    5        HPTSH    S2       SD30A    3.803100       31.6600           0   -1.00000   1.30000
     12606 HPTSH    5        HPTSH    DS2      DRUD    -2.454100        0.4000           0   0.00000   0.00000
     12607 HPTSH    5        HPTSH    O4       OD2C2B   2.368000       15.5994           0   -0.931000   1.08300
     12608 HPTSH    5        HPTSH    DO4      DRUD    -2.368000        0.4000           0   0.00000   0.00000
     12609 HPTSH    5        HPTSH    O5       OD2C2B   2.368000       15.5994           0   -0.931000   1.08300
     12610 HPTSH    5        HPTSH    DO5      DRUD    -2.368000        0.4000           0   0.00000   0.00000
     12611 HPTSH    5        HPTSH    O6       OD2C2B   2.368000       15.5994           0   -0.931000   1.08300
     12612 HPTSH    5        HPTSH    DO6      DRUD    -2.368000        0.4000           0   0.00000   0.00000
     12613 HPTSH    5        HPTSH    C9       CD2R6A   2.898200       11.6110           0   -1.50750   1.27010
     12614 HPTSH    5        HPTSH    DC9      DRUD    -3.013200        0.4000           0   0.00000   0.00000
     12615 HPTSH    5        HPTSH    C10      CD2R6A   2.898200       11.6110           0   -1.50750   1.27010
     12616 HPTSH    5        HPTSH    DC10     DRUD    -3.013200        0.4000           0   0.00000   0.00000
     12617 HPTSH    5        HPTSH    C11      CD2R6A   3.024200       11.6110           0   -1.50750   1.27010
     12618 HPTSH    5        HPTSH    DC11     DRUD    -3.013200        0.4000           0   0.00000   0.00000
     12619 HPTSH    5        HPTSH    C12      CD2R6A   2.608200       11.6110           0   -1.50750   1.27010
     12620 HPTSH    5        HPTSH    DC12     DRUD    -3.013200        0.4000           0   0.00000   0.00000
     12621 HPTSH    5        HPTSH    C13      CD2R6A   2.816200       11.6110           0   -1.50750   1.27010
     12622 HPTSH    5        HPTSH    DC13     DRUD    -3.013200        0.4000           0   0.00000   0.00000
     12623 HPTSH    5        HPTSH    C14      CD2R6A   3.116200       11.6110           0   -1.50750   1.27010
     12624 HPTSH    5        HPTSH    DC14     DRUD    -3.013200        0.4000           0   0.00000   0.00000
     12625 HPTSH    5        HPTSH    C15      CD2R6A   3.027200       11.6110           0   -1.50750   1.27010
     12626 HPTSH    5        HPTSH    DC15     DRUD    -3.013200        0.4000           0   0.00000   0.00000
     12627 HPTSH    5        HPTSH    C16      CD2R6A   2.994200       11.6110           0   -1.50750   1.27010
     12628 HPTSH    5        HPTSH    DC16     DRUD    -3.013200        0.4000           0   0.00000   0.00000
     12629 HPTSH    5        HPTSH    O7       OD31A    2.237800       15.5990           0   -0.831500   0.749400
     12630 HPTSH    5        HPTSH    DO7      DRUD    -2.237800        0.4000           0   0.00000   0.00000
     12631 HPTSH    5        HPTSH    S3       SD30A    3.803100       31.6600           0   -1.00000   1.30000
     12632 HPTSH    5        HPTSH    DS3      DRUD    -2.454100        0.4000           0   0.00000   0.00000
     12633 HPTSH    5        HPTSH    O8       OD2C2B   2.368000       15.5994           0   -0.931000   1.08300
     12634 HPTSH    5        HPTSH    DO8      DRUD    -2.368000        0.4000           0   0.00000   0.00000
     12635 HPTSH    5        HPTSH    O9       OD2C2B   2.368000       15.5994           0   -0.931000   1.08300
     12636 HPTSH    5        HPTSH    DO9      DRUD    -2.368000        0.4000           0   0.00000   0.00000
     12637 HPTSH    5        HPTSH    O10      OD2C2B   2.368000       15.5994           0   -0.931000   1.08300
     12638 HPTSH    5        HPTSH    DO10     DRUD    -2.368000        0.4000           0   0.00000   0.00000
     12639 HPTSH    5        HPTSH    H1       HDR6A    0.115000        1.0080           0   0.00000   0.00000
     12640 HPTSH    5        HPTSH    H2       HDR6A    0.115000        1.0080           0   0.00000   0.00000
     12641 HPTSH    5        HPTSH    H3       HDR6A    0.305000        1.0080           0   0.00000   0.00000
     12642 HPTSH    5        HPTSH    H4       HDR6A    0.115000        1.0080           0   0.00000   0.00000
     12643 HPTSH    5        HPTSH    H5       HDR6A    0.115000        1.0080           0   0.00000   0.00000
     12644 HPTSH    5        HPTSH    H6       HDR6A    0.210000        1.0080           0   0.00000   0.00000
     12645 HPTSH    5        HPTSH    H7       HDP1A    0.420000        1.0080           0   0.00000   0.00000
     12646 HPTSH    5        HPTSH    LPO11    LPDO1   -0.325000        0.0000           -1   0.00000   0.00000
     12647 HPTSH    5        HPTSH    LPO12    LPDO1   -0.325000        0.0000           -1   0.00000   0.00000
     12648 HPTSH    5        HPTSH    LPO21    LPDO1   -0.325000        0.0000           -1   0.00000   0.00000
     12649 HPTSH    5        HPTSH    LPO22    LPDO1   -0.325000        0.0000           -1   0.00000   0.00000
     12650 HPTSH    5        HPTSH    LPO31    LPDO1   -0.325000        0.0000           -1   0.00000   0.00000
     12651 HPTSH    5        HPTSH    LPO32    LPDO1   -0.325000        0.0000           -1   0.00000   0.00000
     12652 HPTSH    5        HPTSH    LPO41    LPDO1   -0.325000        0.0000           -1   0.00000   0.00000
     12653 HPTSH    5        HPTSH    LPO42    LPDO1   -0.325000        0.0000           -1   0.00000   0.00000
     12654 HPTSH    5        HPTSH    LPO51    LPDO1   -0.325000        0.0000           -1   0.00000   0.00000
     12655 HPTSH    5        HPTSH    LPO52    LPDO1   -0.325000        0.0000           -1   0.00000   0.00000
     12656 HPTSH    5        HPTSH    LPO61    LPDO1   -0.325000        0.0000           -1   0.00000   0.00000
     12657 HPTSH    5        HPTSH    LPO62    LPDO1   -0.325000        0.0000           -1   0.00000   0.00000
     12658 HPTSH    5        HPTSH    LPO71    LPD     -0.269000        0.0000           -1   0.00000   0.00000
     12659 HPTSH    5        HPTSH    LPO72    LPD     -0.268000        0.0000           -1   0.00000   0.00000
     12660 HPTSH    5        HPTSH    LPO81    LPDO1   -0.325000        0.0000           -1   0.00000   0.00000
     12661 HPTSH    5        HPTSH    LPO82    LPDO1   -0.325000        0.0000           -1   0.00000   0.00000
     12662 HPTSH    5        HPTSH    LPO91    LPDO1   -0.325000        0.0000           -1   0.00000   0.00000
     12663 HPTSH    5        HPTSH    LPO92    LPDO1   -0.325000        0.0000           -1   0.00000   0.00000
     12664 HPTSH    5        HPTSH    LPO101   LPDO1   -0.325000        0.0000           -1   0.00000   0.00000
     12665 HPTSH    5        HPTSH    LPO102   LPDO1   -0.325000        0.0000           -1   0.00000   0.00000
     12666 HPTSH    6        HPTSH    C1       CD2R6A   2.899200       11.6110           0   -1.50750   1.27010
     12667 HPTSH    6        HPTSH    DC1      DRUD    -3.013200        0.4000           0   0.00000   0.00000
     12668 HPTSH    6        HPTSH    C2       CD2R6A   2.898200       11.6110           0   -1.50750   1.27010
     12669 HPTSH    6        HPTSH    DC2      DRUD    -3.013200        0.4000           0   0.00000   0.00000
     12670 HPTSH    6        HPTSH    C3       CD2R6A   3.024200       11.6110           0   -1.50750   1.27010
     12671 HPTSH    6        HPTSH    DC3      DRUD    -3.013200        0.4000           0   0.00000   0.00000
     12672 HPTSH    6        HPTSH    C4       CD2R6A   2.993200       11.6110           0   -1.50750   1.27010
     12673 HPTSH    6        HPTSH    DC4      DRUD    -3.013200        0.4000           0   0.00000   0.00000
     12674 HPTSH    6        HPTSH    C5       CD2R6A   3.024200       11.6110           0   -1.50750   1.27010
     12675 HPTSH    6        HPTSH    DC5      DRUD    -3.013200        0.4000           0   0.00000   0.00000
     12676 HPTSH    6        HPTSH    C6       CD2R6A   2.607200       11.6110           0   -1.50750   1.27010
     12677 HPTSH    6        HPTSH    DC6      DRUD    -3.013200        0.4000           0   0.00000   0.00000
     12678 HPTSH    6        HPTSH    C7       CD2R6A   2.720200       11.6110           0   -1.50750   1.27010
     12679 HPTSH    6        HPTSH    DC7      DRUD    -3.013200        0.4000           0   0.00000   0.00000
     12680 HPTSH    6        HPTSH    C8       CD2R6A   2.607200       11.6110           0   -1.50750   1.27010
     12681 HPTSH    6        HPTSH    DC8      DRUD    -3.013200        0.4000           0   0.00000   0.00000
     12682 HPTSH    6        HPTSH    S1       SD30A    3.803100       31.6600           0   -1.00000   1.30000
     12683 HPTSH    6        HPTSH    DS1      DRUD    -2.454100        0.4000           0   0.00000   0.00000
     12684 HPTSH    6        HPTSH    O1       OD2C2B   2.368000       15.5994           0   -0.931000   1.08300
     12685 HPTSH    6        HPTSH    DO1      DRUD    -2.368000        0.4000           0   0.00000   0.00000
     12686 HPTSH    6        HPTSH    O2       OD2C2B   2.368000       15.5994           0   -0.931000   1.08300
     12687 HPTSH    6        HPTSH    DO2      DRUD    -2.368000        0.4000           0   0.00000   0.00000
     12688 HPTSH    6        HPTSH    O3       OD2C2B   2.368000       15.5994           0   -0.931000   1.08300
     12689 HPTSH    6        HPTSH    DO3      DRUD    -2.368000        0.4000           0   0.00000   0.00000
     12690 HPTSH    6        HPTSH    S2       SD30A    3.803100       31.6600           0   -1.00000   1.30000
     12691 HPTSH    6        HPTSH    DS2      DRUD    -2.454100        0.4000           0   0.00000   0.00000
     12692 HPTSH    6        HPTSH    O4       OD2C2B   2.368000       15.5994           0   -0.931000   1.08300
     12693 HPTSH    6        HPTSH    DO4      DRUD    -2.368000        0.4000           0   0.00000   0.00000
     12694 HPTSH    6        HPTSH    O5       OD2C2B   2.368000       15.5994           0   -0.931000   1.08300
     12695 HPTSH    6        HPTSH    DO5      DRUD    -2.368000        0.4000           0   0.00000   0.00000
     12696 HPTSH    6        HPTSH    O6       OD2C2B   2.368000       15.5994           0   -0.931000   1.08300
     12697 HPTSH    6        HPTSH    DO6      DRUD    -2.368000        0.4000           0   0.00000   0.00000
     12698 HPTSH    6        HPTSH    C9       CD2R6A   2.898200       11.6110           0   -1.50750   1.27010
     12699 HPTSH    6        HPTSH    DC9      DRUD    -3.013200        0.4000           0   0.00000   0.00000
     12700 HPTSH    6        HPTSH    C10      CD2R6A   2.898200       11.6110           0   -1.50750   1.27010
     12701 HPTSH    6        HPTSH    DC10     DRUD    -3.013200        0.4000           0   0.00000   0.00000
     12702 HPTSH    6        HPTSH    C11      CD2R6A   3.024200       11.6110           0   -1.50750   1.27010
     12703 HPTSH    6        HPTSH    DC11     DRUD    -3.013200        0.4000           0   0.00000   0.00000
     12704 HPTSH    6        HPTSH    C12      CD2R6A   2.608200       11.6110           0   -1.50750   1.27010
     12705 HPTSH    6        HPTSH    DC12     DRUD    -3.013200        0.4000           0   0.00000   0.00000
     12706 HPTSH    6        HPTSH    C13      CD2R6A   2.816200       11.6110           0   -1.50750   1.27010
     12707 HPTSH    6        HPTSH    DC13     DRUD    -3.013200        0.4000           0   0.00000   0.00000
     12708 HPTSH    6        HPTSH    C14      CD2R6A   3.116200       11.6110           0   -1.50750   1.27010
     12709 HPTSH    6        HPTSH    DC14     DRUD    -3.013200        0.4000           0   0.00000   0.00000
     12710 HPTSH    6        HPTSH    C15      CD2R6A   3.027200       11.6110           0   -1.50750   1.27010
     12711 HPTSH    6        HPTSH    DC15     DRUD    -3.013200        0.4000           0   0.00000   0.00000
     12712 HPTSH    6        HPTSH    C16      CD2R6A   2.994200       11.6110           0   -1.50750   1.27010
     12713 HPTSH    6        HPTSH    DC16     DRUD    -3.013200        0.4000           0   0.00000   0.00000
     12714 HPTSH    6        HPTSH    O7       OD31A    2.237800       15.5990           0   -0.831500   0.749400
     12715 HPTSH    6        HPTSH    DO7      DRUD    -2.237800        0.4000           0   0.00000   0.00000
     12716 HPTSH    6        HPTSH    S3       SD30A    3.803100       31.6600           0   -1.00000   1.30000
     12717 HPTSH    6        HPTSH    DS3      DRUD    -2.454100        0.4000           0   0.00000   0.00000
     12718 HPTSH    6        HPTSH    O8       OD2C2B   2.368000       15.5994           0   -0.931000   1.08300
     12719 HPTSH    6        HPTSH    DO8      DRUD    -2.368000        0.4000           0   0.00000   0.00000
     12720 HPTSH    6        HPTSH    O9       OD2C2B   2.368000       15.5994           0   -0.931000   1.08300
     12721 HPTSH    6        HPTSH    DO9      DRUD    -2.368000        0.4000           0   0.00000   0.00000
     12722 HPTSH    6        HPTSH    O10      OD2C2B   2.368000       15.5994           0   -0.931000   1.08300
     12723 HPTSH    6        HPTSH    DO10     DRUD    -2.368000        0.4000           0   0.00000   0.00000
     12724 HPTSH    6        HPTSH    H1       HDR6A    0.115000        1.0080           0   0.00000   0.00000
     12725 HPTSH    6        HPTSH    H2       HDR6A    0.115000        1.0080           0   0.00000   0.00000
     12726 HPTSH    6        HPTSH    H3       HDR6A    0.305000        1.0080           0   0.00000   0.00000
     12727 HPTSH    6        HPTSH    H4       HDR6A    0.115000        1.0080           0   0.00000   0.00000
     12728 HPTSH    6        HPTSH    H5       HDR6A    0.115000        1.0080           0   0.00000   0.00000
     12729 HPTSH    6        HPTSH    H6       HDR6A    0.210000        1.0080           0   0.00000   0.00000
     12730 HPTSH    6        HPTSH    H7       HDP1A    0.420000        1.0080           0   0.00000   0.00000
     12731 HPTSH    6        HPTSH    LPO11    LPDO1   -0.325000        0.0000           -1   0.00000   0.00000
     12732 HPTSH    6        HPTSH    LPO12    LPDO1   -0.325000        0.0000           -1   0.00000   0.00000
     12733 HPTSH    6        HPTSH    LPO21    LPDO1   -0.325000        0.0000           -1   0.00000   0.00000
     12734 HPTSH    6        HPTSH    LPO22    LPDO1   -0.325000        0.0000           -1   0.00000   0.00000
     12735 HPTSH    6        HPTSH    LPO31    LPDO1   -0.325000        0.0000           -1   0.00000   0.00000
     12736 HPTSH    6        HPTSH    LPO32    LPDO1   -0.325000        0.0000           -1   0.00000   0.00000
     12737 HPTSH    6        HPTSH    LPO41    LPDO1   -0.325000        0.0000           -1   0.00000   0.00000
     12738 HPTSH    6        HPTSH    LPO42    LPDO1   -0.325000        0.0000           -1   0.00000   0.00000
     12739 HPTSH    6        HPTSH    LPO51    LPDO1   -0.325000        0.0000           -1   0.00000   0.00000
     12740 HPTSH    6        HPTSH    LPO52    LPDO1   -0.325000        0.0000           -1   0.00000   0.00000
     12741 HPTSH    6        HPTSH    LPO61    LPDO1   -0.325000        0.0000           -1   0.00000   0.00000
     12742 HPTSH    6        HPTSH    LPO62    LPDO1   -0.325000        0.0000           -1   0.00000   0.00000
     12743 HPTSH    6        HPTSH    LPO71    LPD     -0.269000        0.0000           -1   0.00000   0.00000
     12744 HPTSH    6        HPTSH    LPO72    LPD     -0.268000        0.0000           -1   0.00000   0.00000
     12745 HPTSH    6        HPTSH    LPO81    LPDO1   -0.325000        0.0000           -1   0.00000   0.00000
     12746 HPTSH    6        HPTSH    LPO82    LPDO1   -0.325000        0.0000           -1   0.00000   0.00000
     12747 HPTSH    6        HPTSH    LPO91    LPDO1   -0.325000        0.0000           -1   0.00000   0.00000
     12748 HPTSH    6        HPTSH    LPO92    LPDO1   -0.325000        0.0000           -1   0.00000   0.00000
     12749 HPTSH    6        HPTSH    LPO101   LPDO1   -0.325000        0.0000           -1   0.00000   0.00000
     12750 HPTSH    6        HPTSH    LPO102   LPDO1   -0.325000        0.0000           -1   0.00000   0.00000
     12751 HPTSH    7        HPTSH    C1       CD2R6A   2.899200       11.6110           0   -1.50750   1.27010
     12752 HPTSH    7        HPTSH    DC1      DRUD    -3.013200        0.4000           0   0.00000   0.00000
     12753 HPTSH    7        HPTSH    C2       CD2R6A   2.898200       11.6110           0   -1.50750   1.27010
     12754 HPTSH    7        HPTSH    DC2      DRUD    -3.013200        0.4000           0   0.00000   0.00000
     12755 HPTSH    7        HPTSH    C3       CD2R6A   3.024200       11.6110           0   -1.50750   1.27010
     12756 HPTSH    7        HPTSH    DC3      DRUD    -3.013200        0.4000           0   0.00000   0.00000
     12757 HPTSH    7        HPTSH    C4       CD2R6A   2.993200       11.6110           0   -1.50750   1.27010
     12758 HPTSH    7        HPTSH    DC4      DRUD    -3.013200        0.4000           0   0.00000   0.00000
     12759 HPTSH    7        HPTSH    C5       CD2R6A   3.024200       11.6110           0   -1.50750   1.27010
     12760 HPTSH    7        HPTSH    DC5      DRUD    -3.013200        0.4000           0   0.00000   0.00000
     12761 HPTSH    7        HPTSH    C6       CD2R6A   2.607200       11.6110           0   -1.50750   1.27010
     12762 HPTSH    7        HPTSH    DC6      DRUD    -3.013200        0.4000           0   0.00000   0.00000
     12763 HPTSH    7        HPTSH    C7       CD2R6A   2.720200       11.6110           0   -1.50750   1.27010
     12764 HPTSH    7        HPTSH    DC7      DRUD    -3.013200        0.4000           0   0.00000   0.00000
     12765 HPTSH    7        HPTSH    C8       CD2R6A   2.607200       11.6110           0   -1.50750   1.27010
     12766 HPTSH    7        HPTSH    DC8      DRUD    -3.013200        0.4000           0   0.00000   0.00000
     12767 HPTSH    7        HPTSH    S1       SD30A    3.803100       31.6600           0   -1.00000   1.30000
     12768 HPTSH    7        HPTSH    DS1      DRUD    -2.454100        0.4000           0   0.00000   0.00000
     12769 HPTSH    7        HPTSH    O1       OD2C2B   2.368000       15.5994           0   -0.931000   1.08300
     12770 HPTSH    7        HPTSH    DO1      DRUD    -2.368000        0.4000           0   0.00000   0.00000
     12771 HPTSH    7        HPTSH    O2       OD2C2B   2.368000       15.5994           0   -0.931000   1.08300
     12772 HPTSH    7        HPTSH    DO2      DRUD    -2.368000        0.4000           0   0.00000   0.00000
     12773 HPTSH    7        HPTSH    O3       OD2C2B   2.368000       15.5994           0   -0.931000   1.08300
     12774 HPTSH    7        HPTSH    DO3      DRUD    -2.368000        0.4000           0   0.00000   0.00000
     12775 HPTSH    7        HPTSH    S2       SD30A    3.803100       31.6600           0   -1.00000   1.30000
     12776 HPTSH    7        HPTSH    DS2      DRUD    -2.454100        0.4000           0   0.00000   0.00000
     12777 HPTSH    7        HPTSH    O4       OD2C2B   2.368000       15.5994           0   -0.931000   1.08300
     12778 HPTSH    7        HPTSH    DO4      DRUD    -2.368000        0.4000           0   0.00000   0.00000
     12779 HPTSH    7        HPTSH    O5       OD2C2B   2.368000       15.5994           0   -0.931000   1.08300
     12780 HPTSH    7        HPTSH    DO5      DRUD    -2.368000        0.4000           0   0.00000   0.00000
     12781 HPTSH    7        HPTSH    O6       OD2C2B   2.368000       15.5994           0   -0.931000   1.08300
     12782 HPTSH    7        HPTSH    DO6      DRUD    -2.368000        0.4000           0   0.00000   0.00000
     12783 HPTSH    7        HPTSH    C9       CD2R6A   2.898200       11.6110           0   -1.50750   1.27010
     12784 HPTSH    7        HPTSH    DC9      DRUD    -3.013200        0.4000           0   0.00000   0.00000
     12785 HPTSH    7        HPTSH    C10      CD2R6A   2.898200       11.6110           0   -1.50750   1.27010
     12786 HPTSH    7        HPTSH    DC10     DRUD    -3.013200        0.4000           0   0.00000   0.00000
     12787 HPTSH    7        HPTSH    C11      CD2R6A   3.024200       11.6110           0   -1.50750   1.27010
     12788 HPTSH    7        HPTSH    DC11     DRUD    -3.013200        0.4000           0   0.00000   0.00000
     12789 HPTSH    7        HPTSH    C12      CD2R6A   2.608200       11.6110           0   -1.50750   1.27010
     12790 HPTSH    7        HPTSH    DC12     DRUD    -3.013200        0.4000           0   0.00000   0.00000
     12791 HPTSH    7        HPTSH    C13      CD2R6A   2.816200       11.6110           0   -1.50750   1.27010
     12792 HPTSH    7        HPTSH    DC13     DRUD    -3.013200        0.4000           0   0.00000   0.00000
     12793 HPTSH    7        HPTSH    C14      CD2R6A   3.116200       11.6110           0   -1.50750   1.27010
     12794 HPTSH    7        HPTSH    DC14     DRUD    -3.013200        0.4000           0   0.00000   0.00000
     12795 HPTSH    7        HPTSH    C15      CD2R6A   3.027200       11.6110           0   -1.50750   1.27010
     12796 HPTSH    7        HPTSH    DC15     DRUD    -3.013200        0.4000           0   0.00000   0.00000
     12797 HPTSH    7        HPTSH    C16      CD2R6A   2.994200       11.6110           0   -1.50750   1.27010
     12798 HPTSH    7        HPTSH    DC16     DRUD    -3.013200        0.4000           0   0.00000   0.00000
     12799 HPTSH    7        HPTSH    O7       OD31A    2.237800       15.5990           0   -0.831500   0.749400
     12800 HPTSH    7        HPTSH    DO7      DRUD    -2.237800        0.4000           0   0.00000   0.00000
     12801 HPTSH    7        HPTSH    S3       SD30A    3.803100       31.6600           0   -1.00000   1.30000
     12802 HPTSH    7        HPTSH    DS3      DRUD    -2.454100        0.4000           0   0.00000   0.00000
     12803 HPTSH    7        HPTSH    O8       OD2C2B   2.368000       15.5994           0   -0.931000   1.08300
     12804 HPTSH    7        HPTSH    DO8      DRUD    -2.368000        0.4000           0   0.00000   0.00000
     12805 HPTSH    7        HPTSH    O9       OD2C2B   2.368000       15.5994           0   -0.931000   1.08300
     12806 HPTSH    7        HPTSH    DO9      DRUD    -2.368000        0.4000           0   0.00000   0.00000
     12807 HPTSH    7        HPTSH    O10      OD2C2B   2.368000       15.5994           0   -0.931000   1.08300
     12808 HPTSH    7        HPTSH    DO10     DRUD    -2.368000        0.4000           0   0.00000   0.00000
     12809 HPTSH    7        HPTSH    H1       HDR6A    0.115000        1.0080           0   0.00000   0.00000
     12810 HPTSH    7        HPTSH    H2       HDR6A    0.115000        1.0080           0   0.00000   0.00000
     12811 HPTSH    7        HPTSH    H3       HDR6A    0.305000        1.0080           0   0.00000   0.00000
     12812 HPTSH    7        HPTSH    H4       HDR6A    0.115000        1.0080           0   0.00000   0.00000
     12813 HPTSH    7        HPTSH    H5       HDR6A    0.115000        1.0080           0   0.00000   0.00000
     12814 HPTSH    7        HPTSH    H6       HDR6A    0.210000        1.0080           0   0.00000   0.00000
     12815 HPTSH    7        HPTSH    H7       HDP1A    0.420000        1.0080           0   0.00000   0.00000
     12816 HPTSH    7        HPTSH    LPO11    LPDO1   -0.325000        0.0000           -1   0.00000   0.00000
     12817 HPTSH    7        HPTSH    LPO12    LPDO1   -0.325000        0.0000           -1   0.00000   0.00000
     12818 HPTSH    7        HPTSH    LPO21    LPDO1   -0.325000        0.0000           -1   0.00000   0.00000
     12819 HPTSH    7        HPTSH    LPO22    LPDO1   -0.325000        0.0000           -1   0.00000   0.00000
     12820 HPTSH    7        HPTSH    LPO31    LPDO1   -0.325000        0.0000           -1   0.00000   0.00000
     12821 HPTSH    7        HPTSH    LPO32    LPDO1   -0.325000        0.0000           -1   0.00000   0.00000
     12822 HPTSH    7        HPTSH    LPO41    LPDO1   -0.325000        0.0000           -1   0.00000   0.00000
     12823 HPTSH    7        HPTSH    LPO42    LPDO1   -0.325000        0.0000           -1   0.00000   0.00000
     12824 HPTSH    7        HPTSH    LPO51    LPDO1   -0.325000        0.0000           -1   0.00000   0.00000
     12825 HPTSH    7        HPTSH    LPO52    LPDO1   -0.325000        0.0000           -1   0.00000   0.00000
     12826 HPTSH    7        HPTSH    LPO61    LPDO1   -0.325000        0.0000           -1   0.00000   0.00000
     12827 HPTSH    7        HPTSH    LPO62    LPDO1   -0.325000        0.0000           -1   0.00000   0.00000
     12828 HPTSH    7        HPTSH    LPO71    LPD     -0.269000        0.0000           -1   0.00000   0.00000
     12829 HPTSH    7        HPTSH    LPO72    LPD     -0.268000        0.0000           -1   0.00000   0.00000
     12830 HPTSH    7        HPTSH    LPO81    LPDO1   -0.325000        0.0000           -1   0.00000   0.00000
     12831 HPTSH    7        HPTSH    LPO82    LPDO1   -0.325000        0.0000           -1   0.00000   0.00000
     12832 HPTSH    7        HPTSH    LPO91    LPDO1   -0.325000        0.0000           -1   0.00000   0.00000
     12833 HPTSH    7        HPTSH    LPO92    LPDO1   -0.325000        0.0000           -1   0.00000   0.00000
     12834 HPTSH    7        HPTSH    LPO101   LPDO1   -0.325000        0.0000           -1   0.00000   0.00000
     12835 HPTSH    7        HPTSH    LPO102   LPDO1   -0.325000        0.0000           -1   0.00000   0.00000
     12836 HPTSH    8        HPTSH    C1       CD2R6A   2.899200       11.6110           0   -1.50750   1.27010
     12837 HPTSH    8        HPTSH    DC1      DRUD    -3.013200        0.4000           0   0.00000   0.00000
     12838 HPTSH    8        HPTSH    C2       CD2R6A   2.898200       11.6110           0   -1.50750   1.27010
     12839 HPTSH    8        HPTSH    DC2      DRUD    -3.013200        0.4000           0   0.00000   0.00000
     12840 HPTSH    8        HPTSH    C3       CD2R6A   3.024200       11.6110           0   -1.50750   1.27010
     12841 HPTSH    8        HPTSH    DC3      DRUD    -3.013200        0.4000           0   0.00000   0.00000
     12842 HPTSH    8        HPTSH    C4       CD2R6A   2.993200       11.6110           0   -1.50750   1.27010
     12843 HPTSH    8        HPTSH    DC4      DRUD    -3.013200        0.4000           0   0.00000   0.00000
     12844 HPTSH    8        HPTSH    C5       CD2R6A   3.024200       11.6110           0   -1.50750   1.27010
     12845 HPTSH    8        HPTSH    DC5      DRUD    -3.013200        0.4000           0   0.00000   0.00000
     12846 HPTSH    8        HPTSH    C6       CD2R6A   2.607200       11.6110           0   -1.50750   1.27010
     12847 HPTSH    8        HPTSH    DC6      DRUD    -3.013200        0.4000           0   0.00000   0.00000
     12848 HPTSH    8        HPTSH    C7       CD2R6A   2.720200       11.6110           0   -1.50750   1.27010
     12849 HPTSH    8        HPTSH    DC7      DRUD    -3.013200        0.4000           0   0.00000   0.00000
     12850 HPTSH    8        HPTSH    C8       CD2R6A   2.607200       11.6110           0   -1.50750   1.27010
     12851 HPTSH    8        HPTSH    DC8      DRUD    -3.013200        0.4000           0   0.00000   0.00000
     12852 HPTSH    8        HPTSH    S1       SD30A    3.803100       31.6600           0   -1.00000   1.30000
     12853 HPTSH    8        HPTSH    DS1      DRUD    -2.454100        0.4000           0   0.00000   0.00000
     12854 HPTSH    8        HPTSH    O1       OD2C2B   2.368000       15.5994           0   -0.931000   1.08300
     12855 HPTSH    8        HPTSH    DO1      DRUD    -2.368000        0.4000           0   0.00000   0.00000
     12856 HPTSH    8        HPTSH    O2       OD2C2B   2.368000       15.5994           0   -0.931000   1.08300
     12857 HPTSH    8        HPTSH    DO2      DRUD    -2.368000        0.4000           0   0.00000   0.00000
     12858 HPTSH    8        HPTSH    O3       OD2C2B   2.368000       15.5994           0   -0.931000   1.08300
     12859 HPTSH    8        HPTSH    DO3      DRUD    -2.368000        0.4000           0   0.00000   0.00000
     12860 HPTSH    8        HPTSH    S2       SD30A    3.803100       31.6600           0   -1.00000   1.30000
     12861 HPTSH    8        HPTSH    DS2      DRUD    -2.454100        0.4000           0   0.00000   0.00000
     12862 HPTSH    8        HPTSH    O4       OD2C2B   2.368000       15.5994           0   -0.931000   1.08300
     12863 HPTSH    8        HPTSH    DO4      DRUD    -2.368000        0.4000           0   0.00000   0.00000
     12864 HPTSH    8        HPTSH    O5       OD2C2B   2.368000       15.5994           0   -0.931000   1.08300
     12865 HPTSH    8        HPTSH    DO5      DRUD    -2.368000        0.4000           0   0.00000   0.00000
     12866 HPTSH    8        HPTSH    O6       OD2C2B   2.368000       15.5994           0   -0.931000   1.08300
     12867 HPTSH    8        HPTSH    DO6      DRUD    -2.368000        0.4000           0   0.00000   0.00000
     12868 HPTSH    8        HPTSH    C9       CD2R6A   2.898200       11.6110           0   -1.50750   1.27010
     12869 HPTSH    8        HPTSH    DC9      DRUD    -3.013200        0.4000           0   0.00000   0.00000
     12870 HPTSH    8        HPTSH    C10      CD2R6A   2.898200       11.6110           0   -1.50750   1.27010
     12871 HPTSH    8        HPTSH    DC10     DRUD    -3.013200        0.4000           0   0.00000   0.00000
     12872 HPTSH    8        HPTSH    C11      CD2R6A   3.024200       11.6110           0   -1.50750   1.27010
     12873 HPTSH    8        HPTSH    DC11     DRUD    -3.013200        0.4000           0   0.00000   0.00000
     12874 HPTSH    8        HPTSH    C12      CD2R6A   2.608200       11.6110           0   -1.50750   1.27010
     12875 HPTSH    8        HPTSH    DC12     DRUD    -3.013200        0.4000           0   0.00000   0.00000
     12876 HPTSH    8        HPTSH    C13      CD2R6A   2.816200       11.6110           0   -1.50750   1.27010
     12877 HPTSH    8        HPTSH    DC13     DRUD    -3.013200        0.4000           0   0.00000   0.00000
     12878 HPTSH    8        HPTSH    C14      CD2R6A   3.116200       11.6110           0   -1.50750   1.27010
     12879 HPTSH    8        HPTSH    DC14     DRUD    -3.013200        0.4000           0   0.00000   0.00000
     12880 HPTSH    8        HPTSH    C15      CD2R6A   3.027200       11.6110           0   -1.50750   1.27010
     12881 HPTSH    8        HPTSH    DC15     DRUD    -3.013200        0.4000           0   0.00000   0.00000
     12882 HPTSH    8        HPTSH    C16      CD2R6A   2.994200       11.6110           0   -1.50750   1.27010
     12883 HPTSH    8        HPTSH    DC16     DRUD    -3.013200        0.4000           0   0.00000   0.00000
     12884 HPTSH    8        HPTSH    O7       OD31A    2.237800       15.5990           0   -0.831500   0.749400
     12885 HPTSH    8        HPTSH    DO7      DRUD    -2.237800        0.4000           0   0.00000   0.00000
     12886 HPTSH    8        HPTSH    S3       SD30A    3.803100       31.6600           0   -1.00000   1.30000
     12887 HPTSH    8        HPTSH    DS3      DRUD    -2.454100        0.4000           0   0.00000   0.00000
     12888 HPTSH    8        HPTSH    O8       OD2C2B   2.368000       15.5994           0   -0.931000   1.08300
     12889 HPTSH    8        HPTSH    DO8      DRUD    -2.368000        0.4000           0   0.00000   0.00000
     12890 HPTSH    8        HPTSH    O9       OD2C2B   2.368000       15.5994           0   -0.931000   1.08300
     12891 HPTSH    8        HPTSH    DO9      DRUD    -2.368000        0.4000           0   0.00000   0.00000
     12892 HPTSH    8        HPTSH    O10      OD2C2B   2.368000       15.5994           0   -0.931000   1.08300
     12893 HPTSH    8        HPTSH    DO10     DRUD    -2.368000        0.4000           0   0.00000   0.00000
     12894 HPTSH    8        HPTSH    H1       HDR6A    0.115000        1.0080           0   0.00000   0.00000
     12895 HPTSH    8        HPTSH    H2       HDR6A    0.115000        1.0080           0   0.00000   0.00000
     12896 HPTSH    8        HPTSH    H3       HDR6A    0.305000        1.0080           0   0.00000   0.00000
     12897 HPTSH    8        HPTSH    H4       HDR6A    0.115000        1.0080           0   0.00000   0.00000
     12898 HPTSH    8        HPTSH    H5       HDR6A    0.115000        1.0080           0   0.00000   0.00000
     12899 HPTSH    8        HPTSH    H6       HDR6A    0.210000        1.0080           0   0.00000   0.00000
     12900 HPTSH    8        HPTSH    H7       HDP1A    0.420000        1.0080           0   0.00000   0.00000
     12901 HPTSH    8        HPTSH    LPO11    LPDO1   -0.325000        0.0000           -1   0.00000   0.00000
     12902 HPTSH    8        HPTSH    LPO12    LPDO1   -0.325000        0.0000           -1   0.00000   0.00000
     12903 HPTSH    8        HPTSH    LPO21    LPDO1   -0.325000        0.0000           -1   0.00000   0.00000
     12904 HPTSH    8        HPTSH    LPO22    LPDO1   -0.325000        0.0000           -1   0.00000   0.00000
     12905 HPTSH    8        HPTSH    LPO31    LPDO1   -0.325000        0.0000           -1   0.00000   0.00000
     12906 HPTSH    8        HPTSH    LPO32    LPDO1   -0.325000        0.0000           -1   0.00000   0.00000
     12907 HPTSH    8        HPTSH    LPO41    LPDO1   -0.325000        0.0000           -1   0.00000   0.00000
     12908 HPTSH    8        HPTSH    LPO42    LPDO1   -0.325000        0.0000           -1   0.00000   0.00000
     12909 HPTSH    8        HPTSH    LPO51    LPDO1   -0.325000        0.0000           -1   0.00000   0.00000
     12910 HPTSH    8        HPTSH    LPO52    LPDO1   -0.325000        0.0000           -1   0.00000   0.00000
     12911 HPTSH    8        HPTSH    LPO61    LPDO1   -0.325000        0.0000           -1   0.00000   0.00000
     12912 HPTSH    8        HPTSH    LPO62    LPDO1   -0.325000        0.0000           -1   0.00000   0.00000
     12913 HPTSH    8        HPTSH    LPO71    LPD     -0.269000        0.0000           -1   0.00000   0.00000
     12914 HPTSH    8        HPTSH    LPO72    LPD     -0.268000        0.0000           -1   0.00000   0.00000
     12915 HPTSH    8        HPTSH    LPO81    LPDO1   -0.325000        0.0000           -1   0.00000   0.00000
     12916 HPTSH    8        HPTSH    LPO82    LPDO1   -0.325000        0.0000           -1   0.00000   0.00000
     12917 HPTSH    8        HPTSH    LPO91    LPDO1   -0.325000        0.0000           -1   0.00000   0.00000
     12918 HPTSH    8        HPTSH    LPO92    LPDO1   -0.325000        0.0000           -1   0.00000   0.00000
     12919 HPTSH    8        HPTSH    LPO101   LPDO1   -0.325000        0.0000           -1   0.00000   0.00000
     12920 HPTSH    8        HPTSH    LPO102   LPDO1   -0.325000        0.0000           -1   0.00000   0.00000
     12921 HPTSH    9        HPTSH    C1       CD2R6A   2.899200       11.6110           0   -1.50750   1.27010
     12922 HPTSH    9        HPTSH    DC1      DRUD    -3.013200        0.4000           0   0.00000   0.00000
     12923 HPTSH    9        HPTSH    C2       CD2R6A   2.898200       11.6110           0   -1.50750   1.27010
     12924 HPTSH    9        HPTSH    DC2      DRUD    -3.013200        0.4000           0   0.00000   0.00000
     12925 HPTSH    9        HPTSH    C3       CD2R6A   3.024200       11.6110           0   -1.50750   1.27010
     12926 HPTSH    9        HPTSH    DC3      DRUD    -3.013200        0.4000           0   0.00000   0.00000
     12927 HPTSH    9        HPTSH    C4       CD2R6A   2.993200       11.6110           0   -1.50750   1.27010
     12928 HPTSH    9        HPTSH    DC4      DRUD    -3.013200        0.4000           0   0.00000   0.00000
     12929 HPTSH    9        HPTSH    C5       CD2R6A   3.024200       11.6110           0   -1.50750   1.27010
     12930 HPTSH    9        HPTSH    DC5      DRUD    -3.013200        0.4000           0   0.00000   0.00000
     12931 HPTSH    9        HPTSH    C6       CD2R6A   2.607200       11.6110           0   -1.50750   1.27010
     12932 HPTSH    9        HPTSH    DC6      DRUD    -3.013200        0.4000           0   0.00000   0.00000
     12933 HPTSH    9        HPTSH    C7       CD2R6A   2.720200       11.6110           0   -1.50750   1.27010
     12934 HPTSH    9        HPTSH    DC7      DRUD    -3.013200        0.4000           0   0.00000   0.00000
     12935 HPTSH    9        HPTSH    C8       CD2R6A   2.607200       11.6110           0   -1.50750   1.27010
     12936 HPTSH    9        HPTSH    DC8      DRUD    -3.013200        0.4000           0   0.00000   0.00000
     12937 HPTSH    9        HPTSH    S1       SD30A    3.803100       31.6600           0   -1.00000   1.30000
     12938 HPTSH    9        HPTSH    DS1      DRUD    -2.454100        0.4000           0   0.00000   0.00000
     12939 HPTSH    9        HPTSH    O1       OD2C2B   2.368000       15.5994           0   -0.931000   1.08300
     12940 HPTSH    9        HPTSH    DO1      DRUD    -2.368000        0.4000           0   0.00000   0.00000
     12941 HPTSH    9        HPTSH    O2       OD2C2B   2.368000       15.5994           0   -0.931000   1.08300
     12942 HPTSH    9        HPTSH    DO2      DRUD    -2.368000        0.4000           0   0.00000   0.00000
     12943 HPTSH    9        HPTSH    O3       OD2C2B   2.368000       15.5994           0   -0.931000   1.08300
     12944 HPTSH    9        HPTSH    DO3      DRUD    -2.368000        0.4000           0   0.00000   0.00000
     12945 HPTSH    9        HPTSH    S2       SD30A    3.803100       31.6600           0   -1.00000   1.30000
     12946 HPTSH    9        HPTSH    DS2      DRUD    -2.454100        0.4000           0   0.00000   0.00000
     12947 HPTSH    9        HPTSH    O4       OD2C2B   2.368000       15.5994           0   -0.931000   1.08300
     12948 HPTSH    9        HPTSH    DO4      DRUD    -2.368000        0.4000           0   0.00000   0.00000
     12949 HPTSH    9        HPTSH    O5       OD2C2B   2.368000       15.5994           0   -0.931000   1.08300
     12950 HPTSH    9        HPTSH    DO5      DRUD    -2.368000        0.4000           0   0.00000   0.00000
     12951 HPTSH    9        HPTSH    O6       OD2C2B   2.368000       15.5994           0   -0.931000   1.08300
     12952 HPTSH    9        HPTSH    DO6      DRUD    -2.368000        0.4000           0   0.00000   0.00000
     12953 HPTSH    9        HPTSH    C9       CD2R6A   2.898200       11.6110           0   -1.50750   1.27010
     12954 HPTSH    9        HPTSH    DC9      DRUD    -3.013200        0.4000           0   0.00000   0.00000
     12955 HPTSH    9        HPTSH    C10      CD2R6A   2.898200       11.6110           0   -1.50750   1.27010
     12956 HPTSH    9        HPTSH    DC10     DRUD    -3.013200        0.4000           0   0.00000   0.00000
     12957 HPTSH    9        HPTSH    C11      CD2R6A   3.024200       11.6110           0   -1.50750   1.27010
     12958 HPTSH    9        HPTSH    DC11     DRUD    -3.013200        0.4000           0   0.00000   0.00000
     12959 HPTSH    9        HPTSH    C12      CD2R6A   2.608200       11.6110           0   -1.50750   1.27010
     12960 HPTSH    9        HPTSH    DC12     DRUD    -3.013200        0.4000           0   0.00000   0.00000
     12961 HPTSH    9        HPTSH    C13      CD2R6A   2.816200       11.6110           0   -1.50750   1.27010
     12962 HPTSH    9        HPTSH    DC13     DRUD    -3.013200        0.4000           0   0.00000   0.00000
     12963 HPTSH    9        HPTSH    C14      CD2R6A   3.116200       11.6110           0   -1.50750   1.27010
     12964 HPTSH    9        HPTSH    DC14     DRUD    -3.013200        0.4000           0   0.00000   0.00000
     12965 HPTSH    9        HPTSH    C15      CD2R6A   3.027200       11.6110           0   -1.50750   1.27010
     12966 HPTSH    9        HPTSH    DC15     DRUD    -3.013200        0.4000           0   0.00000   0.00000
     12967 HPTSH    9        HPTSH    C16      CD2R6A   2.994200       11.6110           0   -1.50750   1.27010
     12968 HPTSH    9        HPTSH    DC16     DRUD    -3.013200        0.4000           0   0.00000   0.00000
     12969 HPTSH    9        HPTSH    O7       OD31A    2.237800       15.5990           0   -0.831500   0.749400
     12970 HPTSH    9        HPTSH    DO7      DRUD    -2.237800        0.4000           0   0.00000   0.00000
     12971 HPTSH    9        HPTSH    S3       SD30A    3.803100       31.6600           0   -1.00000   1.30000
     12972 HPTSH    9        HPTSH    DS3      DRUD    -2.454100        0.4000           0   0.00000   0.00000
     12973 HPTSH    9        HPTSH    O8       OD2C2B   2.368000       15.5994           0   -0.931000   1.08300
     12974 HPTSH    9        HPTSH    DO8      DRUD    -2.368000        0.4000           0   0.00000   0.00000
     12975 HPTSH    9        HPTSH    O9       OD2C2B   2.368000       15.5994           0   -0.931000   1.08300
     12976 HPTSH    9        HPTSH    DO9      DRUD    -2.368000        0.4000           0   0.00000   0.00000
     12977 HPTSH    9        HPTSH    O10      OD2C2B   2.368000       15.5994           0   -0.931000   1.08300
     12978 HPTSH    9        HPTSH    DO10     DRUD    -2.368000        0.4000           0   0.00000   0.00000
     12979 HPTSH    9        HPTSH    H1       HDR6A    0.115000        1.0080           0   0.00000   0.00000
     12980 HPTSH    9        HPTSH    H2       HDR6A    0.115000        1.0080           0   0.00000   0.00000
     12981 HPTSH    9        HPTSH    H3       HDR6A    0.305000        1.0080           0   0.00000   0.00000
     12982 HPTSH    9        HPTSH    H4       HDR6A    0.115000        1.0080           0   0.00000   0.00000
     12983 HPTSH    9        HPTSH    H5       HDR6A    0.115000        1.0080           0   0.00000   0.00000
     12984 HPTSH    9        HPTSH    H6       HDR6A    0.210000        1.0080           0   0.00000   0.00000
     12985 HPTSH    9        HPTSH    H7       HDP1A    0.420000        1.0080           0   0.00000   0.00000
     12986 HPTSH    9        HPTSH    LPO11    LPDO1   -0.325000        0.0000           -1   0.00000   0.00000
     12987 HPTSH    9        HPTSH    LPO12    LPDO1   -0.325000        0.0000           -1   0.00000   0.00000
     12988 HPTSH    9        HPTSH    LPO21    LPDO1   -0.325000        0.0000           -1   0.00000   0.00000
     12989 HPTSH    9        HPTSH    LPO22    LPDO1   -0.325000        0.0000           -1   0.00000   0.00000
     12990 HPTSH    9        HPTSH    LPO31    LPDO1   -0.325000        0.0000           -1   0.00000   0.00000
     12991 HPTSH    9        HPTSH    LPO32    LPDO1   -0.325000        0.0000           -1   0.00000   0.00000
     12992 HPTSH    9        HPTSH    LPO41    LPDO1   -0.325000        0.0000           -1   0.00000   0.00000
     12993 HPTSH    9        HPTSH    LPO42    LPDO1   -0.325000        0.0000           -1   0.00000   0.00000
     12994 HPTSH    9        HPTSH    LPO51    LPDO1   -0.325000        0.0000           -1   0.00000   0.00000
     12995 HPTSH    9        HPTSH    LPO52    LPDO1   -0.325000        0.0000           -1   0.00000   0.00000
     12996 HPTSH    9        HPTSH    LPO61    LPDO1   -0.325000        0.0000           -1   0.00000   0.00000
     12997 HPTSH    9        HPTSH    LPO62    LPDO1   -0.325000        0.0000           -1   0.00000   0.00000
     12998 HPTSH    9        HPTSH    LPO71    LPD     -0.269000        0.0000           -1   0.00000   0.00000
     12999 HPTSH    9        HPTSH    LPO72    LPD     -0.268000        0.0000           -1   0.00000   0.00000
     13000 HPTSH    9        HPTSH    LPO81    LPDO1   -0.325000        0.0000           -1   0.00000   0.00000
     13001 HPTSH    9        HPTSH    LPO82    LPDO1   -0.325000        0.0000           -1   0.00000   0.00000
     13002 HPTSH    9        HPTSH    LPO91    LPDO1   -0.325000        0.0000           -1   0.00000   0.00000
     13003 HPTSH    9        HPTSH    LPO92    LPDO1   -0.325000        0.0000           -1   0.00000   0.00000
     13004 HPTSH    9        HPTSH    LPO101   LPDO1   -0.325000        0.0000           -1   0.00000   0.00000
     13005 HPTSH    9        HPTSH    LPO102   LPDO1   -0.325000        0.0000           -1   0.00000   0.00000
     13006 HPTSH    10       HPTSH    C1       CD2R6A   2.899200       11.6110           0   -1.50750   1.27010
     13007 HPTSH    10       HPTSH    DC1      DRUD    -3.013200        0.4000           0   0.00000   0.00000
     13008 HPTSH    10       HPTSH    C2       CD2R6A   2.898200       11.6110           0   -1.50750   1.27010
     13009 HPTSH    10       HPTSH    DC2      DRUD    -3.013200        0.4000           0   0.00000   0.00000
     13010 HPTSH    10       HPTSH    C3       CD2R6A   3.024200       11.6110           0   -1.50750   1.27010
     13011 HPTSH    10       HPTSH    DC3      DRUD    -3.013200        0.4000           0   0.00000   0.00000
     13012 HPTSH    10       HPTSH    C4       CD2R6A   2.993200       11.6110           0   -1.50750   1.27010
     13013 HPTSH    10       HPTSH    DC4      DRUD    -3.013200        0.4000           0   0.00000   0.00000
     13014 HPTSH    10       HPTSH    C5       CD2R6A   3.024200       11.6110           0   -1.50750   1.27010
     13015 HPTSH    10       HPTSH    DC5      DRUD    -3.013200        0.4000           0   0.00000   0.00000
     13016 HPTSH    10       HPTSH    C6       CD2R6A   2.607200       11.6110           0   -1.50750   1.27010
     13017 HPTSH    10       HPTSH    DC6      DRUD    -3.013200        0.4000           0   0.00000   0.00000
     13018 HPTSH    10       HPTSH    C7       CD2R6A   2.720200       11.6110           0   -1.50750   1.27010
     13019 HPTSH    10       HPTSH    DC7      DRUD    -3.013200        0.4000           0   0.00000   0.00000
     13020 HPTSH    10       HPTSH    C8       CD2R6A   2.607200       11.6110           0   -1.50750   1.27010
     13021 HPTSH    10       HPTSH    DC8      DRUD    -3.013200        0.4000           0   0.00000   0.00000
     13022 HPTSH    10       HPTSH    S1       SD30A    3.803100       31.6600           0   -1.00000   1.30000
     13023 HPTSH    10       HPTSH    DS1      DRUD    -2.454100        0.4000           0   0.00000   0.00000
     13024 HPTSH    10       HPTSH    O1       OD2C2B   2.368000       15.5994           0   -0.931000   1.08300
     13025 HPTSH    10       HPTSH    DO1      DRUD    -2.368000        0.4000           0   0.00000   0.00000
     13026 HPTSH    10       HPTSH    O2       OD2C2B   2.368000       15.5994           0   -0.931000   1.08300
     13027 HPTSH    10       HPTSH    DO2      DRUD    -2.368000        0.4000           0   0.00000   0.00000
     13028 HPTSH    10       HPTSH    O3       OD2C2B   2.368000       15.5994           0   -0.931000   1.08300
     13029 HPTSH    10       HPTSH    DO3      DRUD    -2.368000        0.4000           0   0.00000   0.00000
     13030 HPTSH    10       HPTSH    S2       SD30A    3.803100       31.6600           0   -1.00000   1.30000
     13031 HPTSH    10       HPTSH    DS2      DRUD    -2.454100        0.4000           0   0.00000   0.00000
     13032 HPTSH    10       HPTSH    O4       OD2C2B   2.368000       15.5994           0   -0.931000   1.08300
     13033 HPTSH    10       HPTSH    DO4      DRUD    -2.368000        0.4000           0   0.00000   0.00000
     13034 HPTSH    10       HPTSH    O5       OD2C2B   2.368000       15.5994           0   -0.931000   1.08300
     13035 HPTSH    10       HPTSH    DO5      DRUD    -2.368000        0.4000           0   0.00000   0.00000
     13036 HPTSH    10       HPTSH    O6       OD2C2B   2.368000       15.5994           0   -0.931000   1.08300
     13037 HPTSH    10       HPTSH    DO6      DRUD    -2.368000        0.4000           0   0.00000   0.00000
     13038 HPTSH    10       HPTSH    C9       CD2R6A   2.898200       11.6110           0   -1.50750   1.27010
     13039 HPTSH    10       HPTSH    DC9      DRUD    -3.013200        0.4000           0   0.00000   0.00000
     13040 HPTSH    10       HPTSH    C10      CD2R6A   2.898200       11.6110           0   -1.50750   1.27010
     13041 HPTSH    10       HPTSH    DC10     DRUD    -3.013200        0.4000           0   0.00000   0.00000
     13042 HPTSH    10       HPTSH    C11      CD2R6A   3.024200       11.6110           0   -1.50750   1.27010
     13043 HPTSH    10       HPTSH    DC11     DRUD    -3.013200        0.4000           0   0.00000   0.00000
     13044 HPTSH    10       HPTSH    C12      CD2R6A   2.608200       11.6110           0   -1.50750   1.27010
     13045 HPTSH    10       HPTSH    DC12     DRUD    -3.013200        0.4000           0   0.00000   0.00000
     13046 HPTSH    10       HPTSH    C13      CD2R6A   2.816200       11.6110           0   -1.50750   1.27010
     13047 HPTSH    10       HPTSH    DC13     DRUD    -3.013200        0.4000           0   0.00000   0.00000
     13048 HPTSH    10       HPTSH    C14      CD2R6A   3.116200       11.6110           0   -1.50750   1.27010
     13049 HPTSH    10       HPTSH    DC14     DRUD    -3.013200        0.4000           0   0.00000   0.00000
     13050 HPTSH    10       HPTSH    C15      CD2R6A   3.027200       11.6110           0   -1.50750   1.27010
     13051 HPTSH    10       HPTSH    DC15     DRUD    -3.013200        0.4000           0   0.00000   0.00000
     13052 HPTSH    10       HPTSH    C16      CD2R6A   2.994200       11.6110           0   -1.50750   1.27010
     13053 HPTSH    10       HPTSH    DC16     DRUD    -3.013200        0.4000           0   0.00000   0.00000
     13054 HPTSH    10       HPTSH    O7       OD31A    2.237800       15.5990           0   -0.831500   0.749400
     13055 HPTSH    10       HPTSH    DO7      DRUD    -2.237800        0.4000           0   0.00000   0.00000
     13056 HPTSH    10       HPTSH    S3       SD30A    3.803100       31.6600           0   -1.00000   1.30000
     13057 HPTSH    10       HPTSH    DS3      DRUD    -2.454100        0.4000           0   0.00000   0.00000
     13058 HPTSH    10       HPTSH    O8       OD2C2B   2.368000       15.5994           0   -0.931000   1.08300
     13059 HPTSH    10       HPTSH    DO8      DRUD    -2.368000        0.4000           0   0.00000   0.00000
     13060 HPTSH    10       HPTSH    O9       OD2C2B   2.368000       15.5994           0   -0.931000   1.08300
     13061 HPTSH    10       HPTSH    DO9      DRUD    -2.368000        0.4000           0   0.00000   0.00000
     13062 HPTSH    10       HPTSH    O10      OD2C2B   2.368000       15.5994           0   -0.931000   1.08300
     13063 HPTSH    10       HPTSH    DO10     DRUD    -2.368000        0.4000           0   0.00000   0.00000
     13064 HPTSH    10       HPTSH    H1       HDR6A    0.115000        1.0080           0   0.00000   0.00000
     13065 HPTSH    10       HPTSH    H2       HDR6A    0.115000        1.0080           0   0.00000   0.00000
     13066 HPTSH    10       HPTSH    H3       HDR6A    0.305000        1.0080           0   0.00000   0.00000
     13067 HPTSH    10       HPTSH    H4       HDR6A    0.115000        1.0080           0   0.00000   0.00000
     13068 HPTSH    10       HPTSH    H5       HDR6A    0.115000        1.0080           0   0.00000   0.00000
     13069 HPTSH    10       HPTSH    H6       HDR6A    0.210000        1.0080           0   0.00000   0.00000
     13070 HPTSH    10       HPTSH    H7       HDP1A    0.420000        1.0080           0   0.00000   0.00000
     13071 HPTSH    10       HPTSH    LPO11    LPDO1   -0.325000        0.0000           -1   0.00000   0.00000
     13072 HPTSH    10       HPTSH    LPO12    LPDO1   -0.325000        0.0000           -1   0.00000   0.00000
     13073 HPTSH    10       HPTSH    LPO21    LPDO1   -0.325000        0.0000           -1   0.00000   0.00000
     13074 HPTSH    10       HPTSH    LPO22    LPDO1   -0.325000        0.0000           -1   0.00000   0.00000
     13075 HPTSH    10       HPTSH    LPO31    LPDO1   -0.325000        0.0000           -1   0.00000   0.00000
     13076 HPTSH    10       HPTSH    LPO32    LPDO1   -0.325000        0.0000           -1   0.00000   0.00000
     13077 HPTSH    10       HPTSH    LPO41    LPDO1   -0.325000        0.0000           -1   0.00000   0.00000
     13078 HPTSH    10       HPTSH    LPO42    LPDO1   -0.325000        0.0000           -1   0.00000   0.00000
     13079 HPTSH    10       HPTSH    LPO51    LPDO1   -0.325000        0.0000           -1   0.00000   0.00000
     13080 HPTSH    10       HPTSH    LPO52    LPDO1   -0.325000        0.0000           -1   0.00000   0.00000
     13081 HPTSH    10       HPTSH    LPO61    LPDO1   -0.325000        0.0000           -1   0.00000   0.00000
     13082 HPTSH    10       HPTSH    LPO62    LPDO1   -0.325000        0.0000           -1   0.00000   0.00000
     13083 HPTSH    10       HPTSH    LPO71    LPD     -0.269000        0.0000           -1   0.00000   0.00000
     13084 HPTSH    10       HPTSH    LPO72    LPD     -0.268000        0.0000           -1   0.00000   0.00000
     13085 HPTSH    10       HPTSH    LPO81    LPDO1   -0.325000        0.0000           -1   0.00000   0.00000
     13086 HPTSH    10       HPTSH    LPO82    LPDO1   -0.325000        0.0000           -1   0.00000   0.00000
     13087 HPTSH    10       HPTSH    LPO91    LPDO1   -0.325000        0.0000           -1   0.00000   0.00000
     13088 HPTSH    10       HPTSH    LPO92    LPDO1   -0.325000        0.0000           -1   0.00000   0.00000
     13089 HPTSH    10       HPTSH    LPO101   LPDO1   -0.325000        0.0000           -1   0.00000   0.00000
     13090 HPTSH    10       HPTSH    LPO102   LPDO1   -0.325000        0.0000           -1   0.00000   0.00000
     13091 HPTSH    11       HPTSH    C1       CD2R6A   2.899200       11.6110           0   -1.50750   1.27010
     13092 HPTSH    11       HPTSH    DC1      DRUD    -3.013200        0.4000           0   0.00000   0.00000
     13093 HPTSH    11       HPTSH    C2       CD2R6A   2.898200       11.6110           0   -1.50750   1.27010
     13094 HPTSH    11       HPTSH    DC2      DRUD    -3.013200        0.4000           0   0.00000   0.00000
     13095 HPTSH    11       HPTSH    C3       CD2R6A   3.024200       11.6110           0   -1.50750   1.27010
     13096 HPTSH    11       HPTSH    DC3      DRUD    -3.013200        0.4000           0   0.00000   0.00000
     13097 HPTSH    11       HPTSH    C4       CD2R6A   2.993200       11.6110           0   -1.50750   1.27010
     13098 HPTSH    11       HPTSH    DC4      DRUD    -3.013200        0.4000           0   0.00000   0.00000
     13099 HPTSH    11       HPTSH    C5       CD2R6A   3.024200       11.6110           0   -1.50750   1.27010
     13100 HPTSH    11       HPTSH    DC5      DRUD    -3.013200        0.4000           0   0.00000   0.00000
     13101 HPTSH    11       HPTSH    C6       CD2R6A   2.607200       11.6110           0   -1.50750   1.27010
     13102 HPTSH    11       HPTSH    DC6      DRUD    -3.013200        0.4000           0   0.00000   0.00000
     13103 HPTSH    11       HPTSH    C7       CD2R6A   2.720200       11.6110           0   -1.50750   1.27010
     13104 HPTSH    11       HPTSH    DC7      DRUD    -3.013200        0.4000           0   0.00000   0.00000
     13105 HPTSH    11       HPTSH    C8       CD2R6A   2.607200       11.6110           0   -1.50750   1.27010
     13106 HPTSH    11       HPTSH    DC8      DRUD    -3.013200        0.4000           0   0.00000   0.00000
     13107 HPTSH    11       HPTSH    S1       SD30A    3.803100       31.6600           0   -1.00000   1.30000
     13108 HPTSH    11       HPTSH    DS1      DRUD    -2.454100        0.4000           0   0.00000   0.00000
     13109 HPTSH    11       HPTSH    O1       OD2C2B   2.368000       15.5994           0   -0.931000   1.08300
     13110 HPTSH    11       HPTSH    DO1      DRUD    -2.368000        0.4000           0   0.00000   0.00000
     13111 HPTSH    11       HPTSH    O2       OD2C2B   2.368000       15.5994           0   -0.931000   1.08300
     13112 HPTSH    11       HPTSH    DO2      DRUD    -2.368000        0.4000           0   0.00000   0.00000
     13113 HPTSH    11       HPTSH    O3       OD2C2B   2.368000       15.5994           0   -0.931000   1.08300
     13114 HPTSH    11       HPTSH    DO3      DRUD    -2.368000        0.4000           0   0.00000   0.00000
     13115 HPTSH    11       HPTSH    S2       SD30A    3.803100       31.6600           0   -1.00000   1.30000
     13116 HPTSH    11       HPTSH    DS2      DRUD    -2.454100        0.4000           0   0.00000   0.00000
     13117 HPTSH    11       HPTSH    O4       OD2C2B   2.368000       15.5994           0   -0.931000   1.08300
     13118 HPTSH    11       HPTSH    DO4      DRUD    -2.368000        0.4000           0   0.00000   0.00000
     13119 HPTSH    11       HPTSH    O5       OD2C2B   2.368000       15.5994           0   -0.931000   1.08300
     13120 HPTSH    11       HPTSH    DO5      DRUD    -2.368000        0.4000           0   0.00000   0.00000
     13121 HPTSH    11       HPTSH    O6       OD2C2B   2.368000       15.5994           0   -0.931000   1.08300
     13122 HPTSH    11       HPTSH    DO6      DRUD    -2.368000        0.4000           0   0.00000   0.00000
     13123 HPTSH    11       HPTSH    C9       CD2R6A   2.898200       11.6110           0   -1.50750   1.27010
     13124 HPTSH    11       HPTSH    DC9      DRUD    -3.013200        0.4000           0   0.00000   0.00000
     13125 HPTSH    11       HPTSH    C10      CD2R6A   2.898200       11.6110           0   -1.50750   1.27010
     13126 HPTSH    11       HPTSH    DC10     DRUD    -3.013200        0.4000           0   0.00000   0.00000
     13127 HPTSH    11       HPTSH    C11      CD2R6A   3.024200       11.6110           0   -1.50750   1.27010
     13128 HPTSH    11       HPTSH    DC11     DRUD    -3.013200        0.4000           0   0.00000   0.00000
     13129 HPTSH    11       HPTSH    C12      CD2R6A   2.608200       11.6110           0   -1.50750   1.27010
     13130 HPTSH    11       HPTSH    DC12     DRUD    -3.013200        0.4000           0   0.00000   0.00000
     13131 HPTSH    11       HPTSH    C13      CD2R6A   2.816200       11.6110           0   -1.50750   1.27010
     13132 HPTSH    11       HPTSH    DC13     DRUD    -3.013200        0.4000           0   0.00000   0.00000
     13133 HPTSH    11       HPTSH    C14      CD2R6A   3.116200       11.6110           0   -1.50750   1.27010
     13134 HPTSH    11       HPTSH    DC14     DRUD    -3.013200        0.4000           0   0.00000   0.00000
     13135 HPTSH    11       HPTSH    C15      CD2R6A   3.027200       11.6110           0   -1.50750   1.27010
     13136 HPTSH    11       HPTSH    DC15     DRUD    -3.013200        0.4000           0   0.00000   0.00000
     13137 HPTSH    11       HPTSH    C16      CD2R6A   2.994200       11.6110           0   -1.50750   1.27010
     13138 HPTSH    11       HPTSH    DC16     DRUD    -3.013200        0.4000           0   0.00000   0.00000
     13139 HPTSH    11       HPTSH    O7       OD31A    2.237800       15.5990           0   -0.831500   0.749400
     13140 HPTSH    11       HPTSH    DO7      DRUD    -2.237800        0.4000           0   0.00000   0.00000
     13141 HPTSH    11       HPTSH    S3       SD30A    3.803100       31.6600           0   -1.00000   1.30000
     13142 HPTSH    11       HPTSH    DS3      DRUD    -2.454100        0.4000           0   0.00000   0.00000
     13143 HPTSH    11       HPTSH    O8       OD2C2B   2.368000       15.5994           0   -0.931000   1.08300
     13144 HPTSH    11       HPTSH    DO8      DRUD    -2.368000        0.4000           0   0.00000   0.00000
     13145 HPTSH    11       HPTSH    O9       OD2C2B   2.368000       15.5994           0   -0.931000   1.08300
     13146 HPTSH    11       HPTSH    DO9      DRUD    -2.368000        0.4000           0   0.00000   0.00000
     13147 HPTSH    11       HPTSH    O10      OD2C2B   2.368000       15.5994           0   -0.931000   1.08300
     13148 HPTSH    11       HPTSH    DO10     DRUD    -2.368000        0.4000           0   0.00000   0.00000
     13149 HPTSH    11       HPTSH    H1       HDR6A    0.115000        1.0080           0   0.00000   0.00000
     13150 HPTSH    11       HPTSH    H2       HDR6A    0.115000        1.0080           0   0.00000   0.00000
     13151 HPTSH    11       HPTSH    H3       HDR6A    0.305000        1.0080           0   0.00000   0.00000
     13152 HPTSH    11       HPTSH    H4       HDR6A    0.115000        1.0080           0   0.00000   0.00000
     13153 HPTSH    11       HPTSH    H5       HDR6A    0.115000        1.0080           0   0.00000   0.00000
     13154 HPTSH    11       HPTSH    H6       HDR6A    0.210000        1.0080           0   0.00000   0.00000
     13155 HPTSH    11       HPTSH    H7       HDP1A    0.420000        1.0080           0   0.00000   0.00000
     13156 HPTSH    11       HPTSH    LPO11    LPDO1   -0.325000        0.0000           -1   0.00000   0.00000
     13157 HPTSH    11       HPTSH    LPO12    LPDO1   -0.325000        0.0000           -1   0.00000   0.00000
     13158 HPTSH    11       HPTSH    LPO21    LPDO1   -0.325000        0.0000           -1   0.00000   0.00000
     13159 HPTSH    11       HPTSH    LPO22    LPDO1   -0.325000        0.0000           -1   0.00000   0.00000
     13160 HPTSH    11       HPTSH    LPO31    LPDO1   -0.325000        0.0000           -1   0.00000   0.00000
     13161 HPTSH    11       HPTSH    LPO32    LPDO1   -0.325000        0.0000           -1   0.00000   0.00000
     13162 HPTSH    11       HPTSH    LPO41    LPDO1   -0.325000        0.0000           -1   0.00000   0.00000
     13163 HPTSH    11       HPTSH    LPO42    LPDO1   -0.325000        0.0000           -1   0.00000   0.00000
     13164 HPTSH    11       HPTSH    LPO51    LPDO1   -0.325000        0.0000           -1   0.00000   0.00000
     13165 HPTSH    11       HPTSH    LPO52    LPDO1   -0.325000        0.0000           -1   0.00000   0.00000
     13166 HPTSH    11       HPTSH    LPO61    LPDO1   -0.325000        0.0000           -1   0.00000   0.00000
     13167 HPTSH    11       HPTSH    LPO62    LPDO1   -0.325000        0.0000           -1   0.00000   0.00000
     13168 HPTSH    11       HPTSH    LPO71    LPD     -0.269000        0.0000           -1   0.00000   0.00000
     13169 HPTSH    11       HPTSH    LPO72    LPD     -0.268000        0.0000           -1   0.00000   0.00000
     13170 HPTSH    11       HPTSH    LPO81    LPDO1   -0.325000        0.0000           -1   0.00000   0.00000
     13171 HPTSH    11       HPTSH    LPO82    LPDO1   -0.325000        0.0000           -1   0.00000   0.00000
     13172 HPTSH    11       HPTSH    LPO91    LPDO1   -0.325000        0.0000           -1   0.00000   0.00000
     13173 HPTSH    11       HPTSH    LPO92    LPDO1   -0.325000        0.0000           -1   0.00000   0.00000
     13174 HPTSH    11       HPTSH    LPO101   LPDO1   -0.325000        0.0000           -1   0.00000   0.00000
     13175 HPTSH    11       HPTSH    LPO102   LPDO1   -0.325000        0.0000           -1   0.00000   0.00000
     13176 HPTSH    12       HPTSH    C1       CD2R6A   2.899200       11.6110           0   -1.50750   1.27010
     13177 HPTSH    12       HPTSH    DC1      DRUD    -3.013200        0.4000           0   0.00000   0.00000
     13178 HPTSH    12       HPTSH    C2       CD2R6A   2.898200       11.6110           0   -1.50750   1.27010
     13179 HPTSH    12       HPTSH    DC2      DRUD    -3.013200        0.4000           0   0.00000   0.00000
     13180 HPTSH    12       HPTSH    C3       CD2R6A   3.024200       11.6110           0   -1.50750   1.27010
     13181 HPTSH    12       HPTSH    DC3      DRUD    -3.013200        0.4000           0   0.00000   0.00000
     13182 HPTSH    12       HPTSH    C4       CD2R6A   2.993200       11.6110           0   -1.50750   1.27010
     13183 HPTSH    12       HPTSH    DC4      DRUD    -3.013200        0.4000           0   0.00000   0.00000
     13184 HPTSH    12       HPTSH    C5       CD2R6A   3.024200       11.6110           0   -1.50750   1.27010
     13185 HPTSH    12       HPTSH    DC5      DRUD    -3.013200        0.4000           0   0.00000   0.00000
     13186 HPTSH    12       HPTSH    C6       CD2R6A   2.607200       11.6110           0   -1.50750   1.27010
     13187 HPTSH    12       HPTSH    DC6      DRUD    -3.013200        0.4000           0   0.00000   0.00000
     13188 HPTSH    12       HPTSH    C7       CD2R6A   2.720200       11.6110           0   -1.50750   1.27010
     13189 HPTSH    12       HPTSH    DC7      DRUD    -3.013200        0.4000           0   0.00000   0.00000
     13190 HPTSH    12       HPTSH    C8       CD2R6A   2.607200       11.6110           0   -1.50750   1.27010
     13191 HPTSH    12       HPTSH    DC8      DRUD    -3.013200        0.4000           0   0.00000   0.00000
     13192 HPTSH    12       HPTSH    S1       SD30A    3.803100       31.6600           0   -1.00000   1.30000
     13193 HPTSH    12       HPTSH    DS1      DRUD    -2.454100        0.4000           0   0.00000   0.00000
     13194 HPTSH    12       HPTSH    O1       OD2C2B   2.368000       15.5994           0   -0.931000   1.08300
     13195 HPTSH    12       HPTSH    DO1      DRUD    -2.368000        0.4000           0   0.00000   0.00000
     13196 HPTSH    12       HPTSH    O2       OD2C2B   2.368000       15.5994           0   -0.931000   1.08300
     13197 HPTSH    12       HPTSH    DO2      DRUD    -2.368000        0.4000           0   0.00000   0.00000
     13198 HPTSH    12       HPTSH    O3       OD2C2B   2.368000       15.5994           0   -0.931000   1.08300
     13199 HPTSH    12       HPTSH    DO3      DRUD    -2.368000        0.4000           0   0.00000   0.00000
     13200 HPTSH    12       HPTSH    S2       SD30A    3.803100       31.6600           0   -1.00000   1.30000
     13201 HPTSH    12       HPTSH    DS2      DRUD    -2.454100        0.4000           0   0.00000   0.00000
     13202 HPTSH    12       HPTSH    O4       OD2C2B   2.368000       15.5994           0   -0.931000   1.08300
     13203 HPTSH    12       HPTSH    DO4      DRUD    -2.368000        0.4000           0   0.00000   0.00000
     13204 HPTSH    12       HPTSH    O5       OD2C2B   2.368000       15.5994           0   -0.931000   1.08300
     13205 HPTSH    12       HPTSH    DO5      DRUD    -2.368000        0.4000           0   0.00000   0.00000
     13206 HPTSH    12       HPTSH    O6       OD2C2B   2.368000       15.5994           0   -0.931000   1.08300
     13207 HPTSH    12       HPTSH    DO6      DRUD    -2.368000        0.4000           0   0.00000   0.00000
     13208 HPTSH    12       HPTSH    C9       CD2R6A   2.898200       11.6110           0   -1.50750   1.27010
     13209 HPTSH    12       HPTSH    DC9      DRUD    -3.013200        0.4000           0   0.00000   0.00000
     13210 HPTSH    12       HPTSH    C10      CD2R6A   2.898200       11.6110           0   -1.50750   1.27010
     13211 HPTSH    12       HPTSH    DC10     DRUD    -3.013200        0.4000           0   0.00000   0.00000
     13212 HPTSH    12       HPTSH    C11      CD2R6A   3.024200       11.6110           0   -1.50750   1.27010
     13213 HPTSH    12       HPTSH    DC11     DRUD    -3.013200        0.4000           0   0.00000   0.00000
     13214 HPTSH    12       HPTSH    C12      CD2R6A   2.608200       11.6110           0   -1.50750   1.27010
     13215 HPTSH    12       HPTSH    DC12     DRUD    -3.013200        0.4000           0   0.00000   0.00000
     13216 HPTSH    12       HPTSH    C13      CD2R6A   2.816200       11.6110           0   -1.50750   1.27010
     13217 HPTSH    12       HPTSH    DC13     DRUD    -3.013200        0.4000           0   0.00000   0.00000
     13218 HPTSH    12       HPTSH    C14      CD2R6A   3.116200       11.6110           0   -1.50750   1.27010
     13219 HPTSH    12       HPTSH    DC14     DRUD    -3.013200        0.4000           0   0.00000   0.00000
     13220 HPTSH    12       HPTSH    C15      CD2R6A   3.027200       11.6110           0   -1.50750   1.27010
     13221 HPTSH    12       HPTSH    DC15     DRUD    -3.013200        0.4000           0   0.00000   0.00000
     13222 HPTSH    12       HPTSH    C16      CD2R6A   2.994200       11.6110           0   -1.50750   1.27010
     13223 HPTSH    12       HPTSH    DC16     DRUD    -3.013200        0.4000           0   0.00000   0.00000
     13224 HPTSH    12       HPTSH    O7       OD31A    2.237800       15.5990           0   -0.831500   0.749400
     13225 HPTSH    12       HPTSH    DO7      DRUD    -2.237800        0.4000           0   0.00000   0.00000
     13226 HPTSH    12       HPTSH    S3       SD30A    3.803100       31.6600           0   -1.00000   1.30000
     13227 HPTSH    12       HPTSH    DS3      DRUD    -2.454100        0.4000           0   0.00000   0.00000
     13228 HPTSH    12       HPTSH    O8       OD2C2B   2.368000       15.5994           0   -0.931000   1.08300
     13229 HPTSH    12       HPTSH    DO8      DRUD    -2.368000        0.4000           0   0.00000   0.00000
     13230 HPTSH    12       HPTSH    O9       OD2C2B   2.368000       15.5994           0   -0.931000   1.08300
     13231 HPTSH    12       HPTSH    DO9      DRUD    -2.368000        0.4000           0   0.00000   0.00000
     13232 HPTSH    12       HPTSH    O10      OD2C2B   2.368000       15.5994           0   -0.931000   1.08300
     13233 HPTSH    12       HPTSH    DO10     DRUD    -2.368000        0.4000           0   0.00000   0.00000
     13234 HPTSH    12       HPTSH    H1       HDR6A    0.115000        1.0080           0   0.00000   0.00000
     13235 HPTSH    12       HPTSH    H2       HDR6A    0.115000        1.0080           0   0.00000   0.00000
     13236 HPTSH    12       HPTSH    H3       HDR6A    0.305000        1.0080           0   0.00000   0.00000
     13237 HPTSH    12       HPTSH    H4       HDR6A    0.115000        1.0080           0   0.00000   0.00000
     13238 HPTSH    12       HPTSH    H5       HDR6A    0.115000        1.0080           0   0.00000   0.00000
     13239 HPTSH    12       HPTSH    H6       HDR6A    0.210000        1.0080           0   0.00000   0.00000
     13240 HPTSH    12       HPTSH    H7       HDP1A    0.420000        1.0080           0   0.00000   0.00000
     13241 HPTSH    12       HPTSH    LPO11    LPDO1   -0.325000        0.0000           -1   0.00000   0.00000
     13242 HPTSH    12       HPTSH    LPO12    LPDO1   -0.325000        0.0000           -1   0.00000   0.00000
     13243 HPTSH    12       HPTSH    LPO21    LPDO1   -0.325000        0.0000           -1   0.00000   0.00000
     13244 HPTSH    12       HPTSH    LPO22    LPDO1   -0.325000        0.0000           -1   0.00000   0.00000
     13245 HPTSH    12       HPTSH    LPO31    LPDO1   -0.325000        0.0000           -1   0.00000   0.00000
     13246 HPTSH    12       HPTSH    LPO32    LPDO1   -0.325000        0.0000           -1   0.00000   0.00000
     13247 HPTSH    12       HPTSH    LPO41    LPDO1   -0.325000        0.0000           -1   0.00000   0.00000
     13248 HPTSH    12       HPTSH    LPO42    LPDO1   -0.325000        0.0000           -1   0.00000   0.00000
     13249 HPTSH    12       HPTSH    LPO51    LPDO1   -0.325000        0.0000           -1   0.00000   0.00000
     13250 HPTSH    12       HPTSH    LPO52    LPDO1   -0.325000        0.0000           -1   0.00000   0.00000
     13251 HPTSH    12       HPTSH    LPO61    LPDO1   -0.325000        0.0000           -1   0.00000   0.00000
     13252 HPTSH    12       HPTSH    LPO62    LPDO1   -0.325000        0.0000           -1   0.00000   0.00000
     13253 HPTSH    12       HPTSH    LPO71    LPD     -0.269000        0.0000           -1   0.00000   0.00000
     13254 HPTSH    12       HPTSH    LPO72    LPD     -0.268000        0.0000           -1   0.00000   0.00000
     13255 HPTSH    12       HPTSH    LPO81    LPDO1   -0.325000        0.0000           -1   0.00000   0.00000
     13256 HPTSH    12       HPTSH    LPO82    LPDO1   -0.325000        0.0000           -1   0.00000   0.00000
     13257 HPTSH    12       HPTSH    LPO91    LPDO1   -0.325000        0.0000           -1   0.00000   0.00000
     13258 HPTSH    12       HPTSH    LPO92    LPDO1   -0.325000        0.0000           -1   0.00000   0.00000
     13259 HPTSH    12       HPTSH    LPO101   LPDO1   -0.325000        0.0000           -1   0.00000   0.00000
     13260 HPTSH    12       HPTSH    LPO102   LPDO1   -0.325000        0.0000           -1   0.00000   0.00000
     13261 HPTSH    13       HPTSH    C1       CD2R6A   2.899200       11.6110           0   -1.50750   1.27010
     13262 HPTSH    13       HPTSH    DC1      DRUD    -3.013200        0.4000           0   0.00000   0.00000
     13263 HPTSH    13       HPTSH    C2       CD2R6A   2.898200       11.6110           0   -1.50750   1.27010
     13264 HPTSH    13       HPTSH    DC2      DRUD    -3.013200        0.4000           0   0.00000   0.00000
     13265 HPTSH    13       HPTSH    C3       CD2R6A   3.024200       11.6110           0   -1.50750   1.27010
     13266 HPTSH    13       HPTSH    DC3      DRUD    -3.013200        0.4000           0   0.00000   0.00000
     13267 HPTSH    13       HPTSH    C4       CD2R6A   2.993200       11.6110           0   -1.50750   1.27010
     13268 HPTSH    13       HPTSH    DC4      DRUD    -3.013200        0.4000           0   0.00000   0.00000
     13269 HPTSH    13       HPTSH    C5       CD2R6A   3.024200       11.6110           0   -1.50750   1.27010
     13270 HPTSH    13       HPTSH    DC5      DRUD    -3.013200        0.4000           0   0.00000   0.00000
     13271 HPTSH    13       HPTSH    C6       CD2R6A   2.607200       11.6110           0   -1.50750   1.27010
     13272 HPTSH    13       HPTSH    DC6      DRUD    -3.013200        0.4000           0   0.00000   0.00000
     13273 HPTSH    13       HPTSH    C7       CD2R6A   2.720200       11.6110           0   -1.50750   1.27010
     13274 HPTSH    13       HPTSH    DC7      DRUD    -3.013200        0.4000           0   0.00000   0.00000
     13275 HPTSH    13       HPTSH    C8       CD2R6A   2.607200       11.6110           0   -1.50750   1.27010
     13276 HPTSH    13       HPTSH    DC8      DRUD    -3.013200        0.4000           0   0.00000   0.00000
     13277 HPTSH    13       HPTSH    S1       SD30A    3.803100       31.6600           0   -1.00000   1.30000
     13278 HPTSH    13       HPTSH    DS1      DRUD    -2.454100        0.4000           0   0.00000   0.00000
     13279 HPTSH    13       HPTSH    O1       OD2C2B   2.368000       15.5994           0   -0.931000   1.08300
     13280 HPTSH    13       HPTSH    DO1      DRUD    -2.368000        0.4000           0   0.00000   0.00000
     13281 HPTSH    13       HPTSH    O2       OD2C2B   2.368000       15.5994           0   -0.931000   1.08300
     13282 HPTSH    13       HPTSH    DO2      DRUD    -2.368000        0.4000           0   0.00000   0.00000
     13283 HPTSH    13       HPTSH    O3       OD2C2B   2.368000       15.5994           0   -0.931000   1.08300
     13284 HPTSH    13       HPTSH    DO3      DRUD    -2.368000        0.4000           0   0.00000   0.00000
     13285 HPTSH    13       HPTSH    S2       SD30A    3.803100       31.6600           0   -1.00000   1.30000
     13286 HPTSH    13       HPTSH    DS2      DRUD    -2.454100        0.4000           0   0.00000   0.00000
     13287 HPTSH    13       HPTSH    O4       OD2C2B   2.368000       15.5994           0   -0.931000   1.08300
     13288 HPTSH    13       HPTSH    DO4      DRUD    -2.368000        0.4000           0   0.00000   0.00000
     13289 HPTSH    13       HPTSH    O5       OD2C2B   2.368000       15.5994           0   -0.931000   1.08300
     13290 HPTSH    13       HPTSH    DO5      DRUD    -2.368000        0.4000           0   0.00000   0.00000
     13291 HPTSH    13       HPTSH    O6       OD2C2B   2.368000       15.5994           0   -0.931000   1.08300
     13292 HPTSH    13       HPTSH    DO6      DRUD    -2.368000        0.4000           0   0.00000   0.00000
     13293 HPTSH    13       HPTSH    C9       CD2R6A   2.898200       11.6110           0   -1.50750   1.27010
     13294 HPTSH    13       HPTSH    DC9      DRUD    -3.013200        0.4000           0   0.00000   0.00000
     13295 HPTSH    13       HPTSH    C10      CD2R6A   2.898200       11.6110           0   -1.50750   1.27010
     13296 HPTSH    13       HPTSH    DC10     DRUD    -3.013200        0.4000           0   0.00000   0.00000
     13297 HPTSH    13       HPTSH    C11      CD2R6A   3.024200       11.6110           0   -1.50750   1.27010
     13298 HPTSH    13       HPTSH    DC11     DRUD    -3.013200        0.4000           0   0.00000   0.00000
     13299 HPTSH    13       HPTSH    C12      CD2R6A   2.608200       11.6110           0   -1.50750   1.27010
     13300 HPTSH    13       HPTSH    DC12     DRUD    -3.013200        0.4000           0   0.00000   0.00000
     13301 HPTSH    13       HPTSH    C13      CD2R6A   2.816200       11.6110           0   -1.50750   1.27010
     13302 HPTSH    13       HPTSH    DC13     DRUD    -3.013200        0.4000           0   0.00000   0.00000
     13303 HPTSH    13       HPTSH    C14      CD2R6A   3.116200       11.6110           0   -1.50750   1.27010
     13304 HPTSH    13       HPTSH    DC14     DRUD    -3.013200        0.4000           0   0.00000   0.00000
     13305 HPTSH    13       HPTSH    C15      CD2R6A   3.027200       11.6110           0   -1.50750   1.27010
     13306 HPTSH    13       HPTSH    DC15     DRUD    -3.013200        0.4000           0   0.00000   0.00000
     13307 HPTSH    13       HPTSH    C16      CD2R6A   2.994200       11.6110           0   -1.50750   1.27010
     13308 HPTSH    13       HPTSH    DC16     DRUD    -3.013200        0.4000           0   0.00000   0.00000
     13309 HPTSH    13       HPTSH    O7       OD31A    2.237800       15.5990           0   -0.831500   0.749400
     13310 HPTSH    13       HPTSH    DO7      DRUD    -2.237800        0.4000           0   0.00000   0.00000
     13311 HPTSH    13       HPTSH    S3       SD30A    3.803100       31.6600           0   -1.00000   1.30000
     13312 HPTSH    13       HPTSH    DS3      DRUD    -2.454100        0.4000           0   0.00000   0.00000
     13313 HPTSH    13       HPTSH    O8       OD2C2B   2.368000       15.5994           0   -0.931000   1.08300
     13314 HPTSH    13       HPTSH    DO8      DRUD    -2.368000        0.4000           0   0.00000   0.00000
     13315 HPTSH    13       HPTSH    O9       OD2C2B   2.368000       15.5994           0   -0.931000   1.08300
     13316 HPTSH    13       HPTSH    DO9      DRUD    -2.368000        0.4000           0   0.00000   0.00000
     13317 HPTSH    13       HPTSH    O10      OD2C2B   2.368000       15.5994           0   -0.931000   1.08300
     13318 HPTSH    13       HPTSH    DO10     DRUD    -2.368000        0.4000           0   0.00000   0.00000
     13319 HPTSH    13       HPTSH    H1       HDR6A    0.115000        1.0080           0   0.00000   0.00000
     13320 HPTSH    13       HPTSH    H2       HDR6A    0.115000        1.0080           0   0.00000   0.00000
     13321 HPTSH    13       HPTSH    H3       HDR6A    0.305000        1.0080           0   0.00000   0.00000
     13322 HPTSH    13       HPTSH    H4       HDR6A    0.115000        1.0080           0   0.00000   0.00000
     13323 HPTSH    13       HPTSH    H5       HDR6A    0.115000        1.0080           0   0.00000   0.00000
     13324 HPTSH    13       HPTSH    H6       HDR6A    0.210000        1.0080           0   0.00000   0.00000
     13325 HPTSH    13       HPTSH    H7       HDP1A    0.420000        1.0080           0   0.00000   0.00000
     13326 HPTSH    13       HPTSH    LPO11    LPDO1   -0.325000        0.0000           -1   0.00000   0.00000
     13327 HPTSH    13       HPTSH    LPO12    LPDO1   -0.325000        0.0000           -1   0.00000   0.00000
     13328 HPTSH    13       HPTSH    LPO21    LPDO1   -0.325000        0.0000           -1   0.00000   0.00000
     13329 HPTSH    13       HPTSH    LPO22    LPDO1   -0.325000        0.0000           -1   0.00000   0.00000
     13330 HPTSH    13       HPTSH    LPO31    LPDO1   -0.325000        0.0000           -1   0.00000   0.00000
     13331 HPTSH    13       HPTSH    LPO32    LPDO1   -0.325000        0.0000           -1   0.00000   0.00000
     13332 HPTSH    13       HPTSH    LPO41    LPDO1   -0.325000        0.0000           -1   0.00000   0.00000
     13333 HPTSH    13       HPTSH    LPO42    LPDO1   -0.325000        0.0000           -1   0.00000   0.00000
     13334 HPTSH    13       HPTSH    LPO51    LPDO1   -0.325000        0.0000           -1   0.00000   0.00000
     13335 HPTSH    13       HPTSH    LPO52    LPDO1   -0.325000        0.0000           -1   0.00000   0.00000
     13336 HPTSH    13       HPTSH    LPO61    LPDO1   -0.325000        0.0000           -1   0.00000   0.00000
     13337 HPTSH    13       HPTSH    LPO62    LPDO1   -0.325000        0.0000           -1   0.00000   0.00000
     13338 HPTSH    13       HPTSH    LPO71    LPD     -0.269000        0.0000           -1   0.00000   0.00000
     13339 HPTSH    13       HPTSH    LPO72    LPD     -0.268000        0.0000           -1   0.00000   0.00000
     13340 HPTSH    13       HPTSH    LPO81    LPDO1   -0.325000        0.0000           -1   0.00000   0.00000
     13341 HPTSH    13       HPTSH    LPO82    LPDO1   -0.325000        0.0000           -1   0.00000   0.00000
     13342 HPTSH    13       HPTSH    LPO91    LPDO1   -0.325000        0.0000           -1   0.00000   0.00000
     13343 HPTSH    13       HPTSH    LPO92    LPDO1   -0.325000        0.0000           -1   0.00000   0.00000
     13344 HPTSH    13       HPTSH    LPO101   LPDO1   -0.325000        0.0000           -1   0.00000   0.00000
     13345 HPTSH    13       HPTSH    LPO102   LPDO1   -0.325000        0.0000           -1   0.00000   0.00000
     13346 HPTSH    14       HPTSH    C1       CD2R6A   2.899200       11.6110           0   -1.50750   1.27010
     13347 HPTSH    14       HPTSH    DC1      DRUD    -3.013200        0.4000           0   0.00000   0.00000
     13348 HPTSH    14       HPTSH    C2       CD2R6A   2.898200       11.6110           0   -1.50750   1.27010
     13349 HPTSH    14       HPTSH    DC2      DRUD    -3.013200        0.4000           0   0.00000   0.00000
     13350 HPTSH    14       HPTSH    C3       CD2R6A   3.024200       11.6110           0   -1.50750   1.27010
     13351 HPTSH    14       HPTSH    DC3      DRUD    -3.013200        0.4000           0   0.00000   0.00000
     13352 HPTSH    14       HPTSH    C4       CD2R6A   2.993200       11.6110           0   -1.50750   1.27010
     13353 HPTSH    14       HPTSH    DC4      DRUD    -3.013200        0.4000           0   0.00000   0.00000
     13354 HPTSH    14       HPTSH    C5       CD2R6A   3.024200       11.6110           0   -1.50750   1.27010
     13355 HPTSH    14       HPTSH    DC5      DRUD    -3.013200        0.4000           0   0.00000   0.00000
     13356 HPTSH    14       HPTSH    C6       CD2R6A   2.607200       11.6110           0   -1.50750   1.27010
     13357 HPTSH    14       HPTSH    DC6      DRUD    -3.013200        0.4000           0   0.00000   0.00000
     13358 HPTSH    14       HPTSH    C7       CD2R6A   2.720200       11.6110           0   -1.50750   1.27010
     13359 HPTSH    14       HPTSH    DC7      DRUD    -3.013200        0.4000           0   0.00000   0.00000
     13360 HPTSH    14       HPTSH    C8       CD2R6A   2.607200       11.6110           0   -1.50750   1.27010
     13361 HPTSH    14       HPTSH    DC8      DRUD    -3.013200        0.4000           0   0.00000   0.00000
     13362 HPTSH    14       HPTSH    S1       SD30A    3.803100       31.6600           0   -1.00000   1.30000
     13363 HPTSH    14       HPTSH    DS1      DRUD    -2.454100        0.4000           0   0.00000   0.00000
     13364 HPTSH    14       HPTSH    O1       OD2C2B   2.368000       15.5994           0   -0.931000   1.08300
     13365 HPTSH    14       HPTSH    DO1      DRUD    -2.368000        0.4000           0   0.00000   0.00000
     13366 HPTSH    14       HPTSH    O2       OD2C2B   2.368000       15.5994           0   -0.931000   1.08300
     13367 HPTSH    14       HPTSH    DO2      DRUD    -2.368000        0.4000           0   0.00000   0.00000
     13368 HPTSH    14       HPTSH    O3       OD2C2B   2.368000       15.5994           0   -0.931000   1.08300
     13369 HPTSH    14       HPTSH    DO3      DRUD    -2.368000        0.4000           0   0.00000   0.00000
     13370 HPTSH    14       HPTSH    S2       SD30A    3.803100       31.6600           0   -1.00000   1.30000
     13371 HPTSH    14       HPTSH    DS2      DRUD    -2.454100        0.4000           0   0.00000   0.00000
     13372 HPTSH    14       HPTSH    O4       OD2C2B   2.368000       15.5994           0   -0.931000   1.08300
     13373 HPTSH    14       HPTSH    DO4      DRUD    -2.368000        0.4000           0   0.00000   0.00000
     13374 HPTSH    14       HPTSH    O5       OD2C2B   2.368000       15.5994           0   -0.931000   1.08300
     13375 HPTSH    14       HPTSH    DO5      DRUD    -2.368000        0.4000           0   0.00000   0.00000
     13376 HPTSH    14       HPTSH    O6       OD2C2B   2.368000       15.5994           0   -0.931000   1.08300
     13377 HPTSH    14       HPTSH    DO6      DRUD    -2.368000        0.4000           0   0.00000   0.00000
     13378 HPTSH    14       HPTSH    C9       CD2R6A   2.898200       11.6110           0   -1.50750   1.27010
     13379 HPTSH    14       HPTSH    DC9      DRUD    -3.013200        0.4000           0   0.00000   0.00000
     13380 HPTSH    14       HPTSH    C10      CD2R6A   2.898200       11.6110           0   -1.50750   1.27010
     13381 HPTSH    14       HPTSH    DC10     DRUD    -3.013200        0.4000           0   0.00000   0.00000
     13382 HPTSH    14       HPTSH    C11      CD2R6A   3.024200       11.6110           0   -1.50750   1.27010
     13383 HPTSH    14       HPTSH    DC11     DRUD    -3.013200        0.4000           0   0.00000   0.00000
     13384 HPTSH    14       HPTSH    C12      CD2R6A   2.608200       11.6110           0   -1.50750   1.27010
     13385 HPTSH    14       HPTSH    DC12     DRUD    -3.013200        0.4000           0   0.00000   0.00000
     13386 HPTSH    14       HPTSH    C13      CD2R6A   2.816200       11.6110           0   -1.50750   1.27010
     13387 HPTSH    14       HPTSH    DC13     DRUD    -3.013200        0.4000           0   0.00000   0.00000
     13388 HPTSH    14       HPTSH    C14      CD2R6A   3.116200       11.6110           0   -1.50750   1.27010
     13389 HPTSH    14       HPTSH    DC14     DRUD    -3.013200        0.4000           0   0.00000   0.00000
     13390 HPTSH    14       HPTSH    C15      CD2R6A   3.027200       11.6110           0   -1.50750   1.27010
     13391 HPTSH    14       HPTSH    DC15     DRUD    -3.013200        0.4000           0   0.00000   0.00000
     13392 HPTSH    14       HPTSH    C16      CD2R6A   2.994200       11.6110           0   -1.50750   1.27010
     13393 HPTSH    14       HPTSH    DC16     DRUD    -3.013200        0.4000           0   0.00000   0.00000
     13394 HPTSH    14       HPTSH    O7       OD31A    2.237800       15.5990           0   -0.831500   0.749400
     13395 HPTSH    14       HPTSH    DO7      DRUD    -2.237800        0.4000           0   0.00000   0.00000
     13396 HPTSH    14       HPTSH    S3       SD30A    3.803100       31.6600           0   -1.00000   1.30000
     13397 HPTSH    14       HPTSH    DS3      DRUD    -2.454100        0.4000           0   0.00000   0.00000
     13398 HPTSH    14       HPTSH    O8       OD2C2B   2.368000       15.5994           0   -0.931000   1.08300
     13399 HPTSH    14       HPTSH    DO8      DRUD    -2.368000        0.4000           0   0.00000   0.00000
     13400 HPTSH    14       HPTSH    O9       OD2C2B   2.368000       15.5994           0   -0.931000   1.08300
     13401 HPTSH    14       HPTSH    DO9      DRUD    -2.368000        0.4000           0   0.00000   0.00000
     13402 HPTSH    14       HPTSH    O10      OD2C2B   2.368000       15.5994           0   -0.931000   1.08300
     13403 HPTSH    14       HPTSH    DO10     DRUD    -2.368000        0.4000           0   0.00000   0.00000
     13404 HPTSH    14       HPTSH    H1       HDR6A    0.115000        1.0080           0   0.00000   0.00000
     13405 HPTSH    14       HPTSH    H2       HDR6A    0.115000        1.0080           0   0.00000   0.00000
     13406 HPTSH    14       HPTSH    H3       HDR6A    0.305000        1.0080           0   0.00000   0.00000
     13407 HPTSH    14       HPTSH    H4       HDR6A    0.115000        1.0080           0   0.00000   0.00000
     13408 HPTSH    14       HPTSH    H5       HDR6A    0.115000        1.0080           0   0.00000   0.00000
     13409 HPTSH    14       HPTSH    H6       HDR6A    0.210000        1.0080           0   0.00000   0.00000
     13410 HPTSH    14       HPTSH    H7       HDP1A    0.420000        1.0080           0   0.00000   0.00000
     13411 HPTSH    14       HPTSH    LPO11    LPDO1   -0.325000        0.0000           -1   0.00000   0.00000
     13412 HPTSH    14       HPTSH    LPO12    LPDO1   -0.325000        0.0000           -1   0.00000   0.00000
     13413 HPTSH    14       HPTSH    LPO21    LPDO1   -0.325000        0.0000           -1   0.00000   0.00000
     13414 HPTSH    14       HPTSH    LPO22    LPDO1   -0.325000        0.0000           -1   0.00000   0.00000
     13415 HPTSH    14       HPTSH    LPO31    LPDO1   -0.325000        0.0000           -1   0.00000   0.00000
     13416 HPTSH    14       HPTSH    LPO32    LPDO1   -0.325000        0.0000           -1   0.00000   0.00000
     13417 HPTSH    14       HPTSH    LPO41    LPDO1   -0.325000        0.0000           -1   0.00000   0.00000
     13418 HPTSH    14       HPTSH    LPO42    LPDO1   -0.325000        0.0000           -1   0.00000   0.00000
     13419 HPTSH    14       HPTSH    LPO51    LPDO1   -0.325000        0.0000           -1   0.00000   0.00000
     13420 HPTSH    14       HPTSH    LPO52    LPDO1   -0.325000        0.0000           -1   0.00000   0.00000
     13421 HPTSH    14       HPTSH    LPO61    LPDO1   -0.325000        0.0000           -1   0.00000   0.00000
     13422 HPTSH    14       HPTSH    LPO62    LPDO1   -0.325000        0.0000           -1   0.00000   0.00000
     13423 HPTSH    14       HPTSH    LPO71    LPD     -0.269000        0.0000           -1   0.00000   0.00000
     13424 HPTSH    14       HPTSH    LPO72    LPD     -0.268000        0.0000           -1   0.00000   0.00000
     13425 HPTSH    14       HPTSH    LPO81    LPDO1   -0.325000        0.0000           -1   0.00000   0.00000
     13426 HPTSH    14       HPTSH    LPO82    LPDO1   -0.325000        0.0000           -1   0.00000   0.00000
     13427 HPTSH    14       HPTSH    LPO91    LPDO1   -0.325000        0.0000           -1   0.00000   0.00000
     13428 HPTSH    14       HPTSH    LPO92    LPDO1   -0.325000        0.0000           -1   0.00000   0.00000
     13429 HPTSH    14       HPTSH    LPO101   LPDO1   -0.325000        0.0000           -1   0.00000   0.00000
     13430 HPTSH    14       HPTSH    LPO102   LPDO1   -0.325000        0.0000           -1   0.00000   0.00000
     13431 HPTSH    15       HPTSH    C1       CD2R6A   2.899200       11.6110           0   -1.50750   1.27010
     13432 HPTSH    15       HPTSH    DC1      DRUD    -3.013200        0.4000           0   0.00000   0.00000
     13433 HPTSH    15       HPTSH    C2       CD2R6A   2.898200       11.6110           0   -1.50750   1.27010
     13434 HPTSH    15       HPTSH    DC2      DRUD    -3.013200        0.4000           0   0.00000   0.00000
     13435 HPTSH    15       HPTSH    C3       CD2R6A   3.024200       11.6110           0   -1.50750   1.27010
     13436 HPTSH    15       HPTSH    DC3      DRUD    -3.013200        0.4000           0   0.00000   0.00000
     13437 HPTSH    15       HPTSH    C4       CD2R6A   2.993200       11.6110           0   -1.50750   1.27010
     13438 HPTSH    15       HPTSH    DC4      DRUD    -3.013200        0.4000           0   0.00000   0.00000
     13439 HPTSH    15       HPTSH    C5       CD2R6A   3.024200       11.6110           0   -1.50750   1.27010
     13440 HPTSH    15       HPTSH    DC5      DRUD    -3.013200        0.4000           0   0.00000   0.00000
     13441 HPTSH    15       HPTSH    C6       CD2R6A   2.607200       11.6110           0   -1.50750   1.27010
     13442 HPTSH    15       HPTSH    DC6      DRUD    -3.013200        0.4000           0   0.00000   0.00000
     13443 HPTSH    15       HPTSH    C7       CD2R6A   2.720200       11.6110           0   -1.50750   1.27010
     13444 HPTSH    15       HPTSH    DC7      DRUD    -3.013200        0.4000           0   0.00000   0.00000
     13445 HPTSH    15       HPTSH    C8       CD2R6A   2.607200       11.6110           0   -1.50750   1.27010
     13446 HPTSH    15       HPTSH    DC8      DRUD    -3.013200        0.4000           0   0.00000   0.00000
     13447 HPTSH    15       HPTSH    S1       SD30A    3.803100       31.6600           0   -1.00000   1.30000
     13448 HPTSH    15       HPTSH    DS1      DRUD    -2.454100        0.4000           0   0.00000   0.00000
     13449 HPTSH    15       HPTSH    O1       OD2C2B   2.368000       15.5994           0   -0.931000   1.08300
     13450 HPTSH    15       HPTSH    DO1      DRUD    -2.368000        0.4000           0   0.00000   0.00000
     13451 HPTSH    15       HPTSH    O2       OD2C2B   2.368000       15.5994           0   -0.931000   1.08300
     13452 HPTSH    15       HPTSH    DO2      DRUD    -2.368000        0.4000           0   0.00000   0.00000
     13453 HPTSH    15       HPTSH    O3       OD2C2B   2.368000       15.5994           0   -0.931000   1.08300
     13454 HPTSH    15       HPTSH    DO3      DRUD    -2.368000        0.4000           0   0.00000   0.00000
     13455 HPTSH    15       HPTSH    S2       SD30A    3.803100       31.6600           0   -1.00000   1.30000
     13456 HPTSH    15       HPTSH    DS2      DRUD    -2.454100        0.4000           0   0.00000   0.00000
     13457 HPTSH    15       HPTSH    O4       OD2C2B   2.368000       15.5994           0   -0.931000   1.08300
     13458 HPTSH    15       HPTSH    DO4      DRUD    -2.368000        0.4000           0   0.00000   0.00000
     13459 HPTSH    15       HPTSH    O5       OD2C2B   2.368000       15.5994           0   -0.931000   1.08300
     13460 HPTSH    15       HPTSH    DO5      DRUD    -2.368000        0.4000           0   0.00000   0.00000
     13461 HPTSH    15       HPTSH    O6       OD2C2B   2.368000       15.5994           0   -0.931000   1.08300
     13462 HPTSH    15       HPTSH    DO6      DRUD    -2.368000        0.4000           0   0.00000   0.00000
     13463 HPTSH    15       HPTSH    C9       CD2R6A   2.898200       11.6110           0   -1.50750   1.27010
     13464 HPTSH    15       HPTSH    DC9      DRUD    -3.013200        0.4000           0   0.00000   0.00000
     13465 HPTSH    15       HPTSH    C10      CD2R6A   2.898200       11.6110           0   -1.50750   1.27010
     13466 HPTSH    15       HPTSH    DC10     DRUD    -3.013200        0.4000           0   0.00000   0.00000
     13467 HPTSH    15       HPTSH    C11      CD2R6A   3.024200       11.6110           0   -1.50750   1.27010
     13468 HPTSH    15       HPTSH    DC11     DRUD    -3.013200        0.4000           0   0.00000   0.00000
     13469 HPTSH    15       HPTSH    C12      CD2R6A   2.608200       11.6110           0   -1.50750   1.27010
     13470 HPTSH    15       HPTSH    DC12     DRUD    -3.013200        0.4000           0   0.00000   0.00000
     13471 HPTSH    15       HPTSH    C13      CD2R6A   2.816200       11.6110           0   -1.50750   1.27010
     13472 HPTSH    15       HPTSH    DC13     DRUD    -3.013200        0.4000           0   0.00000   0.00000
     13473 HPTSH    15       HPTSH    C14      CD2R6A   3.116200       11.6110           0   -1.50750   1.27010
     13474 HPTSH    15       HPTSH    DC14     DRUD    -3.013200        0.4000           0   0.00000   0.00000
     13475 HPTSH    15       HPTSH    C15      CD2R6A   3.027200       11.6110           0   -1.50750   1.27010
     13476 HPTSH    15       HPTSH    DC15     DRUD    -3.013200        0.4000           0   0.00000   0.00000
     13477 HPTSH    15       HPTSH    C16      CD2R6A   2.994200       11.6110           0   -1.50750   1.27010
     13478 HPTSH    15       HPTSH    DC16     DRUD    -3.013200        0.4000           0   0.00000   0.00000
     13479 HPTSH    15       HPTSH    O7       OD31A    2.237800       15.5990           0   -0.831500   0.749400
     13480 HPTSH    15       HPTSH    DO7      DRUD    -2.237800        0.4000           0   0.00000   0.00000
     13481 HPTSH    15       HPTSH    S3       SD30A    3.803100       31.6600           0   -1.00000   1.30000
     13482 HPTSH    15       HPTSH    DS3      DRUD    -2.454100        0.4000           0   0.00000   0.00000
     13483 HPTSH    15       HPTSH    O8       OD2C2B   2.368000       15.5994           0   -0.931000   1.08300
     13484 HPTSH    15       HPTSH    DO8      DRUD    -2.368000        0.4000           0   0.00000   0.00000
     13485 HPTSH    15       HPTSH    O9       OD2C2B   2.368000       15.5994           0   -0.931000   1.08300
     13486 HPTSH    15       HPTSH    DO9      DRUD    -2.368000        0.4000           0   0.00000   0.00000
     13487 HPTSH    15       HPTSH    O10      OD2C2B   2.368000       15.5994           0   -0.931000   1.08300
     13488 HPTSH    15       HPTSH    DO10     DRUD    -2.368000        0.4000           0   0.00000   0.00000
     13489 HPTSH    15       HPTSH    H1       HDR6A    0.115000        1.0080           0   0.00000   0.00000
     13490 HPTSH    15       HPTSH    H2       HDR6A    0.115000        1.0080           0   0.00000   0.00000
     13491 HPTSH    15       HPTSH    H3       HDR6A    0.305000        1.0080           0   0.00000   0.00000
     13492 HPTSH    15       HPTSH    H4       HDR6A    0.115000        1.0080           0   0.00000   0.00000
     13493 HPTSH    15       HPTSH    H5       HDR6A    0.115000        1.0080           0   0.00000   0.00000
     13494 HPTSH    15       HPTSH    H6       HDR6A    0.210000        1.0080           0   0.00000   0.00000
     13495 HPTSH    15       HPTSH    H7       HDP1A    0.420000        1.0080           0   0.00000   0.00000
     13496 HPTSH    15       HPTSH    LPO11    LPDO1   -0.325000        0.0000           -1   0.00000   0.00000
     13497 HPTSH    15       HPTSH    LPO12    LPDO1   -0.325000        0.0000           -1   0.00000   0.00000
     13498 HPTSH    15       HPTSH    LPO21    LPDO1   -0.325000        0.0000           -1   0.00000   0.00000
     13499 HPTSH    15       HPTSH    LPO22    LPDO1   -0.325000        0.0000           -1   0.00000   0.00000
     13500 HPTSH    15       HPTSH    LPO31    LPDO1   -0.325000        0.0000           -1   0.00000   0.00000
     13501 HPTSH    15       HPTSH    LPO32    LPDO1   -0.325000        0.0000           -1   0.00000   0.00000
     13502 HPTSH    15       HPTSH    LPO41    LPDO1   -0.325000        0.0000           -1   0.00000   0.00000
     13503 HPTSH    15       HPTSH    LPO42    LPDO1   -0.325000        0.0000           -1   0.00000   0.00000
     13504 HPTSH    15       HPTSH    LPO51    LPDO1   -0.325000        0.0000           -1   0.00000   0.00000
     13505 HPTSH    15       HPTSH    LPO52    LPDO1   -0.325000        0.0000           -1   0.00000   0.00000
     13506 HPTSH    15       HPTSH    LPO61    LPDO1   -0.325000        0.0000           -1   0.00000   0.00000
     13507 HPTSH    15       HPTSH    LPO62    LPDO1   -0.325000        0.0000           -1   0.00000   0.00000
     13508 HPTSH    15       HPTSH    LPO71    LPD     -0.269000        0.0000           -1   0.00000   0.00000
     13509 HPTSH    15       HPTSH    LPO72    LPD     -0.268000        0.0000           -1   0.00000   0.00000
     13510 HPTSH    15       HPTSH    LPO81    LPDO1   -0.325000        0.0000           -1   0.00000   0.00000
     13511 HPTSH    15       HPTSH    LPO82    LPDO1   -0.325000        0.0000           -1   0.00000   0.00000
     13512 HPTSH    15       HPTSH    LPO91    LPDO1   -0.325000        0.0000           -1   0.00000   0.00000
     13513 HPTSH    15       HPTSH    LPO92    LPDO1   -0.325000        0.0000           -1   0.00000   0.00000
     13514 HPTSH    15       HPTSH    LPO101   LPDO1   -0.325000        0.0000           -1   0.00000   0.00000
     13515 HPTSH    15       HPTSH    LPO102   LPDO1   -0.325000        0.0000           -1   0.00000   0.00000
     13516 HPTSH    16       HPTSH    C1       CD2R6A   2.899200       11.6110           0   -1.50750   1.27010
     13517 HPTSH    16       HPTSH    DC1      DRUD    -3.013200        0.4000           0   0.00000   0.00000
     13518 HPTSH    16       HPTSH    C2       CD2R6A   2.898200       11.6110           0   -1.50750   1.27010
     13519 HPTSH    16       HPTSH    DC2      DRUD    -3.013200        0.4000           0   0.00000   0.00000
     13520 HPTSH    16       HPTSH    C3       CD2R6A   3.024200       11.6110           0   -1.50750   1.27010
     13521 HPTSH    16       HPTSH    DC3      DRUD    -3.013200        0.4000           0   0.00000   0.00000
     13522 HPTSH    16       HPTSH    C4       CD2R6A   2.993200       11.6110           0   -1.50750   1.27010
     13523 HPTSH    16       HPTSH    DC4      DRUD    -3.013200        0.4000           0   0.00000   0.00000
     13524 HPTSH    16       HPTSH    C5       CD2R6A   3.024200       11.6110           0   -1.50750   1.27010
     13525 HPTSH    16       HPTSH    DC5      DRUD    -3.013200        0.4000           0   0.00000   0.00000
     13526 HPTSH    16       HPTSH    C6       CD2R6A   2.607200       11.6110           0   -1.50750   1.27010
     13527 HPTSH    16       HPTSH    DC6      DRUD    -3.013200        0.4000           0   0.00000   0.00000
     13528 HPTSH    16       HPTSH    C7       CD2R6A   2.720200       11.6110           0   -1.50750   1.27010
     13529 HPTSH    16       HPTSH    DC7      DRUD    -3.013200        0.4000           0   0.00000   0.00000
     13530 HPTSH    16       HPTSH    C8       CD2R6A   2.607200       11.6110           0   -1.50750   1.27010
     13531 HPTSH    16       HPTSH    DC8      DRUD    -3.013200        0.4000           0   0.00000   0.00000
     13532 HPTSH    16       HPTSH    S1       SD30A    3.803100       31.6600           0   -1.00000   1.30000
     13533 HPTSH    16       HPTSH    DS1      DRUD    -2.454100        0.4000           0   0.00000   0.00000
     13534 HPTSH    16       HPTSH    O1       OD2C2B   2.368000       15.5994           0   -0.931000   1.08300
     13535 HPTSH    16       HPTSH    DO1      DRUD    -2.368000        0.4000           0   0.00000   0.00000
     13536 HPTSH    16       HPTSH    O2       OD2C2B   2.368000       15.5994           0   -0.931000   1.08300
     13537 HPTSH    16       HPTSH    DO2      DRUD    -2.368000        0.4000           0   0.00000   0.00000
     13538 HPTSH    16       HPTSH    O3       OD2C2B   2.368000       15.5994           0   -0.931000   1.08300
     13539 HPTSH    16       HPTSH    DO3      DRUD    -2.368000        0.4000           0   0.00000   0.00000
     13540 HPTSH    16       HPTSH    S2       SD30A    3.803100       31.6600           0   -1.00000   1.30000
     13541 HPTSH    16       HPTSH    DS2      DRUD    -2.454100        0.4000           0   0.00000   0.00000
     13542 HPTSH    16       HPTSH    O4       OD2C2B   2.368000       15.5994           0   -0.931000   1.08300
     13543 HPTSH    16       HPTSH    DO4      DRUD    -2.368000        0.4000           0   0.00000   0.00000
     13544 HPTSH    16       HPTSH    O5       OD2C2B   2.368000       15.5994           0   -0.931000   1.08300
     13545 HPTSH    16       HPTSH    DO5      DRUD    -2.368000        0.4000           0   0.00000   0.00000
     13546 HPTSH    16       HPTSH    O6       OD2C2B   2.368000       15.5994           0   -0.931000   1.08300
     13547 HPTSH    16       HPTSH    DO6      DRUD    -2.368000        0.4000           0   0.00000   0.00000
     13548 HPTSH    16       HPTSH    C9       CD2R6A   2.898200       11.6110           0   -1.50750   1.27010
     13549 HPTSH    16       HPTSH    DC9      DRUD    -3.013200        0.4000           0   0.00000   0.00000
     13550 HPTSH    16       HPTSH    C10      CD2R6A   2.898200       11.6110           0   -1.50750   1.27010
     13551 HPTSH    16       HPTSH    DC10     DRUD    -3.013200        0.4000           0   0.00000   0.00000
     13552 HPTSH    16       HPTSH    C11      CD2R6A   3.024200       11.6110           0   -1.50750   1.27010
     13553 HPTSH    16       HPTSH    DC11     DRUD    -3.013200        0.4000           0   0.00000   0.00000
     13554 HPTSH    16       HPTSH    C12      CD2R6A   2.608200       11.6110           0   -1.50750   1.27010
     13555 HPTSH    16       HPTSH    DC12     DRUD    -3.013200        0.4000           0   0.00000   0.00000
     13556 HPTSH    16       HPTSH    C13      CD2R6A   2.816200       11.6110           0   -1.50750   1.27010
     13557 HPTSH    16       HPTSH    DC13     DRUD    -3.013200        0.4000           0   0.00000   0.00000
     13558 HPTSH    16       HPTSH    C14      CD2R6A   3.116200       11.6110           0   -1.50750   1.27010
     13559 HPTSH    16       HPTSH    DC14     DRUD    -3.013200        0.4000           0   0.00000   0.00000
     13560 HPTSH    16       HPTSH    C15      CD2R6A   3.027200       11.6110           0   -1.50750   1.27010
     13561 HPTSH    16       HPTSH    DC15     DRUD    -3.013200        0.4000           0   0.00000   0.00000
     13562 HPTSH    16       HPTSH    C16      CD2R6A   2.994200       11.6110           0   -1.50750   1.27010
     13563 HPTSH    16       HPTSH    DC16     DRUD    -3.013200        0.4000           0   0.00000   0.00000
     13564 HPTSH    16       HPTSH    O7       OD31A    2.237800       15.5990           0   -0.831500   0.749400
     13565 HPTSH    16       HPTSH    DO7      DRUD    -2.237800        0.4000           0   0.00000   0.00000
     13566 HPTSH    16       HPTSH    S3       SD30A    3.803100       31.6600           0   -1.00000   1.30000
     13567 HPTSH    16       HPTSH    DS3      DRUD    -2.454100        0.4000           0   0.00000   0.00000
     13568 HPTSH    16       HPTSH    O8       OD2C2B   2.368000       15.5994           0   -0.931000   1.08300
     13569 HPTSH    16       HPTSH    DO8      DRUD    -2.368000        0.4000           0   0.00000   0.00000
     13570 HPTSH    16       HPTSH    O9       OD2C2B   2.368000       15.5994           0   -0.931000   1.08300
     13571 HPTSH    16       HPTSH    DO9      DRUD    -2.368000        0.4000           0   0.00000   0.00000
     13572 HPTSH    16       HPTSH    O10      OD2C2B   2.368000       15.5994           0   -0.931000   1.08300
     13573 HPTSH    16       HPTSH    DO10     DRUD    -2.368000        0.4000           0   0.00000   0.00000
     13574 HPTSH    16       HPTSH    H1       HDR6A    0.115000        1.0080           0   0.00000   0.00000
     13575 HPTSH    16       HPTSH    H2       HDR6A    0.115000        1.0080           0   0.00000   0.00000
     13576 HPTSH    16       HPTSH    H3       HDR6A    0.305000        1.0080           0   0.00000   0.00000
     13577 HPTSH    16       HPTSH    H4       HDR6A    0.115000        1.0080           0   0.00000   0.00000
     13578 HPTSH    16       HPTSH    H5       HDR6A    0.115000        1.0080           0   0.00000   0.00000
     13579 HPTSH    16       HPTSH    H6       HDR6A    0.210000        1.0080           0   0.00000   0.00000
     13580 HPTSH    16       HPTSH    H7       HDP1A    0.420000        1.0080           0   0.00000   0.00000
     13581 HPTSH    16       HPTSH    LPO11    LPDO1   -0.325000        0.0000           -1   0.00000   0.00000
     13582 HPTSH    16       HPTSH    LPO12    LPDO1   -0.325000        0.0000           -1   0.00000   0.00000
     13583 HPTSH    16       HPTSH    LPO21    LPDO1   -0.325000        0.0000           -1   0.00000   0.00000
     13584 HPTSH    16       HPTSH    LPO22    LPDO1   -0.325000        0.0000           -1   0.00000   0.00000
     13585 HPTSH    16       HPTSH    LPO31    LPDO1   -0.325000        0.0000           -1   0.00000   0.00000
     13586 HPTSH    16       HPTSH    LPO32    LPDO1   -0.325000        0.0000           -1   0.00000   0.00000
     13587 HPTSH    16       HPTSH    LPO41    LPDO1   -0.325000        0.0000           -1   0.00000   0.00000
     13588 HPTSH    16       HPTSH    LPO42    LPDO1   -0.325000        0.0000           -1   0.00000   0.00000
     13589 HPTSH    16       HPTSH    LPO51    LPDO1   -0.325000        0.0000           -1   0.00000   0.00000
     13590 HPTSH    16       HPTSH    LPO52    LPDO1   -0.325000        0.0000           -1   0.00000   0.00000
     13591 HPTSH    16       HPTSH    LPO61    LPDO1   -0.325000        0.0000           -1   0.00000   0.00000
     13592 HPTSH    16       HPTSH    LPO62    LPDO1   -0.325000        0.0000           -1   0.00000   0.00000
     13593 HPTSH    16       HPTSH    LPO71    LPD     -0.269000        0.0000           -1   0.00000   0.00000
     13594 HPTSH    16       HPTSH    LPO72    LPD     -0.268000        0.0000           -1   0.00000   0.00000
     13595 HPTSH    16       HPTSH    LPO81    LPDO1   -0.325000        0.0000           -1   0.00000   0.00000
     13596 HPTSH    16       HPTSH    LPO82    LPDO1   -0.325000        0.0000           -1   0.00000   0.00000
     13597 HPTSH    16       HPTSH    LPO91    LPDO1   -0.325000        0.0000           -1   0.00000   0.00000
     13598 HPTSH    16       HPTSH    LPO92    LPDO1   -0.325000        0.0000           -1   0.00000   0.00000
     13599 HPTSH    16       HPTSH    LPO101   LPDO1   -0.325000        0.0000           -1   0.00000   0.00000
     13600 HPTSH    16       HPTSH    LPO102   LPDO1   -0.325000        0.0000           -1   0.00000   0.00000
     13601 HPTSH    17       HPTSH    C1       CD2R6A   2.899200       11.6110           0   -1.50750   1.27010
     13602 HPTSH    17       HPTSH    DC1      DRUD    -3.013200        0.4000           0   0.00000   0.00000
     13603 HPTSH    17       HPTSH    C2       CD2R6A   2.898200       11.6110           0   -1.50750   1.27010
     13604 HPTSH    17       HPTSH    DC2      DRUD    -3.013200        0.4000           0   0.00000   0.00000
     13605 HPTSH    17       HPTSH    C3       CD2R6A   3.024200       11.6110           0   -1.50750   1.27010
     13606 HPTSH    17       HPTSH    DC3      DRUD    -3.013200        0.4000           0   0.00000   0.00000
     13607 HPTSH    17       HPTSH    C4       CD2R6A   2.993200       11.6110           0   -1.50750   1.27010
     13608 HPTSH    17       HPTSH    DC4      DRUD    -3.013200        0.4000           0   0.00000   0.00000
     13609 HPTSH    17       HPTSH    C5       CD2R6A   3.024200       11.6110           0   -1.50750   1.27010
     13610 HPTSH    17       HPTSH    DC5      DRUD    -3.013200        0.4000           0   0.00000   0.00000
     13611 HPTSH    17       HPTSH    C6       CD2R6A   2.607200       11.6110           0   -1.50750   1.27010
     13612 HPTSH    17       HPTSH    DC6      DRUD    -3.013200        0.4000           0   0.00000   0.00000
     13613 HPTSH    17       HPTSH    C7       CD2R6A   2.720200       11.6110           0   -1.50750   1.27010
     13614 HPTSH    17       HPTSH    DC7      DRUD    -3.013200        0.4000           0   0.00000   0.00000
     13615 HPTSH    17       HPTSH    C8       CD2R6A   2.607200       11.6110           0   -1.50750   1.27010
     13616 HPTSH    17       HPTSH    DC8      DRUD    -3.013200        0.4000           0   0.00000   0.00000
     13617 HPTSH    17       HPTSH    S1       SD30A    3.803100       31.6600           0   -1.00000   1.30000
     13618 HPTSH    17       HPTSH    DS1      DRUD    -2.454100        0.4000           0   0.00000   0.00000
     13619 HPTSH    17       HPTSH    O1       OD2C2B   2.368000       15.5994           0   -0.931000   1.08300
     13620 HPTSH    17       HPTSH    DO1      DRUD    -2.368000        0.4000           0   0.00000   0.00000
     13621 HPTSH    17       HPTSH    O2       OD2C2B   2.368000       15.5994           0   -0.931000   1.08300
     13622 HPTSH    17       HPTSH    DO2      DRUD    -2.368000        0.4000           0   0.00000   0.00000
     13623 HPTSH    17       HPTSH    O3       OD2C2B   2.368000       15.5994           0   -0.931000   1.08300
     13624 HPTSH    17       HPTSH    DO3      DRUD    -2.368000        0.4000           0   0.00000   0.00000
     13625 HPTSH    17       HPTSH    S2       SD30A    3.803100       31.6600           0   -1.00000   1.30000
     13626 HPTSH    17       HPTSH    DS2      DRUD    -2.454100        0.4000           0   0.00000   0.00000
     13627 HPTSH    17       HPTSH    O4       OD2C2B   2.368000       15.5994           0   -0.931000   1.08300
     13628 HPTSH    17       HPTSH    DO4      DRUD    -2.368000        0.4000           0   0.00000   0.00000
     13629 HPTSH    17       HPTSH    O5       OD2C2B   2.368000       15.5994           0   -0.931000   1.08300
     13630 HPTSH    17       HPTSH    DO5      DRUD    -2.368000        0.4000           0   0.00000   0.00000
     13631 HPTSH    17       HPTSH    O6       OD2C2B   2.368000       15.5994           0   -0.931000   1.08300
     13632 HPTSH    17       HPTSH    DO6      DRUD    -2.368000        0.4000           0   0.00000   0.00000
     13633 HPTSH    17       HPTSH    C9       CD2R6A   2.898200       11.6110           0   -1.50750   1.27010
     13634 HPTSH    17       HPTSH    DC9      DRUD    -3.013200        0.4000           0   0.00000   0.00000
     13635 HPTSH    17       HPTSH    C10      CD2R6A   2.898200       11.6110           0   -1.50750   1.27010
     13636 HPTSH    17       HPTSH    DC10     DRUD    -3.013200        0.4000           0   0.00000   0.00000
     13637 HPTSH    17       HPTSH    C11      CD2R6A   3.024200       11.6110           0   -1.50750   1.27010
     13638 HPTSH    17       HPTSH    DC11     DRUD    -3.013200        0.4000           0   0.00000   0.00000
     13639 HPTSH    17       HPTSH    C12      CD2R6A   2.608200       11.6110           0   -1.50750   1.27010
     13640 HPTSH    17       HPTSH    DC12     DRUD    -3.013200        0.4000           0   0.00000   0.00000
     13641 HPTSH    17       HPTSH    C13      CD2R6A   2.816200       11.6110           0   -1.50750   1.27010
     13642 HPTSH    17       HPTSH    DC13     DRUD    -3.013200        0.4000           0   0.00000   0.00000
     13643 HPTSH    17       HPTSH    C14      CD2R6A   3.116200       11.6110           0   -1.50750   1.27010
     13644 HPTSH    17       HPTSH    DC14     DRUD    -3.013200        0.4000           0   0.00000   0.00000
     13645 HPTSH    17       HPTSH    C15      CD2R6A   3.027200       11.6110           0   -1.50750   1.27010
     13646 HPTSH    17       HPTSH    DC15     DRUD    -3.013200        0.4000           0   0.00000   0.00000
     13647 HPTSH    17       HPTSH    C16      CD2R6A   2.994200       11.6110           0   -1.50750   1.27010
     13648 HPTSH    17       HPTSH    DC16     DRUD    -3.013200        0.4000           0   0.00000   0.00000
     13649 HPTSH    17       HPTSH    O7       OD31A    2.237800       15.5990           0   -0.831500   0.749400
     13650 HPTSH    17       HPTSH    DO7      DRUD    -2.237800        0.4000           0   0.00000   0.00000
     13651 HPTSH    17       HPTSH    S3       SD30A    3.803100       31.6600           0   -1.00000   1.30000
     13652 HPTSH    17       HPTSH    DS3      DRUD    -2.454100        0.4000           0   0.00000   0.00000
     13653 HPTSH    17       HPTSH    O8       OD2C2B   2.368000       15.5994           0   -0.931000   1.08300
     13654 HPTSH    17       HPTSH    DO8      DRUD    -2.368000        0.4000           0   0.00000   0.00000
     13655 HPTSH    17       HPTSH    O9       OD2C2B   2.368000       15.5994           0   -0.931000   1.08300
     13656 HPTSH    17       HPTSH    DO9      DRUD    -2.368000        0.4000           0   0.00000   0.00000
     13657 HPTSH    17       HPTSH    O10      OD2C2B   2.368000       15.5994           0   -0.931000   1.08300
     13658 HPTSH    17       HPTSH    DO10     DRUD    -2.368000        0.4000           0   0.00000   0.00000
     13659 HPTSH    17       HPTSH    H1       HDR6A    0.115000        1.0080           0   0.00000   0.00000
     13660 HPTSH    17       HPTSH    H2       HDR6A    0.115000        1.0080           0   0.00000   0.00000
     13661 HPTSH    17       HPTSH    H3       HDR6A    0.305000        1.0080           0   0.00000   0.00000
     13662 HPTSH    17       HPTSH    H4       HDR6A    0.115000        1.0080           0   0.00000   0.00000
     13663 HPTSH    17       HPTSH    H5       HDR6A    0.115000        1.0080           0   0.00000   0.00000
     13664 HPTSH    17       HPTSH    H6       HDR6A    0.210000        1.0080           0   0.00000   0.00000
     13665 HPTSH    17       HPTSH    H7       HDP1A    0.420000        1.0080           0   0.00000   0.00000
     13666 HPTSH    17       HPTSH    LPO11    LPDO1   -0.325000        0.0000           -1   0.00000   0.00000
     13667 HPTSH    17       HPTSH    LPO12    LPDO1   -0.325000        0.0000           -1   0.00000   0.00000
     13668 HPTSH    17       HPTSH    LPO21    LPDO1   -0.325000        0.0000           -1   0.00000   0.00000
     13669 HPTSH    17       HPTSH    LPO22    LPDO1   -0.325000        0.0000           -1   0.00000   0.00000
     13670 HPTSH    17       HPTSH    LPO31    LPDO1   -0.325000        0.0000           -1   0.00000   0.00000
     13671 HPTSH    17       HPTSH    LPO32    LPDO1   -0.325000        0.0000           -1   0.00000   0.00000
     13672 HPTSH    17       HPTSH    LPO41    LPDO1   -0.325000        0.0000           -1   0.00000   0.00000
     13673 HPTSH    17       HPTSH    LPO42    LPDO1   -0.325000        0.0000           -1   0.00000   0.00000
     13674 HPTSH    17       HPTSH    LPO51    LPDO1   -0.325000        0.0000           -1   0.00000   0.00000
     13675 HPTSH    17       HPTSH    LPO52    LPDO1   -0.325000        0.0000           -1   0.00000   0.00000
     13676 HPTSH    17       HPTSH    LPO61    LPDO1   -0.325000        0.0000           -1   0.00000   0.00000
     13677 HPTSH    17       HPTSH    LPO62    LPDO1   -0.325000        0.0000           -1   0.00000   0.00000
     13678 HPTSH    17       HPTSH    LPO71    LPD     -0.269000        0.0000           -1   0.00000   0.00000
     13679 HPTSH    17       HPTSH    LPO72    LPD     -0.268000        0.0000           -1   0.00000   0.00000
     13680 HPTSH    17       HPTSH    LPO81    LPDO1   -0.325000        0.0000           -1   0.00000   0.00000
     13681 HPTSH    17       HPTSH    LPO82    LPDO1   -0.325000        0.0000           -1   0.00000   0.00000
     13682 HPTSH    17       HPTSH    LPO91    LPDO1   -0.325000        0.0000           -1   0.00000   0.00000
     13683 HPTSH    17       HPTSH    LPO92    LPDO1   -0.325000        0.0000           -1   0.00000   0.00000
     13684 HPTSH    17       HPTSH    LPO101   LPDO1   -0.325000        0.0000           -1   0.00000   0.00000
     13685 HPTSH    17       HPTSH    LPO102   LPDO1   -0.325000        0.0000           -1   0.00000   0.00000
     13686 HPTSH    18       HPTSH    C1       CD2R6A   2.899200       11.6110           0   -1.50750   1.27010
     13687 HPTSH    18       HPTSH    DC1      DRUD    -3.013200        0.4000           0   0.00000   0.00000
     13688 HPTSH    18       HPTSH    C2       CD2R6A   2.898200       11.6110           0   -1.50750   1.27010
     13689 HPTSH    18       HPTSH    DC2      DRUD    -3.013200        0.4000           0   0.00000   0.00000
     13690 HPTSH    18       HPTSH    C3       CD2R6A   3.024200       11.6110           0   -1.50750   1.27010
     13691 HPTSH    18       HPTSH    DC3      DRUD    -3.013200        0.4000           0   0.00000   0.00000
     13692 HPTSH    18       HPTSH    C4       CD2R6A   2.993200       11.6110           0   -1.50750   1.27010
     13693 HPTSH    18       HPTSH    DC4      DRUD    -3.013200        0.4000           0   0.00000   0.00000
     13694 HPTSH    18       HPTSH    C5       CD2R6A   3.024200       11.6110           0   -1.50750   1.27010
     13695 HPTSH    18       HPTSH    DC5      DRUD    -3.013200        0.4000           0   0.00000   0.00000
     13696 HPTSH    18       HPTSH    C6       CD2R6A   2.607200       11.6110           0   -1.50750   1.27010
     13697 HPTSH    18       HPTSH    DC6      DRUD    -3.013200        0.4000           0   0.00000   0.00000
     13698 HPTSH    18       HPTSH    C7       CD2R6A   2.720200       11.6110           0   -1.50750   1.27010
     13699 HPTSH    18       HPTSH    DC7      DRUD    -3.013200        0.4000           0   0.00000   0.00000
     13700 HPTSH    18       HPTSH    C8       CD2R6A   2.607200       11.6110           0   -1.50750   1.27010
     13701 HPTSH    18       HPTSH    DC8      DRUD    -3.013200        0.4000           0   0.00000   0.00000
     13702 HPTSH    18       HPTSH    S1       SD30A    3.803100       31.6600           0   -1.00000   1.30000
     13703 HPTSH    18       HPTSH    DS1      DRUD    -2.454100        0.4000           0   0.00000   0.00000
     13704 HPTSH    18       HPTSH    O1       OD2C2B   2.368000       15.5994           0   -0.931000   1.08300
     13705 HPTSH    18       HPTSH    DO1      DRUD    -2.368000        0.4000           0   0.00000   0.00000
     13706 HPTSH    18       HPTSH    O2       OD2C2B   2.368000       15.5994           0   -0.931000   1.08300
     13707 HPTSH    18       HPTSH    DO2      DRUD    -2.368000        0.4000           0   0.00000   0.00000
     13708 HPTSH    18       HPTSH    O3       OD2C2B   2.368000       15.5994           0   -0.931000   1.08300
     13709 HPTSH    18       HPTSH    DO3      DRUD    -2.368000        0.4000           0   0.00000   0.00000
     13710 HPTSH    18       HPTSH    S2       SD30A    3.803100       31.6600           0   -1.00000   1.30000
     13711 HPTSH    18       HPTSH    DS2      DRUD    -2.454100        0.4000           0   0.00000   0.00000
     13712 HPTSH    18       HPTSH    O4       OD2C2B   2.368000       15.5994           0   -0.931000   1.08300
     13713 HPTSH    18       HPTSH    DO4      DRUD    -2.368000        0.4000           0   0.00000   0.00000
     13714 HPTSH    18       HPTSH    O5       OD2C2B   2.368000       15.5994           0   -0.931000   1.08300
     13715 HPTSH    18       HPTSH    DO5      DRUD    -2.368000        0.4000           0   0.00000   0.00000
     13716 HPTSH    18       HPTSH    O6       OD2C2B   2.368000       15.5994           0   -0.931000   1.08300
     13717 HPTSH    18       HPTSH    DO6      DRUD    -2.368000        0.4000           0   0.00000   0.00000
     13718 HPTSH    18       HPTSH    C9       CD2R6A   2.898200       11.6110           0   -1.50750   1.27010
     13719 HPTSH    18       HPTSH    DC9      DRUD    -3.013200        0.4000           0   0.00000   0.00000
     13720 HPTSH    18       HPTSH    C10      CD2R6A   2.898200       11.6110           0   -1.50750   1.27010
     13721 HPTSH    18       HPTSH    DC10     DRUD    -3.013200        0.4000           0   0.00000   0.00000
     13722 HPTSH    18       HPTSH    C11      CD2R6A   3.024200       11.6110           0   -1.50750   1.27010
     13723 HPTSH    18       HPTSH    DC11     DRUD    -3.013200        0.4000           0   0.00000   0.00000
     13724 HPTSH    18       HPTSH    C12      CD2R6A   2.608200       11.6110           0   -1.50750   1.27010
     13725 HPTSH    18       HPTSH    DC12     DRUD    -3.013200        0.4000           0   0.00000   0.00000
     13726 HPTSH    18       HPTSH    C13      CD2R6A   2.816200       11.6110           0   -1.50750   1.27010
     13727 HPTSH    18       HPTSH    DC13     DRUD    -3.013200        0.4000           0   0.00000   0.00000
     13728 HPTSH    18       HPTSH    C14      CD2R6A   3.116200       11.6110           0   -1.50750   1.27010
     13729 HPTSH    18       HPTSH    DC14     DRUD    -3.013200        0.4000           0   0.00000   0.00000
     13730 HPTSH    18       HPTSH    C15      CD2R6A   3.027200       11.6110           0   -1.50750   1.27010
     13731 HPTSH    18       HPTSH    DC15     DRUD    -3.013200        0.4000           0   0.00000   0.00000
     13732 HPTSH    18       HPTSH    C16      CD2R6A   2.994200       11.6110           0   -1.50750   1.27010
     13733 HPTSH    18       HPTSH    DC16     DRUD    -3.013200        0.4000           0   0.00000   0.00000
     13734 HPTSH    18       HPTSH    O7       OD31A    2.237800       15.5990           0   -0.831500   0.749400
     13735 HPTSH    18       HPTSH    DO7      DRUD    -2.237800        0.4000           0   0.00000   0.00000
     13736 HPTSH    18       HPTSH    S3       SD30A    3.803100       31.6600           0   -1.00000   1.30000
     13737 HPTSH    18       HPTSH    DS3      DRUD    -2.454100        0.4000           0   0.00000   0.00000
     13738 HPTSH    18       HPTSH    O8       OD2C2B   2.368000       15.5994           0   -0.931000   1.08300
     13739 HPTSH    18       HPTSH    DO8      DRUD    -2.368000        0.4000           0   0.00000   0.00000
     13740 HPTSH    18       HPTSH    O9       OD2C2B   2.368000       15.5994           0   -0.931000   1.08300
     13741 HPTSH    18       HPTSH    DO9      DRUD    -2.368000        0.4000           0   0.00000   0.00000
     13742 HPTSH    18       HPTSH    O10      OD2C2B   2.368000       15.5994           0   -0.931000   1.08300
     13743 HPTSH    18       HPTSH    DO10     DRUD    -2.368000        0.4000           0   0.00000   0.00000
     13744 HPTSH    18       HPTSH    H1       HDR6A    0.115000        1.0080           0   0.00000   0.00000
     13745 HPTSH    18       HPTSH    H2       HDR6A    0.115000        1.0080           0   0.00000   0.00000
     13746 HPTSH    18       HPTSH    H3       HDR6A    0.305000        1.0080           0   0.00000   0.00000
     13747 HPTSH    18       HPTSH    H4       HDR6A    0.115000        1.0080           0   0.00000   0.00000
     13748 HPTSH    18       HPTSH    H5       HDR6A    0.115000        1.0080           0   0.00000   0.00000
     13749 HPTSH    18       HPTSH    H6       HDR6A    0.210000        1.0080           0   0.00000   0.00000
     13750 HPTSH    18       HPTSH    H7       HDP1A    0.420000        1.0080           0   0.00000   0.00000
     13751 HPTSH    18       HPTSH    LPO11    LPDO1   -0.325000        0.0000           -1   0.00000   0.00000
     13752 HPTSH    18       HPTSH    LPO12    LPDO1   -0.325000        0.0000           -1   0.00000   0.00000
     13753 HPTSH    18       HPTSH    LPO21    LPDO1   -0.325000        0.0000           -1   0.00000   0.00000
     13754 HPTSH    18       HPTSH    LPO22    LPDO1   -0.325000        0.0000           -1   0.00000   0.00000
     13755 HPTSH    18       HPTSH    LPO31    LPDO1   -0.325000        0.0000           -1   0.00000   0.00000
     13756 HPTSH    18       HPTSH    LPO32    LPDO1   -0.325000        0.0000           -1   0.00000   0.00000
     13757 HPTSH    18       HPTSH    LPO41    LPDO1   -0.325000        0.0000           -1   0.00000   0.00000
     13758 HPTSH    18       HPTSH    LPO42    LPDO1   -0.325000        0.0000           -1   0.00000   0.00000
     13759 HPTSH    18       HPTSH    LPO51    LPDO1   -0.325000        0.0000           -1   0.00000   0.00000
     13760 HPTSH    18       HPTSH    LPO52    LPDO1   -0.325000        0.0000           -1   0.00000   0.00000
     13761 HPTSH    18       HPTSH    LPO61    LPDO1   -0.325000        0.0000           -1   0.00000   0.00000
     13762 HPTSH    18       HPTSH    LPO62    LPDO1   -0.325000        0.0000           -1   0.00000   0.00000
     13763 HPTSH    18       HPTSH    LPO71    LPD     -0.269000        0.0000           -1   0.00000   0.00000
     13764 HPTSH    18       HPTSH    LPO72    LPD     -0.268000        0.0000           -1   0.00000   0.00000
     13765 HPTSH    18       HPTSH    LPO81    LPDO1   -0.325000        0.0000           -1   0.00000   0.00000
     13766 HPTSH    18       HPTSH    LPO82    LPDO1   -0.325000        0.0000           -1   0.00000   0.00000
     13767 HPTSH    18       HPTSH    LPO91    LPDO1   -0.325000        0.0000           -1   0.00000   0.00000
     13768 HPTSH    18       HPTSH    LPO92    LPDO1   -0.325000        0.0000           -1   0.00000   0.00000
     13769 HPTSH    18       HPTSH    LPO101   LPDO1   -0.325000        0.0000           -1   0.00000   0.00000
     13770 HPTSH    18       HPTSH    LPO102   LPDO1   -0.325000        0.0000           -1   0.00000   0.00000
     13771 MEOH     1        MEOH     C1       CD33B    2.314100       11.6110           0   -1.00000   1.30000
     13772 MEOH     1        MEOH     DC1      DRUD    -2.454100        0.4000           0   0.00000   0.00000
     13773 MEOH     1        MEOH     O1       OD31H    2.488300       15.5990           0   -1.02800   1.30000
     13774 MEOH     1        MEOH     DO1      DRUD    -2.488300        0.4000           0   0.00000   0.00000
     13775 MEOH     1        MEOH     HO1      HDP1A    0.360000        1.0080           0   0.00000   0.00000
     13776 MEOH     1        MEOH     HO2      DUMH     0.000000        1.0080           0   0.00000   0.00000
     13777 MEOH     1        MEOH     H1A      HDA3B    0.080000        1.0080           0   0.00000   0.00000
     13778 MEOH     1        MEOH     H1B      HDA3B    0.080000        1.0080           0   0.00000   0.00000
     13779 MEOH     1        MEOH     H1C      HDA3B    0.080000        1.0080           0   0.00000   0.00000
     13780 MEOH     1        MEOH     LP1A     LPD     -0.230000        0.0000           -1   0.00000   0.00000
     13781 MEOH     1        MEOH     LP1B     LPD     -0.230000        0.0000           -1   0.00000   0.00000
     13782 MEOH     2        MEOH     C1       CD33B    2.314100       11.6110           0   -1.00000   1.30000
     13783 MEOH     2        MEOH     DC1      DRUD    -2.454100        0.4000           0   0.00000   0.00000
     13784 MEOH     2        MEOH     O1       OD31H    2.488300       15.5990           0   -1.02800   1.30000
     13785 MEOH     2        MEOH     DO1      DRUD    -2.488300        0.4000           0   0.00000   0.00000
     13786 MEOH     2        MEOH     HO1      HDP1A    0.360000        1.0080           0   0.00000   0.00000
     13787 MEOH     2        MEOH     HO2      DUMH     0.000000        1.0080           0   0.00000   0.00000
     13788 MEOH     2        MEOH     H1A      HDA3B    0.080000        1.0080           0   0.00000   0.00000
     13789 MEOH     2        MEOH     H1B      HDA3B    0.080000        1.0080           0   0.00000   0.00000
     13790 MEOH     2        MEOH     H1C      HDA3B    0.080000        1.0080           0   0.00000   0.00000
     13791 MEOH     2        MEOH     LP1A     LPD     -0.230000        0.0000           -1   0.00000   0.00000
     13792 MEOH     2        MEOH     LP1B     LPD     -0.230000        0.0000           -1   0.00000   0.00000
     13793 MEOH     3        MEOH     C1       CD33B    2.314100       11.6110           0   -1.00000   1.30000
     13794 MEOH     3        MEOH     DC1      DRUD    -2.454100        0.4000           0   0.00000   0.00000
     13795 MEOH     3        MEOH     O1       OD31H    2.488300       15.5990           0   -1.02800   1.30000
     13796 MEOH     3        MEOH     DO1      DRUD    -2.488300        0.4000           0   0.00000   0.00000
     13797 MEOH     3        MEOH     HO1      HDP1A    0.360000        1.0080           0   0.00000   0.00000
     13798 MEOH     3        MEOH     HO2      DUMH     0.000000        1.0080           0   0.00000   0.00000
     13799 MEOH     3        MEOH     H1A      HDA3B    0.080000        1.0080           0   0.00000   0.00000
     13800 MEOH     3        MEOH     H1B      HDA3B    0.080000        1.0080           0   0.00000   0.00000
     13801 MEOH     3        MEOH     H1C      HDA3B    0.080000        1.0080           0   0.00000   0.00000
     13802 MEOH     3        MEOH     LP1A     LPD     -0.230000        0.0000           -1   0.00000   0.00000
     13803 MEOH     3        MEOH     LP1B     LPD     -0.230000        0.0000           -1   0.00000   0.00000
     13804 MEOH     4        MEOH     C1       CD33B    2.314100       11.6110           0   -1.00000   1.30000
     13805 MEOH     4        MEOH     DC1      DRUD    -2.454100        0.4000           0   0.00000   0.00000
     13806 MEOH     4        MEOH     O1       OD31H    2.488300       15.5990           0   -1.02800   1.30000
     13807 MEOH     4        MEOH     DO1      DRUD    -2.488300        0.4000           0   0.00000   0.00000
     13808 MEOH     4        MEOH     HO1      HDP1A    0.360000        1.0080           0   0.00000   0.00000
     13809 MEOH     4        MEOH     HO2      DUMH     0.000000        1.0080           0   0.00000   0.00000
     13810 MEOH     4        MEOH     H1A      HDA3B    0.080000        1.0080           0   0.00000   0.00000
     13811 MEOH     4        MEOH     H1B      HDA3B    0.080000        1.0080           0   0.00000   0.00000
     13812 MEOH     4        MEOH     H1C      HDA3B    0.080000        1.0080           0   0.00000   0.00000
     13813 MEOH     4        MEOH     LP1A     LPD     -0.230000        0.0000           -1   0.00000   0.00000
     13814 MEOH     4        MEOH     LP1B     LPD     -0.230000        0.0000           -1   0.00000   0.00000
     13815 MEOH     5        MEOH     C1       CD33B    2.314100       11.6110           0   -1.00000   1.30000
     13816 MEOH     5        MEOH     DC1      DRUD    -2.454100        0.4000           0   0.00000   0.00000
     13817 MEOH     5        MEOH     O1       OD31H    2.488300       15.5990           0   -1.02800   1.30000
     13818 MEOH     5        MEOH     DO1      DRUD    -2.488300        0.4000           0   0.00000   0.00000
     13819 MEOH     5        MEOH     HO1      HDP1A    0.360000        1.0080           0   0.00000   0.00000
     13820 MEOH     5        MEOH     HO2      DUMH     0.000000        1.0080           0   0.00000   0.00000
     13821 MEOH     5        MEOH     H1A      HDA3B    0.080000        1.0080           0   0.00000   0.00000
     13822 MEOH     5        MEOH     H1B      HDA3B    0.080000        1.0080           0   0.00000   0.00000
     13823 MEOH     5        MEOH     H1C      HDA3B    0.080000        1.0080           0   0.00000   0.00000
     13824 MEOH     5        MEOH     LP1A     LPD     -0.230000        0.0000           -1   0.00000   0.00000
     13825 MEOH     5        MEOH     LP1B     LPD     -0.230000        0.0000           -1   0.00000   0.00000
     13826 MEOH     6        MEOH     C1       CD33B    2.314100       11.6110           0   -1.00000   1.30000
     13827 MEOH     6        MEOH     DC1      DRUD    -2.454100        0.4000           0   0.00000   0.00000
     13828 MEOH     6        MEOH     O1       OD31H    2.488300       15.5990           0   -1.02800   1.30000
     13829 MEOH     6        MEOH     DO1      DRUD    -2.488300        0.4000           0   0.00000   0.00000
     13830 MEOH     6        MEOH     HO1      HDP1A    0.360000        1.0080           0   0.00000   0.00000
     13831 MEOH     6        MEOH     HO2      DUMH     0.000000        1.0080           0   0.00000   0.00000
     13832 MEOH     6        MEOH     H1A      HDA3B    0.080000        1.0080           0   0.00000   0.00000
     13833 MEOH     6        MEOH     H1B      HDA3B    0.080000        1.0080           0   0.00000   0.00000
     13834 MEOH     6        MEOH     H1C      HDA3B    0.080000        1.0080           0   0.00000   0.00000
     13835 MEOH     6        MEOH     LP1A     LPD     -0.230000        0.0000           -1   0.00000   0.00000
     13836 MEOH     6        MEOH     LP1B     LPD     -0.230000        0.0000           -1   0.00000   0.00000
     13837 MEOH     7        MEOH     C1       CD33B    2.314100       11.6110           0   -1.00000   1.30000
     13838 MEOH     7        MEOH     DC1      DRUD    -2.454100        0.4000           0   0.00000   0.00000
     13839 MEOH     7        MEOH     O1       OD31H    2.488300       15.5990           0   -1.02800   1.30000
     13840 MEOH     7        MEOH     DO1      DRUD    -2.488300        0.4000           0   0.00000   0.00000
     13841 MEOH     7        MEOH     HO1      HDP1A    0.360000        1.0080           0   0.00000   0.00000
     13842 MEOH     7        MEOH     HO2      DUMH     0.000000        1.0080           0   0.00000   0.00000
     13843 MEOH     7        MEOH     H1A      HDA3B    0.080000        1.0080           0   0.00000   0.00000
     13844 MEOH     7        MEOH     H1B      HDA3B    0.080000        1.0080           0   0.00000   0.00000
     13845 MEOH     7        MEOH     H1C      HDA3B    0.080000        1.0080           0   0.00000   0.00000
     13846 MEOH     7        MEOH     LP1A     LPD     -0.230000        0.0000           -1   0.00000   0.00000
     13847 MEOH     7        MEOH     LP1B     LPD     -0.230000        0.0000           -1   0.00000   0.00000
     13848 MEOH     8        MEOH     C1       CD33B    2.314100       11.6110           0   -1.00000   1.30000
     13849 MEOH     8        MEOH     DC1      DRUD    -2.454100        0.4000           0   0.00000   0.00000
     13850 MEOH     8        MEOH     O1       OD31H    2.488300       15.5990           0   -1.02800   1.30000
     13851 MEOH     8        MEOH     DO1      DRUD    -2.488300        0.4000           0   0.00000   0.00000
     13852 MEOH     8        MEOH     HO1      HDP1A    0.360000        1.0080           0   0.00000   0.00000
     13853 MEOH     8        MEOH     HO2      DUMH     0.000000        1.0080           0   0.00000   0.00000
     13854 MEOH     8        MEOH     H1A      HDA3B    0.080000        1.0080           0   0.00000   0.00000
     13855 MEOH     8        MEOH     H1B      HDA3B    0.080000        1.0080           0   0.00000   0.00000
     13856 MEOH     8        MEOH     H1C      HDA3B    0.080000        1.0080           0   0.00000   0.00000
     13857 MEOH     8        MEOH     LP1A     LPD     -0.230000        0.0000           -1   0.00000   0.00000
     13858 MEOH     8        MEOH     LP1B     LPD     -0.230000        0.0000           -1   0.00000   0.00000
     13859 MEOH     9        MEOH     C1       CD33B    2.314100       11.6110           0   -1.00000   1.30000
     13860 MEOH     9        MEOH     DC1      DRUD    -2.454100        0.4000           0   0.00000   0.00000
     13861 MEOH     9        MEOH     O1       OD31H    2.488300       15.5990           0   -1.02800   1.30000
     13862 MEOH     9        MEOH     DO1      DRUD    -2.488300        0.4000           0   0.00000   0.00000
     13863 MEOH     9        MEOH     HO1      HDP1A    0.360000        1.0080           0   0.00000   0.00000
     13864 MEOH     9        MEOH     HO2      DUMH     0.000000        1.0080           0   0.00000   0.00000
     13865 MEOH     9        MEOH     H1A      HDA3B    0.080000        1.0080           0   0.00000   0.00000
     13866 MEOH     9        MEOH     H1B      HDA3B    0.080000        1.0080           0   0.00000   0.00000
     13867 MEOH     9        MEOH     H1C      HDA3B    0.080000        1.0080           0   0.00000   0.00000
     13868 MEOH     9        MEOH     LP1A     LPD     -0.230000        0.0000           -1   0.00000   0.00000
     13869 MEOH     9        MEOH     LP1B     LPD     -0.230000        0.0000           -1   0.00000   0.00000
     13870 MEOH     10       MEOH     C1       CD33B    2.314100       11.6110           0   -1.00000   1.30000
     13871 MEOH     10       MEOH     DC1      DRUD    -2.454100        0.4000           0   0.00000   0.00000
     13872 MEOH     10       MEOH     O1       OD31H    2.488300       15.5990           0   -1.02800   1.30000
     13873 MEOH     10       MEOH     DO1      DRUD    -2.488300        0.4000           0   0.00000   0.00000
     13874 MEOH     10       MEOH     HO1      HDP1A    0.360000        1.0080           0   0.00000   0.00000
     13875 MEOH     10       MEOH     HO2      DUMH     0.000000        1.0080           0   0.00000   0.00000
     13876 MEOH     10       MEOH     H1A      HDA3B    0.080000        1.0080           0   0.00000   0.00000
     13877 MEOH     10       MEOH     H1B      HDA3B    0.080000        1.0080           0   0.00000   0.00000
     13878 MEOH     10       MEOH     H1C      HDA3B    0.080000        1.0080           0   0.00000   0.00000
     13879 MEOH     10       MEOH     LP1A     LPD     -0.230000        0.0000           -1   0.00000   0.00000
     13880 MEOH     10       MEOH     LP1B     LPD     -0.230000        0.0000           -1   0.00000   0.00000
     13881 MEOH     11       MEOH     C1       CD33B    2.314100       11.6110           0   -1.00000   1.30000
     13882 MEOH     11       MEOH     DC1      DRUD    -2.454100        0.4000           0   0.00000   0.00000
     13883 MEOH     11       MEOH     O1       OD31H    2.488300       15.5990           0   -1.02800   1.30000
     13884 MEOH     11       MEOH     DO1      DRUD    -2.488300        0.4000           0   0.00000   0.00000
     13885 MEOH     11       MEOH     HO1      HDP1A    0.360000        1.0080           0   0.00000   0.00000
     13886 MEOH     11       MEOH     HO2      DUMH     0.000000        1.0080           0   0.00000   0.00000
     13887 MEOH     11       MEOH     H1A      HDA3B    0.080000        1.0080           0   0.00000   0.00000
     13888 MEOH     11       MEOH     H1B      HDA3B    0.080000        1.0080           0   0.00000   0.00000
     13889 MEOH     11       MEOH     H1C      HDA3B    0.080000        1.0080           0   0.00000   0.00000
     13890 MEOH     11       MEOH     LP1A     LPD     -0.230000        0.0000           -1   0.00000   0.00000
     13891 MEOH     11       MEOH     LP1B     LPD     -0.230000        0.0000           -1   0.00000   0.00000
     13892 MEOH     12       MEOH     C1       CD33B    2.314100       11.6110           0   -1.00000   1.30000
     13893 MEOH     12       MEOH     DC1      DRUD    -2.454100        0.4000           0   0.00000   0.00000
     13894 MEOH     12       MEOH     O1       OD31H    2.488300       15.5990           0   -1.02800   1.30000
     13895 MEOH     12       MEOH     DO1      DRUD    -2.488300        0.4000           0   0.00000   0.00000
     13896 MEOH     12       MEOH     HO1      HDP1A    0.360000        1.0080           0   0.00000   0.00000
     13897 MEOH     12       MEOH     HO2      DUMH     0.000000        1.0080           0   0.00000   0.00000
     13898 MEOH     12       MEOH     H1A      HDA3B    0.080000        1.0080           0   0.00000   0.00000
     13899 MEOH     12       MEOH     H1B      HDA3B    0.080000        1.0080           0   0.00000   0.00000
     13900 MEOH     12       MEOH     H1C      HDA3B    0.080000        1.0080           0   0.00000   0.00000
     13901 MEOH     12       MEOH     LP1A     LPD     -0.230000        0.0000           -1   0.00000   0.00000
     13902 MEOH     12       MEOH     LP1B     LPD     -0.230000        0.0000           -1   0.00000   0.00000
     13903 MEOH     13       MEOH     C1       CD33B    2.314100       11.6110           0   -1.00000   1.30000
     13904 MEOH     13       MEOH     DC1      DRUD    -2.454100        0.4000           0   0.00000   0.00000
     13905 MEOH     13       MEOH     O1       OD31H    2.488300       15.5990           0   -1.02800   1.30000
     13906 MEOH     13       MEOH     DO1      DRUD    -2.488300        0.4000           0   0.00000   0.00000
     13907 MEOH     13       MEOH     HO1      HDP1A    0.360000        1.0080           0   0.00000   0.00000
     13908 MEOH     13       MEOH     HO2      DUMH     0.000000        1.0080           0   0.00000   0.00000
     13909 MEOH     13       MEOH     H1A      HDA3B    0.080000        1.0080           0   0.00000   0.00000
     13910 MEOH     13       MEOH     H1B      HDA3B    0.080000        1.0080           0   0.00000   0.00000
     13911 MEOH     13       MEOH     H1C      HDA3B    0.080000        1.0080           0   0.00000   0.00000
     13912 MEOH     13       MEOH     LP1A     LPD     -0.230000        0.0000           -1   0.00000   0.00000
     13913 MEOH     13       MEOH     LP1B     LPD     -0.230000        0.0000           -1   0.00000   0.00000
     13914 MEOH     14       MEOH     C1       CD33B    2.314100       11.6110           0   -1.00000   1.30000
     13915 MEOH     14       MEOH     DC1      DRUD    -2.454100        0.4000           0   0.00000   0.00000
     13916 MEOH     14       MEOH     O1       OD31H    2.488300       15.5990           0   -1.02800   1.30000
     13917 MEOH     14       MEOH     DO1      DRUD    -2.488300        0.4000           0   0.00000   0.00000
     13918 MEOH     14       MEOH     HO1      HDP1A    0.360000        1.0080           0   0.00000   0.00000
     13919 MEOH     14       MEOH     HO2      DUMH     0.000000        1.0080           0   0.00000   0.00000
     13920 MEOH     14       MEOH     H1A      HDA3B    0.080000        1.0080           0   0.00000   0.00000
     13921 MEOH     14       MEOH     H1B      HDA3B    0.080000        1.0080           0   0.00000   0.00000
     13922 MEOH     14       MEOH     H1C      HDA3B    0.080000        1.0080           0   0.00000   0.00000
     13923 MEOH     14       MEOH     LP1A     LPD     -0.230000        0.0000           -1   0.00000   0.00000
     13924 MEOH     14       MEOH     LP1B     LPD     -0.230000        0.0000           -1   0.00000   0.00000
     13925 MEOH     15       MEOH     C1       CD33B    2.314100       11.6110           0   -1.00000   1.30000
     13926 MEOH     15       MEOH     DC1      DRUD    -2.454100        0.4000           0   0.00000   0.00000
     13927 MEOH     15       MEOH     O1       OD31H    2.488300       15.5990           0   -1.02800   1.30000
     13928 MEOH     15       MEOH     DO1      DRUD    -2.488300        0.4000           0   0.00000   0.00000
     13929 MEOH     15       MEOH     HO1      HDP1A    0.360000        1.0080           0   0.00000   0.00000
     13930 MEOH     15       MEOH     HO2      DUMH     0.000000        1.0080           0   0.00000   0.00000
     13931 MEOH     15       MEOH     H1A      HDA3B    0.080000        1.0080           0   0.00000   0.00000
     13932 MEOH     15       MEOH     H1B      HDA3B    0.080000        1.0080           0   0.00000   0.00000
     13933 MEOH     15       MEOH     H1C      HDA3B    0.080000        1.0080           0   0.00000   0.00000
     13934 MEOH     15       MEOH     LP1A     LPD     -0.230000        0.0000           -1   0.00000   0.00000
     13935 MEOH     15       MEOH     LP1B     LPD     -0.230000        0.0000           -1   0.00000   0.00000
     13936 MEOH     16       MEOH     C1       CD33B    2.314100       11.6110           0   -1.00000   1.30000
     13937 MEOH     16       MEOH     DC1      DRUD    -2.454100        0.4000           0   0.00000   0.00000
     13938 MEOH     16       MEOH     O1       OD31H    2.488300       15.5990           0   -1.02800   1.30000
     13939 MEOH     16       MEOH     DO1      DRUD    -2.488300        0.4000           0   0.00000   0.00000
     13940 MEOH     16       MEOH     HO1      HDP1A    0.360000        1.0080           0   0.00000   0.00000
     13941 MEOH     16       MEOH     HO2      DUMH     0.000000        1.0080           0   0.00000   0.00000
     13942 MEOH     16       MEOH     H1A      HDA3B    0.080000        1.0080           0   0.00000   0.00000
     13943 MEOH     16       MEOH     H1B      HDA3B    0.080000        1.0080           0   0.00000   0.00000
     13944 MEOH     16       MEOH     H1C      HDA3B    0.080000        1.0080           0   0.00000   0.00000
     13945 MEOH     16       MEOH     LP1A     LPD     -0.230000        0.0000           -1   0.00000   0.00000
     13946 MEOH     16       MEOH     LP1B     LPD     -0.230000        0.0000           -1   0.00000   0.00000
     13947 MEOH     17       MEOH     C1       CD33B    2.314100       11.6110           0   -1.00000   1.30000
     13948 MEOH     17       MEOH     DC1      DRUD    -2.454100        0.4000           0   0.00000   0.00000
     13949 MEOH     17       MEOH     O1       OD31H    2.488300       15.5990           0   -1.02800   1.30000
     13950 MEOH     17       MEOH     DO1      DRUD    -2.488300        0.4000           0   0.00000   0.00000
     13951 MEOH     17       MEOH     HO1      HDP1A    0.360000        1.0080           0   0.00000   0.00000
     13952 MEOH     17       MEOH     HO2      DUMH     0.000000        1.0080           0   0.00000   0.00000
     13953 MEOH     17       MEOH     H1A      HDA3B    0.080000        1.0080           0   0.00000   0.00000
     13954 MEOH     17       MEOH     H1B      HDA3B    0.080000        1.0080           0   0.00000   0.00000
     13955 MEOH     17       MEOH     H1C      HDA3B    0.080000        1.0080           0   0.00000   0.00000
     13956 MEOH     17       MEOH     LP1A     LPD     -0.230000        0.0000           -1   0.00000   0.00000
     13957 MEOH     17       MEOH     LP1B     LPD     -0.230000        0.0000           -1   0.00000   0.00000
     13958 MEOH     18       MEOH     C1       CD33B    2.314100       11.6110           0   -1.00000   1.30000
     13959 MEOH     18       MEOH     DC1      DRUD    -2.454100        0.4000           0   0.00000   0.00000
     13960 MEOH     18       MEOH     O1       OD31H    2.488300       15.5990           0   -1.02800   1.30000
     13961 MEOH     18       MEOH     DO1      DRUD    -2.488300        0.4000           0   0.00000   0.00000
     13962 MEOH     18       MEOH     HO1      HDP1A    0.360000        1.0080           0   0.00000   0.00000
     13963 MEOH     18       MEOH     HO2      DUMH     0.000000        1.0080           0   0.00000   0.00000
     13964 MEOH     18       MEOH     H1A      HDA3B    0.080000        1.0080           0   0.00000   0.00000
     13965 MEOH     18       MEOH     H1B      HDA3B    0.080000        1.0080           0   0.00000   0.00000
     13966 MEOH     18       MEOH     H1C      HDA3B    0.080000        1.0080           0   0.00000   0.00000
     13967 MEOH     18       MEOH     LP1A     LPD     -0.230000        0.0000           -1   0.00000   0.00000
     13968 MEOH     18       MEOH     LP1B     LPD     -0.230000        0.0000           -1   0.00000   0.00000
     13969 MEOH     19       MEOH     C1       CD33B    2.314100       11.6110           0   -1.00000   1.30000
     13970 MEOH     19       MEOH     DC1      DRUD    -2.454100        0.4000           0   0.00000   0.00000
     13971 MEOH     19       MEOH     O1       OD31H    2.488300       15.5990           0   -1.02800   1.30000
     13972 MEOH     19       MEOH     DO1      DRUD    -2.488300        0.4000           0   0.00000   0.00000
     13973 MEOH     19       MEOH     HO1      HDP1A    0.360000        1.0080           0   0.00000   0.00000
     13974 MEOH     19       MEOH     HO2      DUMH     0.000000        1.0080           0   0.00000   0.00000
     13975 MEOH     19       MEOH     H1A      HDA3B    0.080000        1.0080           0   0.00000   0.00000
     13976 MEOH     19       MEOH     H1B      HDA3B    0.080000        1.0080           0   0.00000   0.00000
     13977 MEOH     19       MEOH     H1C      HDA3B    0.080000        1.0080           0   0.00000   0.00000
     13978 MEOH     19       MEOH     LP1A     LPD     -0.230000        0.0000           -1   0.00000   0.00000
     13979 MEOH     19       MEOH     LP1B     LPD     -0.230000        0.0000           -1   0.00000   0.00000
     13980 MEOH     20       MEOH     C1       CD33B    2.314100       11.6110           0   -1.00000   1.30000
     13981 MEOH     20       MEOH     DC1      DRUD    -2.454100        0.4000           0   0.00000   0.00000
     13982 MEOH     20       MEOH     O1       OD31H    2.488300       15.5990           0   -1.02800   1.30000
     13983 MEOH     20       MEOH     DO1      DRUD    -2.488300        0.4000           0   0.00000   0.00000
     13984 MEOH     20       MEOH     HO1      HDP1A    0.360000        1.0080           0   0.00000   0.00000
     13985 MEOH     20       MEOH     HO2      DUMH     0.000000        1.0080           0   0.00000   0.00000
     13986 MEOH     20       MEOH     H1A      HDA3B    0.080000        1.0080           0   0.00000   0.00000
     13987 MEOH     20       MEOH     H1B      HDA3B    0.080000        1.0080           0   0.00000   0.00000
     13988 MEOH     20       MEOH     H1C      HDA3B    0.080000        1.0080           0   0.00000   0.00000
     13989 MEOH     20       MEOH     LP1A     LPD     -0.230000        0.0000           -1   0.00000   0.00000
     13990 MEOH     20       MEOH     LP1B     LPD     -0.230000        0.0000           -1   0.00000   0.00000
     13991 MEOH     21       MEOH     C1       CD33B    2.314100       11.6110           0   -1.00000   1.30000
     13992 MEOH     21       MEOH     DC1      DRUD    -2.454100        0.4000           0   0.00000   0.00000
     13993 MEOH     21       MEOH     O1       OD31H    2.488300       15.5990           0   -1.02800   1.30000
     13994 MEOH     21       MEOH     DO1      DRUD    -2.488300        0.4000           0   0.00000   0.00000
     13995 MEOH     21       MEOH     HO1      HDP1A    0.360000        1.0080           0   0.00000   0.00000
     13996 MEOH     21       MEOH     HO2      DUMH     0.000000        1.0080           0   0.00000   0.00000
     13997 MEOH     21       MEOH     H1A      HDA3B    0.080000        1.0080           0   0.00000   0.00000
     13998 MEOH     21       MEOH     H1B      HDA3B    0.080000        1.0080           0   0.00000   0.00000
     13999 MEOH     21       MEOH     H1C      HDA3B    0.080000        1.0080           0   0.00000   0.00000
     14000 MEOH     21       MEOH     LP1A     LPD     -0.230000        0.0000           -1   0.00000   0.00000
     14001 MEOH     21       MEOH     LP1B     LPD     -0.230000        0.0000           -1   0.00000   0.00000
     14002 MEOH     22       MEOH     C1       CD33B    2.314100       11.6110           0   -1.00000   1.30000
     14003 MEOH     22       MEOH     DC1      DRUD    -2.454100        0.4000           0   0.00000   0.00000
     14004 MEOH     22       MEOH     O1       OD31H    2.488300       15.5990           0   -1.02800   1.30000
     14005 MEOH     22       MEOH     DO1      DRUD    -2.488300        0.4000           0   0.00000   0.00000
     14006 MEOH     22       MEOH     HO1      HDP1A    0.360000        1.0080           0   0.00000   0.00000
     14007 MEOH     22       MEOH     HO2      DUMH     0.000000        1.0080           0   0.00000   0.00000
     14008 MEOH     22       MEOH     H1A      HDA3B    0.080000        1.0080           0   0.00000   0.00000
     14009 MEOH     22       MEOH     H1B      HDA3B    0.080000        1.0080           0   0.00000   0.00000
     14010 MEOH     22       MEOH     H1C      HDA3B    0.080000        1.0080           0   0.00000   0.00000
     14011 MEOH     22       MEOH     LP1A     LPD     -0.230000        0.0000           -1   0.00000   0.00000
     14012 MEOH     22       MEOH     LP1B     LPD     -0.230000        0.0000           -1   0.00000   0.00000
     14013 MEOH     23       MEOH     C1       CD33B    2.314100       11.6110           0   -1.00000   1.30000
     14014 MEOH     23       MEOH     DC1      DRUD    -2.454100        0.4000           0   0.00000   0.00000
     14015 MEOH     23       MEOH     O1       OD31H    2.488300       15.5990           0   -1.02800   1.30000
     14016 MEOH     23       MEOH     DO1      DRUD    -2.488300        0.4000           0   0.00000   0.00000
     14017 MEOH     23       MEOH     HO1      HDP1A    0.360000        1.0080           0   0.00000   0.00000
     14018 MEOH     23       MEOH     HO2      DUMH     0.000000        1.0080           0   0.00000   0.00000
     14019 MEOH     23       MEOH     H1A      HDA3B    0.080000        1.0080           0   0.00000   0.00000
     14020 MEOH     23       MEOH     H1B      HDA3B    0.080000        1.0080           0   0.00000   0.00000
     14021 MEOH     23       MEOH     H1C      HDA3B    0.080000        1.0080           0   0.00000   0.00000
     14022 MEOH     23       MEOH     LP1A     LPD     -0.230000        0.0000           -1   0.00000   0.00000
     14023 MEOH     23       MEOH     LP1B     LPD     -0.230000        0.0000           -1   0.00000   0.00000
     14024 MEOH     24       MEOH     C1       CD33B    2.314100       11.6110           0   -1.00000   1.30000
     14025 MEOH     24       MEOH     DC1      DRUD    -2.454100        0.4000           0   0.00000   0.00000
     14026 MEOH     24       MEOH     O1       OD31H    2.488300       15.5990           0   -1.02800   1.30000
     14027 MEOH     24       MEOH     DO1      DRUD    -2.488300        0.4000           0   0.00000   0.00000
     14028 MEOH     24       MEOH     HO1      HDP1A    0.360000        1.0080           0   0.00000   0.00000
     14029 MEOH     24       MEOH     HO2      DUMH     0.000000        1.0080           0   0.00000   0.00000
     14030 MEOH     24       MEOH     H1A      HDA3B    0.080000        1.0080           0   0.00000   0.00000
     14031 MEOH     24       MEOH     H1B      HDA3B    0.080000        1.0080           0   0.00000   0.00000
     14032 MEOH     24       MEOH     H1C      HDA3B    0.080000        1.0080           0   0.00000   0.00000
     14033 MEOH     24       MEOH     LP1A     LPD     -0.230000        0.0000           -1   0.00000   0.00000
     14034 MEOH     24       MEOH     LP1B     LPD     -0.230000        0.0000           -1   0.00000   0.00000
     14035 MEOH     25       MEOH     C1       CD33B    2.314100       11.6110           0   -1.00000   1.30000
     14036 MEOH     25       MEOH     DC1      DRUD    -2.454100        0.4000           0   0.00000   0.00000
     14037 MEOH     25       MEOH     O1       OD31H    2.488300       15.5990           0   -1.02800   1.30000
     14038 MEOH     25       MEOH     DO1      DRUD    -2.488300        0.4000           0   0.00000   0.00000
     14039 MEOH     25       MEOH     HO1      HDP1A    0.360000        1.0080           0   0.00000   0.00000
     14040 MEOH     25       MEOH     HO2      DUMH     0.000000        1.0080           0   0.00000   0.00000
     14041 MEOH     25       MEOH     H1A      HDA3B    0.080000        1.0080           0   0.00000   0.00000
     14042 MEOH     25       MEOH     H1B      HDA3B    0.080000        1.0080           0   0.00000   0.00000
     14043 MEOH     25       MEOH     H1C      HDA3B    0.080000        1.0080           0   0.00000   0.00000
     14044 MEOH     25       MEOH     LP1A     LPD     -0.230000        0.0000           -1   0.00000   0.00000
     14045 MEOH     25       MEOH     LP1B     LPD     -0.230000        0.0000           -1   0.00000   0.00000
     14046 MEOH     26       MEOH     C1       CD33B    2.314100       11.6110           0   -1.00000   1.30000
     14047 MEOH     26       MEOH     DC1      DRUD    -2.454100        0.4000           0   0.00000   0.00000
     14048 MEOH     26       MEOH     O1       OD31H    2.488300       15.5990           0   -1.02800   1.30000
     14049 MEOH     26       MEOH     DO1      DRUD    -2.488300        0.4000           0   0.00000   0.00000
     14050 MEOH     26       MEOH     HO1      HDP1A    0.360000        1.0080           0   0.00000   0.00000
     14051 MEOH     26       MEOH     HO2      DUMH     0.000000        1.0080           0   0.00000   0.00000
     14052 MEOH     26       MEOH     H1A      HDA3B    0.080000        1.0080           0   0.00000   0.00000
     14053 MEOH     26       MEOH     H1B      HDA3B    0.080000        1.0080           0   0.00000   0.00000
     14054 MEOH     26       MEOH     H1C      HDA3B    0.080000        1.0080           0   0.00000   0.00000
     14055 MEOH     26       MEOH     LP1A     LPD     -0.230000        0.0000           -1   0.00000   0.00000
     14056 MEOH     26       MEOH     LP1B     LPD     -0.230000        0.0000           -1   0.00000   0.00000
     14057 MEOH     27       MEOH     C1       CD33B    2.314100       11.6110           0   -1.00000   1.30000
     14058 MEOH     27       MEOH     DC1      DRUD    -2.454100        0.4000           0   0.00000   0.00000
     14059 MEOH     27       MEOH     O1       OD31H    2.488300       15.5990           0   -1.02800   1.30000
     14060 MEOH     27       MEOH     DO1      DRUD    -2.488300        0.4000           0   0.00000   0.00000
     14061 MEOH     27       MEOH     HO1      HDP1A    0.360000        1.0080           0   0.00000   0.00000
     14062 MEOH     27       MEOH     HO2      DUMH     0.000000        1.0080           0   0.00000   0.00000
     14063 MEOH     27       MEOH     H1A      HDA3B    0.080000        1.0080           0   0.00000   0.00000
     14064 MEOH     27       MEOH     H1B      HDA3B    0.080000        1.0080           0   0.00000   0.00000
     14065 MEOH     27       MEOH     H1C      HDA3B    0.080000        1.0080           0   0.00000   0.00000
     14066 MEOH     27       MEOH     LP1A     LPD     -0.230000        0.0000           -1   0.00000   0.00000
     14067 MEOH     27       MEOH     LP1B     LPD     -0.230000        0.0000           -1   0.00000   0.00000
     14068 MEOH     28       MEOH     C1       CD33B    2.314100       11.6110           0   -1.00000   1.30000
     14069 MEOH     28       MEOH     DC1      DRUD    -2.454100        0.4000           0   0.00000   0.00000
     14070 MEOH     28       MEOH     O1       OD31H    2.488300       15.5990           0   -1.02800   1.30000
     14071 MEOH     28       MEOH     DO1      DRUD    -2.488300        0.4000           0   0.00000   0.00000
     14072 MEOH     28       MEOH     HO1      HDP1A    0.360000        1.0080           0   0.00000   0.00000
     14073 MEOH     28       MEOH     HO2      DUMH     0.000000        1.0080           0   0.00000   0.00000
     14074 MEOH     28       MEOH     H1A      HDA3B    0.080000        1.0080           0   0.00000   0.00000
     14075 MEOH     28       MEOH     H1B      HDA3B    0.080000        1.0080           0   0.00000   0.00000
     14076 MEOH     28       MEOH     H1C      HDA3B    0.080000        1.0080           0   0.00000   0.00000
     14077 MEOH     28       MEOH     LP1A     LPD     -0.230000        0.0000           -1   0.00000   0.00000
     14078 MEOH     28       MEOH     LP1B     LPD     -0.230000        0.0000           -1   0.00000   0.00000
     14079 MEOH     29       MEOH     C1       CD33B    2.314100       11.6110           0   -1.00000   1.30000
     14080 MEOH     29       MEOH     DC1      DRUD    -2.454100        0.4000           0   0.00000   0.00000
     14081 MEOH     29       MEOH     O1       OD31H    2.488300       15.5990           0   -1.02800   1.30000
     14082 MEOH     29       MEOH     DO1      DRUD    -2.488300        0.4000           0   0.00000   0.00000
     14083 MEOH     29       MEOH     HO1      HDP1A    0.360000        1.0080           0   0.00000   0.00000
     14084 MEOH     29       MEOH     HO2      DUMH     0.000000        1.0080           0   0.00000   0.00000
     14085 MEOH     29       MEOH     H1A      HDA3B    0.080000        1.0080           0   0.00000   0.00000
     14086 MEOH     29       MEOH     H1B      HDA3B    0.080000        1.0080           0   0.00000   0.00000
     14087 MEOH     29       MEOH     H1C      HDA3B    0.080000        1.0080           0   0.00000   0.00000
     14088 MEOH     29       MEOH     LP1A     LPD     -0.230000        0.0000           -1   0.00000   0.00000
     14089 MEOH     29       MEOH     LP1B     LPD     -0.230000        0.0000           -1   0.00000   0.00000
     14090 MEOH     30       MEOH     C1       CD33B    2.314100       11.6110           0   -1.00000   1.30000
     14091 MEOH     30       MEOH     DC1      DRUD    -2.454100        0.4000           0   0.00000   0.00000
     14092 MEOH     30       MEOH     O1       OD31H    2.488300       15.5990           0   -1.02800   1.30000
     14093 MEOH     30       MEOH     DO1      DRUD    -2.488300        0.4000           0   0.00000   0.00000
     14094 MEOH     30       MEOH     HO1      HDP1A    0.360000        1.0080           0   0.00000   0.00000
     14095 MEOH     30       MEOH     HO2      DUMH     0.000000        1.0080           0   0.00000   0.00000
     14096 MEOH     30       MEOH     H1A      HDA3B    0.080000        1.0080           0   0.00000   0.00000
     14097 MEOH     30       MEOH     H1B      HDA3B    0.080000        1.0080           0   0.00000   0.00000
     14098 MEOH     30       MEOH     H1C      HDA3B    0.080000        1.0080           0   0.00000   0.00000
     14099 MEOH     30       MEOH     LP1A     LPD     -0.230000        0.0000           -1   0.00000   0.00000
     14100 MEOH     30       MEOH     LP1B     LPD     -0.230000        0.0000           -1   0.00000   0.00000
     14101 MEOH     31       MEOH     C1       CD33B    2.314100       11.6110           0   -1.00000   1.30000
     14102 MEOH     31       MEOH     DC1      DRUD    -2.454100        0.4000           0   0.00000   0.00000
     14103 MEOH     31       MEOH     O1       OD31H    2.488300       15.5990           0   -1.02800   1.30000
     14104 MEOH     31       MEOH     DO1      DRUD    -2.488300        0.4000           0   0.00000   0.00000
     14105 MEOH     31       MEOH     HO1      HDP1A    0.360000        1.0080           0   0.00000   0.00000
     14106 MEOH     31       MEOH     HO2      DUMH     0.000000        1.0080           0   0.00000   0.00000
     14107 MEOH     31       MEOH     H1A      HDA3B    0.080000        1.0080           0   0.00000   0.00000
     14108 MEOH     31       MEOH     H1B      HDA3B    0.080000        1.0080           0   0.00000   0.00000
     14109 MEOH     31       MEOH     H1C      HDA3B    0.080000        1.0080           0   0.00000   0.00000
     14110 MEOH     31       MEOH     LP1A     LPD     -0.230000        0.0000           -1   0.00000   0.00000
     14111 MEOH     31       MEOH     LP1B     LPD     -0.230000        0.0000           -1   0.00000   0.00000
     14112 MEOH     32       MEOH     C1       CD33B    2.314100       11.6110           0   -1.00000   1.30000
     14113 MEOH     32       MEOH     DC1      DRUD    -2.454100        0.4000           0   0.00000   0.00000
     14114 MEOH     32       MEOH     O1       OD31H    2.488300       15.5990           0   -1.02800   1.30000
     14115 MEOH     32       MEOH     DO1      DRUD    -2.488300        0.4000           0   0.00000   0.00000
     14116 MEOH     32       MEOH     HO1      HDP1A    0.360000        1.0080           0   0.00000   0.00000
     14117 MEOH     32       MEOH     HO2      DUMH     0.000000        1.0080           0   0.00000   0.00000
     14118 MEOH     32       MEOH     H1A      HDA3B    0.080000        1.0080           0   0.00000   0.00000
     14119 MEOH     32       MEOH     H1B      HDA3B    0.080000        1.0080           0   0.00000   0.00000
     14120 MEOH     32       MEOH     H1C      HDA3B    0.080000        1.0080           0   0.00000   0.00000
     14121 MEOH     32       MEOH     LP1A     LPD     -0.230000        0.0000           -1   0.00000   0.00000
     14122 MEOH     32       MEOH     LP1B     LPD     -0.230000        0.0000           -1   0.00000   0.00000
     14123 MEOH     33       MEOH     C1       CD33B    2.314100       11.6110           0   -1.00000   1.30000
     14124 MEOH     33       MEOH     DC1      DRUD    -2.454100        0.4000           0   0.00000   0.00000
     14125 MEOH     33       MEOH     O1       OD31H    2.488300       15.5990           0   -1.02800   1.30000
     14126 MEOH     33       MEOH     DO1      DRUD    -2.488300        0.4000           0   0.00000   0.00000
     14127 MEOH     33       MEOH     HO1      HDP1A    0.360000        1.0080           0   0.00000   0.00000
     14128 MEOH     33       MEOH     HO2      DUMH     0.000000        1.0080           0   0.00000   0.00000
     14129 MEOH     33       MEOH     H1A      HDA3B    0.080000        1.0080           0   0.00000   0.00000
     14130 MEOH     33       MEOH     H1B      HDA3B    0.080000        1.0080           0   0.00000   0.00000
     14131 MEOH     33       MEOH     H1C      HDA3B    0.080000        1.0080           0   0.00000   0.00000
     14132 MEOH     33       MEOH     LP1A     LPD     -0.230000        0.0000           -1   0.00000   0.00000
     14133 MEOH     33       MEOH     LP1B     LPD     -0.230000        0.0000           -1   0.00000   0.00000
     14134 MEOH     34       MEOH     C1       CD33B    2.314100       11.6110           0   -1.00000   1.30000
     14135 MEOH     34       MEOH     DC1      DRUD    -2.454100        0.4000           0   0.00000   0.00000
     14136 MEOH     34       MEOH     O1       OD31H    2.488300       15.5990           0   -1.02800   1.30000
     14137 MEOH     34       MEOH     DO1      DRUD    -2.488300        0.4000           0   0.00000   0.00000
     14138 MEOH     34       MEOH     HO1      HDP1A    0.360000        1.0080           0   0.00000   0.00000
     14139 MEOH     34       MEOH     HO2      DUMH     0.000000        1.0080           0   0.00000   0.00000
     14140 MEOH     34       MEOH     H1A      HDA3B    0.080000        1.0080           0   0.00000   0.00000
     14141 MEOH     34       MEOH     H1B      HDA3B    0.080000        1.0080           0   0.00000   0.00000
     14142 MEOH     34       MEOH     H1C      HDA3B    0.080000        1.0080           0   0.00000   0.00000
     14143 MEOH     34       MEOH     LP1A     LPD     -0.230000        0.0000           -1   0.00000   0.00000
     14144 MEOH     34       MEOH     LP1B     LPD     -0.230000        0.0000           -1   0.00000   0.00000
     14145 MEOH     35       MEOH     C1       CD33B    2.314100       11.6110           0   -1.00000   1.30000
     14146 MEOH     35       MEOH     DC1      DRUD    -2.454100        0.4000           0   0.00000   0.00000
     14147 MEOH     35       MEOH     O1       OD31H    2.488300       15.5990           0   -1.02800   1.30000
     14148 MEOH     35       MEOH     DO1      DRUD    -2.488300        0.4000           0   0.00000   0.00000
     14149 MEOH     35       MEOH     HO1      HDP1A    0.360000        1.0080           0   0.00000   0.00000
     14150 MEOH     35       MEOH     HO2      DUMH     0.000000        1.0080           0   0.00000   0.00000
     14151 MEOH     35       MEOH     H1A      HDA3B    0.080000        1.0080           0   0.00000   0.00000
     14152 MEOH     35       MEOH     H1B      HDA3B    0.080000        1.0080           0   0.00000   0.00000
     14153 MEOH     35       MEOH     H1C      HDA3B    0.080000        1.0080           0   0.00000   0.00000
     14154 MEOH     35       MEOH     LP1A     LPD     -0.230000        0.0000           -1   0.00000   0.00000
     14155 MEOH     35       MEOH     LP1B     LPD     -0.230000        0.0000           -1   0.00000   0.00000
     14156 MEOH     36       MEOH     C1       CD33B    2.314100       11.6110           0   -1.00000   1.30000
     14157 MEOH     36       MEOH     DC1      DRUD    -2.454100        0.4000           0   0.00000   0.00000
     14158 MEOH     36       MEOH     O1       OD31H    2.488300       15.5990           0   -1.02800   1.30000
     14159 MEOH     36       MEOH     DO1      DRUD    -2.488300        0.4000           0   0.00000   0.00000
     14160 MEOH     36       MEOH     HO1      HDP1A    0.360000        1.0080           0   0.00000   0.00000
     14161 MEOH     36       MEOH     HO2      DUMH     0.000000        1.0080           0   0.00000   0.00000
     14162 MEOH     36       MEOH     H1A      HDA3B    0.080000        1.0080           0   0.00000   0.00000
     14163 MEOH     36       MEOH     H1B      HDA3B    0.080000        1.0080           0   0.00000   0.00000
     14164 MEOH     36       MEOH     H1C      HDA3B    0.080000        1.0080           0   0.00000   0.00000
     14165 MEOH     36       MEOH     LP1A     LPD     -0.230000        0.0000           -1   0.00000   0.00000
     14166 MEOH     36       MEOH     LP1B     LPD     -0.230000        0.0000           -1   0.00000   0.00000
     14167 MEOH     37       MEOH     C1       CD33B    2.314100       11.6110           0   -1.00000   1.30000
     14168 MEOH     37       MEOH     DC1      DRUD    -2.454100        0.4000           0   0.00000   0.00000
     14169 MEOH     37       MEOH     O1       OD31H    2.488300       15.5990           0   -1.02800   1.30000
     14170 MEOH     37       MEOH     DO1      DRUD    -2.488300        0.4000           0   0.00000   0.00000
     14171 MEOH     37       MEOH     HO1      HDP1A    0.360000        1.0080           0   0.00000   0.00000
     14172 MEOH     37       MEOH     HO2      DUMH     0.000000        1.0080           0   0.00000   0.00000
     14173 MEOH     37       MEOH     H1A      HDA3B    0.080000        1.0080           0   0.00000   0.00000
     14174 MEOH     37       MEOH     H1B      HDA3B    0.080000        1.0080           0   0.00000   0.00000
     14175 MEOH     37       MEOH     H1C      HDA3B    0.080000        1.0080           0   0.00000   0.00000
     14176 MEOH     37       MEOH     LP1A     LPD     -0.230000        0.0000           -1   0.00000   0.00000
     14177 MEOH     37       MEOH     LP1B     LPD     -0.230000        0.0000           -1   0.00000   0.00000
     14178 MEOH     38       MEOH     C1       CD33B    2.314100       11.6110           0   -1.00000   1.30000
     14179 MEOH     38       MEOH     DC1      DRUD    -2.454100        0.4000           0   0.00000   0.00000
     14180 MEOH     38       MEOH     O1       OD31H    2.488300       15.5990           0   -1.02800   1.30000
     14181 MEOH     38       MEOH     DO1      DRUD    -2.488300        0.4000           0   0.00000   0.00000
     14182 MEOH     38       MEOH     HO1      HDP1A    0.360000        1.0080           0   0.00000   0.00000
     14183 MEOH     38       MEOH     HO2      DUMH     0.000000        1.0080           0   0.00000   0.00000
     14184 MEOH     38       MEOH     H1A      HDA3B    0.080000        1.0080           0   0.00000   0.00000
     14185 MEOH     38       MEOH     H1B      HDA3B    0.080000        1.0080           0   0.00000   0.00000
     14186 MEOH     38       MEOH     H1C      HDA3B    0.080000        1.0080           0   0.00000   0.00000
     14187 MEOH     38       MEOH     LP1A     LPD     -0.230000        0.0000           -1   0.00000   0.00000
     14188 MEOH     38       MEOH     LP1B     LPD     -0.230000        0.0000           -1   0.00000   0.00000
     14189 MEOH     39       MEOH     C1       CD33B    2.314100       11.6110           0   -1.00000   1.30000
     14190 MEOH     39       MEOH     DC1      DRUD    -2.454100        0.4000           0   0.00000   0.00000
     14191 MEOH     39       MEOH     O1       OD31H    2.488300       15.5990           0   -1.02800   1.30000
     14192 MEOH     39       MEOH     DO1      DRUD    -2.488300        0.4000           0   0.00000   0.00000
     14193 MEOH     39       MEOH     HO1      HDP1A    0.360000        1.0080           0   0.00000   0.00000
     14194 MEOH     39       MEOH     HO2      DUMH     0.000000        1.0080           0   0.00000   0.00000
     14195 MEOH     39       MEOH     H1A      HDA3B    0.080000        1.0080           0   0.00000   0.00000
     14196 MEOH     39       MEOH     H1B      HDA3B    0.080000        1.0080           0   0.00000   0.00000
     14197 MEOH     39       MEOH     H1C      HDA3B    0.080000        1.0080           0   0.00000   0.00000
     14198 MEOH     39       MEOH     LP1A     LPD     -0.230000        0.0000           -1   0.00000   0.00000
     14199 MEOH     39       MEOH     LP1B     LPD     -0.230000        0.0000           -1   0.00000   0.00000
     14200 MEOH     40       MEOH     C1       CD33B    2.314100       11.6110           0   -1.00000   1.30000
     14201 MEOH     40       MEOH     DC1      DRUD    -2.454100        0.4000           0   0.00000   0.00000
     14202 MEOH     40       MEOH     O1       OD31H    2.488300       15.5990           0   -1.02800   1.30000
     14203 MEOH     40       MEOH     DO1      DRUD    -2.488300        0.4000           0   0.00000   0.00000
     14204 MEOH     40       MEOH     HO1      HDP1A    0.360000        1.0080           0   0.00000   0.00000
     14205 MEOH     40       MEOH     HO2      DUMH     0.000000        1.0080           0   0.00000   0.00000
     14206 MEOH     40       MEOH     H1A      HDA3B    0.080000        1.0080           0   0.00000   0.00000
     14207 MEOH     40       MEOH     H1B      HDA3B    0.080000        1.0080           0   0.00000   0.00000
     14208 MEOH     40       MEOH     H1C      HDA3B    0.080000        1.0080           0   0.00000   0.00000
     14209 MEOH     40       MEOH     LP1A     LPD     -0.230000        0.0000           -1   0.00000   0.00000
     14210 MEOH     40       MEOH     LP1B     LPD     -0.230000        0.0000           -1   0.00000   0.00000
     14211 MEOH     41       MEOH     C1       CD33B    2.314100       11.6110           0   -1.00000   1.30000
     14212 MEOH     41       MEOH     DC1      DRUD    -2.454100        0.4000           0   0.00000   0.00000
     14213 MEOH     41       MEOH     O1       OD31H    2.488300       15.5990           0   -1.02800   1.30000
     14214 MEOH     41       MEOH     DO1      DRUD    -2.488300        0.4000           0   0.00000   0.00000
     14215 MEOH     41       MEOH     HO1      HDP1A    0.360000        1.0080           0   0.00000   0.00000
     14216 MEOH     41       MEOH     HO2      DUMH     0.000000        1.0080           0   0.00000   0.00000
     14217 MEOH     41       MEOH     H1A      HDA3B    0.080000        1.0080           0   0.00000   0.00000
     14218 MEOH     41       MEOH     H1B      HDA3B    0.080000        1.0080           0   0.00000   0.00000
     14219 MEOH     41       MEOH     H1C      HDA3B    0.080000        1.0080           0   0.00000   0.00000
     14220 MEOH     41       MEOH     LP1A     LPD     -0.230000        0.0000           -1   0.00000   0.00000
     14221 MEOH     41       MEOH     LP1B     LPD     -0.230000        0.0000           -1   0.00000   0.00000
     14222 MEOH     42       MEOH     C1       CD33B    2.314100       11.6110           0   -1.00000   1.30000
     14223 MEOH     42       MEOH     DC1      DRUD    -2.454100        0.4000           0   0.00000   0.00000
     14224 MEOH     42       MEOH     O1       OD31H    2.488300       15.5990           0   -1.02800   1.30000
     14225 MEOH     42       MEOH     DO1      DRUD    -2.488300        0.4000           0   0.00000   0.00000
     14226 MEOH     42       MEOH     HO1      HDP1A    0.360000        1.0080           0   0.00000   0.00000
     14227 MEOH     42       MEOH     HO2      DUMH     0.000000        1.0080           0   0.00000   0.00000
     14228 MEOH     42       MEOH     H1A      HDA3B    0.080000        1.0080           0   0.00000   0.00000
     14229 MEOH     42       MEOH     H1B      HDA3B    0.080000        1.0080           0   0.00000   0.00000
     14230 MEOH     42       MEOH     H1C      HDA3B    0.080000        1.0080           0   0.00000   0.00000
     14231 MEOH     42       MEOH     LP1A     LPD     -0.230000        0.0000           -1   0.00000   0.00000
     14232 MEOH     42       MEOH     LP1B     LPD     -0.230000        0.0000           -1   0.00000   0.00000
     14233 MEOH     43       MEOH     C1       CD33B    2.314100       11.6110           0   -1.00000   1.30000
     14234 MEOH     43       MEOH     DC1      DRUD    -2.454100        0.4000           0   0.00000   0.00000
     14235 MEOH     43       MEOH     O1       OD31H    2.488300       15.5990           0   -1.02800   1.30000
     14236 MEOH     43       MEOH     DO1      DRUD    -2.488300        0.4000           0   0.00000   0.00000
     14237 MEOH     43       MEOH     HO1      HDP1A    0.360000        1.0080           0   0.00000   0.00000
     14238 MEOH     43       MEOH     HO2      DUMH     0.000000        1.0080           0   0.00000   0.00000
     14239 MEOH     43       MEOH     H1A      HDA3B    0.080000        1.0080           0   0.00000   0.00000
     14240 MEOH     43       MEOH     H1B      HDA3B    0.080000        1.0080           0   0.00000   0.00000
     14241 MEOH     43       MEOH     H1C      HDA3B    0.080000        1.0080           0   0.00000   0.00000
     14242 MEOH     43       MEOH     LP1A     LPD     -0.230000        0.0000           -1   0.00000   0.00000
     14243 MEOH     43       MEOH     LP1B     LPD     -0.230000        0.0000           -1   0.00000   0.00000
     14244 MEOH     44       MEOH     C1       CD33B    2.314100       11.6110           0   -1.00000   1.30000
     14245 MEOH     44       MEOH     DC1      DRUD    -2.454100        0.4000           0   0.00000   0.00000
     14246 MEOH     44       MEOH     O1       OD31H    2.488300       15.5990           0   -1.02800   1.30000
     14247 MEOH     44       MEOH     DO1      DRUD    -2.488300        0.4000           0   0.00000   0.00000
     14248 MEOH     44       MEOH     HO1      HDP1A    0.360000        1.0080           0   0.00000   0.00000
     14249 MEOH     44       MEOH     HO2      DUMH     0.000000        1.0080           0   0.00000   0.00000
     14250 MEOH     44       MEOH     H1A      HDA3B    0.080000        1.0080           0   0.00000   0.00000
     14251 MEOH     44       MEOH     H1B      HDA3B    0.080000        1.0080           0   0.00000   0.00000
     14252 MEOH     44       MEOH     H1C      HDA3B    0.080000        1.0080           0   0.00000   0.00000
     14253 MEOH     44       MEOH     LP1A     LPD     -0.230000        0.0000           -1   0.00000   0.00000
     14254 MEOH     44       MEOH     LP1B     LPD     -0.230000        0.0000           -1   0.00000   0.00000
     14255 MEOH     45       MEOH     C1       CD33B    2.314100       11.6110           0   -1.00000   1.30000
     14256 MEOH     45       MEOH     DC1      DRUD    -2.454100        0.4000           0   0.00000   0.00000
     14257 MEOH     45       MEOH     O1       OD31H    2.488300       15.5990           0   -1.02800   1.30000
     14258 MEOH     45       MEOH     DO1      DRUD    -2.488300        0.4000           0   0.00000   0.00000
     14259 MEOH     45       MEOH     HO1      HDP1A    0.360000        1.0080           0   0.00000   0.00000
     14260 MEOH     45       MEOH     HO2      DUMH     0.000000        1.0080           0   0.00000   0.00000
     14261 MEOH     45       MEOH     H1A      HDA3B    0.080000        1.0080           0   0.00000   0.00000
     14262 MEOH     45       MEOH     H1B      HDA3B    0.080000        1.0080           0   0.00000   0.00000
     14263 MEOH     45       MEOH     H1C      HDA3B    0.080000        1.0080           0   0.00000   0.00000
     14264 MEOH     45       MEOH     LP1A     LPD     -0.230000        0.0000           -1   0.00000   0.00000
     14265 MEOH     45       MEOH     LP1B     LPD     -0.230000        0.0000           -1   0.00000   0.00000
     14266 MEOH     46       MEOH     C1       CD33B    2.314100       11.6110           0   -1.00000   1.30000
     14267 MEOH     46       MEOH     DC1      DRUD    -2.454100        0.4000           0   0.00000   0.00000
     14268 MEOH     46       MEOH     O1       OD31H    2.488300       15.5990           0   -1.02800   1.30000
     14269 MEOH     46       MEOH     DO1      DRUD    -2.488300        0.4000           0   0.00000   0.00000
     14270 MEOH     46       MEOH     HO1      HDP1A    0.360000        1.0080           0   0.00000   0.00000
     14271 MEOH     46       MEOH     HO2      DUMH     0.000000        1.0080           0   0.00000   0.00000
     14272 MEOH     46       MEOH     H1A      HDA3B    0.080000        1.0080           0   0.00000   0.00000
     14273 MEOH     46       MEOH     H1B      HDA3B    0.080000        1.0080           0   0.00000   0.00000
     14274 MEOH     46       MEOH     H1C      HDA3B    0.080000        1.0080           0   0.00000   0.00000
     14275 MEOH     46       MEOH     LP1A     LPD     -0.230000        0.0000           -1   0.00000   0.00000
     14276 MEOH     46       MEOH     LP1B     LPD     -0.230000        0.0000           -1   0.00000   0.00000
     14277 MEOH     47       MEOH     C1       CD33B    2.314100       11.6110           0   -1.00000   1.30000
     14278 MEOH     47       MEOH     DC1      DRUD    -2.454100        0.4000           0   0.00000   0.00000
     14279 MEOH     47       MEOH     O1       OD31H    2.488300       15.5990           0   -1.02800   1.30000
     14280 MEOH     47       MEOH     DO1      DRUD    -2.488300        0.4000           0   0.00000   0.00000
     14281 MEOH     47       MEOH     HO1      HDP1A    0.360000        1.0080           0   0.00000   0.00000
     14282 MEOH     47       MEOH     HO2      DUMH     0.000000        1.0080           0   0.00000   0.00000
     14283 MEOH     47       MEOH     H1A      HDA3B    0.080000        1.0080           0   0.00000   0.00000
     14284 MEOH     47       MEOH     H1B      HDA3B    0.080000        1.0080           0   0.00000   0.00000
     14285 MEOH     47       MEOH     H1C      HDA3B    0.080000        1.0080           0   0.00000   0.00000
     14286 MEOH     47       MEOH     LP1A     LPD     -0.230000        0.0000           -1   0.00000   0.00000
     14287 MEOH     47       MEOH     LP1B     LPD     -0.230000        0.0000           -1   0.00000   0.00000
     14288 MEOH     48       MEOH     C1       CD33B    2.314100       11.6110           0   -1.00000   1.30000
     14289 MEOH     48       MEOH     DC1      DRUD    -2.454100        0.4000           0   0.00000   0.00000
     14290 MEOH     48       MEOH     O1       OD31H    2.488300       15.5990           0   -1.02800   1.30000
     14291 MEOH     48       MEOH     DO1      DRUD    -2.488300        0.4000           0   0.00000   0.00000
     14292 MEOH     48       MEOH     HO1      HDP1A    0.360000        1.0080           0   0.00000   0.00000
     14293 MEOH     48       MEOH     HO2      DUMH     0.000000        1.0080           0   0.00000   0.00000
     14294 MEOH     48       MEOH     H1A      HDA3B    0.080000        1.0080           0   0.00000   0.00000
     14295 MEOH     48       MEOH     H1B      HDA3B    0.080000        1.0080           0   0.00000   0.00000
     14296 MEOH     48       MEOH     H1C      HDA3B    0.080000        1.0080           0   0.00000   0.00000
     14297 MEOH     48       MEOH     LP1A     LPD     -0.230000        0.0000           -1   0.00000   0.00000
     14298 MEOH     48       MEOH     LP1B     LPD     -0.230000        0.0000           -1   0.00000   0.00000
     14299 MEOH     49       MEOH     C1       CD33B    2.314100       11.6110           0   -1.00000   1.30000
     14300 MEOH     49       MEOH     DC1      DRUD    -2.454100        0.4000           0   0.00000   0.00000
     14301 MEOH     49       MEOH     O1       OD31H    2.488300       15.5990           0   -1.02800   1.30000
     14302 MEOH     49       MEOH     DO1      DRUD    -2.488300        0.4000           0   0.00000   0.00000
     14303 MEOH     49       MEOH     HO1      HDP1A    0.360000        1.0080           0   0.00000   0.00000
     14304 MEOH     49       MEOH     HO2      DUMH     0.000000        1.0080           0   0.00000   0.00000
     14305 MEOH     49       MEOH     H1A      HDA3B    0.080000        1.0080           0   0.00000   0.00000
     14306 MEOH     49       MEOH     H1B      HDA3B    0.080000        1.0080           0   0.00000   0.00000
     14307 MEOH     49       MEOH     H1C      HDA3B    0.080000        1.0080           0   0.00000   0.00000
     14308 MEOH     49       MEOH     LP1A     LPD     -0.230000        0.0000           -1   0.00000   0.00000
     14309 MEOH     49       MEOH     LP1B     LPD     -0.230000        0.0000           -1   0.00000   0.00000
     14310 MEOH     50       MEOH     C1       CD33B    2.314100       11.6110           0   -1.00000   1.30000
     14311 MEOH     50       MEOH     DC1      DRUD    -2.454100        0.4000           0   0.00000   0.00000
     14312 MEOH     50       MEOH     O1       OD31H    2.488300       15.5990           0   -1.02800   1.30000
     14313 MEOH     50       MEOH     DO1      DRUD    -2.488300        0.4000           0   0.00000   0.00000
     14314 MEOH     50       MEOH     HO1      HDP1A    0.360000        1.0080           0   0.00000   0.00000
     14315 MEOH     50       MEOH     HO2      DUMH     0.000000        1.0080           0   0.00000   0.00000
     14316 MEOH     50       MEOH     H1A      HDA3B    0.080000        1.0080           0   0.00000   0.00000
     14317 MEOH     50       MEOH     H1B      HDA3B    0.080000        1.0080           0   0.00000   0.00000
     14318 MEOH     50       MEOH     H1C      HDA3B    0.080000        1.0080           0   0.00000   0.00000
     14319 MEOH     50       MEOH     LP1A     LPD     -0.230000        0.0000           -1   0.00000   0.00000
     14320 MEOH     50       MEOH     LP1B     LPD     -0.230000        0.0000           -1   0.00000   0.00000
     14321 MEOH     51       MEOH     C1       CD33B    2.314100       11.6110           0   -1.00000   1.30000
     14322 MEOH     51       MEOH     DC1      DRUD    -2.454100        0.4000           0   0.00000   0.00000
     14323 MEOH     51       MEOH     O1       OD31H    2.488300       15.5990           0   -1.02800   1.30000
     14324 MEOH     51       MEOH     DO1      DRUD    -2.488300        0.4000           0   0.00000   0.00000
     14325 MEOH     51       MEOH     HO1      HDP1A    0.360000        1.0080           0   0.00000   0.00000
     14326 MEOH     51       MEOH     HO2      DUMH     0.000000        1.0080           0   0.00000   0.00000
     14327 MEOH     51       MEOH     H1A      HDA3B    0.080000        1.0080           0   0.00000   0.00000
     14328 MEOH     51       MEOH     H1B      HDA3B    0.080000        1.0080           0   0.00000   0.00000
     14329 MEOH     51       MEOH     H1C      HDA3B    0.080000        1.0080           0   0.00000   0.00000
     14330 MEOH     51       MEOH     LP1A     LPD     -0.230000        0.0000           -1   0.00000   0.00000
     14331 MEOH     51       MEOH     LP1B     LPD     -0.230000        0.0000           -1   0.00000   0.00000
     14332 MEOH     52       MEOH     C1       CD33B    2.314100       11.6110           0   -1.00000   1.30000
     14333 MEOH     52       MEOH     DC1      DRUD    -2.454100        0.4000           0   0.00000   0.00000
     14334 MEOH     52       MEOH     O1       OD31H    2.488300       15.5990           0   -1.02800   1.30000
     14335 MEOH     52       MEOH     DO1      DRUD    -2.488300        0.4000           0   0.00000   0.00000
     14336 MEOH     52       MEOH     HO1      HDP1A    0.360000        1.0080           0   0.00000   0.00000
     14337 MEOH     52       MEOH     HO2      DUMH     0.000000        1.0080           0   0.00000   0.00000
     14338 MEOH     52       MEOH     H1A      HDA3B    0.080000        1.0080           0   0.00000   0.00000
     14339 MEOH     52       MEOH     H1B      HDA3B    0.080000        1.0080           0   0.00000   0.00000
     14340 MEOH     52       MEOH     H1C      HDA3B    0.080000        1.0080           0   0.00000   0.00000
     14341 MEOH     52       MEOH     LP1A     LPD     -0.230000        0.0000           -1   0.00000   0.00000
     14342 MEOH     52       MEOH     LP1B     LPD     -0.230000        0.0000           -1   0.00000   0.00000
     14343 MEOH     53       MEOH     C1       CD33B    2.314100       11.6110           0   -1.00000   1.30000
     14344 MEOH     53       MEOH     DC1      DRUD    -2.454100        0.4000           0   0.00000   0.00000
     14345 MEOH     53       MEOH     O1       OD31H    2.488300       15.5990           0   -1.02800   1.30000
     14346 MEOH     53       MEOH     DO1      DRUD    -2.488300        0.4000           0   0.00000   0.00000
     14347 MEOH     53       MEOH     HO1      HDP1A    0.360000        1.0080           0   0.00000   0.00000
     14348 MEOH     53       MEOH     HO2      DUMH     0.000000        1.0080           0   0.00000   0.00000
     14349 MEOH     53       MEOH     H1A      HDA3B    0.080000        1.0080           0   0.00000   0.00000
     14350 MEOH     53       MEOH     H1B      HDA3B    0.080000        1.0080           0   0.00000   0.00000
     14351 MEOH     53       MEOH     H1C      HDA3B    0.080000        1.0080           0   0.00000   0.00000
     14352 MEOH     53       MEOH     LP1A     LPD     -0.230000        0.0000           -1   0.00000   0.00000
     14353 MEOH     53       MEOH     LP1B     LPD     -0.230000        0.0000           -1   0.00000   0.00000
     14354 MEOH     54       MEOH     C1       CD33B    2.314100       11.6110           0   -1.00000   1.30000
     14355 MEOH     54       MEOH     DC1      DRUD    -2.454100        0.4000           0   0.00000   0.00000
     14356 MEOH     54       MEOH     O1       OD31H    2.488300       15.5990           0   -1.02800   1.30000
     14357 MEOH     54       MEOH     DO1      DRUD    -2.488300        0.4000           0   0.00000   0.00000
     14358 MEOH     54       MEOH     HO1      HDP1A    0.360000        1.0080           0   0.00000   0.00000
     14359 MEOH     54       MEOH     HO2      DUMH     0.000000        1.0080           0   0.00000   0.00000
     14360 MEOH     54       MEOH     H1A      HDA3B    0.080000        1.0080           0   0.00000   0.00000
     14361 MEOH     54       MEOH     H1B      HDA3B    0.080000        1.0080           0   0.00000   0.00000
     14362 MEOH     54       MEOH     H1C      HDA3B    0.080000        1.0080           0   0.00000   0.00000
     14363 MEOH     54       MEOH     LP1A     LPD     -0.230000        0.0000           -1   0.00000   0.00000
     14364 MEOH     54       MEOH     LP1B     LPD     -0.230000        0.0000           -1   0.00000   0.00000
     14365 MEOH     55       MEOH     C1       CD33B    2.314100       11.6110           0   -1.00000   1.30000
     14366 MEOH     55       MEOH     DC1      DRUD    -2.454100        0.4000           0   0.00000   0.00000
     14367 MEOH     55       MEOH     O1       OD31H    2.488300       15.5990           0   -1.02800   1.30000
     14368 MEOH     55       MEOH     DO1      DRUD    -2.488300        0.4000           0   0.00000   0.00000
     14369 MEOH     55       MEOH     HO1      HDP1A    0.360000        1.0080           0   0.00000   0.00000
     14370 MEOH     55       MEOH     HO2      DUMH     0.000000        1.0080           0   0.00000   0.00000
     14371 MEOH     55       MEOH     H1A      HDA3B    0.080000        1.0080           0   0.00000   0.00000
     14372 MEOH     55       MEOH     H1B      HDA3B    0.080000        1.0080           0   0.00000   0.00000
     14373 MEOH     55       MEOH     H1C      HDA3B    0.080000        1.0080           0   0.00000   0.00000
     14374 MEOH     55       MEOH     LP1A     LPD     -0.230000        0.0000           -1   0.00000   0.00000
     14375 MEOH     55       MEOH     LP1B     LPD     -0.230000        0.0000           -1   0.00000   0.00000
     14376 MEOH     56       MEOH     C1       CD33B    2.314100       11.6110           0   -1.00000   1.30000
     14377 MEOH     56       MEOH     DC1      DRUD    -2.454100        0.4000           0   0.00000   0.00000
     14378 MEOH     56       MEOH     O1       OD31H    2.488300       15.5990           0   -1.02800   1.30000
     14379 MEOH     56       MEOH     DO1      DRUD    -2.488300        0.4000           0   0.00000   0.00000
     14380 MEOH     56       MEOH     HO1      HDP1A    0.360000        1.0080           0   0.00000   0.00000
     14381 MEOH     56       MEOH     HO2      DUMH     0.000000        1.0080           0   0.00000   0.00000
     14382 MEOH     56       MEOH     H1A      HDA3B    0.080000        1.0080           0   0.00000   0.00000
     14383 MEOH     56       MEOH     H1B      HDA3B    0.080000        1.0080           0   0.00000   0.00000
     14384 MEOH     56       MEOH     H1C      HDA3B    0.080000        1.0080           0   0.00000   0.00000
     14385 MEOH     56       MEOH     LP1A     LPD     -0.230000        0.0000           -1   0.00000   0.00000
     14386 MEOH     56       MEOH     LP1B     LPD     -0.230000        0.0000           -1   0.00000   0.00000
     14387 MEOH     57       MEOH     C1       CD33B    2.314100       11.6110           0   -1.00000   1.30000
     14388 MEOH     57       MEOH     DC1      DRUD    -2.454100        0.4000           0   0.00000   0.00000
     14389 MEOH     57       MEOH     O1       OD31H    2.488300       15.5990           0   -1.02800   1.30000
     14390 MEOH     57       MEOH     DO1      DRUD    -2.488300        0.4000           0   0.00000   0.00000
     14391 MEOH     57       MEOH     HO1      HDP1A    0.360000        1.0080           0   0.00000   0.00000
     14392 MEOH     57       MEOH     HO2      DUMH     0.000000        1.0080           0   0.00000   0.00000
     14393 MEOH     57       MEOH     H1A      HDA3B    0.080000        1.0080           0   0.00000   0.00000
     14394 MEOH     57       MEOH     H1B      HDA3B    0.080000        1.0080           0   0.00000   0.00000
     14395 MEOH     57       MEOH     H1C      HDA3B    0.080000        1.0080           0   0.00000   0.00000
     14396 MEOH     57       MEOH     LP1A     LPD     -0.230000        0.0000           -1   0.00000   0.00000
     14397 MEOH     57       MEOH     LP1B     LPD     -0.230000        0.0000           -1   0.00000   0.00000
     14398 MEOH     58       MEOH     C1       CD33B    2.314100       11.6110           0   -1.00000   1.30000
     14399 MEOH     58       MEOH     DC1      DRUD    -2.454100        0.4000           0   0.00000   0.00000
     14400 MEOH     58       MEOH     O1       OD31H    2.488300       15.5990           0   -1.02800   1.30000
     14401 MEOH     58       MEOH     DO1      DRUD    -2.488300        0.4000           0   0.00000   0.00000
     14402 MEOH     58       MEOH     HO1      HDP1A    0.360000        1.0080           0   0.00000   0.00000
     14403 MEOH     58       MEOH     HO2      DUMH     0.000000        1.0080           0   0.00000   0.00000
     14404 MEOH     58       MEOH     H1A      HDA3B    0.080000        1.0080           0   0.00000   0.00000
     14405 MEOH     58       MEOH     H1B      HDA3B    0.080000        1.0080           0   0.00000   0.00000
     14406 MEOH     58       MEOH     H1C      HDA3B    0.080000        1.0080           0   0.00000   0.00000
     14407 MEOH     58       MEOH     LP1A     LPD     -0.230000        0.0000           -1   0.00000   0.00000
     14408 MEOH     58       MEOH     LP1B     LPD     -0.230000        0.0000           -1   0.00000   0.00000
     14409 MEOH     59       MEOH     C1       CD33B    2.314100       11.6110           0   -1.00000   1.30000
     14410 MEOH     59       MEOH     DC1      DRUD    -2.454100        0.4000           0   0.00000   0.00000
     14411 MEOH     59       MEOH     O1       OD31H    2.488300       15.5990           0   -1.02800   1.30000
     14412 MEOH     59       MEOH     DO1      DRUD    -2.488300        0.4000           0   0.00000   0.00000
     14413 MEOH     59       MEOH     HO1      HDP1A    0.360000        1.0080           0   0.00000   0.00000
     14414 MEOH     59       MEOH     HO2      DUMH     0.000000        1.0080           0   0.00000   0.00000
     14415 MEOH     59       MEOH     H1A      HDA3B    0.080000        1.0080           0   0.00000   0.00000
     14416 MEOH     59       MEOH     H1B      HDA3B    0.080000        1.0080           0   0.00000   0.00000
     14417 MEOH     59       MEOH     H1C      HDA3B    0.080000        1.0080           0   0.00000   0.00000
     14418 MEOH     59       MEOH     LP1A     LPD     -0.230000        0.0000           -1   0.00000   0.00000
     14419 MEOH     59       MEOH     LP1B     LPD     -0.230000        0.0000           -1   0.00000   0.00000
     14420 MEOH     60       MEOH     C1       CD33B    2.314100       11.6110           0   -1.00000   1.30000
     14421 MEOH     60       MEOH     DC1      DRUD    -2.454100        0.4000           0   0.00000   0.00000
     14422 MEOH     60       MEOH     O1       OD31H    2.488300       15.5990           0   -1.02800   1.30000
     14423 MEOH     60       MEOH     DO1      DRUD    -2.488300        0.4000           0   0.00000   0.00000
     14424 MEOH     60       MEOH     HO1      HDP1A    0.360000        1.0080           0   0.00000   0.00000
     14425 MEOH     60       MEOH     HO2      DUMH     0.000000        1.0080           0   0.00000   0.00000
     14426 MEOH     60       MEOH     H1A      HDA3B    0.080000        1.0080           0   0.00000   0.00000
     14427 MEOH     60       MEOH     H1B      HDA3B    0.080000        1.0080           0   0.00000   0.00000
     14428 MEOH     60       MEOH     H1C      HDA3B    0.080000        1.0080           0   0.00000   0.00000
     14429 MEOH     60       MEOH     LP1A     LPD     -0.230000        0.0000           -1   0.00000   0.00000
     14430 MEOH     60       MEOH     LP1B     LPD     -0.230000        0.0000           -1   0.00000   0.00000
     14431 MEOH     61       MEOH     C1       CD33B    2.314100       11.6110           0   -1.00000   1.30000
     14432 MEOH     61       MEOH     DC1      DRUD    -2.454100        0.4000           0   0.00000   0.00000
     14433 MEOH     61       MEOH     O1       OD31H    2.488300       15.5990           0   -1.02800   1.30000
     14434 MEOH     61       MEOH     DO1      DRUD    -2.488300        0.4000           0   0.00000   0.00000
     14435 MEOH     61       MEOH     HO1      HDP1A    0.360000        1.0080           0   0.00000   0.00000
     14436 MEOH     61       MEOH     HO2      DUMH     0.000000        1.0080           0   0.00000   0.00000
     14437 MEOH     61       MEOH     H1A      HDA3B    0.080000        1.0080           0   0.00000   0.00000
     14438 MEOH     61       MEOH     H1B      HDA3B    0.080000        1.0080           0   0.00000   0.00000
     14439 MEOH     61       MEOH     H1C      HDA3B    0.080000        1.0080           0   0.00000   0.00000
     14440 MEOH     61       MEOH     LP1A     LPD     -0.230000        0.0000           -1   0.00000   0.00000
     14441 MEOH     61       MEOH     LP1B     LPD     -0.230000        0.0000           -1   0.00000   0.00000
     14442 MEOH     62       MEOH     C1       CD33B    2.314100       11.6110           0   -1.00000   1.30000
     14443 MEOH     62       MEOH     DC1      DRUD    -2.454100        0.4000           0   0.00000   0.00000
     14444 MEOH     62       MEOH     O1       OD31H    2.488300       15.5990           0   -1.02800   1.30000
     14445 MEOH     62       MEOH     DO1      DRUD    -2.488300        0.4000           0   0.00000   0.00000
     14446 MEOH     62       MEOH     HO1      HDP1A    0.360000        1.0080           0   0.00000   0.00000
     14447 MEOH     62       MEOH     HO2      DUMH     0.000000        1.0080           0   0.00000   0.00000
     14448 MEOH     62       MEOH     H1A      HDA3B    0.080000        1.0080           0   0.00000   0.00000
     14449 MEOH     62       MEOH     H1B      HDA3B    0.080000        1.0080           0   0.00000   0.00000
     14450 MEOH     62       MEOH     H1C      HDA3B    0.080000        1.0080           0   0.00000   0.00000
     14451 MEOH     62       MEOH     LP1A     LPD     -0.230000        0.0000           -1   0.00000   0.00000
     14452 MEOH     62       MEOH     LP1B     LPD     -0.230000        0.0000           -1   0.00000   0.00000
     14453 MEOH     63       MEOH     C1       CD33B    2.314100       11.6110           0   -1.00000   1.30000
     14454 MEOH     63       MEOH     DC1      DRUD    -2.454100        0.4000           0   0.00000   0.00000
     14455 MEOH     63       MEOH     O1       OD31H    2.488300       15.5990           0   -1.02800   1.30000
     14456 MEOH     63       MEOH     DO1      DRUD    -2.488300        0.4000           0   0.00000   0.00000
     14457 MEOH     63       MEOH     HO1      HDP1A    0.360000        1.0080           0   0.00000   0.00000
     14458 MEOH     63       MEOH     HO2      DUMH     0.000000        1.0080           0   0.00000   0.00000
     14459 MEOH     63       MEOH     H1A      HDA3B    0.080000        1.0080           0   0.00000   0.00000
     14460 MEOH     63       MEOH     H1B      HDA3B    0.080000        1.0080           0   0.00000   0.00000
     14461 MEOH     63       MEOH     H1C      HDA3B    0.080000        1.0080           0   0.00000   0.00000
     14462 MEOH     63       MEOH     LP1A     LPD     -0.230000        0.0000           -1   0.00000   0.00000
     14463 MEOH     63       MEOH     LP1B     LPD     -0.230000        0.0000           -1   0.00000   0.00000
     14464 MEOH     64       MEOH     C1       CD33B    2.314100       11.6110           0   -1.00000   1.30000
     14465 MEOH     64       MEOH     DC1      DRUD    -2.454100        0.4000           0   0.00000   0.00000
     14466 MEOH     64       MEOH     O1       OD31H    2.488300       15.5990           0   -1.02800   1.30000
     14467 MEOH     64       MEOH     DO1      DRUD    -2.488300        0.4000           0   0.00000   0.00000
     14468 MEOH     64       MEOH     HO1      HDP1A    0.360000        1.0080           0   0.00000   0.00000
     14469 MEOH     64       MEOH     HO2      DUMH     0.000000        1.0080           0   0.00000   0.00000
     14470 MEOH     64       MEOH     H1A      HDA3B    0.080000        1.0080           0   0.00000   0.00000
     14471 MEOH     64       MEOH     H1B      HDA3B    0.080000        1.0080           0   0.00000   0.00000
     14472 MEOH     64       MEOH     H1C      HDA3B    0.080000        1.0080           0   0.00000   0.00000
     14473 MEOH     64       MEOH     LP1A     LPD     -0.230000        0.0000           -1   0.00000   0.00000
     14474 MEOH     64       MEOH     LP1B     LPD     -0.230000        0.0000           -1   0.00000   0.00000
     14475 MEOH     65       MEOH     C1       CD33B    2.314100       11.6110           0   -1.00000   1.30000
     14476 MEOH     65       MEOH     DC1      DRUD    -2.454100        0.4000           0   0.00000   0.00000
     14477 MEOH     65       MEOH     O1       OD31H    2.488300       15.5990           0   -1.02800   1.30000
     14478 MEOH     65       MEOH     DO1      DRUD    -2.488300        0.4000           0   0.00000   0.00000
     14479 MEOH     65       MEOH     HO1      HDP1A    0.360000        1.0080           0   0.00000   0.00000
     14480 MEOH     65       MEOH     HO2      DUMH     0.000000        1.0080           0   0.00000   0.00000
     14481 MEOH     65       MEOH     H1A      HDA3B    0.080000        1.0080           0   0.00000   0.00000
     14482 MEOH     65       MEOH     H1B      HDA3B    0.080000        1.0080           0   0.00000   0.00000
     14483 MEOH     65       MEOH     H1C      HDA3B    0.080000        1.0080           0   0.00000   0.00000
     14484 MEOH     65       MEOH     LP1A     LPD     -0.230000        0.0000           -1   0.00000   0.00000
     14485 MEOH     65       MEOH     LP1B     LPD     -0.230000        0.0000           -1   0.00000   0.00000
     14486 MEOH     66       MEOH     C1       CD33B    2.314100       11.6110           0   -1.00000   1.30000
     14487 MEOH     66       MEOH     DC1      DRUD    -2.454100        0.4000           0   0.00000   0.00000
     14488 MEOH     66       MEOH     O1       OD31H    2.488300       15.5990           0   -1.02800   1.30000
     14489 MEOH     66       MEOH     DO1      DRUD    -2.488300        0.4000           0   0.00000   0.00000
     14490 MEOH     66       MEOH     HO1      HDP1A    0.360000        1.0080           0   0.00000   0.00000
     14491 MEOH     66       MEOH     HO2      DUMH     0.000000        1.0080           0   0.00000   0.00000
     14492 MEOH     66       MEOH     H1A      HDA3B    0.080000        1.0080           0   0.00000   0.00000
     14493 MEOH     66       MEOH     H1B      HDA3B    0.080000        1.0080           0   0.00000   0.00000
     14494 MEOH     66       MEOH     H1C      HDA3B    0.080000        1.0080           0   0.00000   0.00000
     14495 MEOH     66       MEOH     LP1A     LPD     -0.230000        0.0000           -1   0.00000   0.00000
     14496 MEOH     66       MEOH     LP1B     LPD     -0.230000        0.0000           -1   0.00000   0.00000
     14497 MEOH     67       MEOH     C1       CD33B    2.314100       11.6110           0   -1.00000   1.30000
     14498 MEOH     67       MEOH     DC1      DRUD    -2.454100        0.4000           0   0.00000   0.00000
     14499 MEOH     67       MEOH     O1       OD31H    2.488300       15.5990           0   -1.02800   1.30000
     14500 MEOH     67       MEOH     DO1      DRUD    -2.488300        0.4000           0   0.00000   0.00000
     14501 MEOH     67       MEOH     HO1      HDP1A    0.360000        1.0080           0   0.00000   0.00000
     14502 MEOH     67       MEOH     HO2      DUMH     0.000000        1.0080           0   0.00000   0.00000
     14503 MEOH     67       MEOH     H1A      HDA3B    0.080000        1.0080           0   0.00000   0.00000
     14504 MEOH     67       MEOH     H1B      HDA3B    0.080000        1.0080           0   0.00000   0.00000
     14505 MEOH     67       MEOH     H1C      HDA3B    0.080000        1.0080           0   0.00000   0.00000
     14506 MEOH     67       MEOH     LP1A     LPD     -0.230000        0.0000           -1   0.00000   0.00000
     14507 MEOH     67       MEOH     LP1B     LPD     -0.230000        0.0000           -1   0.00000   0.00000
     14508 MEOH     68       MEOH     C1       CD33B    2.314100       11.6110           0   -1.00000   1.30000
     14509 MEOH     68       MEOH     DC1      DRUD    -2.454100        0.4000           0   0.00000   0.00000
     14510 MEOH     68       MEOH     O1       OD31H    2.488300       15.5990           0   -1.02800   1.30000
     14511 MEOH     68       MEOH     DO1      DRUD    -2.488300        0.4000           0   0.00000   0.00000
     14512 MEOH     68       MEOH     HO1      HDP1A    0.360000        1.0080           0   0.00000   0.00000
     14513 MEOH     68       MEOH     HO2      DUMH     0.000000        1.0080           0   0.00000   0.00000
     14514 MEOH     68       MEOH     H1A      HDA3B    0.080000        1.0080           0   0.00000   0.00000
     14515 MEOH     68       MEOH     H1B      HDA3B    0.080000        1.0080           0   0.00000   0.00000
     14516 MEOH     68       MEOH     H1C      HDA3B    0.080000        1.0080           0   0.00000   0.00000
     14517 MEOH     68       MEOH     LP1A     LPD     -0.230000        0.0000           -1   0.00000   0.00000
     14518 MEOH     68       MEOH     LP1B     LPD     -0.230000        0.0000           -1   0.00000   0.00000
     14519 MEOH     69       MEOH     C1       CD33B    2.314100       11.6110           0   -1.00000   1.30000
     14520 MEOH     69       MEOH     DC1      DRUD    -2.454100        0.4000           0   0.00000   0.00000
     14521 MEOH     69       MEOH     O1       OD31H    2.488300       15.5990           0   -1.02800   1.30000
     14522 MEOH     69       MEOH     DO1      DRUD    -2.488300        0.4000           0   0.00000   0.00000
     14523 MEOH     69       MEOH     HO1      HDP1A    0.360000        1.0080           0   0.00000   0.00000
     14524 MEOH     69       MEOH     HO2      DUMH     0.000000        1.0080           0   0.00000   0.00000
     14525 MEOH     69       MEOH     H1A      HDA3B    0.080000        1.0080           0   0.00000   0.00000
     14526 MEOH     69       MEOH     H1B      HDA3B    0.080000        1.0080           0   0.00000   0.00000
     14527 MEOH     69       MEOH     H1C      HDA3B    0.080000        1.0080           0   0.00000   0.00000
     14528 MEOH     69       MEOH     LP1A     LPD     -0.230000        0.0000           -1   0.00000   0.00000
     14529 MEOH     69       MEOH     LP1B     LPD     -0.230000        0.0000           -1   0.00000   0.00000
     14530 MEOH     70       MEOH     C1       CD33B    2.314100       11.6110           0   -1.00000   1.30000
     14531 MEOH     70       MEOH     DC1      DRUD    -2.454100        0.4000           0   0.00000   0.00000
     14532 MEOH     70       MEOH     O1       OD31H    2.488300       15.5990           0   -1.02800   1.30000
     14533 MEOH     70       MEOH     DO1      DRUD    -2.488300        0.4000           0   0.00000   0.00000
     14534 MEOH     70       MEOH     HO1      HDP1A    0.360000        1.0080           0   0.00000   0.00000
     14535 MEOH     70       MEOH     HO2      DUMH     0.000000        1.0080           0   0.00000   0.00000
     14536 MEOH     70       MEOH     H1A      HDA3B    0.080000        1.0080           0   0.00000   0.00000
     14537 MEOH     70       MEOH     H1B      HDA3B    0.080000        1.0080           0   0.00000   0.00000
     14538 MEOH     70       MEOH     H1C      HDA3B    0.080000        1.0080           0   0.00000   0.00000
     14539 MEOH     70       MEOH     LP1A     LPD     -0.230000        0.0000           -1   0.00000   0.00000
     14540 MEOH     70       MEOH     LP1B     LPD     -0.230000        0.0000           -1   0.00000   0.00000
     14541 MEOH     71       MEOH     C1       CD33B    2.314100       11.6110           0   -1.00000   1.30000
     14542 MEOH     71       MEOH     DC1      DRUD    -2.454100        0.4000           0   0.00000   0.00000
     14543 MEOH     71       MEOH     O1       OD31H    2.488300       15.5990           0   -1.02800   1.30000
     14544 MEOH     71       MEOH     DO1      DRUD    -2.488300        0.4000           0   0.00000   0.00000
     14545 MEOH     71       MEOH     HO1      HDP1A    0.360000        1.0080           0   0.00000   0.00000
     14546 MEOH     71       MEOH     HO2      DUMH     0.000000        1.0080           0   0.00000   0.00000
     14547 MEOH     71       MEOH     H1A      HDA3B    0.080000        1.0080           0   0.00000   0.00000
     14548 MEOH     71       MEOH     H1B      HDA3B    0.080000        1.0080           0   0.00000   0.00000
     14549 MEOH     71       MEOH     H1C      HDA3B    0.080000        1.0080           0   0.00000   0.00000
     14550 MEOH     71       MEOH     LP1A     LPD     -0.230000        0.0000           -1   0.00000   0.00000
     14551 MEOH     71       MEOH     LP1B     LPD     -0.230000        0.0000           -1   0.00000   0.00000
     14552 MEOH     72       MEOH     C1       CD33B    2.314100       11.6110           0   -1.00000   1.30000
     14553 MEOH     72       MEOH     DC1      DRUD    -2.454100        0.4000           0   0.00000   0.00000
     14554 MEOH     72       MEOH     O1       OD31H    2.488300       15.5990           0   -1.02800   1.30000
     14555 MEOH     72       MEOH     DO1      DRUD    -2.488300        0.4000           0   0.00000   0.00000
     14556 MEOH     72       MEOH     HO1      HDP1A    0.360000        1.0080           0   0.00000   0.00000
     14557 MEOH     72       MEOH     HO2      DUMH     0.000000        1.0080           0   0.00000   0.00000
     14558 MEOH     72       MEOH     H1A      HDA3B    0.080000        1.0080           0   0.00000   0.00000
     14559 MEOH     72       MEOH     H1B      HDA3B    0.080000        1.0080           0   0.00000   0.00000
     14560 MEOH     72       MEOH     H1C      HDA3B    0.080000        1.0080           0   0.00000   0.00000
     14561 MEOH     72       MEOH     LP1A     LPD     -0.230000        0.0000           -1   0.00000   0.00000
     14562 MEOH     72       MEOH     LP1B     LPD     -0.230000        0.0000           -1   0.00000   0.00000
     14563 MEOH     73       MEOH     C1       CD33B    2.314100       11.6110           0   -1.00000   1.30000
     14564 MEOH     73       MEOH     DC1      DRUD    -2.454100        0.4000           0   0.00000   0.00000
     14565 MEOH     73       MEOH     O1       OD31H    2.488300       15.5990           0   -1.02800   1.30000
     14566 MEOH     73       MEOH     DO1      DRUD    -2.488300        0.4000           0   0.00000   0.00000
     14567 MEOH     73       MEOH     HO1      HDP1A    0.360000        1.0080           0   0.00000   0.00000
     14568 MEOH     73       MEOH     HO2      DUMH     0.000000        1.0080           0   0.00000   0.00000
     14569 MEOH     73       MEOH     H1A      HDA3B    0.080000        1.0080           0   0.00000   0.00000
     14570 MEOH     73       MEOH     H1B      HDA3B    0.080000        1.0080           0   0.00000   0.00000
     14571 MEOH     73       MEOH     H1C      HDA3B    0.080000        1.0080           0   0.00000   0.00000
     14572 MEOH     73       MEOH     LP1A     LPD     -0.230000        0.0000           -1   0.00000   0.00000
     14573 MEOH     73       MEOH     LP1B     LPD     -0.230000        0.0000           -1   0.00000   0.00000
     14574 MEOH     74       MEOH     C1       CD33B    2.314100       11.6110           0   -1.00000   1.30000
     14575 MEOH     74       MEOH     DC1      DRUD    -2.454100        0.4000           0   0.00000   0.00000
     14576 MEOH     74       MEOH     O1       OD31H    2.488300       15.5990           0   -1.02800   1.30000
     14577 MEOH     74       MEOH     DO1      DRUD    -2.488300        0.4000           0   0.00000   0.00000
     14578 MEOH     74       MEOH     HO1      HDP1A    0.360000        1.0080           0   0.00000   0.00000
     14579 MEOH     74       MEOH     HO2      DUMH     0.000000        1.0080           0   0.00000   0.00000
     14580 MEOH     74       MEOH     H1A      HDA3B    0.080000        1.0080           0   0.00000   0.00000
     14581 MEOH     74       MEOH     H1B      HDA3B    0.080000        1.0080           0   0.00000   0.00000
     14582 MEOH     74       MEOH     H1C      HDA3B    0.080000        1.0080           0   0.00000   0.00000
     14583 MEOH     74       MEOH     LP1A     LPD     -0.230000        0.0000           -1   0.00000   0.00000
     14584 MEOH     74       MEOH     LP1B     LPD     -0.230000        0.0000           -1   0.00000   0.00000
     14585 MEOH     75       MEOH     C1       CD33B    2.314100       11.6110           0   -1.00000   1.30000
     14586 MEOH     75       MEOH     DC1      DRUD    -2.454100        0.4000           0   0.00000   0.00000
     14587 MEOH     75       MEOH     O1       OD31H    2.488300       15.5990           0   -1.02800   1.30000
     14588 MEOH     75       MEOH     DO1      DRUD    -2.488300        0.4000           0   0.00000   0.00000
     14589 MEOH     75       MEOH     HO1      HDP1A    0.360000        1.0080           0   0.00000   0.00000
     14590 MEOH     75       MEOH     HO2      DUMH     0.000000        1.0080           0   0.00000   0.00000
     14591 MEOH     75       MEOH     H1A      HDA3B    0.080000        1.0080           0   0.00000   0.00000
     14592 MEOH     75       MEOH     H1B      HDA3B    0.080000        1.0080           0   0.00000   0.00000
     14593 MEOH     75       MEOH     H1C      HDA3B    0.080000        1.0080           0   0.00000   0.00000
     14594 MEOH     75       MEOH     LP1A     LPD     -0.230000        0.0000           -1   0.00000   0.00000
     14595 MEOH     75       MEOH     LP1B     LPD     -0.230000        0.0000           -1   0.00000   0.00000
     14596 MEOH     76       MEOH     C1       CD33B    2.314100       11.6110           0   -1.00000   1.30000
     14597 MEOH     76       MEOH     DC1      DRUD    -2.454100        0.4000           0   0.00000   0.00000
     14598 MEOH     76       MEOH     O1       OD31H    2.488300       15.5990           0   -1.02800   1.30000
     14599 MEOH     76       MEOH     DO1      DRUD    -2.488300        0.4000           0   0.00000   0.00000
     14600 MEOH     76       MEOH     HO1      HDP1A    0.360000        1.0080           0   0.00000   0.00000
     14601 MEOH     76       MEOH     HO2      DUMH     0.000000        1.0080           0   0.00000   0.00000
     14602 MEOH     76       MEOH     H1A      HDA3B    0.080000        1.0080           0   0.00000   0.00000
     14603 MEOH     76       MEOH     H1B      HDA3B    0.080000        1.0080           0   0.00000   0.00000
     14604 MEOH     76       MEOH     H1C      HDA3B    0.080000        1.0080           0   0.00000   0.00000
     14605 MEOH     76       MEOH     LP1A     LPD     -0.230000        0.0000           -1   0.00000   0.00000
     14606 MEOH     76       MEOH     LP1B     LPD     -0.230000        0.0000           -1   0.00000   0.00000
     14607 MEOH     77       MEOH     C1       CD33B    2.314100       11.6110           0   -1.00000   1.30000
     14608 MEOH     77       MEOH     DC1      DRUD    -2.454100        0.4000           0   0.00000   0.00000
     14609 MEOH     77       MEOH     O1       OD31H    2.488300       15.5990           0   -1.02800   1.30000
     14610 MEOH     77       MEOH     DO1      DRUD    -2.488300        0.4000           0   0.00000   0.00000
     14611 MEOH     77       MEOH     HO1      HDP1A    0.360000        1.0080           0   0.00000   0.00000
     14612 MEOH     77       MEOH     HO2      DUMH     0.000000        1.0080           0   0.00000   0.00000
     14613 MEOH     77       MEOH     H1A      HDA3B    0.080000        1.0080           0   0.00000   0.00000
     14614 MEOH     77       MEOH     H1B      HDA3B    0.080000        1.0080           0   0.00000   0.00000
     14615 MEOH     77       MEOH     H1C      HDA3B    0.080000        1.0080           0   0.00000   0.00000
     14616 MEOH     77       MEOH     LP1A     LPD     -0.230000        0.0000           -1   0.00000   0.00000
     14617 MEOH     77       MEOH     LP1B     LPD     -0.230000        0.0000           -1   0.00000   0.00000
     14618 MEOH     78       MEOH     C1       CD33B    2.314100       11.6110           0   -1.00000   1.30000
     14619 MEOH     78       MEOH     DC1      DRUD    -2.454100        0.4000           0   0.00000   0.00000
     14620 MEOH     78       MEOH     O1       OD31H    2.488300       15.5990           0   -1.02800   1.30000
     14621 MEOH     78       MEOH     DO1      DRUD    -2.488300        0.4000           0   0.00000   0.00000
     14622 MEOH     78       MEOH     HO1      HDP1A    0.360000        1.0080           0   0.00000   0.00000
     14623 MEOH     78       MEOH     HO2      DUMH     0.000000        1.0080           0   0.00000   0.00000
     14624 MEOH     78       MEOH     H1A      HDA3B    0.080000        1.0080           0   0.00000   0.00000
     14625 MEOH     78       MEOH     H1B      HDA3B    0.080000        1.0080           0   0.00000   0.00000
     14626 MEOH     78       MEOH     H1C      HDA3B    0.080000        1.0080           0   0.00000   0.00000
     14627 MEOH     78       MEOH     LP1A     LPD     -0.230000        0.0000           -1   0.00000   0.00000
     14628 MEOH     78       MEOH     LP1B     LPD     -0.230000        0.0000           -1   0.00000   0.00000
     14629 MEOH     79       MEOH     C1       CD33B    2.314100       11.6110           0   -1.00000   1.30000
     14630 MEOH     79       MEOH     DC1      DRUD    -2.454100        0.4000           0   0.00000   0.00000
     14631 MEOH     79       MEOH     O1       OD31H    2.488300       15.5990           0   -1.02800   1.30000
     14632 MEOH     79       MEOH     DO1      DRUD    -2.488300        0.4000           0   0.00000   0.00000
     14633 MEOH     79       MEOH     HO1      HDP1A    0.360000        1.0080           0   0.00000   0.00000
     14634 MEOH     79       MEOH     HO2      DUMH     0.000000        1.0080           0   0.00000   0.00000
     14635 MEOH     79       MEOH     H1A      HDA3B    0.080000        1.0080           0   0.00000   0.00000
     14636 MEOH     79       MEOH     H1B      HDA3B    0.080000        1.0080           0   0.00000   0.00000
     14637 MEOH     79       MEOH     H1C      HDA3B    0.080000        1.0080           0   0.00000   0.00000
     14638 MEOH     79       MEOH     LP1A     LPD     -0.230000        0.0000           -1   0.00000   0.00000
     14639 MEOH     79       MEOH     LP1B     LPD     -0.230000        0.0000           -1   0.00000   0.00000
     14640 MEOH     80       MEOH     C1       CD33B    2.314100       11.6110           0   -1.00000   1.30000
     14641 MEOH     80       MEOH     DC1      DRUD    -2.454100        0.4000           0   0.00000   0.00000
     14642 MEOH     80       MEOH     O1       OD31H    2.488300       15.5990           0   -1.02800   1.30000
     14643 MEOH     80       MEOH     DO1      DRUD    -2.488300        0.4000           0   0.00000   0.00000
     14644 MEOH     80       MEOH     HO1      HDP1A    0.360000        1.0080           0   0.00000   0.00000
     14645 MEOH     80       MEOH     HO2      DUMH     0.000000        1.0080           0   0.00000   0.00000
     14646 MEOH     80       MEOH     H1A      HDA3B    0.080000        1.0080           0   0.00000   0.00000
     14647 MEOH     80       MEOH     H1B      HDA3B    0.080000        1.0080           0   0.00000   0.00000
     14648 MEOH     80       MEOH     H1C      HDA3B    0.080000        1.0080           0   0.00000   0.00000
     14649 MEOH     80       MEOH     LP1A     LPD     -0.230000        0.0000           -1   0.00000   0.00000
     14650 MEOH     80       MEOH     LP1B     LPD     -0.230000        0.0000           -1   0.00000   0.00000
     14651 MEOH     81       MEOH     C1       CD33B    2.314100       11.6110           0   -1.00000   1.30000
     14652 MEOH     81       MEOH     DC1      DRUD    -2.454100        0.4000           0   0.00000   0.00000
     14653 MEOH     81       MEOH     O1       OD31H    2.488300       15.5990           0   -1.02800   1.30000
     14654 MEOH     81       MEOH     DO1      DRUD    -2.488300        0.4000           0   0.00000   0.00000
     14655 MEOH     81       MEOH     HO1      HDP1A    0.360000        1.0080           0   0.00000   0.00000
     14656 MEOH     81       MEOH     HO2      DUMH     0.000000        1.0080           0   0.00000   0.00000
     14657 MEOH     81       MEOH     H1A      HDA3B    0.080000        1.0080           0   0.00000   0.00000
     14658 MEOH     81       MEOH     H1B      HDA3B    0.080000        1.0080           0   0.00000   0.00000
     14659 MEOH     81       MEOH     H1C      HDA3B    0.080000        1.0080           0   0.00000   0.00000
     14660 MEOH     81       MEOH     LP1A     LPD     -0.230000        0.0000           -1   0.00000   0.00000
     14661 MEOH     81       MEOH     LP1B     LPD     -0.230000        0.0000           -1   0.00000   0.00000
     14662 MEOH     82       MEOH     C1       CD33B    2.314100       11.6110           0   -1.00000   1.30000
     14663 MEOH     82       MEOH     DC1      DRUD    -2.454100        0.4000           0   0.00000   0.00000
     14664 MEOH     82       MEOH     O1       OD31H    2.488300       15.5990           0   -1.02800   1.30000
     14665 MEOH     82       MEOH     DO1      DRUD    -2.488300        0.4000           0   0.00000   0.00000
     14666 MEOH     82       MEOH     HO1      HDP1A    0.360000        1.0080           0   0.00000   0.00000
     14667 MEOH     82       MEOH     HO2      DUMH     0.000000        1.0080           0   0.00000   0.00000
     14668 MEOH     82       MEOH     H1A      HDA3B    0.080000        1.0080           0   0.00000   0.00000
     14669 MEOH     82       MEOH     H1B      HDA3B    0.080000        1.0080           0   0.00000   0.00000
     14670 MEOH     82       MEOH     H1C      HDA3B    0.080000        1.0080           0   0.00000   0.00000
     14671 MEOH     82       MEOH     LP1A     LPD     -0.230000        0.0000           -1   0.00000   0.00000
     14672 MEOH     82       MEOH     LP1B     LPD     -0.230000        0.0000           -1   0.00000   0.00000
     14673 MEOH     83       MEOH     C1       CD33B    2.314100       11.6110           0   -1.00000   1.30000
     14674 MEOH     83       MEOH     DC1      DRUD    -2.454100        0.4000           0   0.00000   0.00000
     14675 MEOH     83       MEOH     O1       OD31H    2.488300       15.5990           0   -1.02800   1.30000
     14676 MEOH     83       MEOH     DO1      DRUD    -2.488300        0.4000           0   0.00000   0.00000
     14677 MEOH     83       MEOH     HO1      HDP1A    0.360000        1.0080           0   0.00000   0.00000
     14678 MEOH     83       MEOH     HO2      DUMH     0.000000        1.0080           0   0.00000   0.00000
     14679 MEOH     83       MEOH     H1A      HDA3B    0.080000        1.0080           0   0.00000   0.00000
     14680 MEOH     83       MEOH     H1B      HDA3B    0.080000        1.0080           0   0.00000   0.00000
     14681 MEOH     83       MEOH     H1C      HDA3B    0.080000        1.0080           0   0.00000   0.00000
     14682 MEOH     83       MEOH     LP1A     LPD     -0.230000        0.0000           -1   0.00000   0.00000
     14683 MEOH     83       MEOH     LP1B     LPD     -0.230000        0.0000           -1   0.00000   0.00000
     14684 MEOH     84       MEOH     C1       CD33B    2.314100       11.6110           0   -1.00000   1.30000
     14685 MEOH     84       MEOH     DC1      DRUD    -2.454100        0.4000           0   0.00000   0.00000
     14686 MEOH     84       MEOH     O1       OD31H    2.488300       15.5990           0   -1.02800   1.30000
     14687 MEOH     84       MEOH     DO1      DRUD    -2.488300        0.4000           0   0.00000   0.00000
     14688 MEOH     84       MEOH     HO1      HDP1A    0.360000        1.0080           0   0.00000   0.00000
     14689 MEOH     84       MEOH     HO2      DUMH     0.000000        1.0080           0   0.00000   0.00000
     14690 MEOH     84       MEOH     H1A      HDA3B    0.080000        1.0080           0   0.00000   0.00000
     14691 MEOH     84       MEOH     H1B      HDA3B    0.080000        1.0080           0   0.00000   0.00000
     14692 MEOH     84       MEOH     H1C      HDA3B    0.080000        1.0080           0   0.00000   0.00000
     14693 MEOH     84       MEOH     LP1A     LPD     -0.230000        0.0000           -1   0.00000   0.00000
     14694 MEOH     84       MEOH     LP1B     LPD     -0.230000        0.0000           -1   0.00000   0.00000
     14695 MEOH     85       MEOH     C1       CD33B    2.314100       11.6110           0   -1.00000   1.30000
     14696 MEOH     85       MEOH     DC1      DRUD    -2.454100        0.4000           0   0.00000   0.00000
     14697 MEOH     85       MEOH     O1       OD31H    2.488300       15.5990           0   -1.02800   1.30000
     14698 MEOH     85       MEOH     DO1      DRUD    -2.488300        0.4000           0   0.00000   0.00000
     14699 MEOH     85       MEOH     HO1      HDP1A    0.360000        1.0080           0   0.00000   0.00000
     14700 MEOH     85       MEOH     HO2      DUMH     0.000000        1.0080           0   0.00000   0.00000
     14701 MEOH     85       MEOH     H1A      HDA3B    0.080000        1.0080           0   0.00000   0.00000
     14702 MEOH     85       MEOH     H1B      HDA3B    0.080000        1.0080           0   0.00000   0.00000
     14703 MEOH     85       MEOH     H1C      HDA3B    0.080000        1.0080           0   0.00000   0.00000
     14704 MEOH     85       MEOH     LP1A     LPD     -0.230000        0.0000           -1   0.00000   0.00000
     14705 MEOH     85       MEOH     LP1B     LPD     -0.230000        0.0000           -1   0.00000   0.00000
     14706 MEOH     86       MEOH     C1       CD33B    2.314100       11.6110           0   -1.00000   1.30000
     14707 MEOH     86       MEOH     DC1      DRUD    -2.454100        0.4000           0   0.00000   0.00000
     14708 MEOH     86       MEOH     O1       OD31H    2.488300       15.5990           0   -1.02800   1.30000
     14709 MEOH     86       MEOH     DO1      DRUD    -2.488300        0.4000           0   0.00000   0.00000
     14710 MEOH     86       MEOH     HO1      HDP1A    0.360000        1.0080           0   0.00000   0.00000
     14711 MEOH     86       MEOH     HO2      DUMH     0.000000        1.0080           0   0.00000   0.00000
     14712 MEOH     86       MEOH     H1A      HDA3B    0.080000        1.0080           0   0.00000   0.00000
     14713 MEOH     86       MEOH     H1B      HDA3B    0.080000        1.0080           0   0.00000   0.00000
     14714 MEOH     86       MEOH     H1C      HDA3B    0.080000        1.0080           0   0.00000   0.00000
     14715 MEOH     86       MEOH     LP1A     LPD     -0.230000        0.0000           -1   0.00000   0.00000
     14716 MEOH     86       MEOH     LP1B     LPD     -0.230000        0.0000           -1   0.00000   0.00000
     14717 MEOH     87       MEOH     C1       CD33B    2.314100       11.6110           0   -1.00000   1.30000
     14718 MEOH     87       MEOH     DC1      DRUD    -2.454100        0.4000           0   0.00000   0.00000
     14719 MEOH     87       MEOH     O1       OD31H    2.488300       15.5990           0   -1.02800   1.30000
     14720 MEOH     87       MEOH     DO1      DRUD    -2.488300        0.4000           0   0.00000   0.00000
     14721 MEOH     87       MEOH     HO1      HDP1A    0.360000        1.0080           0   0.00000   0.00000
     14722 MEOH     87       MEOH     HO2      DUMH     0.000000        1.0080           0   0.00000   0.00000
     14723 MEOH     87       MEOH     H1A      HDA3B    0.080000        1.0080           0   0.00000   0.00000
     14724 MEOH     87       MEOH     H1B      HDA3B    0.080000        1.0080           0   0.00000   0.00000
     14725 MEOH     87       MEOH     H1C      HDA3B    0.080000        1.0080           0   0.00000   0.00000
     14726 MEOH     87       MEOH     LP1A     LPD     -0.230000        0.0000           -1   0.00000   0.00000
     14727 MEOH     87       MEOH     LP1B     LPD     -0.230000        0.0000           -1   0.00000   0.00000
     14728 MEOH     88       MEOH     C1       CD33B    2.314100       11.6110           0   -1.00000   1.30000
     14729 MEOH     88       MEOH     DC1      DRUD    -2.454100        0.4000           0   0.00000   0.00000
     14730 MEOH     88       MEOH     O1       OD31H    2.488300       15.5990           0   -1.02800   1.30000
     14731 MEOH     88       MEOH     DO1      DRUD    -2.488300        0.4000           0   0.00000   0.00000
     14732 MEOH     88       MEOH     HO1      HDP1A    0.360000        1.0080           0   0.00000   0.00000
     14733 MEOH     88       MEOH     HO2      DUMH     0.000000        1.0080           0   0.00000   0.00000
     14734 MEOH     88       MEOH     H1A      HDA3B    0.080000        1.0080           0   0.00000   0.00000
     14735 MEOH     88       MEOH     H1B      HDA3B    0.080000        1.0080           0   0.00000   0.00000
     14736 MEOH     88       MEOH     H1C      HDA3B    0.080000        1.0080           0   0.00000   0.00000
     14737 MEOH     88       MEOH     LP1A     LPD     -0.230000        0.0000           -1   0.00000   0.00000
     14738 MEOH     88       MEOH     LP1B     LPD     -0.230000        0.0000           -1   0.00000   0.00000
     14739 MEOH     89       MEOH     C1       CD33B    2.314100       11.6110           0   -1.00000   1.30000
     14740 MEOH     89       MEOH     DC1      DRUD    -2.454100        0.4000           0   0.00000   0.00000
     14741 MEOH     89       MEOH     O1       OD31H    2.488300       15.5990           0   -1.02800   1.30000
     14742 MEOH     89       MEOH     DO1      DRUD    -2.488300        0.4000           0   0.00000   0.00000
     14743 MEOH     89       MEOH     HO1      HDP1A    0.360000        1.0080           0   0.00000   0.00000
     14744 MEOH     89       MEOH     HO2      DUMH     0.000000        1.0080           0   0.00000   0.00000
     14745 MEOH     89       MEOH     H1A      HDA3B    0.080000        1.0080           0   0.00000   0.00000
     14746 MEOH     89       MEOH     H1B      HDA3B    0.080000        1.0080           0   0.00000   0.00000
     14747 MEOH     89       MEOH     H1C      HDA3B    0.080000        1.0080           0   0.00000   0.00000
     14748 MEOH     89       MEOH     LP1A     LPD     -0.230000        0.0000           -1   0.00000   0.00000
     14749 MEOH     89       MEOH     LP1B     LPD     -0.230000        0.0000           -1   0.00000   0.00000
     14750 MEOH     90       MEOH     C1       CD33B    2.314100       11.6110           0   -1.00000   1.30000
     14751 MEOH     90       MEOH     DC1      DRUD    -2.454100        0.4000           0   0.00000   0.00000
     14752 MEOH     90       MEOH     O1       OD31H    2.488300       15.5990           0   -1.02800   1.30000
     14753 MEOH     90       MEOH     DO1      DRUD    -2.488300        0.4000           0   0.00000   0.00000
     14754 MEOH     90       MEOH     HO1      HDP1A    0.360000        1.0080           0   0.00000   0.00000
     14755 MEOH     90       MEOH     HO2      DUMH     0.000000        1.0080           0   0.00000   0.00000
     14756 MEOH     90       MEOH     H1A      HDA3B    0.080000        1.0080           0   0.00000   0.00000
     14757 MEOH     90       MEOH     H1B      HDA3B    0.080000        1.0080           0   0.00000   0.00000
     14758 MEOH     90       MEOH     H1C      HDA3B    0.080000        1.0080           0   0.00000   0.00000
     14759 MEOH     90       MEOH     LP1A     LPD     -0.230000        0.0000           -1   0.00000   0.00000
     14760 MEOH     90       MEOH     LP1B     LPD     -0.230000        0.0000           -1   0.00000   0.00000
     14761 MEOH     91       MEOH     C1       CD33B    2.314100       11.6110           0   -1.00000   1.30000
     14762 MEOH     91       MEOH     DC1      DRUD    -2.454100        0.4000           0   0.00000   0.00000
     14763 MEOH     91       MEOH     O1       OD31H    2.488300       15.5990           0   -1.02800   1.30000
     14764 MEOH     91       MEOH     DO1      DRUD    -2.488300        0.4000           0   0.00000   0.00000
     14765 MEOH     91       MEOH     HO1      HDP1A    0.360000        1.0080           0   0.00000   0.00000
     14766 MEOH     91       MEOH     HO2      DUMH     0.000000        1.0080           0   0.00000   0.00000
     14767 MEOH     91       MEOH     H1A      HDA3B    0.080000        1.0080           0   0.00000   0.00000
     14768 MEOH     91       MEOH     H1B      HDA3B    0.080000        1.0080           0   0.00000   0.00000
     14769 MEOH     91       MEOH     H1C      HDA3B    0.080000        1.0080           0   0.00000   0.00000
     14770 MEOH     91       MEOH     LP1A     LPD     -0.230000        0.0000           -1   0.00000   0.00000
     14771 MEOH     91       MEOH     LP1B     LPD     -0.230000        0.0000           -1   0.00000   0.00000
     14772 MEOH     92       MEOH     C1       CD33B    2.314100       11.6110           0   -1.00000   1.30000
     14773 MEOH     92       MEOH     DC1      DRUD    -2.454100        0.4000           0   0.00000   0.00000
     14774 MEOH     92       MEOH     O1       OD31H    2.488300       15.5990           0   -1.02800   1.30000
     14775 MEOH     92       MEOH     DO1      DRUD    -2.488300        0.4000           0   0.00000   0.00000
     14776 MEOH     92       MEOH     HO1      HDP1A    0.360000        1.0080           0   0.00000   0.00000
     14777 MEOH     92       MEOH     HO2      DUMH     0.000000        1.0080           0   0.00000   0.00000
     14778 MEOH     92       MEOH     H1A      HDA3B    0.080000        1.0080           0   0.00000   0.00000
     14779 MEOH     92       MEOH     H1B      HDA3B    0.080000        1.0080           0   0.00000   0.00000
     14780 MEOH     92       MEOH     H1C      HDA3B    0.080000        1.0080           0   0.00000   0.00000
     14781 MEOH     92       MEOH     LP1A     LPD     -0.230000        0.0000           -1   0.00000   0.00000
     14782 MEOH     92       MEOH     LP1B     LPD     -0.230000        0.0000           -1   0.00000   0.00000
     14783 MEOH     93       MEOH     C1       CD33B    2.314100       11.6110           0   -1.00000   1.30000
     14784 MEOH     93       MEOH     DC1      DRUD    -2.454100        0.4000           0   0.00000   0.00000
     14785 MEOH     93       MEOH     O1       OD31H    2.488300       15.5990           0   -1.02800   1.30000
     14786 MEOH     93       MEOH     DO1      DRUD    -2.488300        0.4000           0   0.00000   0.00000
     14787 MEOH     93       MEOH     HO1      HDP1A    0.360000        1.0080           0   0.00000   0.00000
     14788 MEOH     93       MEOH     HO2      DUMH     0.000000        1.0080           0   0.00000   0.00000
     14789 MEOH     93       MEOH     H1A      HDA3B    0.080000        1.0080           0   0.00000   0.00000
     14790 MEOH     93       MEOH     H1B      HDA3B    0.080000        1.0080           0   0.00000   0.00000
     14791 MEOH     93       MEOH     H1C      HDA3B    0.080000        1.0080           0   0.00000   0.00000
     14792 MEOH     93       MEOH     LP1A     LPD     -0.230000        0.0000           -1   0.00000   0.00000
     14793 MEOH     93       MEOH     LP1B     LPD     -0.230000        0.0000           -1   0.00000   0.00000
     14794 MEOH     94       MEOH     C1       CD33B    2.314100       11.6110           0   -1.00000   1.30000
     14795 MEOH     94       MEOH     DC1      DRUD    -2.454100        0.4000           0   0.00000   0.00000
     14796 MEOH     94       MEOH     O1       OD31H    2.488300       15.5990           0   -1.02800   1.30000
     14797 MEOH     94       MEOH     DO1      DRUD    -2.488300        0.4000           0   0.00000   0.00000
     14798 MEOH     94       MEOH     HO1      HDP1A    0.360000        1.0080           0   0.00000   0.00000
     14799 MEOH     94       MEOH     HO2      DUMH     0.000000        1.0080           0   0.00000   0.00000
     14800 MEOH     94       MEOH     H1A      HDA3B    0.080000        1.0080           0   0.00000   0.00000
     14801 MEOH     94       MEOH     H1B      HDA3B    0.080000        1.0080           0   0.00000   0.00000
     14802 MEOH     94       MEOH     H1C      HDA3B    0.080000        1.0080           0   0.00000   0.00000
     14803 MEOH     94       MEOH     LP1A     LPD     -0.230000        0.0000           -1   0.00000   0.00000
     14804 MEOH     94       MEOH     LP1B     LPD     -0.230000        0.0000           -1   0.00000   0.00000
     14805 MEOH     95       MEOH     C1       CD33B    2.314100       11.6110           0   -1.00000   1.30000
     14806 MEOH     95       MEOH     DC1      DRUD    -2.454100        0.4000           0   0.00000   0.00000
     14807 MEOH     95       MEOH     O1       OD31H    2.488300       15.5990           0   -1.02800   1.30000
     14808 MEOH     95       MEOH     DO1      DRUD    -2.488300        0.4000           0   0.00000   0.00000
     14809 MEOH     95       MEOH     HO1      HDP1A    0.360000        1.0080           0   0.00000   0.00000
     14810 MEOH     95       MEOH     HO2      DUMH     0.000000        1.0080           0   0.00000   0.00000
     14811 MEOH     95       MEOH     H1A      HDA3B    0.080000        1.0080           0   0.00000   0.00000
     14812 MEOH     95       MEOH     H1B      HDA3B    0.080000        1.0080           0   0.00000   0.00000
     14813 MEOH     95       MEOH     H1C      HDA3B    0.080000        1.0080           0   0.00000   0.00000
     14814 MEOH     95       MEOH     LP1A     LPD     -0.230000        0.0000           -1   0.00000   0.00000
     14815 MEOH     95       MEOH     LP1B     LPD     -0.230000        0.0000           -1   0.00000   0.00000
     14816 MEOH     96       MEOH     C1       CD33B    2.314100       11.6110           0   -1.00000   1.30000
     14817 MEOH     96       MEOH     DC1      DRUD    -2.454100        0.4000           0   0.00000   0.00000
     14818 MEOH     96       MEOH     O1       OD31H    2.488300       15.5990           0   -1.02800   1.30000
     14819 MEOH     96       MEOH     DO1      DRUD    -2.488300        0.4000           0   0.00000   0.00000
     14820 MEOH     96       MEOH     HO1      HDP1A    0.360000        1.0080           0   0.00000   0.00000
     14821 MEOH     96       MEOH     HO2      DUMH     0.000000        1.0080           0   0.00000   0.00000
     14822 MEOH     96       MEOH     H1A      HDA3B    0.080000        1.0080           0   0.00000   0.00000
     14823 MEOH     96       MEOH     H1B      HDA3B    0.080000        1.0080           0   0.00000   0.00000
     14824 MEOH     96       MEOH     H1C      HDA3B    0.080000        1.0080           0   0.00000   0.00000
     14825 MEOH     96       MEOH     LP1A     LPD     -0.230000        0.0000           -1   0.00000   0.00000
     14826 MEOH     96       MEOH     LP1B     LPD     -0.230000        0.0000           -1   0.00000   0.00000
     14827 MEOH     97       MEOH     C1       CD33B    2.314100       11.6110           0   -1.00000   1.30000
     14828 MEOH     97       MEOH     DC1      DRUD    -2.454100        0.4000           0   0.00000   0.00000
     14829 MEOH     97       MEOH     O1       OD31H    2.488300       15.5990           0   -1.02800   1.30000
     14830 MEOH     97       MEOH     DO1      DRUD    -2.488300        0.4000           0   0.00000   0.00000
     14831 MEOH     97       MEOH     HO1      HDP1A    0.360000        1.0080           0   0.00000   0.00000
     14832 MEOH     97       MEOH     HO2      DUMH     0.000000        1.0080           0   0.00000   0.00000
     14833 MEOH     97       MEOH     H1A      HDA3B    0.080000        1.0080           0   0.00000   0.00000
     14834 MEOH     97       MEOH     H1B      HDA3B    0.080000        1.0080           0   0.00000   0.00000
     14835 MEOH     97       MEOH     H1C      HDA3B    0.080000        1.0080           0   0.00000   0.00000
     14836 MEOH     97       MEOH     LP1A     LPD     -0.230000        0.0000           -1   0.00000   0.00000
     14837 MEOH     97       MEOH     LP1B     LPD     -0.230000        0.0000           -1   0.00000   0.00000
     14838 MEOH     98       MEOH     C1       CD33B    2.314100       11.6110           0   -1.00000   1.30000
     14839 MEOH     98       MEOH     DC1      DRUD    -2.454100        0.4000           0   0.00000   0.00000
     14840 MEOH     98       MEOH     O1       OD31H    2.488300       15.5990           0   -1.02800   1.30000
     14841 MEOH     98       MEOH     DO1      DRUD    -2.488300        0.4000           0   0.00000   0.00000
     14842 MEOH     98       MEOH     HO1      HDP1A    0.360000        1.0080           0   0.00000   0.00000
     14843 MEOH     98       MEOH     HO2      DUMH     0.000000        1.0080           0   0.00000   0.00000
     14844 MEOH     98       MEOH     H1A      HDA3B    0.080000        1.0080           0   0.00000   0.00000
     14845 MEOH     98       MEOH     H1B      HDA3B    0.080000        1.0080           0   0.00000   0.00000
     14846 MEOH     98       MEOH     H1C      HDA3B    0.080000        1.0080           0   0.00000   0.00000
     14847 MEOH     98       MEOH     LP1A     LPD     -0.230000        0.0000           -1   0.00000   0.00000
     14848 MEOH     98       MEOH     LP1B     LPD     -0.230000        0.0000           -1   0.00000   0.00000
     14849 MEOH     99       MEOH     C1       CD33B    2.314100       11.6110           0   -1.00000   1.30000
     14850 MEOH     99       MEOH     DC1      DRUD    -2.454100        0.4000           0   0.00000   0.00000
     14851 MEOH     99       MEOH     O1       OD31H    2.488300       15.5990           0   -1.02800   1.30000
     14852 MEOH     99       MEOH     DO1      DRUD    -2.488300        0.4000           0   0.00000   0.00000
     14853 MEOH     99       MEOH     HO1      HDP1A    0.360000        1.0080           0   0.00000   0.00000
     14854 MEOH     99       MEOH     HO2      DUMH     0.000000        1.0080           0   0.00000   0.00000
     14855 MEOH     99       MEOH     H1A      HDA3B    0.080000        1.0080           0   0.00000   0.00000
     14856 MEOH     99       MEOH     H1B      HDA3B    0.080000        1.0080           0   0.00000   0.00000
     14857 MEOH     99       MEOH     H1C      HDA3B    0.080000        1.0080           0   0.00000   0.00000
     14858 MEOH     99       MEOH     LP1A     LPD     -0.230000        0.0000           -1   0.00000   0.00000
     14859 MEOH     99       MEOH     LP1B     LPD     -0.230000        0.0000           -1   0.00000   0.00000
     14860 MEOH     100      MEOH     C1       CD33B    2.314100       11.6110           0   -1.00000   1.30000
     14861 MEOH     100      MEOH     DC1      DRUD    -2.454100        0.4000           0   0.00000   0.00000
     14862 MEOH     100      MEOH     O1       OD31H    2.488300       15.5990           0   -1.02800   1.30000
     14863 MEOH     100      MEOH     DO1      DRUD    -2.488300        0.4000           0   0.00000   0.00000
     14864 MEOH     100      MEOH     HO1      HDP1A    0.360000        1.0080           0   0.00000   0.00000
     14865 MEOH     100      MEOH     HO2      DUMH     0.000000        1.0080           0   0.00000   0.00000
     14866 MEOH     100      MEOH     H1A      HDA3B    0.080000        1.0080           0   0.00000   0.00000
     14867 MEOH     100      MEOH     H1B      HDA3B    0.080000        1.0080           0   0.00000   0.00000
     14868 MEOH     100      MEOH     H1C      HDA3B    0.080000        1.0080           0   0.00000   0.00000
     14869 MEOH     100      MEOH     LP1A     LPD     -0.230000        0.0000           -1   0.00000   0.00000
     14870 MEOH     100      MEOH     LP1B     LPD     -0.230000        0.0000           -1   0.00000   0.00000
     14871 MEOH     101      MEOH     C1       CD33B    2.314100       11.6110           0   -1.00000   1.30000
     14872 MEOH     101      MEOH     DC1      DRUD    -2.454100        0.4000           0   0.00000   0.00000
     14873 MEOH     101      MEOH     O1       OD31H    2.488300       15.5990           0   -1.02800   1.30000
     14874 MEOH     101      MEOH     DO1      DRUD    -2.488300        0.4000           0   0.00000   0.00000
     14875 MEOH     101      MEOH     HO1      HDP1A    0.360000        1.0080           0   0.00000   0.00000
     14876 MEOH     101      MEOH     HO2      DUMH     0.000000        1.0080           0   0.00000   0.00000
     14877 MEOH     101      MEOH     H1A      HDA3B    0.080000        1.0080           0   0.00000   0.00000
     14878 MEOH     101      MEOH     H1B      HDA3B    0.080000        1.0080           0   0.00000   0.00000
     14879 MEOH     101      MEOH     H1C      HDA3B    0.080000        1.0080           0   0.00000   0.00000
     14880 MEOH     101      MEOH     LP1A     LPD     -0.230000        0.0000           -1   0.00000   0.00000
     14881 MEOH     101      MEOH     LP1B     LPD     -0.230000        0.0000           -1   0.00000   0.00000
     14882 MEOH     102      MEOH     C1       CD33B    2.314100       11.6110           0   -1.00000   1.30000
     14883 MEOH     102      MEOH     DC1      DRUD    -2.454100        0.4000           0   0.00000   0.00000
     14884 MEOH     102      MEOH     O1       OD31H    2.488300       15.5990           0   -1.02800   1.30000
     14885 MEOH     102      MEOH     DO1      DRUD    -2.488300        0.4000           0   0.00000   0.00000
     14886 MEOH     102      MEOH     HO1      HDP1A    0.360000        1.0080           0   0.00000   0.00000
     14887 MEOH     102      MEOH     HO2      DUMH     0.000000        1.0080           0   0.00000   0.00000
     14888 MEOH     102      MEOH     H1A      HDA3B    0.080000        1.0080           0   0.00000   0.00000
     14889 MEOH     102      MEOH     H1B      HDA3B    0.080000        1.0080           0   0.00000   0.00000
     14890 MEOH     102      MEOH     H1C      HDA3B    0.080000        1.0080           0   0.00000   0.00000
     14891 MEOH     102      MEOH     LP1A     LPD     -0.230000        0.0000           -1   0.00000   0.00000
     14892 MEOH     102      MEOH     LP1B     LPD     -0.230000        0.0000           -1   0.00000   0.00000
     14893 MEOH     103      MEOH     C1       CD33B    2.314100       11.6110           0   -1.00000   1.30000
     14894 MEOH     103      MEOH     DC1      DRUD    -2.454100        0.4000           0   0.00000   0.00000
     14895 MEOH     103      MEOH     O1       OD31H    2.488300       15.5990           0   -1.02800   1.30000
     14896 MEOH     103      MEOH     DO1      DRUD    -2.488300        0.4000           0   0.00000   0.00000
     14897 MEOH     103      MEOH     HO1      HDP1A    0.360000        1.0080           0   0.00000   0.00000
     14898 MEOH     103      MEOH     HO2      DUMH     0.000000        1.0080           0   0.00000   0.00000
     14899 MEOH     103      MEOH     H1A      HDA3B    0.080000        1.0080           0   0.00000   0.00000
     14900 MEOH     103      MEOH     H1B      HDA3B    0.080000        1.0080           0   0.00000   0.00000
     14901 MEOH     103      MEOH     H1C      HDA3B    0.080000        1.0080           0   0.00000   0.00000
     14902 MEOH     103      MEOH     LP1A     LPD     -0.230000        0.0000           -1   0.00000   0.00000
     14903 MEOH     103      MEOH     LP1B     LPD     -0.230000        0.0000           -1   0.00000   0.00000
     14904 MEOH     104      MEOH     C1       CD33B    2.314100       11.6110           0   -1.00000   1.30000
     14905 MEOH     104      MEOH     DC1      DRUD    -2.454100        0.4000           0   0.00000   0.00000
     14906 MEOH     104      MEOH     O1       OD31H    2.488300       15.5990           0   -1.02800   1.30000
     14907 MEOH     104      MEOH     DO1      DRUD    -2.488300        0.4000           0   0.00000   0.00000
     14908 MEOH     104      MEOH     HO1      HDP1A    0.360000        1.0080           0   0.00000   0.00000
     14909 MEOH     104      MEOH     HO2      DUMH     0.000000        1.0080           0   0.00000   0.00000
     14910 MEOH     104      MEOH     H1A      HDA3B    0.080000        1.0080           0   0.00000   0.00000
     14911 MEOH     104      MEOH     H1B      HDA3B    0.080000        1.0080           0   0.00000   0.00000
     14912 MEOH     104      MEOH     H1C      HDA3B    0.080000        1.0080           0   0.00000   0.00000
     14913 MEOH     104      MEOH     LP1A     LPD     -0.230000        0.0000           -1   0.00000   0.00000
     14914 MEOH     104      MEOH     LP1B     LPD     -0.230000        0.0000           -1   0.00000   0.00000
     14915 MEOH     105      MEOH     C1       CD33B    2.314100       11.6110           0   -1.00000   1.30000
     14916 MEOH     105      MEOH     DC1      DRUD    -2.454100        0.4000           0   0.00000   0.00000
     14917 MEOH     105      MEOH     O1       OD31H    2.488300       15.5990           0   -1.02800   1.30000
     14918 MEOH     105      MEOH     DO1      DRUD    -2.488300        0.4000           0   0.00000   0.00000
     14919 MEOH     105      MEOH     HO1      HDP1A    0.360000        1.0080           0   0.00000   0.00000
     14920 MEOH     105      MEOH     HO2      DUMH     0.000000        1.0080           0   0.00000   0.00000
     14921 MEOH     105      MEOH     H1A      HDA3B    0.080000        1.0080           0   0.00000   0.00000
     14922 MEOH     105      MEOH     H1B      HDA3B    0.080000        1.0080           0   0.00000   0.00000
     14923 MEOH     105      MEOH     H1C      HDA3B    0.080000        1.0080           0   0.00000   0.00000
     14924 MEOH     105      MEOH     LP1A     LPD     -0.230000        0.0000           -1   0.00000   0.00000
     14925 MEOH     105      MEOH     LP1B     LPD     -0.230000        0.0000           -1   0.00000   0.00000
     14926 MEOH     106      MEOH     C1       CD33B    2.314100       11.6110           0   -1.00000   1.30000
     14927 MEOH     106      MEOH     DC1      DRUD    -2.454100        0.4000           0   0.00000   0.00000
     14928 MEOH     106      MEOH     O1       OD31H    2.488300       15.5990           0   -1.02800   1.30000
     14929 MEOH     106      MEOH     DO1      DRUD    -2.488300        0.4000           0   0.00000   0.00000
     14930 MEOH     106      MEOH     HO1      HDP1A    0.360000        1.0080           0   0.00000   0.00000
     14931 MEOH     106      MEOH     HO2      DUMH     0.000000        1.0080           0   0.00000   0.00000
     14932 MEOH     106      MEOH     H1A      HDA3B    0.080000        1.0080           0   0.00000   0.00000
     14933 MEOH     106      MEOH     H1B      HDA3B    0.080000        1.0080           0   0.00000   0.00000
     14934 MEOH     106      MEOH     H1C      HDA3B    0.080000        1.0080           0   0.00000   0.00000
     14935 MEOH     106      MEOH     LP1A     LPD     -0.230000        0.0000           -1   0.00000   0.00000
     14936 MEOH     106      MEOH     LP1B     LPD     -0.230000        0.0000           -1   0.00000   0.00000
     14937 MEOH     107      MEOH     C1       CD33B    2.314100       11.6110           0   -1.00000   1.30000
     14938 MEOH     107      MEOH     DC1      DRUD    -2.454100        0.4000           0   0.00000   0.00000
     14939 MEOH     107      MEOH     O1       OD31H    2.488300       15.5990           0   -1.02800   1.30000
     14940 MEOH     107      MEOH     DO1      DRUD    -2.488300        0.4000           0   0.00000   0.00000
     14941 MEOH     107      MEOH     HO1      HDP1A    0.360000        1.0080           0   0.00000   0.00000
     14942 MEOH     107      MEOH     HO2      DUMH     0.000000        1.0080           0   0.00000   0.00000
     14943 MEOH     107      MEOH     H1A      HDA3B    0.080000        1.0080           0   0.00000   0.00000
     14944 MEOH     107      MEOH     H1B      HDA3B    0.080000        1.0080           0   0.00000   0.00000
     14945 MEOH     107      MEOH     H1C      HDA3B    0.080000        1.0080           0   0.00000   0.00000
     14946 MEOH     107      MEOH     LP1A     LPD     -0.230000        0.0000           -1   0.00000   0.00000
     14947 MEOH     107      MEOH     LP1B     LPD     -0.230000        0.0000           -1   0.00000   0.00000
     14948 MEOH     108      MEOH     C1       CD33B    2.314100       11.6110           0   -1.00000   1.30000
     14949 MEOH     108      MEOH     DC1      DRUD    -2.454100        0.4000           0   0.00000   0.00000
     14950 MEOH     108      MEOH     O1       OD31H    2.488300       15.5990           0   -1.02800   1.30000
     14951 MEOH     108      MEOH     DO1      DRUD    -2.488300        0.4000           0   0.00000   0.00000
     14952 MEOH     108      MEOH     HO1      HDP1A    0.360000        1.0080           0   0.00000   0.00000
     14953 MEOH     108      MEOH     HO2      DUMH     0.000000        1.0080           0   0.00000   0.00000
     14954 MEOH     108      MEOH     H1A      HDA3B    0.080000        1.0080           0   0.00000   0.00000
     14955 MEOH     108      MEOH     H1B      HDA3B    0.080000        1.0080           0   0.00000   0.00000
     14956 MEOH     108      MEOH     H1C      HDA3B    0.080000        1.0080           0   0.00000   0.00000
     14957 MEOH     108      MEOH     LP1A     LPD     -0.230000        0.0000           -1   0.00000   0.00000
     14958 MEOH     108      MEOH     LP1B     LPD     -0.230000        0.0000           -1   0.00000   0.00000
     14959 MEOH     109      MEOH     C1       CD33B    2.314100       11.6110           0   -1.00000   1.30000
     14960 MEOH     109      MEOH     DC1      DRUD    -2.454100        0.4000           0   0.00000   0.00000
     14961 MEOH     109      MEOH     O1       OD31H    2.488300       15.5990           0   -1.02800   1.30000
     14962 MEOH     109      MEOH     DO1      DRUD    -2.488300        0.4000           0   0.00000   0.00000
     14963 MEOH     109      MEOH     HO1      HDP1A    0.360000        1.0080           0   0.00000   0.00000
     14964 MEOH     109      MEOH     HO2      DUMH     0.000000        1.0080           0   0.00000   0.00000
     14965 MEOH     109      MEOH     H1A      HDA3B    0.080000        1.0080           0   0.00000   0.00000
     14966 MEOH     109      MEOH     H1B      HDA3B    0.080000        1.0080           0   0.00000   0.00000
     14967 MEOH     109      MEOH     H1C      HDA3B    0.080000        1.0080           0   0.00000   0.00000
     14968 MEOH     109      MEOH     LP1A     LPD     -0.230000        0.0000           -1   0.00000   0.00000
     14969 MEOH     109      MEOH     LP1B     LPD     -0.230000        0.0000           -1   0.00000   0.00000
     14970 MEOH     110      MEOH     C1       CD33B    2.314100       11.6110           0   -1.00000   1.30000
     14971 MEOH     110      MEOH     DC1      DRUD    -2.454100        0.4000           0   0.00000   0.00000
     14972 MEOH     110      MEOH     O1       OD31H    2.488300       15.5990           0   -1.02800   1.30000
     14973 MEOH     110      MEOH     DO1      DRUD    -2.488300        0.4000           0   0.00000   0.00000
     14974 MEOH     110      MEOH     HO1      HDP1A    0.360000        1.0080           0   0.00000   0.00000
     14975 MEOH     110      MEOH     HO2      DUMH     0.000000        1.0080           0   0.00000   0.00000
     14976 MEOH     110      MEOH     H1A      HDA3B    0.080000        1.0080           0   0.00000   0.00000
     14977 MEOH     110      MEOH     H1B      HDA3B    0.080000        1.0080           0   0.00000   0.00000
     14978 MEOH     110      MEOH     H1C      HDA3B    0.080000        1.0080           0   0.00000   0.00000
     14979 MEOH     110      MEOH     LP1A     LPD     -0.230000        0.0000           -1   0.00000   0.00000
     14980 MEOH     110      MEOH     LP1B     LPD     -0.230000        0.0000           -1   0.00000   0.00000
     14981 MEOH     111      MEOH     C1       CD33B    2.314100       11.6110           0   -1.00000   1.30000
     14982 MEOH     111      MEOH     DC1      DRUD    -2.454100        0.4000           0   0.00000   0.00000
     14983 MEOH     111      MEOH     O1       OD31H    2.488300       15.5990           0   -1.02800   1.30000
     14984 MEOH     111      MEOH     DO1      DRUD    -2.488300        0.4000           0   0.00000   0.00000
     14985 MEOH     111      MEOH     HO1      HDP1A    0.360000        1.0080           0   0.00000   0.00000
     14986 MEOH     111      MEOH     HO2      DUMH     0.000000        1.0080           0   0.00000   0.00000
     14987 MEOH     111      MEOH     H1A      HDA3B    0.080000        1.0080           0   0.00000   0.00000
     14988 MEOH     111      MEOH     H1B      HDA3B    0.080000        1.0080           0   0.00000   0.00000
     14989 MEOH     111      MEOH     H1C      HDA3B    0.080000        1.0080           0   0.00000   0.00000
     14990 MEOH     111      MEOH     LP1A     LPD     -0.230000        0.0000           -1   0.00000   0.00000
     14991 MEOH     111      MEOH     LP1B     LPD     -0.230000        0.0000           -1   0.00000   0.00000
     14992 MEOH     112      MEOH     C1       CD33B    2.314100       11.6110           0   -1.00000   1.30000
     14993 MEOH     112      MEOH     DC1      DRUD    -2.454100        0.4000           0   0.00000   0.00000
     14994 MEOH     112      MEOH     O1       OD31H    2.488300       15.5990           0   -1.02800   1.30000
     14995 MEOH     112      MEOH     DO1      DRUD    -2.488300        0.4000           0   0.00000   0.00000
     14996 MEOH     112      MEOH     HO1      HDP1A    0.360000        1.0080           0   0.00000   0.00000
     14997 MEOH     112      MEOH     HO2      DUMH     0.000000        1.0080           0   0.00000   0.00000
     14998 MEOH     112      MEOH     H1A      HDA3B    0.080000        1.0080           0   0.00000   0.00000
     14999 MEOH     112      MEOH     H1B      HDA3B    0.080000        1.0080           0   0.00000   0.00000
     15000 MEOH     112      MEOH     H1C      HDA3B    0.080000        1.0080           0   0.00000   0.00000
     15001 MEOH     112      MEOH     LP1A     LPD     -0.230000        0.0000           -1   0.00000   0.00000
     15002 MEOH     112      MEOH     LP1B     LPD     -0.230000        0.0000           -1   0.00000   0.00000
     15003 MEOH     113      MEOH     C1       CD33B    2.314100       11.6110           0   -1.00000   1.30000
     15004 MEOH     113      MEOH     DC1      DRUD    -2.454100        0.4000           0   0.00000   0.00000
     15005 MEOH     113      MEOH     O1       OD31H    2.488300       15.5990           0   -1.02800   1.30000
     15006 MEOH     113      MEOH     DO1      DRUD    -2.488300        0.4000           0   0.00000   0.00000
     15007 MEOH     113      MEOH     HO1      HDP1A    0.360000        1.0080           0   0.00000   0.00000
     15008 MEOH     113      MEOH     HO2      DUMH     0.000000        1.0080           0   0.00000   0.00000
     15009 MEOH     113      MEOH     H1A      HDA3B    0.080000        1.0080           0   0.00000   0.00000
     15010 MEOH     113      MEOH     H1B      HDA3B    0.080000        1.0080           0   0.00000   0.00000
     15011 MEOH     113      MEOH     H1C      HDA3B    0.080000        1.0080           0   0.00000   0.00000
     15012 MEOH     113      MEOH     LP1A     LPD     -0.230000        0.0000           -1   0.00000   0.00000
     15013 MEOH     113      MEOH     LP1B     LPD     -0.230000        0.0000           -1   0.00000   0.00000
     15014 MEOH     114      MEOH     C1       CD33B    2.314100       11.6110           0   -1.00000   1.30000
     15015 MEOH     114      MEOH     DC1      DRUD    -2.454100        0.4000           0   0.00000   0.00000
     15016 MEOH     114      MEOH     O1       OD31H    2.488300       15.5990           0   -1.02800   1.30000
     15017 MEOH     114      MEOH     DO1      DRUD    -2.488300        0.4000           0   0.00000   0.00000
     15018 MEOH     114      MEOH     HO1      HDP1A    0.360000        1.0080           0   0.00000   0.00000
     15019 MEOH     114      MEOH     HO2      DUMH     0.000000        1.0080           0   0.00000   0.00000
     15020 MEOH     114      MEOH     H1A      HDA3B    0.080000        1.0080           0   0.00000   0.00000
     15021 MEOH     114      MEOH     H1B      HDA3B    0.080000        1.0080           0   0.00000   0.00000
     15022 MEOH     114      MEOH     H1C      HDA3B    0.080000        1.0080           0   0.00000   0.00000
     15023 MEOH     114      MEOH     LP1A     LPD     -0.230000        0.0000           -1   0.00000   0.00000
     15024 MEOH     114      MEOH     LP1B     LPD     -0.230000        0.0000           -1   0.00000   0.00000
     15025 MEOH     115      MEOH     C1       CD33B    2.314100       11.6110           0   -1.00000   1.30000
     15026 MEOH     115      MEOH     DC1      DRUD    -2.454100        0.4000           0   0.00000   0.00000
     15027 MEOH     115      MEOH     O1       OD31H    2.488300       15.5990           0   -1.02800   1.30000
     15028 MEOH     115      MEOH     DO1      DRUD    -2.488300        0.4000           0   0.00000   0.00000
     15029 MEOH     115      MEOH     HO1      HDP1A    0.360000        1.0080           0   0.00000   0.00000
     15030 MEOH     115      MEOH     HO2      DUMH     0.000000        1.0080           0   0.00000   0.00000
     15031 MEOH     115      MEOH     H1A      HDA3B    0.080000        1.0080           0   0.00000   0.00000
     15032 MEOH     115      MEOH     H1B      HDA3B    0.080000        1.0080           0   0.00000   0.00000
     15033 MEOH     115      MEOH     H1C      HDA3B    0.080000        1.0080           0   0.00000   0.00000
     15034 MEOH     115      MEOH     LP1A     LPD     -0.230000        0.0000           -1   0.00000   0.00000
     15035 MEOH     115      MEOH     LP1B     LPD     -0.230000        0.0000           -1   0.00000   0.00000
     15036 MEOH     116      MEOH     C1       CD33B    2.314100       11.6110           0   -1.00000   1.30000
     15037 MEOH     116      MEOH     DC1      DRUD    -2.454100        0.4000           0   0.00000   0.00000
     15038 MEOH     116      MEOH     O1       OD31H    2.488300       15.5990           0   -1.02800   1.30000
     15039 MEOH     116      MEOH     DO1      DRUD    -2.488300        0.4000           0   0.00000   0.00000
     15040 MEOH     116      MEOH     HO1      HDP1A    0.360000        1.0080           0   0.00000   0.00000
     15041 MEOH     116      MEOH     HO2      DUMH     0.000000        1.0080           0   0.00000   0.00000
     15042 MEOH     116      MEOH     H1A      HDA3B    0.080000        1.0080           0   0.00000   0.00000
     15043 MEOH     116      MEOH     H1B      HDA3B    0.080000        1.0080           0   0.00000   0.00000
     15044 MEOH     116      MEOH     H1C      HDA3B    0.080000        1.0080           0   0.00000   0.00000
     15045 MEOH     116      MEOH     LP1A     LPD     -0.230000        0.0000           -1   0.00000   0.00000
     15046 MEOH     116      MEOH     LP1B     LPD     -0.230000        0.0000           -1   0.00000   0.00000
     15047 MEOH     117      MEOH     C1       CD33B    2.314100       11.6110           0   -1.00000   1.30000
     15048 MEOH     117      MEOH     DC1      DRUD    -2.454100        0.4000           0   0.00000   0.00000
     15049 MEOH     117      MEOH     O1       OD31H    2.488300       15.5990           0   -1.02800   1.30000
     15050 MEOH     117      MEOH     DO1      DRUD    -2.488300        0.4000           0   0.00000   0.00000
     15051 MEOH     117      MEOH     HO1      HDP1A    0.360000        1.0080           0   0.00000   0.00000
     15052 MEOH     117      MEOH     HO2      DUMH     0.000000        1.0080           0   0.00000   0.00000
     15053 MEOH     117      MEOH     H1A      HDA3B    0.080000        1.0080           0   0.00000   0.00000
     15054 MEOH     117      MEOH     H1B      HDA3B    0.080000        1.0080           0   0.00000   0.00000
     15055 MEOH     117      MEOH     H1C      HDA3B    0.080000        1.0080           0   0.00000   0.00000
     15056 MEOH     117      MEOH     LP1A     LPD     -0.230000        0.0000           -1   0.00000   0.00000
     15057 MEOH     117      MEOH     LP1B     LPD     -0.230000        0.0000           -1   0.00000   0.00000
     15058 MEOH     118      MEOH     C1       CD33B    2.314100       11.6110           0   -1.00000   1.30000
     15059 MEOH     118      MEOH     DC1      DRUD    -2.454100        0.4000           0   0.00000   0.00000
     15060 MEOH     118      MEOH     O1       OD31H    2.488300       15.5990           0   -1.02800   1.30000
     15061 MEOH     118      MEOH     DO1      DRUD    -2.488300        0.4000           0   0.00000   0.00000
     15062 MEOH     118      MEOH     HO1      HDP1A    0.360000        1.0080           0   0.00000   0.00000
     15063 MEOH     118      MEOH     HO2      DUMH     0.000000        1.0080           0   0.00000   0.00000
     15064 MEOH     118      MEOH     H1A      HDA3B    0.080000        1.0080           0   0.00000   0.00000
     15065 MEOH     118      MEOH     H1B      HDA3B    0.080000        1.0080           0   0.00000   0.00000
     15066 MEOH     118      MEOH     H1C      HDA3B    0.080000        1.0080           0   0.00000   0.00000
     15067 MEOH     118      MEOH     LP1A     LPD     -0.230000        0.0000           -1   0.00000   0.00000
     15068 MEOH     118      MEOH     LP1B     LPD     -0.230000        0.0000           -1   0.00000   0.00000
     15069 MEOH     119      MEOH     C1       CD33B    2.314100       11.6110           0   -1.00000   1.30000
     15070 MEOH     119      MEOH     DC1      DRUD    -2.454100        0.4000           0   0.00000   0.00000
     15071 MEOH     119      MEOH     O1       OD31H    2.488300       15.5990           0   -1.02800   1.30000
     15072 MEOH     119      MEOH     DO1      DRUD    -2.488300        0.4000           0   0.00000   0.00000
     15073 MEOH     119      MEOH     HO1      HDP1A    0.360000        1.0080           0   0.00000   0.00000
     15074 MEOH     119      MEOH     HO2      DUMH     0.000000        1.0080           0   0.00000   0.00000
     15075 MEOH     119      MEOH     H1A      HDA3B    0.080000        1.0080           0   0.00000   0.00000
     15076 MEOH     119      MEOH     H1B      HDA3B    0.080000        1.0080           0   0.00000   0.00000
     15077 MEOH     119      MEOH     H1C      HDA3B    0.080000        1.0080           0   0.00000   0.00000
     15078 MEOH     119      MEOH     LP1A     LPD     -0.230000        0.0000           -1   0.00000   0.00000
     15079 MEOH     119      MEOH     LP1B     LPD     -0.230000        0.0000           -1   0.00000   0.00000
     15080 MEOH     120      MEOH     C1       CD33B    2.314100       11.6110           0   -1.00000   1.30000
     15081 MEOH     120      MEOH     DC1      DRUD    -2.454100        0.4000           0   0.00000   0.00000
     15082 MEOH     120      MEOH     O1       OD31H    2.488300       15.5990           0   -1.02800   1.30000
     15083 MEOH     120      MEOH     DO1      DRUD    -2.488300        0.4000           0   0.00000   0.00000
     15084 MEOH     120      MEOH     HO1      HDP1A    0.360000        1.0080           0   0.00000   0.00000
     15085 MEOH     120      MEOH     HO2      DUMH     0.000000        1.0080           0   0.00000   0.00000
     15086 MEOH     120      MEOH     H1A      HDA3B    0.080000        1.0080           0   0.00000   0.00000
     15087 MEOH     120      MEOH     H1B      HDA3B    0.080000        1.0080           0   0.00000   0.00000
     15088 MEOH     120      MEOH     H1C      HDA3B    0.080000        1.0080           0   0.00000   0.00000
     15089 MEOH     120      MEOH     LP1A     LPD     -0.230000        0.0000           -1   0.00000   0.00000
     15090 MEOH     120      MEOH     LP1B     LPD     -0.230000        0.0000           -1   0.00000   0.00000
     15091 MEOH     121      MEOH     C1       CD33B    2.314100       11.6110           0   -1.00000   1.30000
     15092 MEOH     121      MEOH     DC1      DRUD    -2.454100        0.4000           0   0.00000   0.00000
     15093 MEOH     121      MEOH     O1       OD31H    2.488300       15.5990           0   -1.02800   1.30000
     15094 MEOH     121      MEOH     DO1      DRUD    -2.488300        0.4000           0   0.00000   0.00000
     15095 MEOH     121      MEOH     HO1      HDP1A    0.360000        1.0080           0   0.00000   0.00000
     15096 MEOH     121      MEOH     HO2      DUMH     0.000000        1.0080           0   0.00000   0.00000
     15097 MEOH     121      MEOH     H1A      HDA3B    0.080000        1.0080           0   0.00000   0.00000
     15098 MEOH     121      MEOH     H1B      HDA3B    0.080000        1.0080           0   0.00000   0.00000
     15099 MEOH     121      MEOH     H1C      HDA3B    0.080000        1.0080           0   0.00000   0.00000
     15100 MEOH     121      MEOH     LP1A     LPD     -0.230000        0.0000           -1   0.00000   0.00000
     15101 MEOH     121      MEOH     LP1B     LPD     -0.230000        0.0000           -1   0.00000   0.00000
     15102 MEOH     122      MEOH     C1       CD33B    2.314100       11.6110           0   -1.00000   1.30000
     15103 MEOH     122      MEOH     DC1      DRUD    -2.454100        0.4000           0   0.00000   0.00000
     15104 MEOH     122      MEOH     O1       OD31H    2.488300       15.5990           0   -1.02800   1.30000
     15105 MEOH     122      MEOH     DO1      DRUD    -2.488300        0.4000           0   0.00000   0.00000
     15106 MEOH     122      MEOH     HO1      HDP1A    0.360000        1.0080           0   0.00000   0.00000
     15107 MEOH     122      MEOH     HO2      DUMH     0.000000        1.0080           0   0.00000   0.00000
     15108 MEOH     122      MEOH     H1A      HDA3B    0.080000        1.0080           0   0.00000   0.00000
     15109 MEOH     122      MEOH     H1B      HDA3B    0.080000        1.0080           0   0.00000   0.00000
     15110 MEOH     122      MEOH     H1C      HDA3B    0.080000        1.0080           0   0.00000   0.00000
     15111 MEOH     122      MEOH     LP1A     LPD     -0.230000        0.0000           -1   0.00000   0.00000
     15112 MEOH     122      MEOH     LP1B     LPD     -0.230000        0.0000           -1   0.00000   0.00000
     15113 MEOH     123      MEOH     C1       CD33B    2.314100       11.6110           0   -1.00000   1.30000
     15114 MEOH     123      MEOH     DC1      DRUD    -2.454100        0.4000           0   0.00000   0.00000
     15115 MEOH     123      MEOH     O1       OD31H    2.488300       15.5990           0   -1.02800   1.30000
     15116 MEOH     123      MEOH     DO1      DRUD    -2.488300        0.4000           0   0.00000   0.00000
     15117 MEOH     123      MEOH     HO1      HDP1A    0.360000        1.0080           0   0.00000   0.00000
     15118 MEOH     123      MEOH     HO2      DUMH     0.000000        1.0080           0   0.00000   0.00000
     15119 MEOH     123      MEOH     H1A      HDA3B    0.080000        1.0080           0   0.00000   0.00000
     15120 MEOH     123      MEOH     H1B      HDA3B    0.080000        1.0080           0   0.00000   0.00000
     15121 MEOH     123      MEOH     H1C      HDA3B    0.080000        1.0080           0   0.00000   0.00000
     15122 MEOH     123      MEOH     LP1A     LPD     -0.230000        0.0000           -1   0.00000   0.00000
     15123 MEOH     123      MEOH     LP1B     LPD     -0.230000        0.0000           -1   0.00000   0.00000
     15124 MEOH     124      MEOH     C1       CD33B    2.314100       11.6110           0   -1.00000   1.30000
     15125 MEOH     124      MEOH     DC1      DRUD    -2.454100        0.4000           0   0.00000   0.00000
     15126 MEOH     124      MEOH     O1       OD31H    2.488300       15.5990           0   -1.02800   1.30000
     15127 MEOH     124      MEOH     DO1      DRUD    -2.488300        0.4000           0   0.00000   0.00000
     15128 MEOH     124      MEOH     HO1      HDP1A    0.360000        1.0080           0   0.00000   0.00000
     15129 MEOH     124      MEOH     HO2      DUMH     0.000000        1.0080           0   0.00000   0.00000
     15130 MEOH     124      MEOH     H1A      HDA3B    0.080000        1.0080           0   0.00000   0.00000
     15131 MEOH     124      MEOH     H1B      HDA3B    0.080000        1.0080           0   0.00000   0.00000
     15132 MEOH     124      MEOH     H1C      HDA3B    0.080000        1.0080           0   0.00000   0.00000
     15133 MEOH     124      MEOH     LP1A     LPD     -0.230000        0.0000           -1   0.00000   0.00000
     15134 MEOH     124      MEOH     LP1B     LPD     -0.230000        0.0000           -1   0.00000   0.00000
     15135 MEOH     125      MEOH     C1       CD33B    2.314100       11.6110           0   -1.00000   1.30000
     15136 MEOH     125      MEOH     DC1      DRUD    -2.454100        0.4000           0   0.00000   0.00000
     15137 MEOH     125      MEOH     O1       OD31H    2.488300       15.5990           0   -1.02800   1.30000
     15138 MEOH     125      MEOH     DO1      DRUD    -2.488300        0.4000           0   0.00000   0.00000
     15139 MEOH     125      MEOH     HO1      HDP1A    0.360000        1.0080           0   0.00000   0.00000
     15140 MEOH     125      MEOH     HO2      DUMH     0.000000        1.0080           0   0.00000   0.00000
     15141 MEOH     125      MEOH     H1A      HDA3B    0.080000        1.0080           0   0.00000   0.00000
     15142 MEOH     125      MEOH     H1B      HDA3B    0.080000        1.0080           0   0.00000   0.00000
     15143 MEOH     125      MEOH     H1C      HDA3B    0.080000        1.0080           0   0.00000   0.00000
     15144 MEOH     125      MEOH     LP1A     LPD     -0.230000        0.0000           -1   0.00000   0.00000
     15145 MEOH     125      MEOH     LP1B     LPD     -0.230000        0.0000           -1   0.00000   0.00000
     15146 MEOH     126      MEOH     C1       CD33B    2.314100       11.6110           0   -1.00000   1.30000
     15147 MEOH     126      MEOH     DC1      DRUD    -2.454100        0.4000           0   0.00000   0.00000
     15148 MEOH     126      MEOH     O1       OD31H    2.488300       15.5990           0   -1.02800   1.30000
     15149 MEOH     126      MEOH     DO1      DRUD    -2.488300        0.4000           0   0.00000   0.00000
     15150 MEOH     126      MEOH     HO1      HDP1A    0.360000        1.0080           0   0.00000   0.00000
     15151 MEOH     126      MEOH     HO2      DUMH     0.000000        1.0080           0   0.00000   0.00000
     15152 MEOH     126      MEOH     H1A      HDA3B    0.080000        1.0080           0   0.00000   0.00000
     15153 MEOH     126      MEOH     H1B      HDA3B    0.080000        1.0080           0   0.00000   0.00000
     15154 MEOH     126      MEOH     H1C      HDA3B    0.080000        1.0080           0   0.00000   0.00000
     15155 MEOH     126      MEOH     LP1A     LPD     -0.230000        0.0000           -1   0.00000   0.00000
     15156 MEOH     126      MEOH     LP1B     LPD     -0.230000        0.0000           -1   0.00000   0.00000
     15157 MEOH     127      MEOH     C1       CD33B    2.314100       11.6110           0   -1.00000   1.30000
     15158 MEOH     127      MEOH     DC1      DRUD    -2.454100        0.4000           0   0.00000   0.00000
     15159 MEOH     127      MEOH     O1       OD31H    2.488300       15.5990           0   -1.02800   1.30000
     15160 MEOH     127      MEOH     DO1      DRUD    -2.488300        0.4000           0   0.00000   0.00000
     15161 MEOH     127      MEOH     HO1      HDP1A    0.360000        1.0080           0   0.00000   0.00000
     15162 MEOH     127      MEOH     HO2      DUMH     0.000000        1.0080           0   0.00000   0.00000
     15163 MEOH     127      MEOH     H1A      HDA3B    0.080000        1.0080           0   0.00000   0.00000
     15164 MEOH     127      MEOH     H1B      HDA3B    0.080000        1.0080           0   0.00000   0.00000
     15165 MEOH     127      MEOH     H1C      HDA3B    0.080000        1.0080           0   0.00000   0.00000
     15166 MEOH     127      MEOH     LP1A     LPD     -0.230000        0.0000           -1   0.00000   0.00000
     15167 MEOH     127      MEOH     LP1B     LPD     -0.230000        0.0000           -1   0.00000   0.00000
     15168 MEOH     128      MEOH     C1       CD33B    2.314100       11.6110           0   -1.00000   1.30000
     15169 MEOH     128      MEOH     DC1      DRUD    -2.454100        0.4000           0   0.00000   0.00000
     15170 MEOH     128      MEOH     O1       OD31H    2.488300       15.5990           0   -1.02800   1.30000
     15171 MEOH     128      MEOH     DO1      DRUD    -2.488300        0.4000           0   0.00000   0.00000
     15172 MEOH     128      MEOH     HO1      HDP1A    0.360000        1.0080           0   0.00000   0.00000
     15173 MEOH     128      MEOH     HO2      DUMH     0.000000        1.0080           0   0.00000   0.00000
     15174 MEOH     128      MEOH     H1A      HDA3B    0.080000        1.0080           0   0.00000   0.00000
     15175 MEOH     128      MEOH     H1B      HDA3B    0.080000        1.0080           0   0.00000   0.00000
     15176 MEOH     128      MEOH     H1C      HDA3B    0.080000        1.0080           0   0.00000   0.00000
     15177 MEOH     128      MEOH     LP1A     LPD     -0.230000        0.0000           -1   0.00000   0.00000
     15178 MEOH     128      MEOH     LP1B     LPD     -0.230000        0.0000           -1   0.00000   0.00000
     15179 MEOH     129      MEOH     C1       CD33B    2.314100       11.6110           0   -1.00000   1.30000
     15180 MEOH     129      MEOH     DC1      DRUD    -2.454100        0.4000           0   0.00000   0.00000
     15181 MEOH     129      MEOH     O1       OD31H    2.488300       15.5990           0   -1.02800   1.30000
     15182 MEOH     129      MEOH     DO1      DRUD    -2.488300        0.4000           0   0.00000   0.00000
     15183 MEOH     129      MEOH     HO1      HDP1A    0.360000        1.0080           0   0.00000   0.00000
     15184 MEOH     129      MEOH     HO2      DUMH     0.000000        1.0080           0   0.00000   0.00000
     15185 MEOH     129      MEOH     H1A      HDA3B    0.080000        1.0080           0   0.00000   0.00000
     15186 MEOH     129      MEOH     H1B      HDA3B    0.080000        1.0080           0   0.00000   0.00000
     15187 MEOH     129      MEOH     H1C      HDA3B    0.080000        1.0080           0   0.00000   0.00000
     15188 MEOH     129      MEOH     LP1A     LPD     -0.230000        0.0000           -1   0.00000   0.00000
     15189 MEOH     129      MEOH     LP1B     LPD     -0.230000        0.0000           -1   0.00000   0.00000
     15190 MEOH     130      MEOH     C1       CD33B    2.314100       11.6110           0   -1.00000   1.30000
     15191 MEOH     130      MEOH     DC1      DRUD    -2.454100        0.4000           0   0.00000   0.00000
     15192 MEOH     130      MEOH     O1       OD31H    2.488300       15.5990           0   -1.02800   1.30000
     15193 MEOH     130      MEOH     DO1      DRUD    -2.488300        0.4000           0   0.00000   0.00000
     15194 MEOH     130      MEOH     HO1      HDP1A    0.360000        1.0080           0   0.00000   0.00000
     15195 MEOH     130      MEOH     HO2      DUMH     0.000000        1.0080           0   0.00000   0.00000
     15196 MEOH     130      MEOH     H1A      HDA3B    0.080000        1.0080           0   0.00000   0.00000
     15197 MEOH     130      MEOH     H1B      HDA3B    0.080000        1.0080           0   0.00000   0.00000
     15198 MEOH     130      MEOH     H1C      HDA3B    0.080000        1.0080           0   0.00000   0.00000
     15199 MEOH     130      MEOH     LP1A     LPD     -0.230000        0.0000           -1   0.00000   0.00000
     15200 MEOH     130      MEOH     LP1B     LPD     -0.230000        0.0000           -1   0.00000   0.00000
     15201 MEOH     131      MEOH     C1       CD33B    2.314100       11.6110           0   -1.00000   1.30000
     15202 MEOH     131      MEOH     DC1      DRUD    -2.454100        0.4000           0   0.00000   0.00000
     15203 MEOH     131      MEOH     O1       OD31H    2.488300       15.5990           0   -1.02800   1.30000
     15204 MEOH     131      MEOH     DO1      DRUD    -2.488300        0.4000           0   0.00000   0.00000
     15205 MEOH     131      MEOH     HO1      HDP1A    0.360000        1.0080           0   0.00000   0.00000
     15206 MEOH     131      MEOH     HO2      DUMH     0.000000        1.0080           0   0.00000   0.00000
     15207 MEOH     131      MEOH     H1A      HDA3B    0.080000        1.0080           0   0.00000   0.00000
     15208 MEOH     131      MEOH     H1B      HDA3B    0.080000        1.0080           0   0.00000   0.00000
     15209 MEOH     131      MEOH     H1C      HDA3B    0.080000        1.0080           0   0.00000   0.00000
     15210 MEOH     131      MEOH     LP1A     LPD     -0.230000        0.0000           -1   0.00000   0.00000
     15211 MEOH     131      MEOH     LP1B     LPD     -0.230000        0.0000           -1   0.00000   0.00000
     15212 MEOH     132      MEOH     C1       CD33B    2.314100       11.6110           0   -1.00000   1.30000
     15213 MEOH     132      MEOH     DC1      DRUD    -2.454100        0.4000           0   0.00000   0.00000
     15214 MEOH     132      MEOH     O1       OD31H    2.488300       15.5990           0   -1.02800   1.30000
     15215 MEOH     132      MEOH     DO1      DRUD    -2.488300        0.4000           0   0.00000   0.00000
     15216 MEOH     132      MEOH     HO1      HDP1A    0.360000        1.0080           0   0.00000   0.00000
     15217 MEOH     132      MEOH     HO2      DUMH     0.000000        1.0080           0   0.00000   0.00000
     15218 MEOH     132      MEOH     H1A      HDA3B    0.080000        1.0080           0   0.00000   0.00000
     15219 MEOH     132      MEOH     H1B      HDA3B    0.080000        1.0080           0   0.00000   0.00000
     15220 MEOH     132      MEOH     H1C      HDA3B    0.080000        1.0080           0   0.00000   0.00000
     15221 MEOH     132      MEOH     LP1A     LPD     -0.230000        0.0000           -1   0.00000   0.00000
     15222 MEOH     132      MEOH     LP1B     LPD     -0.230000        0.0000           -1   0.00000   0.00000
     15223 MEOH     133      MEOH     C1       CD33B    2.314100       11.6110           0   -1.00000   1.30000
     15224 MEOH     133      MEOH     DC1      DRUD    -2.454100        0.4000           0   0.00000   0.00000
     15225 MEOH     133      MEOH     O1       OD31H    2.488300       15.5990           0   -1.02800   1.30000
     15226 MEOH     133      MEOH     DO1      DRUD    -2.488300        0.4000           0   0.00000   0.00000
     15227 MEOH     133      MEOH     HO1      HDP1A    0.360000        1.0080           0   0.00000   0.00000
     15228 MEOH     133      MEOH     HO2      DUMH     0.000000        1.0080           0   0.00000   0.00000
     15229 MEOH     133      MEOH     H1A      HDA3B    0.080000        1.0080           0   0.00000   0.00000
     15230 MEOH     133      MEOH     H1B      HDA3B    0.080000        1.0080           0   0.00000   0.00000
     15231 MEOH     133      MEOH     H1C      HDA3B    0.080000        1.0080           0   0.00000   0.00000
     15232 MEOH     133      MEOH     LP1A     LPD     -0.230000        0.0000           -1   0.00000   0.00000
     15233 MEOH     133      MEOH     LP1B     LPD     -0.230000        0.0000           -1   0.00000   0.00000
     15234 MEOH     134      MEOH     C1       CD33B    2.314100       11.6110           0   -1.00000   1.30000
     15235 MEOH     134      MEOH     DC1      DRUD    -2.454100        0.4000           0   0.00000   0.00000
     15236 MEOH     134      MEOH     O1       OD31H    2.488300       15.5990           0   -1.02800   1.30000
     15237 MEOH     134      MEOH     DO1      DRUD    -2.488300        0.4000           0   0.00000   0.00000
     15238 MEOH     134      MEOH     HO1      HDP1A    0.360000        1.0080           0   0.00000   0.00000
     15239 MEOH     134      MEOH     HO2      DUMH     0.000000        1.0080           0   0.00000   0.00000
     15240 MEOH     134      MEOH     H1A      HDA3B    0.080000        1.0080           0   0.00000   0.00000
     15241 MEOH     134      MEOH     H1B      HDA3B    0.080000        1.0080           0   0.00000   0.00000
     15242 MEOH     134      MEOH     H1C      HDA3B    0.080000        1.0080           0   0.00000   0.00000
     15243 MEOH     134      MEOH     LP1A     LPD     -0.230000        0.0000           -1   0.00000   0.00000
     15244 MEOH     134      MEOH     LP1B     LPD     -0.230000        0.0000           -1   0.00000   0.00000
     15245 MEOH     135      MEOH     C1       CD33B    2.314100       11.6110           0   -1.00000   1.30000
     15246 MEOH     135      MEOH     DC1      DRUD    -2.454100        0.4000           0   0.00000   0.00000
     15247 MEOH     135      MEOH     O1       OD31H    2.488300       15.5990           0   -1.02800   1.30000
     15248 MEOH     135      MEOH     DO1      DRUD    -2.488300        0.4000           0   0.00000   0.00000
     15249 MEOH     135      MEOH     HO1      HDP1A    0.360000        1.0080           0   0.00000   0.00000
     15250 MEOH     135      MEOH     HO2      DUMH     0.000000        1.0080           0   0.00000   0.00000
     15251 MEOH     135      MEOH     H1A      HDA3B    0.080000        1.0080           0   0.00000   0.00000
     15252 MEOH     135      MEOH     H1B      HDA3B    0.080000        1.0080           0   0.00000   0.00000
     15253 MEOH     135      MEOH     H1C      HDA3B    0.080000        1.0080           0   0.00000   0.00000
     15254 MEOH     135      MEOH     LP1A     LPD     -0.230000        0.0000           -1   0.00000   0.00000
     15255 MEOH     135      MEOH     LP1B     LPD     -0.230000        0.0000           -1   0.00000   0.00000
     15256 MEOH     136      MEOH     C1       CD33B    2.314100       11.6110           0   -1.00000   1.30000
     15257 MEOH     136      MEOH     DC1      DRUD    -2.454100        0.4000           0   0.00000   0.00000
     15258 MEOH     136      MEOH     O1       OD31H    2.488300       15.5990           0   -1.02800   1.30000
     15259 MEOH     136      MEOH     DO1      DRUD    -2.488300        0.4000           0   0.00000   0.00000
     15260 MEOH     136      MEOH     HO1      HDP1A    0.360000        1.0080           0   0.00000   0.00000
     15261 MEOH     136      MEOH     HO2      DUMH     0.000000        1.0080           0   0.00000   0.00000
     15262 MEOH     136      MEOH     H1A      HDA3B    0.080000        1.0080           0   0.00000   0.00000
     15263 MEOH     136      MEOH     H1B      HDA3B    0.080000        1.0080           0   0.00000   0.00000
     15264 MEOH     136      MEOH     H1C      HDA3B    0.080000        1.0080           0   0.00000   0.00000
     15265 MEOH     136      MEOH     LP1A     LPD     -0.230000        0.0000           -1   0.00000   0.00000
     15266 MEOH     136      MEOH     LP1B     LPD     -0.230000        0.0000           -1   0.00000   0.00000
     15267 MEOH     137      MEOH     C1       CD33B    2.314100       11.6110           0   -1.00000   1.30000
     15268 MEOH     137      MEOH     DC1      DRUD    -2.454100        0.4000           0   0.00000   0.00000
     15269 MEOH     137      MEOH     O1       OD31H    2.488300       15.5990           0   -1.02800   1.30000
     15270 MEOH     137      MEOH     DO1      DRUD    -2.488300        0.4000           0   0.00000   0.00000
     15271 MEOH     137      MEOH     HO1      HDP1A    0.360000        1.0080           0   0.00000   0.00000
     15272 MEOH     137      MEOH     HO2      DUMH     0.000000        1.0080           0   0.00000   0.00000
     15273 MEOH     137      MEOH     H1A      HDA3B    0.080000        1.0080           0   0.00000   0.00000
     15274 MEOH     137      MEOH     H1B      HDA3B    0.080000        1.0080           0   0.00000   0.00000
     15275 MEOH     137      MEOH     H1C      HDA3B    0.080000        1.0080           0   0.00000   0.00000
     15276 MEOH     137      MEOH     LP1A     LPD     -0.230000        0.0000           -1   0.00000   0.00000
     15277 MEOH     137      MEOH     LP1B     LPD     -0.230000        0.0000           -1   0.00000   0.00000
     15278 MEOH     138      MEOH     C1       CD33B    2.314100       11.6110           0   -1.00000   1.30000
     15279 MEOH     138      MEOH     DC1      DRUD    -2.454100        0.4000           0   0.00000   0.00000
     15280 MEOH     138      MEOH     O1       OD31H    2.488300       15.5990           0   -1.02800   1.30000
     15281 MEOH     138      MEOH     DO1      DRUD    -2.488300        0.4000           0   0.00000   0.00000
     15282 MEOH     138      MEOH     HO1      HDP1A    0.360000        1.0080           0   0.00000   0.00000
     15283 MEOH     138      MEOH     HO2      DUMH     0.000000        1.0080           0   0.00000   0.00000
     15284 MEOH     138      MEOH     H1A      HDA3B    0.080000        1.0080           0   0.00000   0.00000
     15285 MEOH     138      MEOH     H1B      HDA3B    0.080000        1.0080           0   0.00000   0.00000
     15286 MEOH     138      MEOH     H1C      HDA3B    0.080000        1.0080           0   0.00000   0.00000
     15287 MEOH     138      MEOH     LP1A     LPD     -0.230000        0.0000           -1   0.00000   0.00000
     15288 MEOH     138      MEOH     LP1B     LPD     -0.230000        0.0000           -1   0.00000   0.00000
     15289 MEOH     139      MEOH     C1       CD33B    2.314100       11.6110           0   -1.00000   1.30000
     15290 MEOH     139      MEOH     DC1      DRUD    -2.454100        0.4000           0   0.00000   0.00000
     15291 MEOH     139      MEOH     O1       OD31H    2.488300       15.5990           0   -1.02800   1.30000
     15292 MEOH     139      MEOH     DO1      DRUD    -2.488300        0.4000           0   0.00000   0.00000
     15293 MEOH     139      MEOH     HO1      HDP1A    0.360000        1.0080           0   0.00000   0.00000
     15294 MEOH     139      MEOH     HO2      DUMH     0.000000        1.0080           0   0.00000   0.00000
     15295 MEOH     139      MEOH     H1A      HDA3B    0.080000        1.0080           0   0.00000   0.00000
     15296 MEOH     139      MEOH     H1B      HDA3B    0.080000        1.0080           0   0.00000   0.00000
     15297 MEOH     139      MEOH     H1C      HDA3B    0.080000        1.0080           0   0.00000   0.00000
     15298 MEOH     139      MEOH     LP1A     LPD     -0.230000        0.0000           -1   0.00000   0.00000
     15299 MEOH     139      MEOH     LP1B     LPD     -0.230000        0.0000           -1   0.00000   0.00000
     15300 MEOH     140      MEOH     C1       CD33B    2.314100       11.6110           0   -1.00000   1.30000
     15301 MEOH     140      MEOH     DC1      DRUD    -2.454100        0.4000           0   0.00000   0.00000
     15302 MEOH     140      MEOH     O1       OD31H    2.488300       15.5990           0   -1.02800   1.30000
     15303 MEOH     140      MEOH     DO1      DRUD    -2.488300        0.4000           0   0.00000   0.00000
     15304 MEOH     140      MEOH     HO1      HDP1A    0.360000        1.0080           0   0.00000   0.00000
     15305 MEOH     140      MEOH     HO2      DUMH     0.000000        1.0080           0   0.00000   0.00000
     15306 MEOH     140      MEOH     H1A      HDA3B    0.080000        1.0080           0   0.00000   0.00000
     15307 MEOH     140      MEOH     H1B      HDA3B    0.080000        1.0080           0   0.00000   0.00000
     15308 MEOH     140      MEOH     H1C      HDA3B    0.080000        1.0080           0   0.00000   0.00000
     15309 MEOH     140      MEOH     LP1A     LPD     -0.230000        0.0000           -1   0.00000   0.00000
     15310 MEOH     140      MEOH     LP1B     LPD     -0.230000        0.0000           -1   0.00000   0.00000
     15311 MEOH     141      MEOH     C1       CD33B    2.314100       11.6110           0   -1.00000   1.30000
     15312 MEOH     141      MEOH     DC1      DRUD    -2.454100        0.4000           0   0.00000   0.00000
     15313 MEOH     141      MEOH     O1       OD31H    2.488300       15.5990           0   -1.02800   1.30000
     15314 MEOH     141      MEOH     DO1      DRUD    -2.488300        0.4000           0   0.00000   0.00000
     15315 MEOH     141      MEOH     HO1      HDP1A    0.360000        1.0080           0   0.00000   0.00000
     15316 MEOH     141      MEOH     HO2      DUMH     0.000000        1.0080           0   0.00000   0.00000
     15317 MEOH     141      MEOH     H1A      HDA3B    0.080000        1.0080           0   0.00000   0.00000
     15318 MEOH     141      MEOH     H1B      HDA3B    0.080000        1.0080           0   0.00000   0.00000
     15319 MEOH     141      MEOH     H1C      HDA3B    0.080000        1.0080           0   0.00000   0.00000
     15320 MEOH     141      MEOH     LP1A     LPD     -0.230000        0.0000           -1   0.00000   0.00000
     15321 MEOH     141      MEOH     LP1B     LPD     -0.230000        0.0000           -1   0.00000   0.00000
     15322 MEOH     142      MEOH     C1       CD33B    2.314100       11.6110           0   -1.00000   1.30000
     15323 MEOH     142      MEOH     DC1      DRUD    -2.454100        0.4000           0   0.00000   0.00000
     15324 MEOH     142      MEOH     O1       OD31H    2.488300       15.5990           0   -1.02800   1.30000
     15325 MEOH     142      MEOH     DO1      DRUD    -2.488300        0.4000           0   0.00000   0.00000
     15326 MEOH     142      MEOH     HO1      HDP1A    0.360000        1.0080           0   0.00000   0.00000
     15327 MEOH     142      MEOH     HO2      DUMH     0.000000        1.0080           0   0.00000   0.00000
     15328 MEOH     142      MEOH     H1A      HDA3B    0.080000        1.0080           0   0.00000   0.00000
     15329 MEOH     142      MEOH     H1B      HDA3B    0.080000        1.0080           0   0.00000   0.00000
     15330 MEOH     142      MEOH     H1C      HDA3B    0.080000        1.0080           0   0.00000   0.00000
     15331 MEOH     142      MEOH     LP1A     LPD     -0.230000        0.0000           -1   0.00000   0.00000
     15332 MEOH     142      MEOH     LP1B     LPD     -0.230000        0.0000           -1   0.00000   0.00000
     15333 MEOH     143      MEOH     C1       CD33B    2.314100       11.6110           0   -1.00000   1.30000
     15334 MEOH     143      MEOH     DC1      DRUD    -2.454100        0.4000           0   0.00000   0.00000
     15335 MEOH     143      MEOH     O1       OD31H    2.488300       15.5990           0   -1.02800   1.30000
     15336 MEOH     143      MEOH     DO1      DRUD    -2.488300        0.4000           0   0.00000   0.00000
     15337 MEOH     143      MEOH     HO1      HDP1A    0.360000        1.0080           0   0.00000   0.00000
     15338 MEOH     143      MEOH     HO2      DUMH     0.000000        1.0080           0   0.00000   0.00000
     15339 MEOH     143      MEOH     H1A      HDA3B    0.080000        1.0080           0   0.00000   0.00000
     15340 MEOH     143      MEOH     H1B      HDA3B    0.080000        1.0080           0   0.00000   0.00000
     15341 MEOH     143      MEOH     H1C      HDA3B    0.080000        1.0080           0   0.00000   0.00000
     15342 MEOH     143      MEOH     LP1A     LPD     -0.230000        0.0000           -1   0.00000   0.00000
     15343 MEOH     143      MEOH     LP1B     LPD     -0.230000        0.0000           -1   0.00000   0.00000
     15344 MEOH     144      MEOH     C1       CD33B    2.314100       11.6110           0   -1.00000   1.30000
     15345 MEOH     144      MEOH     DC1      DRUD    -2.454100        0.4000           0   0.00000   0.00000
     15346 MEOH     144      MEOH     O1       OD31H    2.488300       15.5990           0   -1.02800   1.30000
     15347 MEOH     144      MEOH     DO1      DRUD    -2.488300        0.4000           0   0.00000   0.00000
     15348 MEOH     144      MEOH     HO1      HDP1A    0.360000        1.0080           0   0.00000   0.00000
     15349 MEOH     144      MEOH     HO2      DUMH     0.000000        1.0080           0   0.00000   0.00000
     15350 MEOH     144      MEOH     H1A      HDA3B    0.080000        1.0080           0   0.00000   0.00000
     15351 MEOH     144      MEOH     H1B      HDA3B    0.080000        1.0080           0   0.00000   0.00000
     15352 MEOH     144      MEOH     H1C      HDA3B    0.080000        1.0080           0   0.00000   0.00000
     15353 MEOH     144      MEOH     LP1A     LPD     -0.230000        0.0000           -1   0.00000   0.00000
     15354 MEOH     144      MEOH     LP1B     LPD     -0.230000        0.0000           -1   0.00000   0.00000
     15355 MEOH     145      MEOH     C1       CD33B    2.314100       11.6110           0   -1.00000   1.30000
     15356 MEOH     145      MEOH     DC1      DRUD    -2.454100        0.4000           0   0.00000   0.00000
     15357 MEOH     145      MEOH     O1       OD31H    2.488300       15.5990           0   -1.02800   1.30000
     15358 MEOH     145      MEOH     DO1      DRUD    -2.488300        0.4000           0   0.00000   0.00000
     15359 MEOH     145      MEOH     HO1      HDP1A    0.360000        1.0080           0   0.00000   0.00000
     15360 MEOH     145      MEOH     HO2      DUMH     0.000000        1.0080           0   0.00000   0.00000
     15361 MEOH     145      MEOH     H1A      HDA3B    0.080000        1.0080           0   0.00000   0.00000
     15362 MEOH     145      MEOH     H1B      HDA3B    0.080000        1.0080           0   0.00000   0.00000
     15363 MEOH     145      MEOH     H1C      HDA3B    0.080000        1.0080           0   0.00000   0.00000
     15364 MEOH     145      MEOH     LP1A     LPD     -0.230000        0.0000           -1   0.00000   0.00000
     15365 MEOH     145      MEOH     LP1B     LPD     -0.230000        0.0000           -1   0.00000   0.00000
     15366 MEOH     146      MEOH     C1       CD33B    2.314100       11.6110           0   -1.00000   1.30000
     15367 MEOH     146      MEOH     DC1      DRUD    -2.454100        0.4000           0   0.00000   0.00000
     15368 MEOH     146      MEOH     O1       OD31H    2.488300       15.5990           0   -1.02800   1.30000
     15369 MEOH     146      MEOH     DO1      DRUD    -2.488300        0.4000           0   0.00000   0.00000
     15370 MEOH     146      MEOH     HO1      HDP1A    0.360000        1.0080           0   0.00000   0.00000
     15371 MEOH     146      MEOH     HO2      DUMH     0.000000        1.0080           0   0.00000   0.00000
     15372 MEOH     146      MEOH     H1A      HDA3B    0.080000        1.0080           0   0.00000   0.00000
     15373 MEOH     146      MEOH     H1B      HDA3B    0.080000        1.0080           0   0.00000   0.00000
     15374 MEOH     146      MEOH     H1C      HDA3B    0.080000        1.0080           0   0.00000   0.00000
     15375 MEOH     146      MEOH     LP1A     LPD     -0.230000        0.0000           -1   0.00000   0.00000
     15376 MEOH     146      MEOH     LP1B     LPD     -0.230000        0.0000           -1   0.00000   0.00000
     15377 MEOH     147      MEOH     C1       CD33B    2.314100       11.6110           0   -1.00000   1.30000
     15378 MEOH     147      MEOH     DC1      DRUD    -2.454100        0.4000           0   0.00000   0.00000
     15379 MEOH     147      MEOH     O1       OD31H    2.488300       15.5990           0   -1.02800   1.30000
     15380 MEOH     147      MEOH     DO1      DRUD    -2.488300        0.4000           0   0.00000   0.00000
     15381 MEOH     147      MEOH     HO1      HDP1A    0.360000        1.0080           0   0.00000   0.00000
     15382 MEOH     147      MEOH     HO2      DUMH     0.000000        1.0080           0   0.00000   0.00000
     15383 MEOH     147      MEOH     H1A      HDA3B    0.080000        1.0080           0   0.00000   0.00000
     15384 MEOH     147      MEOH     H1B      HDA3B    0.080000        1.0080           0   0.00000   0.00000
     15385 MEOH     147      MEOH     H1C      HDA3B    0.080000        1.0080           0   0.00000   0.00000
     15386 MEOH     147      MEOH     LP1A     LPD     -0.230000        0.0000           -1   0.00000   0.00000
     15387 MEOH     147      MEOH     LP1B     LPD     -0.230000        0.0000           -1   0.00000   0.00000
     15388 MEOH     148      MEOH     C1       CD33B    2.314100       11.6110           0   -1.00000   1.30000
     15389 MEOH     148      MEOH     DC1      DRUD    -2.454100        0.4000           0   0.00000   0.00000
     15390 MEOH     148      MEOH     O1       OD31H    2.488300       15.5990           0   -1.02800   1.30000
     15391 MEOH     148      MEOH     DO1      DRUD    -2.488300        0.4000           0   0.00000   0.00000
     15392 MEOH     148      MEOH     HO1      HDP1A    0.360000        1.0080           0   0.00000   0.00000
     15393 MEOH     148      MEOH     HO2      DUMH     0.000000        1.0080           0   0.00000   0.00000
     15394 MEOH     148      MEOH     H1A      HDA3B    0.080000        1.0080           0   0.00000   0.00000
     15395 MEOH     148      MEOH     H1B      HDA3B    0.080000        1.0080           0   0.00000   0.00000
     15396 MEOH     148      MEOH     H1C      HDA3B    0.080000        1.0080           0   0.00000   0.00000
     15397 MEOH     148      MEOH     LP1A     LPD     -0.230000        0.0000           -1   0.00000   0.00000
     15398 MEOH     148      MEOH     LP1B     LPD     -0.230000        0.0000           -1   0.00000   0.00000
     15399 MEOH     149      MEOH     C1       CD33B    2.314100       11.6110           0   -1.00000   1.30000
     15400 MEOH     149      MEOH     DC1      DRUD    -2.454100        0.4000           0   0.00000   0.00000
     15401 MEOH     149      MEOH     O1       OD31H    2.488300       15.5990           0   -1.02800   1.30000
     15402 MEOH     149      MEOH     DO1      DRUD    -2.488300        0.4000           0   0.00000   0.00000
     15403 MEOH     149      MEOH     HO1      HDP1A    0.360000        1.0080           0   0.00000   0.00000
     15404 MEOH     149      MEOH     HO2      DUMH     0.000000        1.0080           0   0.00000   0.00000
     15405 MEOH     149      MEOH     H1A      HDA3B    0.080000        1.0080           0   0.00000   0.00000
     15406 MEOH     149      MEOH     H1B      HDA3B    0.080000        1.0080           0   0.00000   0.00000
     15407 MEOH     149      MEOH     H1C      HDA3B    0.080000        1.0080           0   0.00000   0.00000
     15408 MEOH     149      MEOH     LP1A     LPD     -0.230000        0.0000           -1   0.00000   0.00000
     15409 MEOH     149      MEOH     LP1B     LPD     -0.230000        0.0000           -1   0.00000   0.00000
     15410 MEOH     150      MEOH     C1       CD33B    2.314100       11.6110           0   -1.00000   1.30000
     15411 MEOH     150      MEOH     DC1      DRUD    -2.454100        0.4000           0   0.00000   0.00000
     15412 MEOH     150      MEOH     O1       OD31H    2.488300       15.5990           0   -1.02800   1.30000
     15413 MEOH     150      MEOH     DO1      DRUD    -2.488300        0.4000           0   0.00000   0.00000
     15414 MEOH     150      MEOH     HO1      HDP1A    0.360000        1.0080           0   0.00000   0.00000
     15415 MEOH     150      MEOH     HO2      DUMH     0.000000        1.0080           0   0.00000   0.00000
     15416 MEOH     150      MEOH     H1A      HDA3B    0.080000        1.0080           0   0.00000   0.00000
     15417 MEOH     150      MEOH     H1B      HDA3B    0.080000        1.0080           0   0.00000   0.00000
     15418 MEOH     150      MEOH     H1C      HDA3B    0.080000        1.0080           0   0.00000   0.00000
     15419 MEOH     150      MEOH     LP1A     LPD     -0.230000        0.0000           -1   0.00000   0.00000
     15420 MEOH     150      MEOH     LP1B     LPD     -0.230000        0.0000           -1   0.00000   0.00000
     15421 MEOH     151      MEOH     C1       CD33B    2.314100       11.6110           0   -1.00000   1.30000
     15422 MEOH     151      MEOH     DC1      DRUD    -2.454100        0.4000           0   0.00000   0.00000
     15423 MEOH     151      MEOH     O1       OD31H    2.488300       15.5990           0   -1.02800   1.30000
     15424 MEOH     151      MEOH     DO1      DRUD    -2.488300        0.4000           0   0.00000   0.00000
     15425 MEOH     151      MEOH     HO1      HDP1A    0.360000        1.0080           0   0.00000   0.00000
     15426 MEOH     151      MEOH     HO2      DUMH     0.000000        1.0080           0   0.00000   0.00000
     15427 MEOH     151      MEOH     H1A      HDA3B    0.080000        1.0080           0   0.00000   0.00000
     15428 MEOH     151      MEOH     H1B      HDA3B    0.080000        1.0080           0   0.00000   0.00000
     15429 MEOH     151      MEOH     H1C      HDA3B    0.080000        1.0080           0   0.00000   0.00000
     15430 MEOH     151      MEOH     LP1A     LPD     -0.230000        0.0000           -1   0.00000   0.00000
     15431 MEOH     151      MEOH     LP1B     LPD     -0.230000        0.0000           -1   0.00000   0.00000
     15432 MEOH     152      MEOH     C1       CD33B    2.314100       11.6110           0   -1.00000   1.30000
     15433 MEOH     152      MEOH     DC1      DRUD    -2.454100        0.4000           0   0.00000   0.00000
     15434 MEOH     152      MEOH     O1       OD31H    2.488300       15.5990           0   -1.02800   1.30000
     15435 MEOH     152      MEOH     DO1      DRUD    -2.488300        0.4000           0   0.00000   0.00000
     15436 MEOH     152      MEOH     HO1      HDP1A    0.360000        1.0080           0   0.00000   0.00000
     15437 MEOH     152      MEOH     HO2      DUMH     0.000000        1.0080           0   0.00000   0.00000
     15438 MEOH     152      MEOH     H1A      HDA3B    0.080000        1.0080           0   0.00000   0.00000
     15439 MEOH     152      MEOH     H1B      HDA3B    0.080000        1.0080           0   0.00000   0.00000
     15440 MEOH     152      MEOH     H1C      HDA3B    0.080000        1.0080           0   0.00000   0.00000
     15441 MEOH     152      MEOH     LP1A     LPD     -0.230000        0.0000           -1   0.00000   0.00000
     15442 MEOH     152      MEOH     LP1B     LPD     -0.230000        0.0000           -1   0.00000   0.00000
     15443 MEOH     153      MEOH     C1       CD33B    2.314100       11.6110           0   -1.00000   1.30000
     15444 MEOH     153      MEOH     DC1      DRUD    -2.454100        0.4000           0   0.00000   0.00000
     15445 MEOH     153      MEOH     O1       OD31H    2.488300       15.5990           0   -1.02800   1.30000
     15446 MEOH     153      MEOH     DO1      DRUD    -2.488300        0.4000           0   0.00000   0.00000
     15447 MEOH     153      MEOH     HO1      HDP1A    0.360000        1.0080           0   0.00000   0.00000
     15448 MEOH     153      MEOH     HO2      DUMH     0.000000        1.0080           0   0.00000   0.00000
     15449 MEOH     153      MEOH     H1A      HDA3B    0.080000        1.0080           0   0.00000   0.00000
     15450 MEOH     153      MEOH     H1B      HDA3B    0.080000        1.0080           0   0.00000   0.00000
     15451 MEOH     153      MEOH     H1C      HDA3B    0.080000        1.0080           0   0.00000   0.00000
     15452 MEOH     153      MEOH     LP1A     LPD     -0.230000        0.0000           -1   0.00000   0.00000
     15453 MEOH     153      MEOH     LP1B     LPD     -0.230000        0.0000           -1   0.00000   0.00000
     15454 MEOH     154      MEOH     C1       CD33B    2.314100       11.6110           0   -1.00000   1.30000
     15455 MEOH     154      MEOH     DC1      DRUD    -2.454100        0.4000           0   0.00000   0.00000
     15456 MEOH     154      MEOH     O1       OD31H    2.488300       15.5990           0   -1.02800   1.30000
     15457 MEOH     154      MEOH     DO1      DRUD    -2.488300        0.4000           0   0.00000   0.00000
     15458 MEOH     154      MEOH     HO1      HDP1A    0.360000        1.0080           0   0.00000   0.00000
     15459 MEOH     154      MEOH     HO2      DUMH     0.000000        1.0080           0   0.00000   0.00000
     15460 MEOH     154      MEOH     H1A      HDA3B    0.080000        1.0080           0   0.00000   0.00000
     15461 MEOH     154      MEOH     H1B      HDA3B    0.080000        1.0080           0   0.00000   0.00000
     15462 MEOH     154      MEOH     H1C      HDA3B    0.080000        1.0080           0   0.00000   0.00000
     15463 MEOH     154      MEOH     LP1A     LPD     -0.230000        0.0000           -1   0.00000   0.00000
     15464 MEOH     154      MEOH     LP1B     LPD     -0.230000        0.0000           -1   0.00000   0.00000
     15465 MEOH     155      MEOH     C1       CD33B    2.314100       11.6110           0   -1.00000   1.30000
     15466 MEOH     155      MEOH     DC1      DRUD    -2.454100        0.4000           0   0.00000   0.00000
     15467 MEOH     155      MEOH     O1       OD31H    2.488300       15.5990           0   -1.02800   1.30000
     15468 MEOH     155      MEOH     DO1      DRUD    -2.488300        0.4000           0   0.00000   0.00000
     15469 MEOH     155      MEOH     HO1      HDP1A    0.360000        1.0080           0   0.00000   0.00000
     15470 MEOH     155      MEOH     HO2      DUMH     0.000000        1.0080           0   0.00000   0.00000
     15471 MEOH     155      MEOH     H1A      HDA3B    0.080000        1.0080           0   0.00000   0.00000
     15472 MEOH     155      MEOH     H1B      HDA3B    0.080000        1.0080           0   0.00000   0.00000
     15473 MEOH     155      MEOH     H1C      HDA3B    0.080000        1.0080           0   0.00000   0.00000
     15474 MEOH     155      MEOH     LP1A     LPD     -0.230000        0.0000           -1   0.00000   0.00000
     15475 MEOH     155      MEOH     LP1B     LPD     -0.230000        0.0000           -1   0.00000   0.00000
     15476 MEOH     156      MEOH     C1       CD33B    2.314100       11.6110           0   -1.00000   1.30000
     15477 MEOH     156      MEOH     DC1      DRUD    -2.454100        0.4000           0   0.00000   0.00000
     15478 MEOH     156      MEOH     O1       OD31H    2.488300       15.5990           0   -1.02800   1.30000
     15479 MEOH     156      MEOH     DO1      DRUD    -2.488300        0.4000           0   0.00000   0.00000
     15480 MEOH     156      MEOH     HO1      HDP1A    0.360000        1.0080           0   0.00000   0.00000
     15481 MEOH     156      MEOH     HO2      DUMH     0.000000        1.0080           0   0.00000   0.00000
     15482 MEOH     156      MEOH     H1A      HDA3B    0.080000        1.0080           0   0.00000   0.00000
     15483 MEOH     156      MEOH     H1B      HDA3B    0.080000        1.0080           0   0.00000   0.00000
     15484 MEOH     156      MEOH     H1C      HDA3B    0.080000        1.0080           0   0.00000   0.00000
     15485 MEOH     156      MEOH     LP1A     LPD     -0.230000        0.0000           -1   0.00000   0.00000
     15486 MEOH     156      MEOH     LP1B     LPD     -0.230000        0.0000           -1   0.00000   0.00000
     15487 MEOH     157      MEOH     C1       CD33B    2.314100       11.6110           0   -1.00000   1.30000
     15488 MEOH     157      MEOH     DC1      DRUD    -2.454100        0.4000           0   0.00000   0.00000
     15489 MEOH     157      MEOH     O1       OD31H    2.488300       15.5990           0   -1.02800   1.30000
     15490 MEOH     157      MEOH     DO1      DRUD    -2.488300        0.4000           0   0.00000   0.00000
     15491 MEOH     157      MEOH     HO1      HDP1A    0.360000        1.0080           0   0.00000   0.00000
     15492 MEOH     157      MEOH     HO2      DUMH     0.000000        1.0080           0   0.00000   0.00000
     15493 MEOH     157      MEOH     H1A      HDA3B    0.080000        1.0080           0   0.00000   0.00000
     15494 MEOH     157      MEOH     H1B      HDA3B    0.080000        1.0080           0   0.00000   0.00000
     15495 MEOH     157      MEOH     H1C      HDA3B    0.080000        1.0080           0   0.00000   0.00000
     15496 MEOH     157      MEOH     LP1A     LPD     -0.230000        0.0000           -1   0.00000   0.00000
     15497 MEOH     157      MEOH     LP1B     LPD     -0.230000        0.0000           -1   0.00000   0.00000
     15498 MEOH     158      MEOH     C1       CD33B    2.314100       11.6110           0   -1.00000   1.30000
     15499 MEOH     158      MEOH     DC1      DRUD    -2.454100        0.4000           0   0.00000   0.00000
     15500 MEOH     158      MEOH     O1       OD31H    2.488300       15.5990           0   -1.02800   1.30000
     15501 MEOH     158      MEOH     DO1      DRUD    -2.488300        0.4000           0   0.00000   0.00000
     15502 MEOH     158      MEOH     HO1      HDP1A    0.360000        1.0080           0   0.00000   0.00000
     15503 MEOH     158      MEOH     HO2      DUMH     0.000000        1.0080           0   0.00000   0.00000
     15504 MEOH     158      MEOH     H1A      HDA3B    0.080000        1.0080           0   0.00000   0.00000
     15505 MEOH     158      MEOH     H1B      HDA3B    0.080000        1.0080           0   0.00000   0.00000
     15506 MEOH     158      MEOH     H1C      HDA3B    0.080000        1.0080           0   0.00000   0.00000
     15507 MEOH     158      MEOH     LP1A     LPD     -0.230000        0.0000           -1   0.00000   0.00000
     15508 MEOH     158      MEOH     LP1B     LPD     -0.230000        0.0000           -1   0.00000   0.00000
     15509 MEOH     159      MEOH     C1       CD33B    2.314100       11.6110           0   -1.00000   1.30000
     15510 MEOH     159      MEOH     DC1      DRUD    -2.454100        0.4000           0   0.00000   0.00000
     15511 MEOH     159      MEOH     O1       OD31H    2.488300       15.5990           0   -1.02800   1.30000
     15512 MEOH     159      MEOH     DO1      DRUD    -2.488300        0.4000           0   0.00000   0.00000
     15513 MEOH     159      MEOH     HO1      HDP1A    0.360000        1.0080           0   0.00000   0.00000
     15514 MEOH     159      MEOH     HO2      DUMH     0.000000        1.0080           0   0.00000   0.00000
     15515 MEOH     159      MEOH     H1A      HDA3B    0.080000        1.0080           0   0.00000   0.00000
     15516 MEOH     159      MEOH     H1B      HDA3B    0.080000        1.0080           0   0.00000   0.00000
     15517 MEOH     159      MEOH     H1C      HDA3B    0.080000        1.0080           0   0.00000   0.00000
     15518 MEOH     159      MEOH     LP1A     LPD     -0.230000        0.0000           -1   0.00000   0.00000
     15519 MEOH     159      MEOH     LP1B     LPD     -0.230000        0.0000           -1   0.00000   0.00000
     15520 MEOH     160      MEOH     C1       CD33B    2.314100       11.6110           0   -1.00000   1.30000
     15521 MEOH     160      MEOH     DC1      DRUD    -2.454100        0.4000           0   0.00000   0.00000
     15522 MEOH     160      MEOH     O1       OD31H    2.488300       15.5990           0   -1.02800   1.30000
     15523 MEOH     160      MEOH     DO1      DRUD    -2.488300        0.4000           0   0.00000   0.00000
     15524 MEOH     160      MEOH     HO1      HDP1A    0.360000        1.0080           0   0.00000   0.00000
     15525 MEOH     160      MEOH     HO2      DUMH     0.000000        1.0080           0   0.00000   0.00000
     15526 MEOH     160      MEOH     H1A      HDA3B    0.080000        1.0080           0   0.00000   0.00000
     15527 MEOH     160      MEOH     H1B      HDA3B    0.080000        1.0080           0   0.00000   0.00000
     15528 MEOH     160      MEOH     H1C      HDA3B    0.080000        1.0080           0   0.00000   0.00000
     15529 MEOH     160      MEOH     LP1A     LPD     -0.230000        0.0000           -1   0.00000   0.00000
     15530 MEOH     160      MEOH     LP1B     LPD     -0.230000        0.0000           -1   0.00000   0.00000
     15531 MEOH     161      MEOH     C1       CD33B    2.314100       11.6110           0   -1.00000   1.30000
     15532 MEOH     161      MEOH     DC1      DRUD    -2.454100        0.4000           0   0.00000   0.00000
     15533 MEOH     161      MEOH     O1       OD31H    2.488300       15.5990           0   -1.02800   1.30000
     15534 MEOH     161      MEOH     DO1      DRUD    -2.488300        0.4000           0   0.00000   0.00000
     15535 MEOH     161      MEOH     HO1      HDP1A    0.360000        1.0080           0   0.00000   0.00000
     15536 MEOH     161      MEOH     HO2      DUMH     0.000000        1.0080           0   0.00000   0.00000
     15537 MEOH     161      MEOH     H1A      HDA3B    0.080000        1.0080           0   0.00000   0.00000
     15538 MEOH     161      MEOH     H1B      HDA3B    0.080000        1.0080           0   0.00000   0.00000
     15539 MEOH     161      MEOH     H1C      HDA3B    0.080000        1.0080           0   0.00000   0.00000
     15540 MEOH     161      MEOH     LP1A     LPD     -0.230000        0.0000           -1   0.00000   0.00000
     15541 MEOH     161      MEOH     LP1B     LPD     -0.230000        0.0000           -1   0.00000   0.00000
     15542 MEOH     162      MEOH     C1       CD33B    2.314100       11.6110           0   -1.00000   1.30000
     15543 MEOH     162      MEOH     DC1      DRUD    -2.454100        0.4000           0   0.00000   0.00000
     15544 MEOH     162      MEOH     O1       OD31H    2.488300       15.5990           0   -1.02800   1.30000
     15545 MEOH     162      MEOH     DO1      DRUD    -2.488300        0.4000           0   0.00000   0.00000
     15546 MEOH     162      MEOH     HO1      HDP1A    0.360000        1.0080           0   0.00000   0.00000
     15547 MEOH     162      MEOH     HO2      DUMH     0.000000        1.0080           0   0.00000   0.00000
     15548 MEOH     162      MEOH     H1A      HDA3B    0.080000        1.0080           0   0.00000   0.00000
     15549 MEOH     162      MEOH     H1B      HDA3B    0.080000        1.0080           0   0.00000   0.00000
     15550 MEOH     162      MEOH     H1C      HDA3B    0.080000        1.0080           0   0.00000   0.00000
     15551 MEOH     162      MEOH     LP1A     LPD     -0.230000        0.0000           -1   0.00000   0.00000
     15552 MEOH     162      MEOH     LP1B     LPD     -0.230000        0.0000           -1   0.00000   0.00000
     15553 MEOH     163      MEOH     C1       CD33B    2.314100       11.6110           0   -1.00000   1.30000
     15554 MEOH     163      MEOH     DC1      DRUD    -2.454100        0.4000           0   0.00000   0.00000
     15555 MEOH     163      MEOH     O1       OD31H    2.488300       15.5990           0   -1.02800   1.30000
     15556 MEOH     163      MEOH     DO1      DRUD    -2.488300        0.4000           0   0.00000   0.00000
     15557 MEOH     163      MEOH     HO1      HDP1A    0.360000        1.0080           0   0.00000   0.00000
     15558 MEOH     163      MEOH     HO2      DUMH     0.000000        1.0080           0   0.00000   0.00000
     15559 MEOH     163      MEOH     H1A      HDA3B    0.080000        1.0080           0   0.00000   0.00000
     15560 MEOH     163      MEOH     H1B      HDA3B    0.080000        1.0080           0   0.00000   0.00000
     15561 MEOH     163      MEOH     H1C      HDA3B    0.080000        1.0080           0   0.00000   0.00000
     15562 MEOH     163      MEOH     LP1A     LPD     -0.230000        0.0000           -1   0.00000   0.00000
     15563 MEOH     163      MEOH     LP1B     LPD     -0.230000        0.0000           -1   0.00000   0.00000
     15564 MEOH     164      MEOH     C1       CD33B    2.314100       11.6110           0   -1.00000   1.30000
     15565 MEOH     164      MEOH     DC1      DRUD    -2.454100        0.4000           0   0.00000   0.00000
     15566 MEOH     164      MEOH     O1       OD31H    2.488300       15.5990           0   -1.02800   1.30000
     15567 MEOH     164      MEOH     DO1      DRUD    -2.488300        0.4000           0   0.00000   0.00000
     15568 MEOH     164      MEOH     HO1      HDP1A    0.360000        1.0080           0   0.00000   0.00000
     15569 MEOH     164      MEOH     HO2      DUMH     0.000000        1.0080           0   0.00000   0.00000
     15570 MEOH     164      MEOH     H1A      HDA3B    0.080000        1.0080           0   0.00000   0.00000
     15571 MEOH     164      MEOH     H1B      HDA3B    0.080000        1.0080           0   0.00000   0.00000
     15572 MEOH     164      MEOH     H1C      HDA3B    0.080000        1.0080           0   0.00000   0.00000
     15573 MEOH     164      MEOH     LP1A     LPD     -0.230000        0.0000           -1   0.00000   0.00000
     15574 MEOH     164      MEOH     LP1B     LPD     -0.230000        0.0000           -1   0.00000   0.00000
     15575 MEOH     165      MEOH     C1       CD33B    2.314100       11.6110           0   -1.00000   1.30000
     15576 MEOH     165      MEOH     DC1      DRUD    -2.454100        0.4000           0   0.00000   0.00000
     15577 MEOH     165      MEOH     O1       OD31H    2.488300       15.5990           0   -1.02800   1.30000
     15578 MEOH     165      MEOH     DO1      DRUD    -2.488300        0.4000           0   0.00000   0.00000
     15579 MEOH     165      MEOH     HO1      HDP1A    0.360000        1.0080           0   0.00000   0.00000
     15580 MEOH     165      MEOH     HO2      DUMH     0.000000        1.0080           0   0.00000   0.00000
     15581 MEOH     165      MEOH     H1A      HDA3B    0.080000        1.0080           0   0.00000   0.00000
     15582 MEOH     165      MEOH     H1B      HDA3B    0.080000        1.0080           0   0.00000   0.00000
     15583 MEOH     165      MEOH     H1C      HDA3B    0.080000        1.0080           0   0.00000   0.00000
     15584 MEOH     165      MEOH     LP1A     LPD     -0.230000        0.0000           -1   0.00000   0.00000
     15585 MEOH     165      MEOH     LP1B     LPD     -0.230000        0.0000           -1   0.00000   0.00000
     15586 MEOH     166      MEOH     C1       CD33B    2.314100       11.6110           0   -1.00000   1.30000
     15587 MEOH     166      MEOH     DC1      DRUD    -2.454100        0.4000           0   0.00000   0.00000
     15588 MEOH     166      MEOH     O1       OD31H    2.488300       15.5990           0   -1.02800   1.30000
     15589 MEOH     166      MEOH     DO1      DRUD    -2.488300        0.4000           0   0.00000   0.00000
     15590 MEOH     166      MEOH     HO1      HDP1A    0.360000        1.0080           0   0.00000   0.00000
     15591 MEOH     166      MEOH     HO2      DUMH     0.000000        1.0080           0   0.00000   0.00000
     15592 MEOH     166      MEOH     H1A      HDA3B    0.080000        1.0080           0   0.00000   0.00000
     15593 MEOH     166      MEOH     H1B      HDA3B    0.080000        1.0080           0   0.00000   0.00000
     15594 MEOH     166      MEOH     H1C      HDA3B    0.080000        1.0080           0   0.00000   0.00000
     15595 MEOH     166      MEOH     LP1A     LPD     -0.230000        0.0000           -1   0.00000   0.00000
     15596 MEOH     166      MEOH     LP1B     LPD     -0.230000        0.0000           -1   0.00000   0.00000
     15597 MEOH     167      MEOH     C1       CD33B    2.314100       11.6110           0   -1.00000   1.30000
     15598 MEOH     167      MEOH     DC1      DRUD    -2.454100        0.4000           0   0.00000   0.00000
     15599 MEOH     167      MEOH     O1       OD31H    2.488300       15.5990           0   -1.02800   1.30000
     15600 MEOH     167      MEOH     DO1      DRUD    -2.488300        0.4000           0   0.00000   0.00000
     15601 MEOH     167      MEOH     HO1      HDP1A    0.360000        1.0080           0   0.00000   0.00000
     15602 MEOH     167      MEOH     HO2      DUMH     0.000000        1.0080           0   0.00000   0.00000
     15603 MEOH     167      MEOH     H1A      HDA3B    0.080000        1.0080           0   0.00000   0.00000
     15604 MEOH     167      MEOH     H1B      HDA3B    0.080000        1.0080           0   0.00000   0.00000
     15605 MEOH     167      MEOH     H1C      HDA3B    0.080000        1.0080           0   0.00000   0.00000
     15606 MEOH     167      MEOH     LP1A     LPD     -0.230000        0.0000           -1   0.00000   0.00000
     15607 MEOH     167      MEOH     LP1B     LPD     -0.230000        0.0000           -1   0.00000   0.00000
     15608 MEOH     168      MEOH     C1       CD33B    2.314100       11.6110           0   -1.00000   1.30000
     15609 MEOH     168      MEOH     DC1      DRUD    -2.454100        0.4000           0   0.00000   0.00000
     15610 MEOH     168      MEOH     O1       OD31H    2.488300       15.5990           0   -1.02800   1.30000
     15611 MEOH     168      MEOH     DO1      DRUD    -2.488300        0.4000           0   0.00000   0.00000
     15612 MEOH     168      MEOH     HO1      HDP1A    0.360000        1.0080           0   0.00000   0.00000
     15613 MEOH     168      MEOH     HO2      DUMH     0.000000        1.0080           0   0.00000   0.00000
     15614 MEOH     168      MEOH     H1A      HDA3B    0.080000        1.0080           0   0.00000   0.00000
     15615 MEOH     168      MEOH     H1B      HDA3B    0.080000        1.0080           0   0.00000   0.00000
     15616 MEOH     168      MEOH     H1C      HDA3B    0.080000        1.0080           0   0.00000   0.00000
     15617 MEOH     168      MEOH     LP1A     LPD     -0.230000        0.0000           -1   0.00000   0.00000
     15618 MEOH     168      MEOH     LP1B     LPD     -0.230000        0.0000           -1   0.00000   0.00000
     15619 MEOH     169      MEOH     C1       CD33B    2.314100       11.6110           0   -1.00000   1.30000
     15620 MEOH     169      MEOH     DC1      DRUD    -2.454100        0.4000           0   0.00000   0.00000
     15621 MEOH     169      MEOH     O1       OD31H    2.488300       15.5990           0   -1.02800   1.30000
     15622 MEOH     169      MEOH     DO1      DRUD    -2.488300        0.4000           0   0.00000   0.00000
     15623 MEOH     169      MEOH     HO1      HDP1A    0.360000        1.0080           0   0.00000   0.00000
     15624 MEOH     169      MEOH     HO2      DUMH     0.000000        1.0080           0   0.00000   0.00000
     15625 MEOH     169      MEOH     H1A      HDA3B    0.080000        1.0080           0   0.00000   0.00000
     15626 MEOH     169      MEOH     H1B      HDA3B    0.080000        1.0080           0   0.00000   0.00000
     15627 MEOH     169      MEOH     H1C      HDA3B    0.080000        1.0080           0   0.00000   0.00000
     15628 MEOH     169      MEOH     LP1A     LPD     -0.230000        0.0000           -1   0.00000   0.00000
     15629 MEOH     169      MEOH     LP1B     LPD     -0.230000        0.0000           -1   0.00000   0.00000
     15630 MEOH     170      MEOH     C1       CD33B    2.314100       11.6110           0   -1.00000   1.30000
     15631 MEOH     170      MEOH     DC1      DRUD    -2.454100        0.4000           0   0.00000   0.00000
     15632 MEOH     170      MEOH     O1       OD31H    2.488300       15.5990           0   -1.02800   1.30000
     15633 MEOH     170      MEOH     DO1      DRUD    -2.488300        0.4000           0   0.00000   0.00000
     15634 MEOH     170      MEOH     HO1      HDP1A    0.360000        1.0080           0   0.00000   0.00000
     15635 MEOH     170      MEOH     HO2      DUMH     0.000000        1.0080           0   0.00000   0.00000
     15636 MEOH     170      MEOH     H1A      HDA3B    0.080000        1.0080           0   0.00000   0.00000
     15637 MEOH     170      MEOH     H1B      HDA3B    0.080000        1.0080           0   0.00000   0.00000
     15638 MEOH     170      MEOH     H1C      HDA3B    0.080000        1.0080           0   0.00000   0.00000
     15639 MEOH     170      MEOH     LP1A     LPD     -0.230000        0.0000           -1   0.00000   0.00000
     15640 MEOH     170      MEOH     LP1B     LPD     -0.230000        0.0000           -1   0.00000   0.00000
     15641 MEOH     171      MEOH     C1       CD33B    2.314100       11.6110           0   -1.00000   1.30000
     15642 MEOH     171      MEOH     DC1      DRUD    -2.454100        0.4000           0   0.00000   0.00000
     15643 MEOH     171      MEOH     O1       OD31H    2.488300       15.5990           0   -1.02800   1.30000
     15644 MEOH     171      MEOH     DO1      DRUD    -2.488300        0.4000           0   0.00000   0.00000
     15645 MEOH     171      MEOH     HO1      HDP1A    0.360000        1.0080           0   0.00000   0.00000
     15646 MEOH     171      MEOH     HO2      DUMH     0.000000        1.0080           0   0.00000   0.00000
     15647 MEOH     171      MEOH     H1A      HDA3B    0.080000        1.0080           0   0.00000   0.00000
     15648 MEOH     171      MEOH     H1B      HDA3B    0.080000        1.0080           0   0.00000   0.00000
     15649 MEOH     171      MEOH     H1C      HDA3B    0.080000        1.0080           0   0.00000   0.00000
     15650 MEOH     171      MEOH     LP1A     LPD     -0.230000        0.0000           -1   0.00000   0.00000
     15651 MEOH     171      MEOH     LP1B     LPD     -0.230000        0.0000           -1   0.00000   0.00000
     15652 MEOH     172      MEOH     C1       CD33B    2.314100       11.6110           0   -1.00000   1.30000
     15653 MEOH     172      MEOH     DC1      DRUD    -2.454100        0.4000           0   0.00000   0.00000
     15654 MEOH     172      MEOH     O1       OD31H    2.488300       15.5990           0   -1.02800   1.30000
     15655 MEOH     172      MEOH     DO1      DRUD    -2.488300        0.4000           0   0.00000   0.00000
     15656 MEOH     172      MEOH     HO1      HDP1A    0.360000        1.0080           0   0.00000   0.00000
     15657 MEOH     172      MEOH     HO2      DUMH     0.000000        1.0080           0   0.00000   0.00000
     15658 MEOH     172      MEOH     H1A      HDA3B    0.080000        1.0080           0   0.00000   0.00000
     15659 MEOH     172      MEOH     H1B      HDA3B    0.080000        1.0080           0   0.00000   0.00000
     15660 MEOH     172      MEOH     H1C      HDA3B    0.080000        1.0080           0   0.00000   0.00000
     15661 MEOH     172      MEOH     LP1A     LPD     -0.230000        0.0000           -1   0.00000   0.00000
     15662 MEOH     172      MEOH     LP1B     LPD     -0.230000        0.0000           -1   0.00000   0.00000
     15663 MEOH     173      MEOH     C1       CD33B    2.314100       11.6110           0   -1.00000   1.30000
     15664 MEOH     173      MEOH     DC1      DRUD    -2.454100        0.4000           0   0.00000   0.00000
     15665 MEOH     173      MEOH     O1       OD31H    2.488300       15.5990           0   -1.02800   1.30000
     15666 MEOH     173      MEOH     DO1      DRUD    -2.488300        0.4000           0   0.00000   0.00000
     15667 MEOH     173      MEOH     HO1      HDP1A    0.360000        1.0080           0   0.00000   0.00000
     15668 MEOH     173      MEOH     HO2      DUMH     0.000000        1.0080           0   0.00000   0.00000
     15669 MEOH     173      MEOH     H1A      HDA3B    0.080000        1.0080           0   0.00000   0.00000
     15670 MEOH     173      MEOH     H1B      HDA3B    0.080000        1.0080           0   0.00000   0.00000
     15671 MEOH     173      MEOH     H1C      HDA3B    0.080000        1.0080           0   0.00000   0.00000
     15672 MEOH     173      MEOH     LP1A     LPD     -0.230000        0.0000           -1   0.00000   0.00000
     15673 MEOH     173      MEOH     LP1B     LPD     -0.230000        0.0000           -1   0.00000   0.00000
     15674 MEOH     174      MEOH     C1       CD33B    2.314100       11.6110           0   -1.00000   1.30000
     15675 MEOH     174      MEOH     DC1      DRUD    -2.454100        0.4000           0   0.00000   0.00000
     15676 MEOH     174      MEOH     O1       OD31H    2.488300       15.5990           0   -1.02800   1.30000
     15677 MEOH     174      MEOH     DO1      DRUD    -2.488300        0.4000           0   0.00000   0.00000
     15678 MEOH     174      MEOH     HO1      HDP1A    0.360000        1.0080           0   0.00000   0.00000
     15679 MEOH     174      MEOH     HO2      DUMH     0.000000        1.0080           0   0.00000   0.00000
     15680 MEOH     174      MEOH     H1A      HDA3B    0.080000        1.0080           0   0.00000   0.00000
     15681 MEOH     174      MEOH     H1B      HDA3B    0.080000        1.0080           0   0.00000   0.00000
     15682 MEOH     174      MEOH     H1C      HDA3B    0.080000        1.0080           0   0.00000   0.00000
     15683 MEOH     174      MEOH     LP1A     LPD     -0.230000        0.0000           -1   0.00000   0.00000
     15684 MEOH     174      MEOH     LP1B     LPD     -0.230000        0.0000           -1   0.00000   0.00000
     15685 MEOH     175      MEOH     C1       CD33B    2.314100       11.6110           0   -1.00000   1.30000
     15686 MEOH     175      MEOH     DC1      DRUD    -2.454100        0.4000           0   0.00000   0.00000
     15687 MEOH     175      MEOH     O1       OD31H    2.488300       15.5990           0   -1.02800   1.30000
     15688 MEOH     175      MEOH     DO1      DRUD    -2.488300        0.4000           0   0.00000   0.00000
     15689 MEOH     175      MEOH     HO1      HDP1A    0.360000        1.0080           0   0.00000   0.00000
     15690 MEOH     175      MEOH     HO2      DUMH     0.000000        1.0080           0   0.00000   0.00000
     15691 MEOH     175      MEOH     H1A      HDA3B    0.080000        1.0080           0   0.00000   0.00000
     15692 MEOH     175      MEOH     H1B      HDA3B    0.080000        1.0080           0   0.00000   0.00000
     15693 MEOH     175      MEOH     H1C      HDA3B    0.080000        1.0080           0   0.00000   0.00000
     15694 MEOH     175      MEOH     LP1A     LPD     -0.230000        0.0000           -1   0.00000   0.00000
     15695 MEOH     175      MEOH     LP1B     LPD     -0.230000        0.0000           -1   0.00000   0.00000
     15696 MEOH     176      MEOH     C1       CD33B    2.314100       11.6110           0   -1.00000   1.30000
     15697 MEOH     176      MEOH     DC1      DRUD    -2.454100        0.4000           0   0.00000   0.00000
     15698 MEOH     176      MEOH     O1       OD31H    2.488300       15.5990           0   -1.02800   1.30000
     15699 MEOH     176      MEOH     DO1      DRUD    -2.488300        0.4000           0   0.00000   0.00000
     15700 MEOH     176      MEOH     HO1      HDP1A    0.360000        1.0080           0   0.00000   0.00000
     15701 MEOH     176      MEOH     HO2      DUMH     0.000000        1.0080           0   0.00000   0.00000
     15702 MEOH     176      MEOH     H1A      HDA3B    0.080000        1.0080           0   0.00000   0.00000
     15703 MEOH     176      MEOH     H1B      HDA3B    0.080000        1.0080           0   0.00000   0.00000
     15704 MEOH     176      MEOH     H1C      HDA3B    0.080000        1.0080           0   0.00000   0.00000
     15705 MEOH     176      MEOH     LP1A     LPD     -0.230000        0.0000           -1   0.00000   0.00000
     15706 MEOH     176      MEOH     LP1B     LPD     -0.230000        0.0000           -1   0.00000   0.00000
     15707 MEOH     177      MEOH     C1       CD33B    2.314100       11.6110           0   -1.00000   1.30000
     15708 MEOH     177      MEOH     DC1      DRUD    -2.454100        0.4000           0   0.00000   0.00000
     15709 MEOH     177      MEOH     O1       OD31H    2.488300       15.5990           0   -1.02800   1.30000
     15710 MEOH     177      MEOH     DO1      DRUD    -2.488300        0.4000           0   0.00000   0.00000
     15711 MEOH     177      MEOH     HO1      HDP1A    0.360000        1.0080           0   0.00000   0.00000
     15712 MEOH     177      MEOH     HO2      DUMH     0.000000        1.0080           0   0.00000   0.00000
     15713 MEOH     177      MEOH     H1A      HDA3B    0.080000        1.0080           0   0.00000   0.00000
     15714 MEOH     177      MEOH     H1B      HDA3B    0.080000        1.0080           0   0.00000   0.00000
     15715 MEOH     177      MEOH     H1C      HDA3B    0.080000        1.0080           0   0.00000   0.00000
     15716 MEOH     177      MEOH     LP1A     LPD     -0.230000        0.0000           -1   0.00000   0.00000
     15717 MEOH     177      MEOH     LP1B     LPD     -0.230000        0.0000           -1   0.00000   0.00000
     15718 MEOH     178      MEOH     C1       CD33B    2.314100       11.6110           0   -1.00000   1.30000
     15719 MEOH     178      MEOH     DC1      DRUD    -2.454100        0.4000           0   0.00000   0.00000
     15720 MEOH     178      MEOH     O1       OD31H    2.488300       15.5990           0   -1.02800   1.30000
     15721 MEOH     178      MEOH     DO1      DRUD    -2.488300        0.4000           0   0.00000   0.00000
     15722 MEOH     178      MEOH     HO1      HDP1A    0.360000        1.0080           0   0.00000   0.00000
     15723 MEOH     178      MEOH     HO2      DUMH     0.000000        1.0080           0   0.00000   0.00000
     15724 MEOH     178      MEOH     H1A      HDA3B    0.080000        1.0080           0   0.00000   0.00000
     15725 MEOH     178      MEOH     H1B      HDA3B    0.080000        1.0080           0   0.00000   0.00000
     15726 MEOH     178      MEOH     H1C      HDA3B    0.080000        1.0080           0   0.00000   0.00000
     15727 MEOH     178      MEOH     LP1A     LPD     -0.230000        0.0000           -1   0.00000   0.00000
     15728 MEOH     178      MEOH     LP1B     LPD     -0.230000        0.0000           -1   0.00000   0.00000
     15729 MEOH     179      MEOH     C1       CD33B    2.314100       11.6110           0   -1.00000   1.30000
     15730 MEOH     179      MEOH     DC1      DRUD    -2.454100        0.4000           0   0.00000   0.00000
     15731 MEOH     179      MEOH     O1       OD31H    2.488300       15.5990           0   -1.02800   1.30000
     15732 MEOH     179      MEOH     DO1      DRUD    -2.488300        0.4000           0   0.00000   0.00000
     15733 MEOH     179      MEOH     HO1      HDP1A    0.360000        1.0080           0   0.00000   0.00000
     15734 MEOH     179      MEOH     HO2      DUMH     0.000000        1.0080           0   0.00000   0.00000
     15735 MEOH     179      MEOH     H1A      HDA3B    0.080000        1.0080           0   0.00000   0.00000
     15736 MEOH     179      MEOH     H1B      HDA3B    0.080000        1.0080           0   0.00000   0.00000
     15737 MEOH     179      MEOH     H1C      HDA3B    0.080000        1.0080           0   0.00000   0.00000
     15738 MEOH     179      MEOH     LP1A     LPD     -0.230000        0.0000           -1   0.00000   0.00000
     15739 MEOH     179      MEOH     LP1B     LPD     -0.230000        0.0000           -1   0.00000   0.00000
     15740 MEOH     180      MEOH     C1       CD33B    2.314100       11.6110           0   -1.00000   1.30000
     15741 MEOH     180      MEOH     DC1      DRUD    -2.454100        0.4000           0   0.00000   0.00000
     15742 MEOH     180      MEOH     O1       OD31H    2.488300       15.5990           0   -1.02800   1.30000
     15743 MEOH     180      MEOH     DO1      DRUD    -2.488300        0.4000           0   0.00000   0.00000
     15744 MEOH     180      MEOH     HO1      HDP1A    0.360000        1.0080           0   0.00000   0.00000
     15745 MEOH     180      MEOH     HO2      DUMH     0.000000        1.0080           0   0.00000   0.00000
     15746 MEOH     180      MEOH     H1A      HDA3B    0.080000        1.0080           0   0.00000   0.00000
     15747 MEOH     180      MEOH     H1B      HDA3B    0.080000        1.0080           0   0.00000   0.00000
     15748 MEOH     180      MEOH     H1C      HDA3B    0.080000        1.0080           0   0.00000   0.00000
     15749 MEOH     180      MEOH     LP1A     LPD     -0.230000        0.0000           -1   0.00000   0.00000
     15750 MEOH     180      MEOH     LP1B     LPD     -0.230000        0.0000           -1   0.00000   0.00000
     15751 MEOH     181      MEOH     C1       CD33B    2.314100       11.6110           0   -1.00000   1.30000
     15752 MEOH     181      MEOH     DC1      DRUD    -2.454100        0.4000           0   0.00000   0.00000
     15753 MEOH     181      MEOH     O1       OD31H    2.488300       15.5990           0   -1.02800   1.30000
     15754 MEOH     181      MEOH     DO1      DRUD    -2.488300        0.4000           0   0.00000   0.00000
     15755 MEOH     181      MEOH     HO1      HDP1A    0.360000        1.0080           0   0.00000   0.00000
     15756 MEOH     181      MEOH     HO2      DUMH     0.000000        1.0080           0   0.00000   0.00000
     15757 MEOH     181      MEOH     H1A      HDA3B    0.080000        1.0080           0   0.00000   0.00000
     15758 MEOH     181      MEOH     H1B      HDA3B    0.080000        1.0080           0   0.00000   0.00000
     15759 MEOH     181      MEOH     H1C      HDA3B    0.080000        1.0080           0   0.00000   0.00000
     15760 MEOH     181      MEOH     LP1A     LPD     -0.230000        0.0000           -1   0.00000   0.00000
     15761 MEOH     181      MEOH     LP1B     LPD     -0.230000        0.0000           -1   0.00000   0.00000
     15762 MEOH     182      MEOH     C1       CD33B    2.314100       11.6110           0   -1.00000   1.30000
     15763 MEOH     182      MEOH     DC1      DRUD    -2.454100        0.4000           0   0.00000   0.00000
     15764 MEOH     182      MEOH     O1       OD31H    2.488300       15.5990           0   -1.02800   1.30000
     15765 MEOH     182      MEOH     DO1      DRUD    -2.488300        0.4000           0   0.00000   0.00000
     15766 MEOH     182      MEOH     HO1      HDP1A    0.360000        1.0080           0   0.00000   0.00000
     15767 MEOH     182      MEOH     HO2      DUMH     0.000000        1.0080           0   0.00000   0.00000
     15768 MEOH     182      MEOH     H1A      HDA3B    0.080000        1.0080           0   0.00000   0.00000
     15769 MEOH     182      MEOH     H1B      HDA3B    0.080000        1.0080           0   0.00000   0.00000
     15770 MEOH     182      MEOH     H1C      HDA3B    0.080000        1.0080           0   0.00000   0.00000
     15771 MEOH     182      MEOH     LP1A     LPD     -0.230000        0.0000           -1   0.00000   0.00000
     15772 MEOH     182      MEOH     LP1B     LPD     -0.230000        0.0000           -1   0.00000   0.00000
     15773 MEOH     183      MEOH     C1       CD33B    2.314100       11.6110           0   -1.00000   1.30000
     15774 MEOH     183      MEOH     DC1      DRUD    -2.454100        0.4000           0   0.00000   0.00000
     15775 MEOH     183      MEOH     O1       OD31H    2.488300       15.5990           0   -1.02800   1.30000
     15776 MEOH     183      MEOH     DO1      DRUD    -2.488300        0.4000           0   0.00000   0.00000
     15777 MEOH     183      MEOH     HO1      HDP1A    0.360000        1.0080           0   0.00000   0.00000
     15778 MEOH     183      MEOH     HO2      DUMH     0.000000        1.0080           0   0.00000   0.00000
     15779 MEOH     183      MEOH     H1A      HDA3B    0.080000        1.0080           0   0.00000   0.00000
     15780 MEOH     183      MEOH     H1B      HDA3B    0.080000        1.0080           0   0.00000   0.00000
     15781 MEOH     183      MEOH     H1C      HDA3B    0.080000        1.0080           0   0.00000   0.00000
     15782 MEOH     183      MEOH     LP1A     LPD     -0.230000        0.0000           -1   0.00000   0.00000
     15783 MEOH     183      MEOH     LP1B     LPD     -0.230000        0.0000           -1   0.00000   0.00000
     15784 MEOH     184      MEOH     C1       CD33B    2.314100       11.6110           0   -1.00000   1.30000
     15785 MEOH     184      MEOH     DC1      DRUD    -2.454100        0.4000           0   0.00000   0.00000
     15786 MEOH     184      MEOH     O1       OD31H    2.488300       15.5990           0   -1.02800   1.30000
     15787 MEOH     184      MEOH     DO1      DRUD    -2.488300        0.4000           0   0.00000   0.00000
     15788 MEOH     184      MEOH     HO1      HDP1A    0.360000        1.0080           0   0.00000   0.00000
     15789 MEOH     184      MEOH     HO2      DUMH     0.000000        1.0080           0   0.00000   0.00000
     15790 MEOH     184      MEOH     H1A      HDA3B    0.080000        1.0080           0   0.00000   0.00000
     15791 MEOH     184      MEOH     H1B      HDA3B    0.080000        1.0080           0   0.00000   0.00000
     15792 MEOH     184      MEOH     H1C      HDA3B    0.080000        1.0080           0   0.00000   0.00000
     15793 MEOH     184      MEOH     LP1A     LPD     -0.230000        0.0000           -1   0.00000   0.00000
     15794 MEOH     184      MEOH     LP1B     LPD     -0.230000        0.0000           -1   0.00000   0.00000
     15795 MEOH     185      MEOH     C1       CD33B    2.314100       11.6110           0   -1.00000   1.30000
     15796 MEOH     185      MEOH     DC1      DRUD    -2.454100        0.4000           0   0.00000   0.00000
     15797 MEOH     185      MEOH     O1       OD31H    2.488300       15.5990           0   -1.02800   1.30000
     15798 MEOH     185      MEOH     DO1      DRUD    -2.488300        0.4000           0   0.00000   0.00000
     15799 MEOH     185      MEOH     HO1      HDP1A    0.360000        1.0080           0   0.00000   0.00000
     15800 MEOH     185      MEOH     HO2      DUMH     0.000000        1.0080           0   0.00000   0.00000
     15801 MEOH     185      MEOH     H1A      HDA3B    0.080000        1.0080           0   0.00000   0.00000
     15802 MEOH     185      MEOH     H1B      HDA3B    0.080000        1.0080           0   0.00000   0.00000
     15803 MEOH     185      MEOH     H1C      HDA3B    0.080000        1.0080           0   0.00000   0.00000
     15804 MEOH     185      MEOH     LP1A     LPD     -0.230000        0.0000           -1   0.00000   0.00000
     15805 MEOH     185      MEOH     LP1B     LPD     -0.230000        0.0000           -1   0.00000   0.00000
     15806 MEOH     186      MEOH     C1       CD33B    2.314100       11.6110           0   -1.00000   1.30000
     15807 MEOH     186      MEOH     DC1      DRUD    -2.454100        0.4000           0   0.00000   0.00000
     15808 MEOH     186      MEOH     O1       OD31H    2.488300       15.5990           0   -1.02800   1.30000
     15809 MEOH     186      MEOH     DO1      DRUD    -2.488300        0.4000           0   0.00000   0.00000
     15810 MEOH     186      MEOH     HO1      HDP1A    0.360000        1.0080           0   0.00000   0.00000
     15811 MEOH     186      MEOH     HO2      DUMH     0.000000        1.0080           0   0.00000   0.00000
     15812 MEOH     186      MEOH     H1A      HDA3B    0.080000        1.0080           0   0.00000   0.00000
     15813 MEOH     186      MEOH     H1B      HDA3B    0.080000        1.0080           0   0.00000   0.00000
     15814 MEOH     186      MEOH     H1C      HDA3B    0.080000        1.0080           0   0.00000   0.00000
     15815 MEOH     186      MEOH     LP1A     LPD     -0.230000        0.0000           -1   0.00000   0.00000
     15816 MEOH     186      MEOH     LP1B     LPD     -0.230000        0.0000           -1   0.00000   0.00000
     15817 MEOH     187      MEOH     C1       CD33B    2.314100       11.6110           0   -1.00000   1.30000
     15818 MEOH     187      MEOH     DC1      DRUD    -2.454100        0.4000           0   0.00000   0.00000
     15819 MEOH     187      MEOH     O1       OD31H    2.488300       15.5990           0   -1.02800   1.30000
     15820 MEOH     187      MEOH     DO1      DRUD    -2.488300        0.4000           0   0.00000   0.00000
     15821 MEOH     187      MEOH     HO1      HDP1A    0.360000        1.0080           0   0.00000   0.00000
     15822 MEOH     187      MEOH     HO2      DUMH     0.000000        1.0080           0   0.00000   0.00000
     15823 MEOH     187      MEOH     H1A      HDA3B    0.080000        1.0080           0   0.00000   0.00000
     15824 MEOH     187      MEOH     H1B      HDA3B    0.080000        1.0080           0   0.00000   0.00000
     15825 MEOH     187      MEOH     H1C      HDA3B    0.080000        1.0080           0   0.00000   0.00000
     15826 MEOH     187      MEOH     LP1A     LPD     -0.230000        0.0000           -1   0.00000   0.00000
     15827 MEOH     187      MEOH     LP1B     LPD     -0.230000        0.0000           -1   0.00000   0.00000
     15828 MEOH     188      MEOH     C1       CD33B    2.314100       11.6110           0   -1.00000   1.30000
     15829 MEOH     188      MEOH     DC1      DRUD    -2.454100        0.4000           0   0.00000   0.00000
     15830 MEOH     188      MEOH     O1       OD31H    2.488300       15.5990           0   -1.02800   1.30000
     15831 MEOH     188      MEOH     DO1      DRUD    -2.488300        0.4000           0   0.00000   0.00000
     15832 MEOH     188      MEOH     HO1      HDP1A    0.360000        1.0080           0   0.00000   0.00000
     15833 MEOH     188      MEOH     HO2      DUMH     0.000000        1.0080           0   0.00000   0.00000
     15834 MEOH     188      MEOH     H1A      HDA3B    0.080000        1.0080           0   0.00000   0.00000
     15835 MEOH     188      MEOH     H1B      HDA3B    0.080000        1.0080           0   0.00000   0.00000
     15836 MEOH     188      MEOH     H1C      HDA3B    0.080000        1.0080           0   0.00000   0.00000
     15837 MEOH     188      MEOH     LP1A     LPD     -0.230000        0.0000           -1   0.00000   0.00000
     15838 MEOH     188      MEOH     LP1B     LPD     -0.230000        0.0000           -1   0.00000   0.00000
     15839 MEOH     189      MEOH     C1       CD33B    2.314100       11.6110           0   -1.00000   1.30000
     15840 MEOH     189      MEOH     DC1      DRUD    -2.454100        0.4000           0   0.00000   0.00000
     15841 MEOH     189      MEOH     O1       OD31H    2.488300       15.5990           0   -1.02800   1.30000
     15842 MEOH     189      MEOH     DO1      DRUD    -2.488300        0.4000           0   0.00000   0.00000
     15843 MEOH     189      MEOH     HO1      HDP1A    0.360000        1.0080           0   0.00000   0.00000
     15844 MEOH     189      MEOH     HO2      DUMH     0.000000        1.0080           0   0.00000   0.00000
     15845 MEOH     189      MEOH     H1A      HDA3B    0.080000        1.0080           0   0.00000   0.00000
     15846 MEOH     189      MEOH     H1B      HDA3B    0.080000        1.0080           0   0.00000   0.00000
     15847 MEOH     189      MEOH     H1C      HDA3B    0.080000        1.0080           0   0.00000   0.00000
     15848 MEOH     189      MEOH     LP1A     LPD     -0.230000        0.0000           -1   0.00000   0.00000
     15849 MEOH     189      MEOH     LP1B     LPD     -0.230000        0.0000           -1   0.00000   0.00000
     15850 MEOH     190      MEOH     C1       CD33B    2.314100       11.6110           0   -1.00000   1.30000
     15851 MEOH     190      MEOH     DC1      DRUD    -2.454100        0.4000           0   0.00000   0.00000
     15852 MEOH     190      MEOH     O1       OD31H    2.488300       15.5990           0   -1.02800   1.30000
     15853 MEOH     190      MEOH     DO1      DRUD    -2.488300        0.4000           0   0.00000   0.00000
     15854 MEOH     190      MEOH     HO1      HDP1A    0.360000        1.0080           0   0.00000   0.00000
     15855 MEOH     190      MEOH     HO2      DUMH     0.000000        1.0080           0   0.00000   0.00000
     15856 MEOH     190      MEOH     H1A      HDA3B    0.080000        1.0080           0   0.00000   0.00000
     15857 MEOH     190      MEOH     H1B      HDA3B    0.080000        1.0080           0   0.00000   0.00000
     15858 MEOH     190      MEOH     H1C      HDA3B    0.080000        1.0080           0   0.00000   0.00000
     15859 MEOH     190      MEOH     LP1A     LPD     -0.230000        0.0000           -1   0.00000   0.00000
     15860 MEOH     190      MEOH     LP1B     LPD     -0.230000        0.0000           -1   0.00000   0.00000
     15861 MEOH     191      MEOH     C1       CD33B    2.314100       11.6110           0   -1.00000   1.30000
     15862 MEOH     191      MEOH     DC1      DRUD    -2.454100        0.4000           0   0.00000   0.00000
     15863 MEOH     191      MEOH     O1       OD31H    2.488300       15.5990           0   -1.02800   1.30000
     15864 MEOH     191      MEOH     DO1      DRUD    -2.488300        0.4000           0   0.00000   0.00000
     15865 MEOH     191      MEOH     HO1      HDP1A    0.360000        1.0080           0   0.00000   0.00000
     15866 MEOH     191      MEOH     HO2      DUMH     0.000000        1.0080           0   0.00000   0.00000
     15867 MEOH     191      MEOH     H1A      HDA3B    0.080000        1.0080           0   0.00000   0.00000
     15868 MEOH     191      MEOH     H1B      HDA3B    0.080000        1.0080           0   0.00000   0.00000
     15869 MEOH     191      MEOH     H1C      HDA3B    0.080000        1.0080           0   0.00000   0.00000
     15870 MEOH     191      MEOH     LP1A     LPD     -0.230000        0.0000           -1   0.00000   0.00000
     15871 MEOH     191      MEOH     LP1B     LPD     -0.230000        0.0000           -1   0.00000   0.00000
     15872 MEOH     192      MEOH     C1       CD33B    2.314100       11.6110           0   -1.00000   1.30000
     15873 MEOH     192      MEOH     DC1      DRUD    -2.454100        0.4000           0   0.00000   0.00000
     15874 MEOH     192      MEOH     O1       OD31H    2.488300       15.5990           0   -1.02800   1.30000
     15875 MEOH     192      MEOH     DO1      DRUD    -2.488300        0.4000           0   0.00000   0.00000
     15876 MEOH     192      MEOH     HO1      HDP1A    0.360000        1.0080           0   0.00000   0.00000
     15877 MEOH     192      MEOH     HO2      DUMH     0.000000        1.0080           0   0.00000   0.00000
     15878 MEOH     192      MEOH     H1A      HDA3B    0.080000        1.0080           0   0.00000   0.00000
     15879 MEOH     192      MEOH     H1B      HDA3B    0.080000        1.0080           0   0.00000   0.00000
     15880 MEOH     192      MEOH     H1C      HDA3B    0.080000        1.0080           0   0.00000   0.00000
     15881 MEOH     192      MEOH     LP1A     LPD     -0.230000        0.0000           -1   0.00000   0.00000
     15882 MEOH     192      MEOH     LP1B     LPD     -0.230000        0.0000           -1   0.00000   0.00000
     15883 MEOH     193      MEOH     C1       CD33B    2.314100       11.6110           0   -1.00000   1.30000
     15884 MEOH     193      MEOH     DC1      DRUD    -2.454100        0.4000           0   0.00000   0.00000
     15885 MEOH     193      MEOH     O1       OD31H    2.488300       15.5990           0   -1.02800   1.30000
     15886 MEOH     193      MEOH     DO1      DRUD    -2.488300        0.4000           0   0.00000   0.00000
     15887 MEOH     193      MEOH     HO1      HDP1A    0.360000        1.0080           0   0.00000   0.00000
     15888 MEOH     193      MEOH     HO2      DUMH     0.000000        1.0080           0   0.00000   0.00000
     15889 MEOH     193      MEOH     H1A      HDA3B    0.080000        1.0080           0   0.00000   0.00000
     15890 MEOH     193      MEOH     H1B      HDA3B    0.080000        1.0080           0   0.00000   0.00000
     15891 MEOH     193      MEOH     H1C      HDA3B    0.080000        1.0080           0   0.00000   0.00000
     15892 MEOH     193      MEOH     LP1A     LPD     -0.230000        0.0000           -1   0.00000   0.00000
     15893 MEOH     193      MEOH     LP1B     LPD     -0.230000        0.0000           -1   0.00000   0.00000
     15894 MEOH     194      MEOH     C1       CD33B    2.314100       11.6110           0   -1.00000   1.30000
     15895 MEOH     194      MEOH     DC1      DRUD    -2.454100        0.4000           0   0.00000   0.00000
     15896 MEOH     194      MEOH     O1       OD31H    2.488300       15.5990           0   -1.02800   1.30000
     15897 MEOH     194      MEOH     DO1      DRUD    -2.488300        0.4000           0   0.00000   0.00000
     15898 MEOH     194      MEOH     HO1      HDP1A    0.360000        1.0080           0   0.00000   0.00000
     15899 MEOH     194      MEOH     HO2      DUMH     0.000000        1.0080           0   0.00000   0.00000
     15900 MEOH     194      MEOH     H1A      HDA3B    0.080000        1.0080           0   0.00000   0.00000
     15901 MEOH     194      MEOH     H1B      HDA3B    0.080000        1.0080           0   0.00000   0.00000
     15902 MEOH     194      MEOH     H1C      HDA3B    0.080000        1.0080           0   0.00000   0.00000
     15903 MEOH     194      MEOH     LP1A     LPD     -0.230000        0.0000           -1   0.00000   0.00000
     15904 MEOH     194      MEOH     LP1B     LPD     -0.230000        0.0000           -1   0.00000   0.00000
     15905 MEOH     195      MEOH     C1       CD33B    2.314100       11.6110           0   -1.00000   1.30000
     15906 MEOH     195      MEOH     DC1      DRUD    -2.454100        0.4000           0   0.00000   0.00000
     15907 MEOH     195      MEOH     O1       OD31H    2.488300       15.5990           0   -1.02800   1.30000
     15908 MEOH     195      MEOH     DO1      DRUD    -2.488300        0.4000           0   0.00000   0.00000
     15909 MEOH     195      MEOH     HO1      HDP1A    0.360000        1.0080           0   0.00000   0.00000
     15910 MEOH     195      MEOH     HO2      DUMH     0.000000        1.0080           0   0.00000   0.00000
     15911 MEOH     195      MEOH     H1A      HDA3B    0.080000        1.0080           0   0.00000   0.00000
     15912 MEOH     195      MEOH     H1B      HDA3B    0.080000        1.0080           0   0.00000   0.00000
     15913 MEOH     195      MEOH     H1C      HDA3B    0.080000        1.0080           0   0.00000   0.00000
     15914 MEOH     195      MEOH     LP1A     LPD     -0.230000        0.0000           -1   0.00000   0.00000
     15915 MEOH     195      MEOH     LP1B     LPD     -0.230000        0.0000           -1   0.00000   0.00000
     15916 MEOH     196      MEOH     C1       CD33B    2.314100       11.6110           0   -1.00000   1.30000
     15917 MEOH     196      MEOH     DC1      DRUD    -2.454100        0.4000           0   0.00000   0.00000
     15918 MEOH     196      MEOH     O1       OD31H    2.488300       15.5990           0   -1.02800   1.30000
     15919 MEOH     196      MEOH     DO1      DRUD    -2.488300        0.4000           0   0.00000   0.00000
     15920 MEOH     196      MEOH     HO1      HDP1A    0.360000        1.0080           0   0.00000   0.00000
     15921 MEOH     196      MEOH     HO2      DUMH     0.000000        1.0080           0   0.00000   0.00000
     15922 MEOH     196      MEOH     H1A      HDA3B    0.080000        1.0080           0   0.00000   0.00000
     15923 MEOH     196      MEOH     H1B      HDA3B    0.080000        1.0080           0   0.00000   0.00000
     15924 MEOH     196      MEOH     H1C      HDA3B    0.080000        1.0080           0   0.00000   0.00000
     15925 MEOH     196      MEOH     LP1A     LPD     -0.230000        0.0000           -1   0.00000   0.00000
     15926 MEOH     196      MEOH     LP1B     LPD     -0.230000        0.0000           -1   0.00000   0.00000
     15927 MEOH     197      MEOH     C1       CD33B    2.314100       11.6110           0   -1.00000   1.30000
     15928 MEOH     197      MEOH     DC1      DRUD    -2.454100        0.4000           0   0.00000   0.00000
     15929 MEOH     197      MEOH     O1       OD31H    2.488300       15.5990           0   -1.02800   1.30000
     15930 MEOH     197      MEOH     DO1      DRUD    -2.488300        0.4000           0   0.00000   0.00000
     15931 MEOH     197      MEOH     HO1      HDP1A    0.360000        1.0080           0   0.00000   0.00000
     15932 MEOH     197      MEOH     HO2      DUMH     0.000000        1.0080           0   0.00000   0.00000
     15933 MEOH     197      MEOH     H1A      HDA3B    0.080000        1.0080           0   0.00000   0.00000
     15934 MEOH     197      MEOH     H1B      HDA3B    0.080000        1.0080           0   0.00000   0.00000
     15935 MEOH     197      MEOH     H1C      HDA3B    0.080000        1.0080           0   0.00000   0.00000
     15936 MEOH     197      MEOH     LP1A     LPD     -0.230000        0.0000           -1   0.00000   0.00000
     15937 MEOH     197      MEOH     LP1B     LPD     -0.230000        0.0000           -1   0.00000   0.00000
     15938 MEOH     198      MEOH     C1       CD33B    2.314100       11.6110           0   -1.00000   1.30000
     15939 MEOH     198      MEOH     DC1      DRUD    -2.454100        0.4000           0   0.00000   0.00000
     15940 MEOH     198      MEOH     O1       OD31H    2.488300       15.5990           0   -1.02800   1.30000
     15941 MEOH     198      MEOH     DO1      DRUD    -2.488300        0.4000           0   0.00000   0.00000
     15942 MEOH     198      MEOH     HO1      HDP1A    0.360000        1.0080           0   0.00000   0.00000
     15943 MEOH     198      MEOH     HO2      DUMH     0.000000        1.0080           0   0.00000   0.00000
     15944 MEOH     198      MEOH     H1A      HDA3B    0.080000        1.0080           0   0.00000   0.00000
     15945 MEOH     198      MEOH     H1B      HDA3B    0.080000        1.0080           0   0.00000   0.00000
     15946 MEOH     198      MEOH     H1C      HDA3B    0.080000        1.0080           0   0.00000   0.00000
     15947 MEOH     198      MEOH     LP1A     LPD     -0.230000        0.0000           -1   0.00000   0.00000
     15948 MEOH     198      MEOH     LP1B     LPD     -0.230000        0.0000           -1   0.00000   0.00000
     15949 MEOH     199      MEOH     C1       CD33B    2.314100       11.6110           0   -1.00000   1.30000
     15950 MEOH     199      MEOH     DC1      DRUD    -2.454100        0.4000           0   0.00000   0.00000
     15951 MEOH     199      MEOH     O1       OD31H    2.488300       15.5990           0   -1.02800   1.30000
     15952 MEOH     199      MEOH     DO1      DRUD    -2.488300        0.4000           0   0.00000   0.00000
     15953 MEOH     199      MEOH     HO1      HDP1A    0.360000        1.0080           0   0.00000   0.00000
     15954 MEOH     199      MEOH     HO2      DUMH     0.000000        1.0080           0   0.00000   0.00000
     15955 MEOH     199      MEOH     H1A      HDA3B    0.080000        1.0080           0   0.00000   0.00000
     15956 MEOH     199      MEOH     H1B      HDA3B    0.080000        1.0080           0   0.00000   0.00000
     15957 MEOH     199      MEOH     H1C      HDA3B    0.080000        1.0080           0   0.00000   0.00000
     15958 MEOH     199      MEOH     LP1A     LPD     -0.230000        0.0000           -1   0.00000   0.00000
     15959 MEOH     199      MEOH     LP1B     LPD     -0.230000        0.0000           -1   0.00000   0.00000
     15960 MEOH     200      MEOH     C1       CD33B    2.314100       11.6110           0   -1.00000   1.30000
     15961 MEOH     200      MEOH     DC1      DRUD    -2.454100        0.4000           0   0.00000   0.00000
     15962 MEOH     200      MEOH     O1       OD31H    2.488300       15.5990           0   -1.02800   1.30000
     15963 MEOH     200      MEOH     DO1      DRUD    -2.488300        0.4000           0   0.00000   0.00000
     15964 MEOH     200      MEOH     HO1      HDP1A    0.360000        1.0080           0   0.00000   0.00000
     15965 MEOH     200      MEOH     HO2      DUMH     0.000000        1.0080           0   0.00000   0.00000
     15966 MEOH     200      MEOH     H1A      HDA3B    0.080000        1.0080           0   0.00000   0.00000
     15967 MEOH     200      MEOH     H1B      HDA3B    0.080000        1.0080           0   0.00000   0.00000
     15968 MEOH     200      MEOH     H1C      HDA3B    0.080000        1.0080           0   0.00000   0.00000
     15969 MEOH     200      MEOH     LP1A     LPD     -0.230000        0.0000           -1   0.00000   0.00000
     15970 MEOH     200      MEOH     LP1B     LPD     -0.230000        0.0000           -1   0.00000   0.00000
     15971 MEOH     201      MEOH     C1       CD33B    2.314100       11.6110           0   -1.00000   1.30000
     15972 MEOH     201      MEOH     DC1      DRUD    -2.454100        0.4000           0   0.00000   0.00000
     15973 MEOH     201      MEOH     O1       OD31H    2.488300       15.5990           0   -1.02800   1.30000
     15974 MEOH     201      MEOH     DO1      DRUD    -2.488300        0.4000           0   0.00000   0.00000
     15975 MEOH     201      MEOH     HO1      HDP1A    0.360000        1.0080           0   0.00000   0.00000
     15976 MEOH     201      MEOH     HO2      DUMH     0.000000        1.0080           0   0.00000   0.00000
     15977 MEOH     201      MEOH     H1A      HDA3B    0.080000        1.0080           0   0.00000   0.00000
     15978 MEOH     201      MEOH     H1B      HDA3B    0.080000        1.0080           0   0.00000   0.00000
     15979 MEOH     201      MEOH     H1C      HDA3B    0.080000        1.0080           0   0.00000   0.00000
     15980 MEOH     201      MEOH     LP1A     LPD     -0.230000        0.0000           -1   0.00000   0.00000
     15981 MEOH     201      MEOH     LP1B     LPD     -0.230000        0.0000           -1   0.00000   0.00000
     15982 MEOH     202      MEOH     C1       CD33B    2.314100       11.6110           0   -1.00000   1.30000
     15983 MEOH     202      MEOH     DC1      DRUD    -2.454100        0.4000           0   0.00000   0.00000
     15984 MEOH     202      MEOH     O1       OD31H    2.488300       15.5990           0   -1.02800   1.30000
     15985 MEOH     202      MEOH     DO1      DRUD    -2.488300        0.4000           0   0.00000   0.00000
     15986 MEOH     202      MEOH     HO1      HDP1A    0.360000        1.0080           0   0.00000   0.00000
     15987 MEOH     202      MEOH     HO2      DUMH     0.000000        1.0080           0   0.00000   0.00000
     15988 MEOH     202      MEOH     H1A      HDA3B    0.080000        1.0080           0   0.00000   0.00000
     15989 MEOH     202      MEOH     H1B      HDA3B    0.080000        1.0080           0   0.00000   0.00000
     15990 MEOH     202      MEOH     H1C      HDA3B    0.080000        1.0080           0   0.00000   0.00000
     15991 MEOH     202      MEOH     LP1A     LPD     -0.230000        0.0000           -1   0.00000   0.00000
     15992 MEOH     202      MEOH     LP1B     LPD     -0.230000        0.0000           -1   0.00000   0.00000
     15993 MEOH     203      MEOH     C1       CD33B    2.314100       11.6110           0   -1.00000   1.30000
     15994 MEOH     203      MEOH     DC1      DRUD    -2.454100        0.4000           0   0.00000   0.00000
     15995 MEOH     203      MEOH     O1       OD31H    2.488300       15.5990           0   -1.02800   1.30000
     15996 MEOH     203      MEOH     DO1      DRUD    -2.488300        0.4000           0   0.00000   0.00000
     15997 MEOH     203      MEOH     HO1      HDP1A    0.360000        1.0080           0   0.00000   0.00000
     15998 MEOH     203      MEOH     HO2      DUMH     0.000000        1.0080           0   0.00000   0.00000
     15999 MEOH     203      MEOH     H1A      HDA3B    0.080000        1.0080           0   0.00000   0.00000
     16000 MEOH     203      MEOH     H1B      HDA3B    0.080000        1.0080           0   0.00000   0.00000
     16001 MEOH     203      MEOH     H1C      HDA3B    0.080000        1.0080           0   0.00000   0.00000
     16002 MEOH     203      MEOH     LP1A     LPD     -0.230000        0.0000           -1   0.00000   0.00000
     16003 MEOH     203      MEOH     LP1B     LPD     -0.230000        0.0000           -1   0.00000   0.00000
     16004 MEOH     204      MEOH     C1       CD33B    2.314100       11.6110           0   -1.00000   1.30000
     16005 MEOH     204      MEOH     DC1      DRUD    -2.454100        0.4000           0   0.00000   0.00000
     16006 MEOH     204      MEOH     O1       OD31H    2.488300       15.5990           0   -1.02800   1.30000
     16007 MEOH     204      MEOH     DO1      DRUD    -2.488300        0.4000           0   0.00000   0.00000
     16008 MEOH     204      MEOH     HO1      HDP1A    0.360000        1.0080           0   0.00000   0.00000
     16009 MEOH     204      MEOH     HO2      DUMH     0.000000        1.0080           0   0.00000   0.00000
     16010 MEOH     204      MEOH     H1A      HDA3B    0.080000        1.0080           0   0.00000   0.00000
     16011 MEOH     204      MEOH     H1B      HDA3B    0.080000        1.0080           0   0.00000   0.00000
     16012 MEOH     204      MEOH     H1C      HDA3B    0.080000        1.0080           0   0.00000   0.00000
     16013 MEOH     204      MEOH     LP1A     LPD     -0.230000        0.0000           -1   0.00000   0.00000
     16014 MEOH     204      MEOH     LP1B     LPD     -0.230000        0.0000           -1   0.00000   0.00000
     16015 MEOH     205      MEOH     C1       CD33B    2.314100       11.6110           0   -1.00000   1.30000
     16016 MEOH     205      MEOH     DC1      DRUD    -2.454100        0.4000           0   0.00000   0.00000
     16017 MEOH     205      MEOH     O1       OD31H    2.488300       15.5990           0   -1.02800   1.30000
     16018 MEOH     205      MEOH     DO1      DRUD    -2.488300        0.4000           0   0.00000   0.00000
     16019 MEOH     205      MEOH     HO1      HDP1A    0.360000        1.0080           0   0.00000   0.00000
     16020 MEOH     205      MEOH     HO2      DUMH     0.000000        1.0080           0   0.00000   0.00000
     16021 MEOH     205      MEOH     H1A      HDA3B    0.080000        1.0080           0   0.00000   0.00000
     16022 MEOH     205      MEOH     H1B      HDA3B    0.080000        1.0080           0   0.00000   0.00000
     16023 MEOH     205      MEOH     H1C      HDA3B    0.080000        1.0080           0   0.00000   0.00000
     16024 MEOH     205      MEOH     LP1A     LPD     -0.230000        0.0000           -1   0.00000   0.00000
     16025 MEOH     205      MEOH     LP1B     LPD     -0.230000        0.0000           -1   0.00000   0.00000
     16026 MEOH     206      MEOH     C1       CD33B    2.314100       11.6110           0   -1.00000   1.30000
     16027 MEOH     206      MEOH     DC1      DRUD    -2.454100        0.4000           0   0.00000   0.00000
     16028 MEOH     206      MEOH     O1       OD31H    2.488300       15.5990           0   -1.02800   1.30000
     16029 MEOH     206      MEOH     DO1      DRUD    -2.488300        0.4000           0   0.00000   0.00000
     16030 MEOH     206      MEOH     HO1      HDP1A    0.360000        1.0080           0   0.00000   0.00000
     16031 MEOH     206      MEOH     HO2      DUMH     0.000000        1.0080           0   0.00000   0.00000
     16032 MEOH     206      MEOH     H1A      HDA3B    0.080000        1.0080           0   0.00000   0.00000
     16033 MEOH     206      MEOH     H1B      HDA3B    0.080000        1.0080           0   0.00000   0.00000
     16034 MEOH     206      MEOH     H1C      HDA3B    0.080000        1.0080           0   0.00000   0.00000
     16035 MEOH     206      MEOH     LP1A     LPD     -0.230000        0.0000           -1   0.00000   0.00000
     16036 MEOH     206      MEOH     LP1B     LPD     -0.230000        0.0000           -1   0.00000   0.00000
     16037 MEOH     207      MEOH     C1       CD33B    2.314100       11.6110           0   -1.00000   1.30000
     16038 MEOH     207      MEOH     DC1      DRUD    -2.454100        0.4000           0   0.00000   0.00000
     16039 MEOH     207      MEOH     O1       OD31H    2.488300       15.5990           0   -1.02800   1.30000
     16040 MEOH     207      MEOH     DO1      DRUD    -2.488300        0.4000           0   0.00000   0.00000
     16041 MEOH     207      MEOH     HO1      HDP1A    0.360000        1.0080           0   0.00000   0.00000
     16042 MEOH     207      MEOH     HO2      DUMH     0.000000        1.0080           0   0.00000   0.00000
     16043 MEOH     207      MEOH     H1A      HDA3B    0.080000        1.0080           0   0.00000   0.00000
     16044 MEOH     207      MEOH     H1B      HDA3B    0.080000        1.0080           0   0.00000   0.00000
     16045 MEOH     207      MEOH     H1C      HDA3B    0.080000        1.0080           0   0.00000   0.00000
     16046 MEOH     207      MEOH     LP1A     LPD     -0.230000        0.0000           -1   0.00000   0.00000
     16047 MEOH     207      MEOH     LP1B     LPD     -0.230000        0.0000           -1   0.00000   0.00000
     16048 MEOH     208      MEOH     C1       CD33B    2.314100       11.6110           0   -1.00000   1.30000
     16049 MEOH     208      MEOH     DC1      DRUD    -2.454100        0.4000           0   0.00000   0.00000
     16050 MEOH     208      MEOH     O1       OD31H    2.488300       15.5990           0   -1.02800   1.30000
     16051 MEOH     208      MEOH     DO1      DRUD    -2.488300        0.4000           0   0.00000   0.00000
     16052 MEOH     208      MEOH     HO1      HDP1A    0.360000        1.0080           0   0.00000   0.00000
     16053 MEOH     208      MEOH     HO2      DUMH     0.000000        1.0080           0   0.00000   0.00000
     16054 MEOH     208      MEOH     H1A      HDA3B    0.080000        1.0080           0   0.00000   0.00000
     16055 MEOH     208      MEOH     H1B      HDA3B    0.080000        1.0080           0   0.00000   0.00000
     16056 MEOH     208      MEOH     H1C      HDA3B    0.080000        1.0080           0   0.00000   0.00000
     16057 MEOH     208      MEOH     LP1A     LPD     -0.230000        0.0000           -1   0.00000   0.00000
     16058 MEOH     208      MEOH     LP1B     LPD     -0.230000        0.0000           -1   0.00000   0.00000
     16059 MEOH     209      MEOH     C1       CD33B    2.314100       11.6110           0   -1.00000   1.30000
     16060 MEOH     209      MEOH     DC1      DRUD    -2.454100        0.4000           0   0.00000   0.00000
     16061 MEOH     209      MEOH     O1       OD31H    2.488300       15.5990           0   -1.02800   1.30000
     16062 MEOH     209      MEOH     DO1      DRUD    -2.488300        0.4000           0   0.00000   0.00000
     16063 MEOH     209      MEOH     HO1      HDP1A    0.360000        1.0080           0   0.00000   0.00000
     16064 MEOH     209      MEOH     HO2      DUMH     0.000000        1.0080           0   0.00000   0.00000
     16065 MEOH     209      MEOH     H1A      HDA3B    0.080000        1.0080           0   0.00000   0.00000
     16066 MEOH     209      MEOH     H1B      HDA3B    0.080000        1.0080           0   0.00000   0.00000
     16067 MEOH     209      MEOH     H1C      HDA3B    0.080000        1.0080           0   0.00000   0.00000
     16068 MEOH     209      MEOH     LP1A     LPD     -0.230000        0.0000           -1   0.00000   0.00000
     16069 MEOH     209      MEOH     LP1B     LPD     -0.230000        0.0000           -1   0.00000   0.00000
     16070 MEOH     210      MEOH     C1       CD33B    2.314100       11.6110           0   -1.00000   1.30000
     16071 MEOH     210      MEOH     DC1      DRUD    -2.454100        0.4000           0   0.00000   0.00000
     16072 MEOH     210      MEOH     O1       OD31H    2.488300       15.5990           0   -1.02800   1.30000
     16073 MEOH     210      MEOH     DO1      DRUD    -2.488300        0.4000           0   0.00000   0.00000
     16074 MEOH     210      MEOH     HO1      HDP1A    0.360000        1.0080           0   0.00000   0.00000
     16075 MEOH     210      MEOH     HO2      DUMH     0.000000        1.0080           0   0.00000   0.00000
     16076 MEOH     210      MEOH     H1A      HDA3B    0.080000        1.0080           0   0.00000   0.00000
     16077 MEOH     210      MEOH     H1B      HDA3B    0.080000        1.0080           0   0.00000   0.00000
     16078 MEOH     210      MEOH     H1C      HDA3B    0.080000        1.0080           0   0.00000   0.00000
     16079 MEOH     210      MEOH     LP1A     LPD     -0.230000        0.0000           -1   0.00000   0.00000
     16080 MEOH     210      MEOH     LP1B     LPD     -0.230000        0.0000           -1   0.00000   0.00000
     16081 MEOH     211      MEOH     C1       CD33B    2.314100       11.6110           0   -1.00000   1.30000
     16082 MEOH     211      MEOH     DC1      DRUD    -2.454100        0.4000           0   0.00000   0.00000
     16083 MEOH     211      MEOH     O1       OD31H    2.488300       15.5990           0   -1.02800   1.30000
     16084 MEOH     211      MEOH     DO1      DRUD    -2.488300        0.4000           0   0.00000   0.00000
     16085 MEOH     211      MEOH     HO1      HDP1A    0.360000        1.0080           0   0.00000   0.00000
     16086 MEOH     211      MEOH     HO2      DUMH     0.000000        1.0080           0   0.00000   0.00000
     16087 MEOH     211      MEOH     H1A      HDA3B    0.080000        1.0080           0   0.00000   0.00000
     16088 MEOH     211      MEOH     H1B      HDA3B    0.080000        1.0080           0   0.00000   0.00000
     16089 MEOH     211      MEOH     H1C      HDA3B    0.080000        1.0080           0   0.00000   0.00000
     16090 MEOH     211      MEOH     LP1A     LPD     -0.230000        0.0000           -1   0.00000   0.00000
     16091 MEOH     211      MEOH     LP1B     LPD     -0.230000        0.0000           -1   0.00000   0.00000
     16092 MEOH     212      MEOH     C1       CD33B    2.314100       11.6110           0   -1.00000   1.30000
     16093 MEOH     212      MEOH     DC1      DRUD    -2.454100        0.4000           0   0.00000   0.00000
     16094 MEOH     212      MEOH     O1       OD31H    2.488300       15.5990           0   -1.02800   1.30000
     16095 MEOH     212      MEOH     DO1      DRUD    -2.488300        0.4000           0   0.00000   0.00000
     16096 MEOH     212      MEOH     HO1      HDP1A    0.360000        1.0080           0   0.00000   0.00000
     16097 MEOH     212      MEOH     HO2      DUMH     0.000000        1.0080           0   0.00000   0.00000
     16098 MEOH     212      MEOH     H1A      HDA3B    0.080000        1.0080           0   0.00000   0.00000
     16099 MEOH     212      MEOH     H1B      HDA3B    0.080000        1.0080           0   0.00000   0.00000
     16100 MEOH     212      MEOH     H1C      HDA3B    0.080000        1.0080           0   0.00000   0.00000
     16101 MEOH     212      MEOH     LP1A     LPD     -0.230000        0.0000           -1   0.00000   0.00000
     16102 MEOH     212      MEOH     LP1B     LPD     -0.230000        0.0000           -1   0.00000   0.00000
     16103 MEOH     213      MEOH     C1       CD33B    2.314100       11.6110           0   -1.00000   1.30000
     16104 MEOH     213      MEOH     DC1      DRUD    -2.454100        0.4000           0   0.00000   0.00000
     16105 MEOH     213      MEOH     O1       OD31H    2.488300       15.5990           0   -1.02800   1.30000
     16106 MEOH     213      MEOH     DO1      DRUD    -2.488300        0.4000           0   0.00000   0.00000
     16107 MEOH     213      MEOH     HO1      HDP1A    0.360000        1.0080           0   0.00000   0.00000
     16108 MEOH     213      MEOH     HO2      DUMH     0.000000        1.0080           0   0.00000   0.00000
     16109 MEOH     213      MEOH     H1A      HDA3B    0.080000        1.0080           0   0.00000   0.00000
     16110 MEOH     213      MEOH     H1B      HDA3B    0.080000        1.0080           0   0.00000   0.00000
     16111 MEOH     213      MEOH     H1C      HDA3B    0.080000        1.0080           0   0.00000   0.00000
     16112 MEOH     213      MEOH     LP1A     LPD     -0.230000        0.0000           -1   0.00000   0.00000
     16113 MEOH     213      MEOH     LP1B     LPD     -0.230000        0.0000           -1   0.00000   0.00000
     16114 MEOH     214      MEOH     C1       CD33B    2.314100       11.6110           0   -1.00000   1.30000
     16115 MEOH     214      MEOH     DC1      DRUD    -2.454100        0.4000           0   0.00000   0.00000
     16116 MEOH     214      MEOH     O1       OD31H    2.488300       15.5990           0   -1.02800   1.30000
     16117 MEOH     214      MEOH     DO1      DRUD    -2.488300        0.4000           0   0.00000   0.00000
     16118 MEOH     214      MEOH     HO1      HDP1A    0.360000        1.0080           0   0.00000   0.00000
     16119 MEOH     214      MEOH     HO2      DUMH     0.000000        1.0080           0   0.00000   0.00000
     16120 MEOH     214      MEOH     H1A      HDA3B    0.080000        1.0080           0   0.00000   0.00000
     16121 MEOH     214      MEOH     H1B      HDA3B    0.080000        1.0080           0   0.00000   0.00000
     16122 MEOH     214      MEOH     H1C      HDA3B    0.080000        1.0080           0   0.00000   0.00000
     16123 MEOH     214      MEOH     LP1A     LPD     -0.230000        0.0000           -1   0.00000   0.00000
     16124 MEOH     214      MEOH     LP1B     LPD     -0.230000        0.0000           -1   0.00000   0.00000
     16125 MEOH     215      MEOH     C1       CD33B    2.314100       11.6110           0   -1.00000   1.30000
     16126 MEOH     215      MEOH     DC1      DRUD    -2.454100        0.4000           0   0.00000   0.00000
     16127 MEOH     215      MEOH     O1       OD31H    2.488300       15.5990           0   -1.02800   1.30000
     16128 MEOH     215      MEOH     DO1      DRUD    -2.488300        0.4000           0   0.00000   0.00000
     16129 MEOH     215      MEOH     HO1      HDP1A    0.360000        1.0080           0   0.00000   0.00000
     16130 MEOH     215      MEOH     HO2      DUMH     0.000000        1.0080           0   0.00000   0.00000
     16131 MEOH     215      MEOH     H1A      HDA3B    0.080000        1.0080           0   0.00000   0.00000
     16132 MEOH     215      MEOH     H1B      HDA3B    0.080000        1.0080           0   0.00000   0.00000
     16133 MEOH     215      MEOH     H1C      HDA3B    0.080000        1.0080           0   0.00000   0.00000
     16134 MEOH     215      MEOH     LP1A     LPD     -0.230000        0.0000           -1   0.00000   0.00000
     16135 MEOH     215      MEOH     LP1B     LPD     -0.230000        0.0000           -1   0.00000   0.00000
     16136 MEOH     216      MEOH     C1       CD33B    2.314100       11.6110           0   -1.00000   1.30000
     16137 MEOH     216      MEOH     DC1      DRUD    -2.454100        0.4000           0   0.00000   0.00000
     16138 MEOH     216      MEOH     O1       OD31H    2.488300       15.5990           0   -1.02800   1.30000
     16139 MEOH     216      MEOH     DO1      DRUD    -2.488300        0.4000           0   0.00000   0.00000
     16140 MEOH     216      MEOH     HO1      HDP1A    0.360000        1.0080           0   0.00000   0.00000
     16141 MEOH     216      MEOH     HO2      DUMH     0.000000        1.0080           0   0.00000   0.00000
     16142 MEOH     216      MEOH     H1A      HDA3B    0.080000        1.0080           0   0.00000   0.00000
     16143 MEOH     216      MEOH     H1B      HDA3B    0.080000        1.0080           0   0.00000   0.00000
     16144 MEOH     216      MEOH     H1C      HDA3B    0.080000        1.0080           0   0.00000   0.00000
     16145 MEOH     216      MEOH     LP1A     LPD     -0.230000        0.0000           -1   0.00000   0.00000
     16146 MEOH     216      MEOH     LP1B     LPD     -0.230000        0.0000           -1   0.00000   0.00000
     16147 MEOH     217      MEOH     C1       CD33B    2.314100       11.6110           0   -1.00000   1.30000
     16148 MEOH     217      MEOH     DC1      DRUD    -2.454100        0.4000           0   0.00000   0.00000
     16149 MEOH     217      MEOH     O1       OD31H    2.488300       15.5990           0   -1.02800   1.30000
     16150 MEOH     217      MEOH     DO1      DRUD    -2.488300        0.4000           0   0.00000   0.00000
     16151 MEOH     217      MEOH     HO1      HDP1A    0.360000        1.0080           0   0.00000   0.00000
     16152 MEOH     217      MEOH     HO2      DUMH     0.000000        1.0080           0   0.00000   0.00000
     16153 MEOH     217      MEOH     H1A      HDA3B    0.080000        1.0080           0   0.00000   0.00000
     16154 MEOH     217      MEOH     H1B      HDA3B    0.080000        1.0080           0   0.00000   0.00000
     16155 MEOH     217      MEOH     H1C      HDA3B    0.080000        1.0080           0   0.00000   0.00000
     16156 MEOH     217      MEOH     LP1A     LPD     -0.230000        0.0000           -1   0.00000   0.00000
     16157 MEOH     217      MEOH     LP1B     LPD     -0.230000        0.0000           -1   0.00000   0.00000
     16158 MEOH     218      MEOH     C1       CD33B    2.314100       11.6110           0   -1.00000   1.30000
     16159 MEOH     218      MEOH     DC1      DRUD    -2.454100        0.4000           0   0.00000   0.00000
     16160 MEOH     218      MEOH     O1       OD31H    2.488300       15.5990           0   -1.02800   1.30000
     16161 MEOH     218      MEOH     DO1      DRUD    -2.488300        0.4000           0   0.00000   0.00000
     16162 MEOH     218      MEOH     HO1      HDP1A    0.360000        1.0080           0   0.00000   0.00000
     16163 MEOH     218      MEOH     HO2      DUMH     0.000000        1.0080           0   0.00000   0.00000
     16164 MEOH     218      MEOH     H1A      HDA3B    0.080000        1.0080           0   0.00000   0.00000
     16165 MEOH     218      MEOH     H1B      HDA3B    0.080000        1.0080           0   0.00000   0.00000
     16166 MEOH     218      MEOH     H1C      HDA3B    0.080000        1.0080           0   0.00000   0.00000
     16167 MEOH     218      MEOH     LP1A     LPD     -0.230000        0.0000           -1   0.00000   0.00000
     16168 MEOH     218      MEOH     LP1B     LPD     -0.230000        0.0000           -1   0.00000   0.00000
     16169 MEOH     219      MEOH     C1       CD33B    2.314100       11.6110           0   -1.00000   1.30000
     16170 MEOH     219      MEOH     DC1      DRUD    -2.454100        0.4000           0   0.00000   0.00000
     16171 MEOH     219      MEOH     O1       OD31H    2.488300       15.5990           0   -1.02800   1.30000
     16172 MEOH     219      MEOH     DO1      DRUD    -2.488300        0.4000           0   0.00000   0.00000
     16173 MEOH     219      MEOH     HO1      HDP1A    0.360000        1.0080           0   0.00000   0.00000
     16174 MEOH     219      MEOH     HO2      DUMH     0.000000        1.0080           0   0.00000   0.00000
     16175 MEOH     219      MEOH     H1A      HDA3B    0.080000        1.0080           0   0.00000   0.00000
     16176 MEOH     219      MEOH     H1B      HDA3B    0.080000        1.0080           0   0.00000   0.00000
     16177 MEOH     219      MEOH     H1C      HDA3B    0.080000        1.0080           0   0.00000   0.00000
     16178 MEOH     219      MEOH     LP1A     LPD     -0.230000        0.0000           -1   0.00000   0.00000
     16179 MEOH     219      MEOH     LP1B     LPD     -0.230000        0.0000           -1   0.00000   0.00000
     16180 MEOH     220      MEOH     C1       CD33B    2.314100       11.6110           0   -1.00000   1.30000
     16181 MEOH     220      MEOH     DC1      DRUD    -2.454100        0.4000           0   0.00000   0.00000
     16182 MEOH     220      MEOH     O1       OD31H    2.488300       15.5990           0   -1.02800   1.30000
     16183 MEOH     220      MEOH     DO1      DRUD    -2.488300        0.4000           0   0.00000   0.00000
     16184 MEOH     220      MEOH     HO1      HDP1A    0.360000        1.0080           0   0.00000   0.00000
     16185 MEOH     220      MEOH     HO2      DUMH     0.000000        1.0080           0   0.00000   0.00000
     16186 MEOH     220      MEOH     H1A      HDA3B    0.080000        1.0080           0   0.00000   0.00000
     16187 MEOH     220      MEOH     H1B      HDA3B    0.080000        1.0080           0   0.00000   0.00000
     16188 MEOH     220      MEOH     H1C      HDA3B    0.080000        1.0080           0   0.00000   0.00000
     16189 MEOH     220      MEOH     LP1A     LPD     -0.230000        0.0000           -1   0.00000   0.00000
     16190 MEOH     220      MEOH     LP1B     LPD     -0.230000        0.0000           -1   0.00000   0.00000
     16191 MEOH     221      MEOH     C1       CD33B    2.314100       11.6110           0   -1.00000   1.30000
     16192 MEOH     221      MEOH     DC1      DRUD    -2.454100        0.4000           0   0.00000   0.00000
     16193 MEOH     221      MEOH     O1       OD31H    2.488300       15.5990           0   -1.02800   1.30000
     16194 MEOH     221      MEOH     DO1      DRUD    -2.488300        0.4000           0   0.00000   0.00000
     16195 MEOH     221      MEOH     HO1      HDP1A    0.360000        1.0080           0   0.00000   0.00000
     16196 MEOH     221      MEOH     HO2      DUMH     0.000000        1.0080           0   0.00000   0.00000
     16197 MEOH     221      MEOH     H1A      HDA3B    0.080000        1.0080           0   0.00000   0.00000
     16198 MEOH     221      MEOH     H1B      HDA3B    0.080000        1.0080           0   0.00000   0.00000
     16199 MEOH     221      MEOH     H1C      HDA3B    0.080000        1.0080           0   0.00000   0.00000
     16200 MEOH     221      MEOH     LP1A     LPD     -0.230000        0.0000           -1   0.00000   0.00000
     16201 MEOH     221      MEOH     LP1B     LPD     -0.230000        0.0000           -1   0.00000   0.00000
     16202 MEOH     222      MEOH     C1       CD33B    2.314100       11.6110           0   -1.00000   1.30000
     16203 MEOH     222      MEOH     DC1      DRUD    -2.454100        0.4000           0   0.00000   0.00000
     16204 MEOH     222      MEOH     O1       OD31H    2.488300       15.5990           0   -1.02800   1.30000
     16205 MEOH     222      MEOH     DO1      DRUD    -2.488300        0.4000           0   0.00000   0.00000
     16206 MEOH     222      MEOH     HO1      HDP1A    0.360000        1.0080           0   0.00000   0.00000
     16207 MEOH     222      MEOH     HO2      DUMH     0.000000        1.0080           0   0.00000   0.00000
     16208 MEOH     222      MEOH     H1A      HDA3B    0.080000        1.0080           0   0.00000   0.00000
     16209 MEOH     222      MEOH     H1B      HDA3B    0.080000        1.0080           0   0.00000   0.00000
     16210 MEOH     222      MEOH     H1C      HDA3B    0.080000        1.0080           0   0.00000   0.00000
     16211 MEOH     222      MEOH     LP1A     LPD     -0.230000        0.0000           -1   0.00000   0.00000
     16212 MEOH     222      MEOH     LP1B     LPD     -0.230000        0.0000           -1   0.00000   0.00000
     16213 MEOH     223      MEOH     C1       CD33B    2.314100       11.6110           0   -1.00000   1.30000
     16214 MEOH     223      MEOH     DC1      DRUD    -2.454100        0.4000           0   0.00000   0.00000
     16215 MEOH     223      MEOH     O1       OD31H    2.488300       15.5990           0   -1.02800   1.30000
     16216 MEOH     223      MEOH     DO1      DRUD    -2.488300        0.4000           0   0.00000   0.00000
     16217 MEOH     223      MEOH     HO1      HDP1A    0.360000        1.0080           0   0.00000   0.00000
     16218 MEOH     223      MEOH     HO2      DUMH     0.000000        1.0080           0   0.00000   0.00000
     16219 MEOH     223      MEOH     H1A      HDA3B    0.080000        1.0080           0   0.00000   0.00000
     16220 MEOH     223      MEOH     H1B      HDA3B    0.080000        1.0080           0   0.00000   0.00000
     16221 MEOH     223      MEOH     H1C      HDA3B    0.080000        1.0080           0   0.00000   0.00000
     16222 MEOH     223      MEOH     LP1A     LPD     -0.230000        0.0000           -1   0.00000   0.00000
     16223 MEOH     223      MEOH     LP1B     LPD     -0.230000        0.0000           -1   0.00000   0.00000
     16224 MEOH     224      MEOH     C1       CD33B    2.314100       11.6110           0   -1.00000   1.30000
     16225 MEOH     224      MEOH     DC1      DRUD    -2.454100        0.4000           0   0.00000   0.00000
     16226 MEOH     224      MEOH     O1       OD31H    2.488300       15.5990           0   -1.02800   1.30000
     16227 MEOH     224      MEOH     DO1      DRUD    -2.488300        0.4000           0   0.00000   0.00000
     16228 MEOH     224      MEOH     HO1      HDP1A    0.360000        1.0080           0   0.00000   0.00000
     16229 MEOH     224      MEOH     HO2      DUMH     0.000000        1.0080           0   0.00000   0.00000
     16230 MEOH     224      MEOH     H1A      HDA3B    0.080000        1.0080           0   0.00000   0.00000
     16231 MEOH     224      MEOH     H1B      HDA3B    0.080000        1.0080           0   0.00000   0.00000
     16232 MEOH     224      MEOH     H1C      HDA3B    0.080000        1.0080           0   0.00000   0.00000
     16233 MEOH     224      MEOH     LP1A     LPD     -0.230000        0.0000           -1   0.00000   0.00000
     16234 MEOH     224      MEOH     LP1B     LPD     -0.230000        0.0000           -1   0.00000   0.00000
     16235 MEOH     225      MEOH     C1       CD33B    2.314100       11.6110           0   -1.00000   1.30000
     16236 MEOH     225      MEOH     DC1      DRUD    -2.454100        0.4000           0   0.00000   0.00000
     16237 MEOH     225      MEOH     O1       OD31H    2.488300       15.5990           0   -1.02800   1.30000
     16238 MEOH     225      MEOH     DO1      DRUD    -2.488300        0.4000           0   0.00000   0.00000
     16239 MEOH     225      MEOH     HO1      HDP1A    0.360000        1.0080           0   0.00000   0.00000
     16240 MEOH     225      MEOH     HO2      DUMH     0.000000        1.0080           0   0.00000   0.00000
     16241 MEOH     225      MEOH     H1A      HDA3B    0.080000        1.0080           0   0.00000   0.00000
     16242 MEOH     225      MEOH     H1B      HDA3B    0.080000        1.0080           0   0.00000   0.00000
     16243 MEOH     225      MEOH     H1C      HDA3B    0.080000        1.0080           0   0.00000   0.00000
     16244 MEOH     225      MEOH     LP1A     LPD     -0.230000        0.0000           -1   0.00000   0.00000
     16245 MEOH     225      MEOH     LP1B     LPD     -0.230000        0.0000           -1   0.00000   0.00000
     16246 MEOH     226      MEOH     C1       CD33B    2.314100       11.6110           0   -1.00000   1.30000
     16247 MEOH     226      MEOH     DC1      DRUD    -2.454100        0.4000           0   0.00000   0.00000
     16248 MEOH     226      MEOH     O1       OD31H    2.488300       15.5990           0   -1.02800   1.30000
     16249 MEOH     226      MEOH     DO1      DRUD    -2.488300        0.4000           0   0.00000   0.00000
     16250 MEOH     226      MEOH     HO1      HDP1A    0.360000        1.0080           0   0.00000   0.00000
     16251 MEOH     226      MEOH     HO2      DUMH     0.000000        1.0080           0   0.00000   0.00000
     16252 MEOH     226      MEOH     H1A      HDA3B    0.080000        1.0080           0   0.00000   0.00000
     16253 MEOH     226      MEOH     H1B      HDA3B    0.080000        1.0080           0   0.00000   0.00000
     16254 MEOH     226      MEOH     H1C      HDA3B    0.080000        1.0080           0   0.00000   0.00000
     16255 MEOH     226      MEOH     LP1A     LPD     -0.230000        0.0000           -1   0.00000   0.00000
     16256 MEOH     226      MEOH     LP1B     LPD     -0.230000        0.0000           -1   0.00000   0.00000
     16257 MEOH     227      MEOH     C1       CD33B    2.314100       11.6110           0   -1.00000   1.30000
     16258 MEOH     227      MEOH     DC1      DRUD    -2.454100        0.4000           0   0.00000   0.00000
     16259 MEOH     227      MEOH     O1       OD31H    2.488300       15.5990           0   -1.02800   1.30000
     16260 MEOH     227      MEOH     DO1      DRUD    -2.488300        0.4000           0   0.00000   0.00000
     16261 MEOH     227      MEOH     HO1      HDP1A    0.360000        1.0080           0   0.00000   0.00000
     16262 MEOH     227      MEOH     HO2      DUMH     0.000000        1.0080           0   0.00000   0.00000
     16263 MEOH     227      MEOH     H1A      HDA3B    0.080000        1.0080           0   0.00000   0.00000
     16264 MEOH     227      MEOH     H1B      HDA3B    0.080000        1.0080           0   0.00000   0.00000
     16265 MEOH     227      MEOH     H1C      HDA3B    0.080000        1.0080           0   0.00000   0.00000
     16266 MEOH     227      MEOH     LP1A     LPD     -0.230000        0.0000           -1   0.00000   0.00000
     16267 MEOH     227      MEOH     LP1B     LPD     -0.230000        0.0000           -1   0.00000   0.00000
     16268 MEOH     228      MEOH     C1       CD33B    2.314100       11.6110           0   -1.00000   1.30000
     16269 MEOH     228      MEOH     DC1      DRUD    -2.454100        0.4000           0   0.00000   0.00000
     16270 MEOH     228      MEOH     O1       OD31H    2.488300       15.5990           0   -1.02800   1.30000
     16271 MEOH     228      MEOH     DO1      DRUD    -2.488300        0.4000           0   0.00000   0.00000
     16272 MEOH     228      MEOH     HO1      HDP1A    0.360000        1.0080           0   0.00000   0.00000
     16273 MEOH     228      MEOH     HO2      DUMH     0.000000        1.0080           0   0.00000   0.00000
     16274 MEOH     228      MEOH     H1A      HDA3B    0.080000        1.0080           0   0.00000   0.00000
     16275 MEOH     228      MEOH     H1B      HDA3B    0.080000        1.0080           0   0.00000   0.00000
     16276 MEOH     228      MEOH     H1C      HDA3B    0.080000        1.0080           0   0.00000   0.00000
     16277 MEOH     228      MEOH     LP1A     LPD     -0.230000        0.0000           -1   0.00000   0.00000
     16278 MEOH     228      MEOH     LP1B     LPD     -0.230000        0.0000           -1   0.00000   0.00000
     16279 MEOH     229      MEOH     C1       CD33B    2.314100       11.6110           0   -1.00000   1.30000
     16280 MEOH     229      MEOH     DC1      DRUD    -2.454100        0.4000           0   0.00000   0.00000
     16281 MEOH     229      MEOH     O1       OD31H    2.488300       15.5990           0   -1.02800   1.30000
     16282 MEOH     229      MEOH     DO1      DRUD    -2.488300        0.4000           0   0.00000   0.00000
     16283 MEOH     229      MEOH     HO1      HDP1A    0.360000        1.0080           0   0.00000   0.00000
     16284 MEOH     229      MEOH     HO2      DUMH     0.000000        1.0080           0   0.00000   0.00000
     16285 MEOH     229      MEOH     H1A      HDA3B    0.080000        1.0080           0   0.00000   0.00000
     16286 MEOH     229      MEOH     H1B      HDA3B    0.080000        1.0080           0   0.00000   0.00000
     16287 MEOH     229      MEOH     H1C      HDA3B    0.080000        1.0080           0   0.00000   0.00000
     16288 MEOH     229      MEOH     LP1A     LPD     -0.230000        0.0000           -1   0.00000   0.00000
     16289 MEOH     229      MEOH     LP1B     LPD     -0.230000        0.0000           -1   0.00000   0.00000
     16290 MEOH     230      MEOH     C1       CD33B    2.314100       11.6110           0   -1.00000   1.30000
     16291 MEOH     230      MEOH     DC1      DRUD    -2.454100        0.4000           0   0.00000   0.00000
     16292 MEOH     230      MEOH     O1       OD31H    2.488300       15.5990           0   -1.02800   1.30000
     16293 MEOH     230      MEOH     DO1      DRUD    -2.488300        0.4000           0   0.00000   0.00000
     16294 MEOH     230      MEOH     HO1      HDP1A    0.360000        1.0080           0   0.00000   0.00000
     16295 MEOH     230      MEOH     HO2      DUMH     0.000000        1.0080           0   0.00000   0.00000
     16296 MEOH     230      MEOH     H1A      HDA3B    0.080000        1.0080           0   0.00000   0.00000
     16297 MEOH     230      MEOH     H1B      HDA3B    0.080000        1.0080           0   0.00000   0.00000
     16298 MEOH     230      MEOH     H1C      HDA3B    0.080000        1.0080           0   0.00000   0.00000
     16299 MEOH     230      MEOH     LP1A     LPD     -0.230000        0.0000           -1   0.00000   0.00000
     16300 MEOH     230      MEOH     LP1B     LPD     -0.230000        0.0000           -1   0.00000   0.00000
     16301 MEOH     231      MEOH     C1       CD33B    2.314100       11.6110           0   -1.00000   1.30000
     16302 MEOH     231      MEOH     DC1      DRUD    -2.454100        0.4000           0   0.00000   0.00000
     16303 MEOH     231      MEOH     O1       OD31H    2.488300       15.5990           0   -1.02800   1.30000
     16304 MEOH     231      MEOH     DO1      DRUD    -2.488300        0.4000           0   0.00000   0.00000
     16305 MEOH     231      MEOH     HO1      HDP1A    0.360000        1.0080           0   0.00000   0.00000
     16306 MEOH     231      MEOH     HO2      DUMH     0.000000        1.0080           0   0.00000   0.00000
     16307 MEOH     231      MEOH     H1A      HDA3B    0.080000        1.0080           0   0.00000   0.00000
     16308 MEOH     231      MEOH     H1B      HDA3B    0.080000        1.0080           0   0.00000   0.00000
     16309 MEOH     231      MEOH     H1C      HDA3B    0.080000        1.0080           0   0.00000   0.00000
     16310 MEOH     231      MEOH     LP1A     LPD     -0.230000        0.0000           -1   0.00000   0.00000
     16311 MEOH     231      MEOH     LP1B     LPD     -0.230000        0.0000           -1   0.00000   0.00000
     16312 MEOH     232      MEOH     C1       CD33B    2.314100       11.6110           0   -1.00000   1.30000
     16313 MEOH     232      MEOH     DC1      DRUD    -2.454100        0.4000           0   0.00000   0.00000
     16314 MEOH     232      MEOH     O1       OD31H    2.488300       15.5990           0   -1.02800   1.30000
     16315 MEOH     232      MEOH     DO1      DRUD    -2.488300        0.4000           0   0.00000   0.00000
     16316 MEOH     232      MEOH     HO1      HDP1A    0.360000        1.0080           0   0.00000   0.00000
     16317 MEOH     232      MEOH     HO2      DUMH     0.000000        1.0080           0   0.00000   0.00000
     16318 MEOH     232      MEOH     H1A      HDA3B    0.080000        1.0080           0   0.00000   0.00000
     16319 MEOH     232      MEOH     H1B      HDA3B    0.080000        1.0080           0   0.00000   0.00000
     16320 MEOH     232      MEOH     H1C      HDA3B    0.080000        1.0080           0   0.00000   0.00000
     16321 MEOH     232      MEOH     LP1A     LPD     -0.230000        0.0000           -1   0.00000   0.00000
     16322 MEOH     232      MEOH     LP1B     LPD     -0.230000        0.0000           -1   0.00000   0.00000
     16323 MEOH     233      MEOH     C1       CD33B    2.314100       11.6110           0   -1.00000   1.30000
     16324 MEOH     233      MEOH     DC1      DRUD    -2.454100        0.4000           0   0.00000   0.00000
     16325 MEOH     233      MEOH     O1       OD31H    2.488300       15.5990           0   -1.02800   1.30000
     16326 MEOH     233      MEOH     DO1      DRUD    -2.488300        0.4000           0   0.00000   0.00000
     16327 MEOH     233      MEOH     HO1      HDP1A    0.360000        1.0080           0   0.00000   0.00000
     16328 MEOH     233      MEOH     HO2      DUMH     0.000000        1.0080           0   0.00000   0.00000
     16329 MEOH     233      MEOH     H1A      HDA3B    0.080000        1.0080           0   0.00000   0.00000
     16330 MEOH     233      MEOH     H1B      HDA3B    0.080000        1.0080           0   0.00000   0.00000
     16331 MEOH     233      MEOH     H1C      HDA3B    0.080000        1.0080           0   0.00000   0.00000
     16332 MEOH     233      MEOH     LP1A     LPD     -0.230000        0.0000           -1   0.00000   0.00000
     16333 MEOH     233      MEOH     LP1B     LPD     -0.230000        0.0000           -1   0.00000   0.00000
     16334 MEOH     234      MEOH     C1       CD33B    2.314100       11.6110           0   -1.00000   1.30000
     16335 MEOH     234      MEOH     DC1      DRUD    -2.454100        0.4000           0   0.00000   0.00000
     16336 MEOH     234      MEOH     O1       OD31H    2.488300       15.5990           0   -1.02800   1.30000
     16337 MEOH     234      MEOH     DO1      DRUD    -2.488300        0.4000           0   0.00000   0.00000
     16338 MEOH     234      MEOH     HO1      HDP1A    0.360000        1.0080           0   0.00000   0.00000
     16339 MEOH     234      MEOH     HO2      DUMH     0.000000        1.0080           0   0.00000   0.00000
     16340 MEOH     234      MEOH     H1A      HDA3B    0.080000        1.0080           0   0.00000   0.00000
     16341 MEOH     234      MEOH     H1B      HDA3B    0.080000        1.0080           0   0.00000   0.00000
     16342 MEOH     234      MEOH     H1C      HDA3B    0.080000        1.0080           0   0.00000   0.00000
     16343 MEOH     234      MEOH     LP1A     LPD     -0.230000        0.0000           -1   0.00000   0.00000
     16344 MEOH     234      MEOH     LP1B     LPD     -0.230000        0.0000           -1   0.00000   0.00000
     16345 MEOH     235      MEOH     C1       CD33B    2.314100       11.6110           0   -1.00000   1.30000
     16346 MEOH     235      MEOH     DC1      DRUD    -2.454100        0.4000           0   0.00000   0.00000
     16347 MEOH     235      MEOH     O1       OD31H    2.488300       15.5990           0   -1.02800   1.30000
     16348 MEOH     235      MEOH     DO1      DRUD    -2.488300        0.4000           0   0.00000   0.00000
     16349 MEOH     235      MEOH     HO1      HDP1A    0.360000        1.0080           0   0.00000   0.00000
     16350 MEOH     235      MEOH     HO2      DUMH     0.000000        1.0080           0   0.00000   0.00000
     16351 MEOH     235      MEOH     H1A      HDA3B    0.080000        1.0080           0   0.00000   0.00000
     16352 MEOH     235      MEOH     H1B      HDA3B    0.080000        1.0080           0   0.00000   0.00000
     16353 MEOH     235      MEOH     H1C      HDA3B    0.080000        1.0080           0   0.00000   0.00000
     16354 MEOH     235      MEOH     LP1A     LPD     -0.230000        0.0000           -1   0.00000   0.00000
     16355 MEOH     235      MEOH     LP1B     LPD     -0.230000        0.0000           -1   0.00000   0.00000
     16356 MEOH     236      MEOH     C1       CD33B    2.314100       11.6110           0   -1.00000   1.30000
     16357 MEOH     236      MEOH     DC1      DRUD    -2.454100        0.4000           0   0.00000   0.00000
     16358 MEOH     236      MEOH     O1       OD31H    2.488300       15.5990           0   -1.02800   1.30000
     16359 MEOH     236      MEOH     DO1      DRUD    -2.488300        0.4000           0   0.00000   0.00000
     16360 MEOH     236      MEOH     HO1      HDP1A    0.360000        1.0080           0   0.00000   0.00000
     16361 MEOH     236      MEOH     HO2      DUMH     0.000000        1.0080           0   0.00000   0.00000
     16362 MEOH     236      MEOH     H1A      HDA3B    0.080000        1.0080           0   0.00000   0.00000
     16363 MEOH     236      MEOH     H1B      HDA3B    0.080000        1.0080           0   0.00000   0.00000
     16364 MEOH     236      MEOH     H1C      HDA3B    0.080000        1.0080           0   0.00000   0.00000
     16365 MEOH     236      MEOH     LP1A     LPD     -0.230000        0.0000           -1   0.00000   0.00000
     16366 MEOH     236      MEOH     LP1B     LPD     -0.230000        0.0000           -1   0.00000   0.00000
     16367 MEOH     237      MEOH     C1       CD33B    2.314100       11.6110           0   -1.00000   1.30000
     16368 MEOH     237      MEOH     DC1      DRUD    -2.454100        0.4000           0   0.00000   0.00000
     16369 MEOH     237      MEOH     O1       OD31H    2.488300       15.5990           0   -1.02800   1.30000
     16370 MEOH     237      MEOH     DO1      DRUD    -2.488300        0.4000           0   0.00000   0.00000
     16371 MEOH     237      MEOH     HO1      HDP1A    0.360000        1.0080           0   0.00000   0.00000
     16372 MEOH     237      MEOH     HO2      DUMH     0.000000        1.0080           0   0.00000   0.00000
     16373 MEOH     237      MEOH     H1A      HDA3B    0.080000        1.0080           0   0.00000   0.00000
     16374 MEOH     237      MEOH     H1B      HDA3B    0.080000        1.0080           0   0.00000   0.00000
     16375 MEOH     237      MEOH     H1C      HDA3B    0.080000        1.0080           0   0.00000   0.00000
     16376 MEOH     237      MEOH     LP1A     LPD     -0.230000        0.0000           -1   0.00000   0.00000
     16377 MEOH     237      MEOH     LP1B     LPD     -0.230000        0.0000           -1   0.00000   0.00000
     16378 MEOH     238      MEOH     C1       CD33B    2.314100       11.6110           0   -1.00000   1.30000
     16379 MEOH     238      MEOH     DC1      DRUD    -2.454100        0.4000           0   0.00000   0.00000
     16380 MEOH     238      MEOH     O1       OD31H    2.488300       15.5990           0   -1.02800   1.30000
     16381 MEOH     238      MEOH     DO1      DRUD    -2.488300        0.4000           0   0.00000   0.00000
     16382 MEOH     238      MEOH     HO1      HDP1A    0.360000        1.0080           0   0.00000   0.00000
     16383 MEOH     238      MEOH     HO2      DUMH     0.000000        1.0080           0   0.00000   0.00000
     16384 MEOH     238      MEOH     H1A      HDA3B    0.080000        1.0080           0   0.00000   0.00000
     16385 MEOH     238      MEOH     H1B      HDA3B    0.080000        1.0080           0   0.00000   0.00000
     16386 MEOH     238      MEOH     H1C      HDA3B    0.080000        1.0080           0   0.00000   0.00000
     16387 MEOH     238      MEOH     LP1A     LPD     -0.230000        0.0000           -1   0.00000   0.00000
     16388 MEOH     238      MEOH     LP1B     LPD     -0.230000        0.0000           -1   0.00000   0.00000
     16389 MEOH     239      MEOH     C1       CD33B    2.314100       11.6110           0   -1.00000   1.30000
     16390 MEOH     239      MEOH     DC1      DRUD    -2.454100        0.4000           0   0.00000   0.00000
     16391 MEOH     239      MEOH     O1       OD31H    2.488300       15.5990           0   -1.02800   1.30000
     16392 MEOH     239      MEOH     DO1      DRUD    -2.488300        0.4000           0   0.00000   0.00000
     16393 MEOH     239      MEOH     HO1      HDP1A    0.360000        1.0080           0   0.00000   0.00000
     16394 MEOH     239      MEOH     HO2      DUMH     0.000000        1.0080           0   0.00000   0.00000
     16395 MEOH     239      MEOH     H1A      HDA3B    0.080000        1.0080           0   0.00000   0.00000
     16396 MEOH     239      MEOH     H1B      HDA3B    0.080000        1.0080           0   0.00000   0.00000
     16397 MEOH     239      MEOH     H1C      HDA3B    0.080000        1.0080           0   0.00000   0.00000
     16398 MEOH     239      MEOH     LP1A     LPD     -0.230000        0.0000           -1   0.00000   0.00000
     16399 MEOH     239      MEOH     LP1B     LPD     -0.230000        0.0000           -1   0.00000   0.00000
     16400 MEOH     240      MEOH     C1       CD33B    2.314100       11.6110           0   -1.00000   1.30000
     16401 MEOH     240      MEOH     DC1      DRUD    -2.454100        0.4000           0   0.00000   0.00000
     16402 MEOH     240      MEOH     O1       OD31H    2.488300       15.5990           0   -1.02800   1.30000
     16403 MEOH     240      MEOH     DO1      DRUD    -2.488300        0.4000           0   0.00000   0.00000
     16404 MEOH     240      MEOH     HO1      HDP1A    0.360000        1.0080           0   0.00000   0.00000
     16405 MEOH     240      MEOH     HO2      DUMH     0.000000        1.0080           0   0.00000   0.00000
     16406 MEOH     240      MEOH     H1A      HDA3B    0.080000        1.0080           0   0.00000   0.00000
     16407 MEOH     240      MEOH     H1B      HDA3B    0.080000        1.0080           0   0.00000   0.00000
     16408 MEOH     240      MEOH     H1C      HDA3B    0.080000        1.0080           0   0.00000   0.00000
     16409 MEOH     240      MEOH     LP1A     LPD     -0.230000        0.0000           -1   0.00000   0.00000
     16410 MEOH     240      MEOH     LP1B     LPD     -0.230000        0.0000           -1   0.00000   0.00000
     16411 MEOH     241      MEOH     C1       CD33B    2.314100       11.6110           0   -1.00000   1.30000
     16412 MEOH     241      MEOH     DC1      DRUD    -2.454100        0.4000           0   0.00000   0.00000
     16413 MEOH     241      MEOH     O1       OD31H    2.488300       15.5990           0   -1.02800   1.30000
     16414 MEOH     241      MEOH     DO1      DRUD    -2.488300        0.4000           0   0.00000   0.00000
     16415 MEOH     241      MEOH     HO1      HDP1A    0.360000        1.0080           0   0.00000   0.00000
     16416 MEOH     241      MEOH     HO2      DUMH     0.000000        1.0080           0   0.00000   0.00000
     16417 MEOH     241      MEOH     H1A      HDA3B    0.080000        1.0080           0   0.00000   0.00000
     16418 MEOH     241      MEOH     H1B      HDA3B    0.080000        1.0080           0   0.00000   0.00000
     16419 MEOH     241      MEOH     H1C      HDA3B    0.080000        1.0080           0   0.00000   0.00000
     16420 MEOH     241      MEOH     LP1A     LPD     -0.230000        0.0000           -1   0.00000   0.00000
     16421 MEOH     241      MEOH     LP1B     LPD     -0.230000        0.0000           -1   0.00000   0.00000
     16422 MEOH     242      MEOH     C1       CD33B    2.314100       11.6110           0   -1.00000   1.30000
     16423 MEOH     242      MEOH     DC1      DRUD    -2.454100        0.4000           0   0.00000   0.00000
     16424 MEOH     242      MEOH     O1       OD31H    2.488300       15.5990           0   -1.02800   1.30000
     16425 MEOH     242      MEOH     DO1      DRUD    -2.488300        0.4000           0   0.00000   0.00000
     16426 MEOH     242      MEOH     HO1      HDP1A    0.360000        1.0080           0   0.00000   0.00000
     16427 MEOH     242      MEOH     HO2      DUMH     0.000000        1.0080           0   0.00000   0.00000
     16428 MEOH     242      MEOH     H1A      HDA3B    0.080000        1.0080           0   0.00000   0.00000
     16429 MEOH     242      MEOH     H1B      HDA3B    0.080000        1.0080           0   0.00000   0.00000
     16430 MEOH     242      MEOH     H1C      HDA3B    0.080000        1.0080           0   0.00000   0.00000
     16431 MEOH     242      MEOH     LP1A     LPD     -0.230000        0.0000           -1   0.00000   0.00000
     16432 MEOH     242      MEOH     LP1B     LPD     -0.230000        0.0000           -1   0.00000   0.00000
     16433 MEOH     243      MEOH     C1       CD33B    2.314100       11.6110           0   -1.00000   1.30000
     16434 MEOH     243      MEOH     DC1      DRUD    -2.454100        0.4000           0   0.00000   0.00000
     16435 MEOH     243      MEOH     O1       OD31H    2.488300       15.5990           0   -1.02800   1.30000
     16436 MEOH     243      MEOH     DO1      DRUD    -2.488300        0.4000           0   0.00000   0.00000
     16437 MEOH     243      MEOH     HO1      HDP1A    0.360000        1.0080           0   0.00000   0.00000
     16438 MEOH     243      MEOH     HO2      DUMH     0.000000        1.0080           0   0.00000   0.00000
     16439 MEOH     243      MEOH     H1A      HDA3B    0.080000        1.0080           0   0.00000   0.00000
     16440 MEOH     243      MEOH     H1B      HDA3B    0.080000        1.0080           0   0.00000   0.00000
     16441 MEOH     243      MEOH     H1C      HDA3B    0.080000        1.0080           0   0.00000   0.00000
     16442 MEOH     243      MEOH     LP1A     LPD     -0.230000        0.0000           -1   0.00000   0.00000
     16443 MEOH     243      MEOH     LP1B     LPD     -0.230000        0.0000           -1   0.00000   0.00000
     16444 MEOH     244      MEOH     C1       CD33B    2.314100       11.6110           0   -1.00000   1.30000
     16445 MEOH     244      MEOH     DC1      DRUD    -2.454100        0.4000           0   0.00000   0.00000
     16446 MEOH     244      MEOH     O1       OD31H    2.488300       15.5990           0   -1.02800   1.30000
     16447 MEOH     244      MEOH     DO1      DRUD    -2.488300        0.4000           0   0.00000   0.00000
     16448 MEOH     244      MEOH     HO1      HDP1A    0.360000        1.0080           0   0.00000   0.00000
     16449 MEOH     244      MEOH     HO2      DUMH     0.000000        1.0080           0   0.00000   0.00000
     16450 MEOH     244      MEOH     H1A      HDA3B    0.080000        1.0080           0   0.00000   0.00000
     16451 MEOH     244      MEOH     H1B      HDA3B    0.080000        1.0080           0   0.00000   0.00000
     16452 MEOH     244      MEOH     H1C      HDA3B    0.080000        1.0080           0   0.00000   0.00000
     16453 MEOH     244      MEOH     LP1A     LPD     -0.230000        0.0000           -1   0.00000   0.00000
     16454 MEOH     244      MEOH     LP1B     LPD     -0.230000        0.0000           -1   0.00000   0.00000
     16455 MEOH     245      MEOH     C1       CD33B    2.314100       11.6110           0   -1.00000   1.30000
     16456 MEOH     245      MEOH     DC1      DRUD    -2.454100        0.4000           0   0.00000   0.00000
     16457 MEOH     245      MEOH     O1       OD31H    2.488300       15.5990           0   -1.02800   1.30000
     16458 MEOH     245      MEOH     DO1      DRUD    -2.488300        0.4000           0   0.00000   0.00000
     16459 MEOH     245      MEOH     HO1      HDP1A    0.360000        1.0080           0   0.00000   0.00000
     16460 MEOH     245      MEOH     HO2      DUMH     0.000000        1.0080           0   0.00000   0.00000
     16461 MEOH     245      MEOH     H1A      HDA3B    0.080000        1.0080           0   0.00000   0.00000
     16462 MEOH     245      MEOH     H1B      HDA3B    0.080000        1.0080           0   0.00000   0.00000
     16463 MEOH     245      MEOH     H1C      HDA3B    0.080000        1.0080           0   0.00000   0.00000
     16464 MEOH     245      MEOH     LP1A     LPD     -0.230000        0.0000           -1   0.00000   0.00000
     16465 MEOH     245      MEOH     LP1B     LPD     -0.230000        0.0000           -1   0.00000   0.00000
     16466 MEOH     246      MEOH     C1       CD33B    2.314100       11.6110           0   -1.00000   1.30000
     16467 MEOH     246      MEOH     DC1      DRUD    -2.454100        0.4000           0   0.00000   0.00000
     16468 MEOH     246      MEOH     O1       OD31H    2.488300       15.5990           0   -1.02800   1.30000
     16469 MEOH     246      MEOH     DO1      DRUD    -2.488300        0.4000           0   0.00000   0.00000
     16470 MEOH     246      MEOH     HO1      HDP1A    0.360000        1.0080           0   0.00000   0.00000
     16471 MEOH     246      MEOH     HO2      DUMH     0.000000        1.0080           0   0.00000   0.00000
     16472 MEOH     246      MEOH     H1A      HDA3B    0.080000        1.0080           0   0.00000   0.00000
     16473 MEOH     246      MEOH     H1B      HDA3B    0.080000        1.0080           0   0.00000   0.00000
     16474 MEOH     246      MEOH     H1C      HDA3B    0.080000        1.0080           0   0.00000   0.00000
     16475 MEOH     246      MEOH     LP1A     LPD     -0.230000        0.0000           -1   0.00000   0.00000
     16476 MEOH     246      MEOH     LP1B     LPD     -0.230000        0.0000           -1   0.00000   0.00000
     16477 MEOH     247      MEOH     C1       CD33B    2.314100       11.6110           0   -1.00000   1.30000
     16478 MEOH     247      MEOH     DC1      DRUD    -2.454100        0.4000           0   0.00000   0.00000
     16479 MEOH     247      MEOH     O1       OD31H    2.488300       15.5990           0   -1.02800   1.30000
     16480 MEOH     247      MEOH     DO1      DRUD    -2.488300        0.4000           0   0.00000   0.00000
     16481 MEOH     247      MEOH     HO1      HDP1A    0.360000        1.0080           0   0.00000   0.00000
     16482 MEOH     247      MEOH     HO2      DUMH     0.000000        1.0080           0   0.00000   0.00000
     16483 MEOH     247      MEOH     H1A      HDA3B    0.080000        1.0080           0   0.00000   0.00000
     16484 MEOH     247      MEOH     H1B      HDA3B    0.080000        1.0080           0   0.00000   0.00000
     16485 MEOH     247      MEOH     H1C      HDA3B    0.080000        1.0080           0   0.00000   0.00000
     16486 MEOH     247      MEOH     LP1A     LPD     -0.230000        0.0000           -1   0.00000   0.00000
     16487 MEOH     247      MEOH     LP1B     LPD     -0.230000        0.0000           -1   0.00000   0.00000
     16488 MEOH     248      MEOH     C1       CD33B    2.314100       11.6110           0   -1.00000   1.30000
     16489 MEOH     248      MEOH     DC1      DRUD    -2.454100        0.4000           0   0.00000   0.00000
     16490 MEOH     248      MEOH     O1       OD31H    2.488300       15.5990           0   -1.02800   1.30000
     16491 MEOH     248      MEOH     DO1      DRUD    -2.488300        0.4000           0   0.00000   0.00000
     16492 MEOH     248      MEOH     HO1      HDP1A    0.360000        1.0080           0   0.00000   0.00000
     16493 MEOH     248      MEOH     HO2      DUMH     0.000000        1.0080           0   0.00000   0.00000
     16494 MEOH     248      MEOH     H1A      HDA3B    0.080000        1.0080           0   0.00000   0.00000
     16495 MEOH     248      MEOH     H1B      HDA3B    0.080000        1.0080           0   0.00000   0.00000
     16496 MEOH     248      MEOH     H1C      HDA3B    0.080000        1.0080           0   0.00000   0.00000
     16497 MEOH     248      MEOH     LP1A     LPD     -0.230000        0.0000           -1   0.00000   0.00000
     16498 MEOH     248      MEOH     LP1B     LPD     -0.230000        0.0000           -1   0.00000   0.00000
     16499 MEOH     249      MEOH     C1       CD33B    2.314100       11.6110           0   -1.00000   1.30000
     16500 MEOH     249      MEOH     DC1      DRUD    -2.454100        0.4000           0   0.00000   0.00000
     16501 MEOH     249      MEOH     O1       OD31H    2.488300       15.5990           0   -1.02800   1.30000
     16502 MEOH     249      MEOH     DO1      DRUD    -2.488300        0.4000           0   0.00000   0.00000
     16503 MEOH     249      MEOH     HO1      HDP1A    0.360000        1.0080           0   0.00000   0.00000
     16504 MEOH     249      MEOH     HO2      DUMH     0.000000        1.0080           0   0.00000   0.00000
     16505 MEOH     249      MEOH     H1A      HDA3B    0.080000        1.0080           0   0.00000   0.00000
     16506 MEOH     249      MEOH     H1B      HDA3B    0.080000        1.0080           0   0.00000   0.00000
     16507 MEOH     249      MEOH     H1C      HDA3B    0.080000        1.0080           0   0.00000   0.00000
     16508 MEOH     249      MEOH     LP1A     LPD     -0.230000        0.0000           -1   0.00000   0.00000
     16509 MEOH     249      MEOH     LP1B     LPD     -0.230000        0.0000           -1   0.00000   0.00000
     16510 MEOH     250      MEOH     C1       CD33B    2.314100       11.6110           0   -1.00000   1.30000
     16511 MEOH     250      MEOH     DC1      DRUD    -2.454100        0.4000           0   0.00000   0.00000
     16512 MEOH     250      MEOH     O1       OD31H    2.488300       15.5990           0   -1.02800   1.30000
     16513 MEOH     250      MEOH     DO1      DRUD    -2.488300        0.4000           0   0.00000   0.00000
     16514 MEOH     250      MEOH     HO1      HDP1A    0.360000        1.0080           0   0.00000   0.00000
     16515 MEOH     250      MEOH     HO2      DUMH     0.000000        1.0080           0   0.00000   0.00000
     16516 MEOH     250      MEOH     H1A      HDA3B    0.080000        1.0080           0   0.00000   0.00000
     16517 MEOH     250      MEOH     H1B      HDA3B    0.080000        1.0080           0   0.00000   0.00000
     16518 MEOH     250      MEOH     H1C      HDA3B    0.080000        1.0080           0   0.00000   0.00000
     16519 MEOH     250      MEOH     LP1A     LPD     -0.230000        0.0000           -1   0.00000   0.00000
     16520 MEOH     250      MEOH     LP1B     LPD     -0.230000        0.0000           -1   0.00000   0.00000
     16521 MEOH     251      MEOH     C1       CD33B    2.314100       11.6110           0   -1.00000   1.30000
     16522 MEOH     251      MEOH     DC1      DRUD    -2.454100        0.4000           0   0.00000   0.00000
     16523 MEOH     251      MEOH     O1       OD31H    2.488300       15.5990           0   -1.02800   1.30000
     16524 MEOH     251      MEOH     DO1      DRUD    -2.488300        0.4000           0   0.00000   0.00000
     16525 MEOH     251      MEOH     HO1      HDP1A    0.360000        1.0080           0   0.00000   0.00000
     16526 MEOH     251      MEOH     HO2      DUMH     0.000000        1.0080           0   0.00000   0.00000
     16527 MEOH     251      MEOH     H1A      HDA3B    0.080000        1.0080           0   0.00000   0.00000
     16528 MEOH     251      MEOH     H1B      HDA3B    0.080000        1.0080           0   0.00000   0.00000
     16529 MEOH     251      MEOH     H1C      HDA3B    0.080000        1.0080           0   0.00000   0.00000
     16530 MEOH     251      MEOH     LP1A     LPD     -0.230000        0.0000           -1   0.00000   0.00000
     16531 MEOH     251      MEOH     LP1B     LPD     -0.230000        0.0000           -1   0.00000   0.00000
     16532 MEOH     252      MEOH     C1       CD33B    2.314100       11.6110           0   -1.00000   1.30000
     16533 MEOH     252      MEOH     DC1      DRUD    -2.454100        0.4000           0   0.00000   0.00000
     16534 MEOH     252      MEOH     O1       OD31H    2.488300       15.5990           0   -1.02800   1.30000
     16535 MEOH     252      MEOH     DO1      DRUD    -2.488300        0.4000           0   0.00000   0.00000
     16536 MEOH     252      MEOH     HO1      HDP1A    0.360000        1.0080           0   0.00000   0.00000
     16537 MEOH     252      MEOH     HO2      DUMH     0.000000        1.0080           0   0.00000   0.00000
     16538 MEOH     252      MEOH     H1A      HDA3B    0.080000        1.0080           0   0.00000   0.00000
     16539 MEOH     252      MEOH     H1B      HDA3B    0.080000        1.0080           0   0.00000   0.00000
     16540 MEOH     252      MEOH     H1C      HDA3B    0.080000        1.0080           0   0.00000   0.00000
     16541 MEOH     252      MEOH     LP1A     LPD     -0.230000        0.0000           -1   0.00000   0.00000
     16542 MEOH     252      MEOH     LP1B     LPD     -0.230000        0.0000           -1   0.00000   0.00000
     16543 MEOH     253      MEOH     C1       CD33B    2.314100       11.6110           0   -1.00000   1.30000
     16544 MEOH     253      MEOH     DC1      DRUD    -2.454100        0.4000           0   0.00000   0.00000
     16545 MEOH     253      MEOH     O1       OD31H    2.488300       15.5990           0   -1.02800   1.30000
     16546 MEOH     253      MEOH     DO1      DRUD    -2.488300        0.4000           0   0.00000   0.00000
     16547 MEOH     253      MEOH     HO1      HDP1A    0.360000        1.0080           0   0.00000   0.00000
     16548 MEOH     253      MEOH     HO2      DUMH     0.000000        1.0080           0   0.00000   0.00000
     16549 MEOH     253      MEOH     H1A      HDA3B    0.080000        1.0080           0   0.00000   0.00000
     16550 MEOH     253      MEOH     H1B      HDA3B    0.080000        1.0080           0   0.00000   0.00000
     16551 MEOH     253      MEOH     H1C      HDA3B    0.080000        1.0080           0   0.00000   0.00000
     16552 MEOH     253      MEOH     LP1A     LPD     -0.230000        0.0000           -1   0.00000   0.00000
     16553 MEOH     253      MEOH     LP1B     LPD     -0.230000        0.0000           -1   0.00000   0.00000
     16554 MEOH     254      MEOH     C1       CD33B    2.314100       11.6110           0   -1.00000   1.30000
     16555 MEOH     254      MEOH     DC1      DRUD    -2.454100        0.4000           0   0.00000   0.00000
     16556 MEOH     254      MEOH     O1       OD31H    2.488300       15.5990           0   -1.02800   1.30000
     16557 MEOH     254      MEOH     DO1      DRUD    -2.488300        0.4000           0   0.00000   0.00000
     16558 MEOH     254      MEOH     HO1      HDP1A    0.360000        1.0080           0   0.00000   0.00000
     16559 MEOH     254      MEOH     HO2      DUMH     0.000000        1.0080           0   0.00000   0.00000
     16560 MEOH     254      MEOH     H1A      HDA3B    0.080000        1.0080           0   0.00000   0.00000
     16561 MEOH     254      MEOH     H1B      HDA3B    0.080000        1.0080           0   0.00000   0.00000
     16562 MEOH     254      MEOH     H1C      HDA3B    0.080000        1.0080           0   0.00000   0.00000
     16563 MEOH     254      MEOH     LP1A     LPD     -0.230000        0.0000           -1   0.00000   0.00000
     16564 MEOH     254      MEOH     LP1B     LPD     -0.230000        0.0000           -1   0.00000   0.00000
     16565 MEOH     255      MEOH     C1       CD33B    2.314100       11.6110           0   -1.00000   1.30000
     16566 MEOH     255      MEOH     DC1      DRUD    -2.454100        0.4000           0   0.00000   0.00000
     16567 MEOH     255      MEOH     O1       OD31H    2.488300       15.5990           0   -1.02800   1.30000
     16568 MEOH     255      MEOH     DO1      DRUD    -2.488300        0.4000           0   0.00000   0.00000
     16569 MEOH     255      MEOH     HO1      HDP1A    0.360000        1.0080           0   0.00000   0.00000
     16570 MEOH     255      MEOH     HO2      DUMH     0.000000        1.0080           0   0.00000   0.00000
     16571 MEOH     255      MEOH     H1A      HDA3B    0.080000        1.0080           0   0.00000   0.00000
     16572 MEOH     255      MEOH     H1B      HDA3B    0.080000        1.0080           0   0.00000   0.00000
     16573 MEOH     255      MEOH     H1C      HDA3B    0.080000        1.0080           0   0.00000   0.00000
     16574 MEOH     255      MEOH     LP1A     LPD     -0.230000        0.0000           -1   0.00000   0.00000
     16575 MEOH     255      MEOH     LP1B     LPD     -0.230000        0.0000           -1   0.00000   0.00000
     16576 MEOH     256      MEOH     C1       CD33B    2.314100       11.6110           0   -1.00000   1.30000
     16577 MEOH     256      MEOH     DC1      DRUD    -2.454100        0.4000           0   0.00000   0.00000
     16578 MEOH     256      MEOH     O1       OD31H    2.488300       15.5990           0   -1.02800   1.30000
     16579 MEOH     256      MEOH     DO1      DRUD    -2.488300        0.4000           0   0.00000   0.00000
     16580 MEOH     256      MEOH     HO1      HDP1A    0.360000        1.0080           0   0.00000   0.00000
     16581 MEOH     256      MEOH     HO2      DUMH     0.000000        1.0080           0   0.00000   0.00000
     16582 MEOH     256      MEOH     H1A      HDA3B    0.080000        1.0080           0   0.00000   0.00000
     16583 MEOH     256      MEOH     H1B      HDA3B    0.080000        1.0080           0   0.00000   0.00000
     16584 MEOH     256      MEOH     H1C      HDA3B    0.080000        1.0080           0   0.00000   0.00000
     16585 MEOH     256      MEOH     LP1A     LPD     -0.230000        0.0000           -1   0.00000   0.00000
     16586 MEOH     256      MEOH     LP1B     LPD     -0.230000        0.0000           -1   0.00000   0.00000
     16587 MEOH     257      MEOH     C1       CD33B    2.314100       11.6110           0   -1.00000   1.30000
     16588 MEOH     257      MEOH     DC1      DRUD    -2.454100        0.4000           0   0.00000   0.00000
     16589 MEOH     257      MEOH     O1       OD31H    2.488300       15.5990           0   -1.02800   1.30000
     16590 MEOH     257      MEOH     DO1      DRUD    -2.488300        0.4000           0   0.00000   0.00000
     16591 MEOH     257      MEOH     HO1      HDP1A    0.360000        1.0080           0   0.00000   0.00000
     16592 MEOH     257      MEOH     HO2      DUMH     0.000000        1.0080           0   0.00000   0.00000
     16593 MEOH     257      MEOH     H1A      HDA3B    0.080000        1.0080           0   0.00000   0.00000
     16594 MEOH     257      MEOH     H1B      HDA3B    0.080000        1.0080           0   0.00000   0.00000
     16595 MEOH     257      MEOH     H1C      HDA3B    0.080000        1.0080           0   0.00000   0.00000
     16596 MEOH     257      MEOH     LP1A     LPD     -0.230000        0.0000           -1   0.00000   0.00000
     16597 MEOH     257      MEOH     LP1B     LPD     -0.230000        0.0000           -1   0.00000   0.00000
     16598 MEOH     258      MEOH     C1       CD33B    2.314100       11.6110           0   -1.00000   1.30000
     16599 MEOH     258      MEOH     DC1      DRUD    -2.454100        0.4000           0   0.00000   0.00000
     16600 MEOH     258      MEOH     O1       OD31H    2.488300       15.5990           0   -1.02800   1.30000
     16601 MEOH     258      MEOH     DO1      DRUD    -2.488300        0.4000           0   0.00000   0.00000
     16602 MEOH     258      MEOH     HO1      HDP1A    0.360000        1.0080           0   0.00000   0.00000
     16603 MEOH     258      MEOH     HO2      DUMH     0.000000        1.0080           0   0.00000   0.00000
     16604 MEOH     258      MEOH     H1A      HDA3B    0.080000        1.0080           0   0.00000   0.00000
     16605 MEOH     258      MEOH     H1B      HDA3B    0.080000        1.0080           0   0.00000   0.00000
     16606 MEOH     258      MEOH     H1C      HDA3B    0.080000        1.0080           0   0.00000   0.00000
     16607 MEOH     258      MEOH     LP1A     LPD     -0.230000        0.0000           -1   0.00000   0.00000
     16608 MEOH     258      MEOH     LP1B     LPD     -0.230000        0.0000           -1   0.00000   0.00000
     16609 MEOH     259      MEOH     C1       CD33B    2.314100       11.6110           0   -1.00000   1.30000
     16610 MEOH     259      MEOH     DC1      DRUD    -2.454100        0.4000           0   0.00000   0.00000
     16611 MEOH     259      MEOH     O1       OD31H    2.488300       15.5990           0   -1.02800   1.30000
     16612 MEOH     259      MEOH     DO1      DRUD    -2.488300        0.4000           0   0.00000   0.00000
     16613 MEOH     259      MEOH     HO1      HDP1A    0.360000        1.0080           0   0.00000   0.00000
     16614 MEOH     259      MEOH     HO2      DUMH     0.000000        1.0080           0   0.00000   0.00000
     16615 MEOH     259      MEOH     H1A      HDA3B    0.080000        1.0080           0   0.00000   0.00000
     16616 MEOH     259      MEOH     H1B      HDA3B    0.080000        1.0080           0   0.00000   0.00000
     16617 MEOH     259      MEOH     H1C      HDA3B    0.080000        1.0080           0   0.00000   0.00000
     16618 MEOH     259      MEOH     LP1A     LPD     -0.230000        0.0000           -1   0.00000   0.00000
     16619 MEOH     259      MEOH     LP1B     LPD     -0.230000        0.0000           -1   0.00000   0.00000
     16620 MEOH     260      MEOH     C1       CD33B    2.314100       11.6110           0   -1.00000   1.30000
     16621 MEOH     260      MEOH     DC1      DRUD    -2.454100        0.4000           0   0.00000   0.00000
     16622 MEOH     260      MEOH     O1       OD31H    2.488300       15.5990           0   -1.02800   1.30000
     16623 MEOH     260      MEOH     DO1      DRUD    -2.488300        0.4000           0   0.00000   0.00000
     16624 MEOH     260      MEOH     HO1      HDP1A    0.360000        1.0080           0   0.00000   0.00000
     16625 MEOH     260      MEOH     HO2      DUMH     0.000000        1.0080           0   0.00000   0.00000
     16626 MEOH     260      MEOH     H1A      HDA3B    0.080000        1.0080           0   0.00000   0.00000
     16627 MEOH     260      MEOH     H1B      HDA3B    0.080000        1.0080           0   0.00000   0.00000
     16628 MEOH     260      MEOH     H1C      HDA3B    0.080000        1.0080           0   0.00000   0.00000
     16629 MEOH     260      MEOH     LP1A     LPD     -0.230000        0.0000           -1   0.00000   0.00000
     16630 MEOH     260      MEOH     LP1B     LPD     -0.230000        0.0000           -1   0.00000   0.00000
     16631 MEOH     261      MEOH     C1       CD33B    2.314100       11.6110           0   -1.00000   1.30000
     16632 MEOH     261      MEOH     DC1      DRUD    -2.454100        0.4000           0   0.00000   0.00000
     16633 MEOH     261      MEOH     O1       OD31H    2.488300       15.5990           0   -1.02800   1.30000
     16634 MEOH     261      MEOH     DO1      DRUD    -2.488300        0.4000           0   0.00000   0.00000
     16635 MEOH     261      MEOH     HO1      HDP1A    0.360000        1.0080           0   0.00000   0.00000
     16636 MEOH     261      MEOH     HO2      DUMH     0.000000        1.0080           0   0.00000   0.00000
     16637 MEOH     261      MEOH     H1A      HDA3B    0.080000        1.0080           0   0.00000   0.00000
     16638 MEOH     261      MEOH     H1B      HDA3B    0.080000        1.0080           0   0.00000   0.00000
     16639 MEOH     261      MEOH     H1C      HDA3B    0.080000        1.0080           0   0.00000   0.00000
     16640 MEOH     261      MEOH     LP1A     LPD     -0.230000        0.0000           -1   0.00000   0.00000
     16641 MEOH     261      MEOH     LP1B     LPD     -0.230000        0.0000           -1   0.00000   0.00000
     16642 MEOH     262      MEOH     C1       CD33B    2.314100       11.6110           0   -1.00000   1.30000
     16643 MEOH     262      MEOH     DC1      DRUD    -2.454100        0.4000           0   0.00000   0.00000
     16644 MEOH     262      MEOH     O1       OD31H    2.488300       15.5990           0   -1.02800   1.30000
     16645 MEOH     262      MEOH     DO1      DRUD    -2.488300        0.4000           0   0.00000   0.00000
     16646 MEOH     262      MEOH     HO1      HDP1A    0.360000        1.0080           0   0.00000   0.00000
     16647 MEOH     262      MEOH     HO2      DUMH     0.000000        1.0080           0   0.00000   0.00000
     16648 MEOH     262      MEOH     H1A      HDA3B    0.080000        1.0080           0   0.00000   0.00000
     16649 MEOH     262      MEOH     H1B      HDA3B    0.080000        1.0080           0   0.00000   0.00000
     16650 MEOH     262      MEOH     H1C      HDA3B    0.080000        1.0080           0   0.00000   0.00000
     16651 MEOH     262      MEOH     LP1A     LPD     -0.230000        0.0000           -1   0.00000   0.00000
     16652 MEOH     262      MEOH     LP1B     LPD     -0.230000        0.0000           -1   0.00000   0.00000
     16653 MEOH     263      MEOH     C1       CD33B    2.314100       11.6110           0   -1.00000   1.30000
     16654 MEOH     263      MEOH     DC1      DRUD    -2.454100        0.4000           0   0.00000   0.00000
     16655 MEOH     263      MEOH     O1       OD31H    2.488300       15.5990           0   -1.02800   1.30000
     16656 MEOH     263      MEOH     DO1      DRUD    -2.488300        0.4000           0   0.00000   0.00000
     16657 MEOH     263      MEOH     HO1      HDP1A    0.360000        1.0080           0   0.00000   0.00000
     16658 MEOH     263      MEOH     HO2      DUMH     0.000000        1.0080           0   0.00000   0.00000
     16659 MEOH     263      MEOH     H1A      HDA3B    0.080000        1.0080           0   0.00000   0.00000
     16660 MEOH     263      MEOH     H1B      HDA3B    0.080000        1.0080           0   0.00000   0.00000
     16661 MEOH     263      MEOH     H1C      HDA3B    0.080000        1.0080           0   0.00000   0.00000
     16662 MEOH     263      MEOH     LP1A     LPD     -0.230000        0.0000           -1   0.00000   0.00000
     16663 MEOH     263      MEOH     LP1B     LPD     -0.230000        0.0000           -1   0.00000   0.00000
     16664 MEOH     264      MEOH     C1       CD33B    2.314100       11.6110           0   -1.00000   1.30000
     16665 MEOH     264      MEOH     DC1      DRUD    -2.454100        0.4000           0   0.00000   0.00000
     16666 MEOH     264      MEOH     O1       OD31H    2.488300       15.5990           0   -1.02800   1.30000
     16667 MEOH     264      MEOH     DO1      DRUD    -2.488300        0.4000           0   0.00000   0.00000
     16668 MEOH     264      MEOH     HO1      HDP1A    0.360000        1.0080           0   0.00000   0.00000
     16669 MEOH     264      MEOH     HO2      DUMH     0.000000        1.0080           0   0.00000   0.00000
     16670 MEOH     264      MEOH     H1A      HDA3B    0.080000        1.0080           0   0.00000   0.00000
     16671 MEOH     264      MEOH     H1B      HDA3B    0.080000        1.0080           0   0.00000   0.00000
     16672 MEOH     264      MEOH     H1C      HDA3B    0.080000        1.0080           0   0.00000   0.00000
     16673 MEOH     264      MEOH     LP1A     LPD     -0.230000        0.0000           -1   0.00000   0.00000
     16674 MEOH     264      MEOH     LP1B     LPD     -0.230000        0.0000           -1   0.00000   0.00000
     16675 MEOH     265      MEOH     C1       CD33B    2.314100       11.6110           0   -1.00000   1.30000
     16676 MEOH     265      MEOH     DC1      DRUD    -2.454100        0.4000           0   0.00000   0.00000
     16677 MEOH     265      MEOH     O1       OD31H    2.488300       15.5990           0   -1.02800   1.30000
     16678 MEOH     265      MEOH     DO1      DRUD    -2.488300        0.4000           0   0.00000   0.00000
     16679 MEOH     265      MEOH     HO1      HDP1A    0.360000        1.0080           0   0.00000   0.00000
     16680 MEOH     265      MEOH     HO2      DUMH     0.000000        1.0080           0   0.00000   0.00000
     16681 MEOH     265      MEOH     H1A      HDA3B    0.080000        1.0080           0   0.00000   0.00000
     16682 MEOH     265      MEOH     H1B      HDA3B    0.080000        1.0080           0   0.00000   0.00000
     16683 MEOH     265      MEOH     H1C      HDA3B    0.080000        1.0080           0   0.00000   0.00000
     16684 MEOH     265      MEOH     LP1A     LPD     -0.230000        0.0000           -1   0.00000   0.00000
     16685 MEOH     265      MEOH     LP1B     LPD     -0.230000        0.0000           -1   0.00000   0.00000
     16686 MEOH     266      MEOH     C1       CD33B    2.314100       11.6110           0   -1.00000   1.30000
     16687 MEOH     266      MEOH     DC1      DRUD    -2.454100        0.4000           0   0.00000   0.00000
     16688 MEOH     266      MEOH     O1       OD31H    2.488300       15.5990           0   -1.02800   1.30000
     16689 MEOH     266      MEOH     DO1      DRUD    -2.488300        0.4000           0   0.00000   0.00000
     16690 MEOH     266      MEOH     HO1      HDP1A    0.360000        1.0080           0   0.00000   0.00000
     16691 MEOH     266      MEOH     HO2      DUMH     0.000000        1.0080           0   0.00000   0.00000
     16692 MEOH     266      MEOH     H1A      HDA3B    0.080000        1.0080           0   0.00000   0.00000
     16693 MEOH     266      MEOH     H1B      HDA3B    0.080000        1.0080           0   0.00000   0.00000
     16694 MEOH     266      MEOH     H1C      HDA3B    0.080000        1.0080           0   0.00000   0.00000
     16695 MEOH     266      MEOH     LP1A     LPD     -0.230000        0.0000           -1   0.00000   0.00000
     16696 MEOH     266      MEOH     LP1B     LPD     -0.230000        0.0000           -1   0.00000   0.00000
     16697 MEOH     267      MEOH     C1       CD33B    2.314100       11.6110           0   -1.00000   1.30000
     16698 MEOH     267      MEOH     DC1      DRUD    -2.454100        0.4000           0   0.00000   0.00000
     16699 MEOH     267      MEOH     O1       OD31H    2.488300       15.5990           0   -1.02800   1.30000
     16700 MEOH     267      MEOH     DO1      DRUD    -2.488300        0.4000           0   0.00000   0.00000
     16701 MEOH     267      MEOH     HO1      HDP1A    0.360000        1.0080           0   0.00000   0.00000
     16702 MEOH     267      MEOH     HO2      DUMH     0.000000        1.0080           0   0.00000   0.00000
     16703 MEOH     267      MEOH     H1A      HDA3B    0.080000        1.0080           0   0.00000   0.00000
     16704 MEOH     267      MEOH     H1B      HDA3B    0.080000        1.0080           0   0.00000   0.00000
     16705 MEOH     267      MEOH     H1C      HDA3B    0.080000        1.0080           0   0.00000   0.00000
     16706 MEOH     267      MEOH     LP1A     LPD     -0.230000        0.0000           -1   0.00000   0.00000
     16707 MEOH     267      MEOH     LP1B     LPD     -0.230000        0.0000           -1   0.00000   0.00000
     16708 MEOH     268      MEOH     C1       CD33B    2.314100       11.6110           0   -1.00000   1.30000
     16709 MEOH     268      MEOH     DC1      DRUD    -2.454100        0.4000           0   0.00000   0.00000
     16710 MEOH     268      MEOH     O1       OD31H    2.488300       15.5990           0   -1.02800   1.30000
     16711 MEOH     268      MEOH     DO1      DRUD    -2.488300        0.4000           0   0.00000   0.00000
     16712 MEOH     268      MEOH     HO1      HDP1A    0.360000        1.0080           0   0.00000   0.00000
     16713 MEOH     268      MEOH     HO2      DUMH     0.000000        1.0080           0   0.00000   0.00000
     16714 MEOH     268      MEOH     H1A      HDA3B    0.080000        1.0080           0   0.00000   0.00000
     16715 MEOH     268      MEOH     H1B      HDA3B    0.080000        1.0080           0   0.00000   0.00000
     16716 MEOH     268      MEOH     H1C      HDA3B    0.080000        1.0080           0   0.00000   0.00000
     16717 MEOH     268      MEOH     LP1A     LPD     -0.230000        0.0000           -1   0.00000   0.00000
     16718 MEOH     268      MEOH     LP1B     LPD     -0.230000        0.0000           -1   0.00000   0.00000
     16719 MEOH     269      MEOH     C1       CD33B    2.314100       11.6110           0   -1.00000   1.30000
     16720 MEOH     269      MEOH     DC1      DRUD    -2.454100        0.4000           0   0.00000   0.00000
     16721 MEOH     269      MEOH     O1       OD31H    2.488300       15.5990           0   -1.02800   1.30000
     16722 MEOH     269      MEOH     DO1      DRUD    -2.488300        0.4000           0   0.00000   0.00000
     16723 MEOH     269      MEOH     HO1      HDP1A    0.360000        1.0080           0   0.00000   0.00000
     16724 MEOH     269      MEOH     HO2      DUMH     0.000000        1.0080           0   0.00000   0.00000
     16725 MEOH     269      MEOH     H1A      HDA3B    0.080000        1.0080           0   0.00000   0.00000
     16726 MEOH     269      MEOH     H1B      HDA3B    0.080000        1.0080           0   0.00000   0.00000
     16727 MEOH     269      MEOH     H1C      HDA3B    0.080000        1.0080           0   0.00000   0.00000
     16728 MEOH     269      MEOH     LP1A     LPD     -0.230000        0.0000           -1   0.00000   0.00000
     16729 MEOH     269      MEOH     LP1B     LPD     -0.230000        0.0000           -1   0.00000   0.00000
     16730 MEOH     270      MEOH     C1       CD33B    2.314100       11.6110           0   -1.00000   1.30000
     16731 MEOH     270      MEOH     DC1      DRUD    -2.454100        0.4000           0   0.00000   0.00000
     16732 MEOH     270      MEOH     O1       OD31H    2.488300       15.5990           0   -1.02800   1.30000
     16733 MEOH     270      MEOH     DO1      DRUD    -2.488300        0.4000           0   0.00000   0.00000
     16734 MEOH     270      MEOH     HO1      HDP1A    0.360000        1.0080           0   0.00000   0.00000
     16735 MEOH     270      MEOH     HO2      DUMH     0.000000        1.0080           0   0.00000   0.00000
     16736 MEOH     270      MEOH     H1A      HDA3B    0.080000        1.0080           0   0.00000   0.00000
     16737 MEOH     270      MEOH     H1B      HDA3B    0.080000        1.0080           0   0.00000   0.00000
     16738 MEOH     270      MEOH     H1C      HDA3B    0.080000        1.0080           0   0.00000   0.00000
     16739 MEOH     270      MEOH     LP1A     LPD     -0.230000        0.0000           -1   0.00000   0.00000
     16740 MEOH     270      MEOH     LP1B     LPD     -0.230000        0.0000           -1   0.00000   0.00000
     16741 MEOH     271      MEOH     C1       CD33B    2.314100       11.6110           0   -1.00000   1.30000
     16742 MEOH     271      MEOH     DC1      DRUD    -2.454100        0.4000           0   0.00000   0.00000
     16743 MEOH     271      MEOH     O1       OD31H    2.488300       15.5990           0   -1.02800   1.30000
     16744 MEOH     271      MEOH     DO1      DRUD    -2.488300        0.4000           0   0.00000   0.00000
     16745 MEOH     271      MEOH     HO1      HDP1A    0.360000        1.0080           0   0.00000   0.00000
     16746 MEOH     271      MEOH     HO2      DUMH     0.000000        1.0080           0   0.00000   0.00000
     16747 MEOH     271      MEOH     H1A      HDA3B    0.080000        1.0080           0   0.00000   0.00000
     16748 MEOH     271      MEOH     H1B      HDA3B    0.080000        1.0080           0   0.00000   0.00000
     16749 MEOH     271      MEOH     H1C      HDA3B    0.080000        1.0080           0   0.00000   0.00000
     16750 MEOH     271      MEOH     LP1A     LPD     -0.230000        0.0000           -1   0.00000   0.00000
     16751 MEOH     271      MEOH     LP1B     LPD     -0.230000        0.0000           -1   0.00000   0.00000
     16752 MEOH     272      MEOH     C1       CD33B    2.314100       11.6110           0   -1.00000   1.30000
     16753 MEOH     272      MEOH     DC1      DRUD    -2.454100        0.4000           0   0.00000   0.00000
     16754 MEOH     272      MEOH     O1       OD31H    2.488300       15.5990           0   -1.02800   1.30000
     16755 MEOH     272      MEOH     DO1      DRUD    -2.488300        0.4000           0   0.00000   0.00000
     16756 MEOH     272      MEOH     HO1      HDP1A    0.360000        1.0080           0   0.00000   0.00000
     16757 MEOH     272      MEOH     HO2      DUMH     0.000000        1.0080           0   0.00000   0.00000
     16758 MEOH     272      MEOH     H1A      HDA3B    0.080000        1.0080           0   0.00000   0.00000
     16759 MEOH     272      MEOH     H1B      HDA3B    0.080000        1.0080           0   0.00000   0.00000
     16760 MEOH     272      MEOH     H1C      HDA3B    0.080000        1.0080           0   0.00000   0.00000
     16761 MEOH     272      MEOH     LP1A     LPD     -0.230000        0.0000           -1   0.00000   0.00000
     16762 MEOH     272      MEOH     LP1B     LPD     -0.230000        0.0000           -1   0.00000   0.00000
     16763 MEOH     273      MEOH     C1       CD33B    2.314100       11.6110           0   -1.00000   1.30000
     16764 MEOH     273      MEOH     DC1      DRUD    -2.454100        0.4000           0   0.00000   0.00000
     16765 MEOH     273      MEOH     O1       OD31H    2.488300       15.5990           0   -1.02800   1.30000
     16766 MEOH     273      MEOH     DO1      DRUD    -2.488300        0.4000           0   0.00000   0.00000
     16767 MEOH     273      MEOH     HO1      HDP1A    0.360000        1.0080           0   0.00000   0.00000
     16768 MEOH     273      MEOH     HO2      DUMH     0.000000        1.0080           0   0.00000   0.00000
     16769 MEOH     273      MEOH     H1A      HDA3B    0.080000        1.0080           0   0.00000   0.00000
     16770 MEOH     273      MEOH     H1B      HDA3B    0.080000        1.0080           0   0.00000   0.00000
     16771 MEOH     273      MEOH     H1C      HDA3B    0.080000        1.0080           0   0.00000   0.00000
     16772 MEOH     273      MEOH     LP1A     LPD     -0.230000        0.0000           -1   0.00000   0.00000
     16773 MEOH     273      MEOH     LP1B     LPD     -0.230000        0.0000           -1   0.00000   0.00000
     16774 MEOH     274      MEOH     C1       CD33B    2.314100       11.6110           0   -1.00000   1.30000
     16775 MEOH     274      MEOH     DC1      DRUD    -2.454100        0.4000           0   0.00000   0.00000
     16776 MEOH     274      MEOH     O1       OD31H    2.488300       15.5990           0   -1.02800   1.30000
     16777 MEOH     274      MEOH     DO1      DRUD    -2.488300        0.4000           0   0.00000   0.00000
     16778 MEOH     274      MEOH     HO1      HDP1A    0.360000        1.0080           0   0.00000   0.00000
     16779 MEOH     274      MEOH     HO2      DUMH     0.000000        1.0080           0   0.00000   0.00000
     16780 MEOH     274      MEOH     H1A      HDA3B    0.080000        1.0080           0   0.00000   0.00000
     16781 MEOH     274      MEOH     H1B      HDA3B    0.080000        1.0080           0   0.00000   0.00000
     16782 MEOH     274      MEOH     H1C      HDA3B    0.080000        1.0080           0   0.00000   0.00000
     16783 MEOH     274      MEOH     LP1A     LPD     -0.230000        0.0000           -1   0.00000   0.00000
     16784 MEOH     274      MEOH     LP1B     LPD     -0.230000        0.0000           -1   0.00000   0.00000
     16785 MEOH     275      MEOH     C1       CD33B    2.314100       11.6110           0   -1.00000   1.30000
     16786 MEOH     275      MEOH     DC1      DRUD    -2.454100        0.4000           0   0.00000   0.00000
     16787 MEOH     275      MEOH     O1       OD31H    2.488300       15.5990           0   -1.02800   1.30000
     16788 MEOH     275      MEOH     DO1      DRUD    -2.488300        0.4000           0   0.00000   0.00000
     16789 MEOH     275      MEOH     HO1      HDP1A    0.360000        1.0080           0   0.00000   0.00000
     16790 MEOH     275      MEOH     HO2      DUMH     0.000000        1.0080           0   0.00000   0.00000
     16791 MEOH     275      MEOH     H1A      HDA3B    0.080000        1.0080           0   0.00000   0.00000
     16792 MEOH     275      MEOH     H1B      HDA3B    0.080000        1.0080           0   0.00000   0.00000
     16793 MEOH     275      MEOH     H1C      HDA3B    0.080000        1.0080           0   0.00000   0.00000
     16794 MEOH     275      MEOH     LP1A     LPD     -0.230000        0.0000           -1   0.00000   0.00000
     16795 MEOH     275      MEOH     LP1B     LPD     -0.230000        0.0000           -1   0.00000   0.00000
     16796 MEOH     276      MEOH     C1       CD33B    2.314100       11.6110           0   -1.00000   1.30000
     16797 MEOH     276      MEOH     DC1      DRUD    -2.454100        0.4000           0   0.00000   0.00000
     16798 MEOH     276      MEOH     O1       OD31H    2.488300       15.5990           0   -1.02800   1.30000
     16799 MEOH     276      MEOH     DO1      DRUD    -2.488300        0.4000           0   0.00000   0.00000
     16800 MEOH     276      MEOH     HO1      HDP1A    0.360000        1.0080           0   0.00000   0.00000
     16801 MEOH     276      MEOH     HO2      DUMH     0.000000        1.0080           0   0.00000   0.00000
     16802 MEOH     276      MEOH     H1A      HDA3B    0.080000        1.0080           0   0.00000   0.00000
     16803 MEOH     276      MEOH     H1B      HDA3B    0.080000        1.0080           0   0.00000   0.00000
     16804 MEOH     276      MEOH     H1C      HDA3B    0.080000        1.0080           0   0.00000   0.00000
     16805 MEOH     276      MEOH     LP1A     LPD     -0.230000        0.0000           -1   0.00000   0.00000
     16806 MEOH     276      MEOH     LP1B     LPD     -0.230000        0.0000           -1   0.00000   0.00000
     16807 MEOH     277      MEOH     C1       CD33B    2.314100       11.6110           0   -1.00000   1.30000
     16808 MEOH     277      MEOH     DC1      DRUD    -2.454100        0.4000           0   0.00000   0.00000
     16809 MEOH     277      MEOH     O1       OD31H    2.488300       15.5990           0   -1.02800   1.30000
     16810 MEOH     277      MEOH     DO1      DRUD    -2.488300        0.4000           0   0.00000   0.00000
     16811 MEOH     277      MEOH     HO1      HDP1A    0.360000        1.0080           0   0.00000   0.00000
     16812 MEOH     277      MEOH     HO2      DUMH     0.000000        1.0080           0   0.00000   0.00000
     16813 MEOH     277      MEOH     H1A      HDA3B    0.080000        1.0080           0   0.00000   0.00000
     16814 MEOH     277      MEOH     H1B      HDA3B    0.080000        1.0080           0   0.00000   0.00000
     16815 MEOH     277      MEOH     H1C      HDA3B    0.080000        1.0080           0   0.00000   0.00000
     16816 MEOH     277      MEOH     LP1A     LPD     -0.230000        0.0000           -1   0.00000   0.00000
     16817 MEOH     277      MEOH     LP1B     LPD     -0.230000        0.0000           -1   0.00000   0.00000
     16818 MEOH     278      MEOH     C1       CD33B    2.314100       11.6110           0   -1.00000   1.30000
     16819 MEOH     278      MEOH     DC1      DRUD    -2.454100        0.4000           0   0.00000   0.00000
     16820 MEOH     278      MEOH     O1       OD31H    2.488300       15.5990           0   -1.02800   1.30000
     16821 MEOH     278      MEOH     DO1      DRUD    -2.488300        0.4000           0   0.00000   0.00000
     16822 MEOH     278      MEOH     HO1      HDP1A    0.360000        1.0080           0   0.00000   0.00000
     16823 MEOH     278      MEOH     HO2      DUMH     0.000000        1.0080           0   0.00000   0.00000
     16824 MEOH     278      MEOH     H1A      HDA3B    0.080000        1.0080           0   0.00000   0.00000
     16825 MEOH     278      MEOH     H1B      HDA3B    0.080000        1.0080           0   0.00000   0.00000
     16826 MEOH     278      MEOH     H1C      HDA3B    0.080000        1.0080           0   0.00000   0.00000
     16827 MEOH     278      MEOH     LP1A     LPD     -0.230000        0.0000           -1   0.00000   0.00000
     16828 MEOH     278      MEOH     LP1B     LPD     -0.230000        0.0000           -1   0.00000   0.00000
     16829 MEOH     279      MEOH     C1       CD33B    2.314100       11.6110           0   -1.00000   1.30000
     16830 MEOH     279      MEOH     DC1      DRUD    -2.454100        0.4000           0   0.00000   0.00000
     16831 MEOH     279      MEOH     O1       OD31H    2.488300       15.5990           0   -1.02800   1.30000
     16832 MEOH     279      MEOH     DO1      DRUD    -2.488300        0.4000           0   0.00000   0.00000
     16833 MEOH     279      MEOH     HO1      HDP1A    0.360000        1.0080           0   0.00000   0.00000
     16834 MEOH     279      MEOH     HO2      DUMH     0.000000        1.0080           0   0.00000   0.00000
     16835 MEOH     279      MEOH     H1A      HDA3B    0.080000        1.0080           0   0.00000   0.00000
     16836 MEOH     279      MEOH     H1B      HDA3B    0.080000        1.0080           0   0.00000   0.00000
     16837 MEOH     279      MEOH     H1C      HDA3B    0.080000        1.0080           0   0.00000   0.00000
     16838 MEOH     279      MEOH     LP1A     LPD     -0.230000        0.0000           -1   0.00000   0.00000
     16839 MEOH     279      MEOH     LP1B     LPD     -0.230000        0.0000           -1   0.00000   0.00000
     16840 MEOH     280      MEOH     C1       CD33B    2.314100       11.6110           0   -1.00000   1.30000
     16841 MEOH     280      MEOH     DC1      DRUD    -2.454100        0.4000           0   0.00000   0.00000
     16842 MEOH     280      MEOH     O1       OD31H    2.488300       15.5990           0   -1.02800   1.30000
     16843 MEOH     280      MEOH     DO1      DRUD    -2.488300        0.4000           0   0.00000   0.00000
     16844 MEOH     280      MEOH     HO1      HDP1A    0.360000        1.0080           0   0.00000   0.00000
     16845 MEOH     280      MEOH     HO2      DUMH     0.000000        1.0080           0   0.00000   0.00000
     16846 MEOH     280      MEOH     H1A      HDA3B    0.080000        1.0080           0   0.00000   0.00000
     16847 MEOH     280      MEOH     H1B      HDA3B    0.080000        1.0080           0   0.00000   0.00000
     16848 MEOH     280      MEOH     H1C      HDA3B    0.080000        1.0080           0   0.00000   0.00000
     16849 MEOH     280      MEOH     LP1A     LPD     -0.230000        0.0000           -1   0.00000   0.00000
     16850 MEOH     280      MEOH     LP1B     LPD     -0.230000        0.0000           -1   0.00000   0.00000
     16851 MEOH     281      MEOH     C1       CD33B    2.314100       11.6110           0   -1.00000   1.30000
     16852 MEOH     281      MEOH     DC1      DRUD    -2.454100        0.4000           0   0.00000   0.00000
     16853 MEOH     281      MEOH     O1       OD31H    2.488300       15.5990           0   -1.02800   1.30000
     16854 MEOH     281      MEOH     DO1      DRUD    -2.488300        0.4000           0   0.00000   0.00000
     16855 MEOH     281      MEOH     HO1      HDP1A    0.360000        1.0080           0   0.00000   0.00000
     16856 MEOH     281      MEOH     HO2      DUMH     0.000000        1.0080           0   0.00000   0.00000
     16857 MEOH     281      MEOH     H1A      HDA3B    0.080000        1.0080           0   0.00000   0.00000
     16858 MEOH     281      MEOH     H1B      HDA3B    0.080000        1.0080           0   0.00000   0.00000
     16859 MEOH     281      MEOH     H1C      HDA3B    0.080000        1.0080           0   0.00000   0.00000
     16860 MEOH     281      MEOH     LP1A     LPD     -0.230000        0.0000           -1   0.00000   0.00000
     16861 MEOH     281      MEOH     LP1B     LPD     -0.230000        0.0000           -1   0.00000   0.00000
     16862 MEOH     282      MEOH     C1       CD33B    2.314100       11.6110           0   -1.00000   1.30000
     16863 MEOH     282      MEOH     DC1      DRUD    -2.454100        0.4000           0   0.00000   0.00000
     16864 MEOH     282      MEOH     O1       OD31H    2.488300       15.5990           0   -1.02800   1.30000
     16865 MEOH     282      MEOH     DO1      DRUD    -2.488300        0.4000           0   0.00000   0.00000
     16866 MEOH     282      MEOH     HO1      HDP1A    0.360000        1.0080           0   0.00000   0.00000
     16867 MEOH     282      MEOH     HO2      DUMH     0.000000        1.0080           0   0.00000   0.00000
     16868 MEOH     282      MEOH     H1A      HDA3B    0.080000        1.0080           0   0.00000   0.00000
     16869 MEOH     282      MEOH     H1B      HDA3B    0.080000        1.0080           0   0.00000   0.00000
     16870 MEOH     282      MEOH     H1C      HDA3B    0.080000        1.0080           0   0.00000   0.00000
     16871 MEOH     282      MEOH     LP1A     LPD     -0.230000        0.0000           -1   0.00000   0.00000
     16872 MEOH     282      MEOH     LP1B     LPD     -0.230000        0.0000           -1   0.00000   0.00000
     16873 MEOH     283      MEOH     C1       CD33B    2.314100       11.6110           0   -1.00000   1.30000
     16874 MEOH     283      MEOH     DC1      DRUD    -2.454100        0.4000           0   0.00000   0.00000
     16875 MEOH     283      MEOH     O1       OD31H    2.488300       15.5990           0   -1.02800   1.30000
     16876 MEOH     283      MEOH     DO1      DRUD    -2.488300        0.4000           0   0.00000   0.00000
     16877 MEOH     283      MEOH     HO1      HDP1A    0.360000        1.0080           0   0.00000   0.00000
     16878 MEOH     283      MEOH     HO2      DUMH     0.000000        1.0080           0   0.00000   0.00000
     16879 MEOH     283      MEOH     H1A      HDA3B    0.080000        1.0080           0   0.00000   0.00000
     16880 MEOH     283      MEOH     H1B      HDA3B    0.080000        1.0080           0   0.00000   0.00000
     16881 MEOH     283      MEOH     H1C      HDA3B    0.080000        1.0080           0   0.00000   0.00000
     16882 MEOH     283      MEOH     LP1A     LPD     -0.230000        0.0000           -1   0.00000   0.00000
     16883 MEOH     283      MEOH     LP1B     LPD     -0.230000        0.0000           -1   0.00000   0.00000
     16884 MEOH     284      MEOH     C1       CD33B    2.314100       11.6110           0   -1.00000   1.30000
     16885 MEOH     284      MEOH     DC1      DRUD    -2.454100        0.4000           0   0.00000   0.00000
     16886 MEOH     284      MEOH     O1       OD31H    2.488300       15.5990           0   -1.02800   1.30000
     16887 MEOH     284      MEOH     DO1      DRUD    -2.488300        0.4000           0   0.00000   0.00000
     16888 MEOH     284      MEOH     HO1      HDP1A    0.360000        1.0080           0   0.00000   0.00000
     16889 MEOH     284      MEOH     HO2      DUMH     0.000000        1.0080           0   0.00000   0.00000
     16890 MEOH     284      MEOH     H1A      HDA3B    0.080000        1.0080           0   0.00000   0.00000
     16891 MEOH     284      MEOH     H1B      HDA3B    0.080000        1.0080           0   0.00000   0.00000
     16892 MEOH     284      MEOH     H1C      HDA3B    0.080000        1.0080           0   0.00000   0.00000
     16893 MEOH     284      MEOH     LP1A     LPD     -0.230000        0.0000           -1   0.00000   0.00000
     16894 MEOH     284      MEOH     LP1B     LPD     -0.230000        0.0000           -1   0.00000   0.00000
     16895 MEOH     285      MEOH     C1       CD33B    2.314100       11.6110           0   -1.00000   1.30000
     16896 MEOH     285      MEOH     DC1      DRUD    -2.454100        0.4000           0   0.00000   0.00000
     16897 MEOH     285      MEOH     O1       OD31H    2.488300       15.5990           0   -1.02800   1.30000
     16898 MEOH     285      MEOH     DO1      DRUD    -2.488300        0.4000           0   0.00000   0.00000
     16899 MEOH     285      MEOH     HO1      HDP1A    0.360000        1.0080           0   0.00000   0.00000
     16900 MEOH     285      MEOH     HO2      DUMH     0.000000        1.0080           0   0.00000   0.00000
     16901 MEOH     285      MEOH     H1A      HDA3B    0.080000        1.0080           0   0.00000   0.00000
     16902 MEOH     285      MEOH     H1B      HDA3B    0.080000        1.0080           0   0.00000   0.00000
     16903 MEOH     285      MEOH     H1C      HDA3B    0.080000        1.0080           0   0.00000   0.00000
     16904 MEOH     285      MEOH     LP1A     LPD     -0.230000        0.0000           -1   0.00000   0.00000
     16905 MEOH     285      MEOH     LP1B     LPD     -0.230000        0.0000           -1   0.00000   0.00000
     16906 MEOH     286      MEOH     C1       CD33B    2.314100       11.6110           0   -1.00000   1.30000
     16907 MEOH     286      MEOH     DC1      DRUD    -2.454100        0.4000           0   0.00000   0.00000
     16908 MEOH     286      MEOH     O1       OD31H    2.488300       15.5990           0   -1.02800   1.30000
     16909 MEOH     286      MEOH     DO1      DRUD    -2.488300        0.4000           0   0.00000   0.00000
     16910 MEOH     286      MEOH     HO1      HDP1A    0.360000        1.0080           0   0.00000   0.00000
     16911 MEOH     286      MEOH     HO2      DUMH     0.000000        1.0080           0   0.00000   0.00000
     16912 MEOH     286      MEOH     H1A      HDA3B    0.080000        1.0080           0   0.00000   0.00000
     16913 MEOH     286      MEOH     H1B      HDA3B    0.080000        1.0080           0   0.00000   0.00000
     16914 MEOH     286      MEOH     H1C      HDA3B    0.080000        1.0080           0   0.00000   0.00000
     16915 MEOH     286      MEOH     LP1A     LPD     -0.230000        0.0000           -1   0.00000   0.00000
     16916 MEOH     286      MEOH     LP1B     LPD     -0.230000        0.0000           -1   0.00000   0.00000
     16917 MEOH     287      MEOH     C1       CD33B    2.314100       11.6110           0   -1.00000   1.30000
     16918 MEOH     287      MEOH     DC1      DRUD    -2.454100        0.4000           0   0.00000   0.00000
     16919 MEOH     287      MEOH     O1       OD31H    2.488300       15.5990           0   -1.02800   1.30000
     16920 MEOH     287      MEOH     DO1      DRUD    -2.488300        0.4000           0   0.00000   0.00000
     16921 MEOH     287      MEOH     HO1      HDP1A    0.360000        1.0080           0   0.00000   0.00000
     16922 MEOH     287      MEOH     HO2      DUMH     0.000000        1.0080           0   0.00000   0.00000
     16923 MEOH     287      MEOH     H1A      HDA3B    0.080000        1.0080           0   0.00000   0.00000
     16924 MEOH     287      MEOH     H1B      HDA3B    0.080000        1.0080           0   0.00000   0.00000
     16925 MEOH     287      MEOH     H1C      HDA3B    0.080000        1.0080           0   0.00000   0.00000
     16926 MEOH     287      MEOH     LP1A     LPD     -0.230000        0.0000           -1   0.00000   0.00000
     16927 MEOH     287      MEOH     LP1B     LPD     -0.230000        0.0000           -1   0.00000   0.00000
     16928 MEOH     288      MEOH     C1       CD33B    2.314100       11.6110           0   -1.00000   1.30000
     16929 MEOH     288      MEOH     DC1      DRUD    -2.454100        0.4000           0   0.00000   0.00000
     16930 MEOH     288      MEOH     O1       OD31H    2.488300       15.5990           0   -1.02800   1.30000
     16931 MEOH     288      MEOH     DO1      DRUD    -2.488300        0.4000           0   0.00000   0.00000
     16932 MEOH     288      MEOH     HO1      HDP1A    0.360000        1.0080           0   0.00000   0.00000
     16933 MEOH     288      MEOH     HO2      DUMH     0.000000        1.0080           0   0.00000   0.00000
     16934 MEOH     288      MEOH     H1A      HDA3B    0.080000        1.0080           0   0.00000   0.00000
     16935 MEOH     288      MEOH     H1B      HDA3B    0.080000        1.0080           0   0.00000   0.00000
     16936 MEOH     288      MEOH     H1C      HDA3B    0.080000        1.0080           0   0.00000   0.00000
     16937 MEOH     288      MEOH     LP1A     LPD     -0.230000        0.0000           -1   0.00000   0.00000
     16938 MEOH     288      MEOH     LP1B     LPD     -0.230000        0.0000           -1   0.00000   0.00000
     16939 MEOH     289      MEOH     C1       CD33B    2.314100       11.6110           0   -1.00000   1.30000
     16940 MEOH     289      MEOH     DC1      DRUD    -2.454100        0.4000           0   0.00000   0.00000
     16941 MEOH     289      MEOH     O1       OD31H    2.488300       15.5990           0   -1.02800   1.30000
     16942 MEOH     289      MEOH     DO1      DRUD    -2.488300        0.4000           0   0.00000   0.00000
     16943 MEOH     289      MEOH     HO1      HDP1A    0.360000        1.0080           0   0.00000   0.00000
     16944 MEOH     289      MEOH     HO2      DUMH     0.000000        1.0080           0   0.00000   0.00000
     16945 MEOH     289      MEOH     H1A      HDA3B    0.080000        1.0080           0   0.00000   0.00000
     16946 MEOH     289      MEOH     H1B      HDA3B    0.080000        1.0080           0   0.00000   0.00000
     16947 MEOH     289      MEOH     H1C      HDA3B    0.080000        1.0080           0   0.00000   0.00000
     16948 MEOH     289      MEOH     LP1A     LPD     -0.230000        0.0000           -1   0.00000   0.00000
     16949 MEOH     289      MEOH     LP1B     LPD     -0.230000        0.0000           -1   0.00000   0.00000
     16950 MEOH     290      MEOH     C1       CD33B    2.314100       11.6110           0   -1.00000   1.30000
     16951 MEOH     290      MEOH     DC1      DRUD    -2.454100        0.4000           0   0.00000   0.00000
     16952 MEOH     290      MEOH     O1       OD31H    2.488300       15.5990           0   -1.02800   1.30000
     16953 MEOH     290      MEOH     DO1      DRUD    -2.488300        0.4000           0   0.00000   0.00000
     16954 MEOH     290      MEOH     HO1      HDP1A    0.360000        1.0080           0   0.00000   0.00000
     16955 MEOH     290      MEOH     HO2      DUMH     0.000000        1.0080           0   0.00000   0.00000
     16956 MEOH     290      MEOH     H1A      HDA3B    0.080000        1.0080           0   0.00000   0.00000
     16957 MEOH     290      MEOH     H1B      HDA3B    0.080000        1.0080           0   0.00000   0.00000
     16958 MEOH     290      MEOH     H1C      HDA3B    0.080000        1.0080           0   0.00000   0.00000
     16959 MEOH     290      MEOH     LP1A     LPD     -0.230000        0.0000           -1   0.00000   0.00000
     16960 MEOH     290      MEOH     LP1B     LPD     -0.230000        0.0000           -1   0.00000   0.00000
     16961 MEOH     291      MEOH     C1       CD33B    2.314100       11.6110           0   -1.00000   1.30000
     16962 MEOH     291      MEOH     DC1      DRUD    -2.454100        0.4000           0   0.00000   0.00000
     16963 MEOH     291      MEOH     O1       OD31H    2.488300       15.5990           0   -1.02800   1.30000
     16964 MEOH     291      MEOH     DO1      DRUD    -2.488300        0.4000           0   0.00000   0.00000
     16965 MEOH     291      MEOH     HO1      HDP1A    0.360000        1.0080           0   0.00000   0.00000
     16966 MEOH     291      MEOH     HO2      DUMH     0.000000        1.0080           0   0.00000   0.00000
     16967 MEOH     291      MEOH     H1A      HDA3B    0.080000        1.0080           0   0.00000   0.00000
     16968 MEOH     291      MEOH     H1B      HDA3B    0.080000        1.0080           0   0.00000   0.00000
     16969 MEOH     291      MEOH     H1C      HDA3B    0.080000        1.0080           0   0.00000   0.00000
     16970 MEOH     291      MEOH     LP1A     LPD     -0.230000        0.0000           -1   0.00000   0.00000
     16971 MEOH     291      MEOH     LP1B     LPD     -0.230000        0.0000           -1   0.00000   0.00000
     16972 MEOH     292      MEOH     C1       CD33B    2.314100       11.6110           0   -1.00000   1.30000
     16973 MEOH     292      MEOH     DC1      DRUD    -2.454100        0.4000           0   0.00000   0.00000
     16974 MEOH     292      MEOH     O1       OD31H    2.488300       15.5990           0   -1.02800   1.30000
     16975 MEOH     292      MEOH     DO1      DRUD    -2.488300        0.4000           0   0.00000   0.00000
     16976 MEOH     292      MEOH     HO1      HDP1A    0.360000        1.0080           0   0.00000   0.00000
     16977 MEOH     292      MEOH     HO2      DUMH     0.000000        1.0080           0   0.00000   0.00000
     16978 MEOH     292      MEOH     H1A      HDA3B    0.080000        1.0080           0   0.00000   0.00000
     16979 MEOH     292      MEOH     H1B      HDA3B    0.080000        1.0080           0   0.00000   0.00000
     16980 MEOH     292      MEOH     H1C      HDA3B    0.080000        1.0080           0   0.00000   0.00000
     16981 MEOH     292      MEOH     LP1A     LPD     -0.230000        0.0000           -1   0.00000   0.00000
     16982 MEOH     292      MEOH     LP1B     LPD     -0.230000        0.0000           -1   0.00000   0.00000
     16983 MEOH     293      MEOH     C1       CD33B    2.314100       11.6110           0   -1.00000   1.30000
     16984 MEOH     293      MEOH     DC1      DRUD    -2.454100        0.4000           0   0.00000   0.00000
     16985 MEOH     293      MEOH     O1       OD31H    2.488300       15.5990           0   -1.02800   1.30000
     16986 MEOH     293      MEOH     DO1      DRUD    -2.488300        0.4000           0   0.00000   0.00000
     16987 MEOH     293      MEOH     HO1      HDP1A    0.360000        1.0080           0   0.00000   0.00000
     16988 MEOH     293      MEOH     HO2      DUMH     0.000000        1.0080           0   0.00000   0.00000
     16989 MEOH     293      MEOH     H1A      HDA3B    0.080000        1.0080           0   0.00000   0.00000
     16990 MEOH     293      MEOH     H1B      HDA3B    0.080000        1.0080           0   0.00000   0.00000
     16991 MEOH     293      MEOH     H1C      HDA3B    0.080000        1.0080           0   0.00000   0.00000
     16992 MEOH     293      MEOH     LP1A     LPD     -0.230000        0.0000           -1   0.00000   0.00000
     16993 MEOH     293      MEOH     LP1B     LPD     -0.230000        0.0000           -1   0.00000   0.00000
     16994 MEOH     294      MEOH     C1       CD33B    2.314100       11.6110           0   -1.00000   1.30000
     16995 MEOH     294      MEOH     DC1      DRUD    -2.454100        0.4000           0   0.00000   0.00000
     16996 MEOH     294      MEOH     O1       OD31H    2.488300       15.5990           0   -1.02800   1.30000
     16997 MEOH     294      MEOH     DO1      DRUD    -2.488300        0.4000           0   0.00000   0.00000
     16998 MEOH     294      MEOH     HO1      HDP1A    0.360000        1.0080           0   0.00000   0.00000
     16999 MEOH     294      MEOH     HO2      DUMH     0.000000        1.0080           0   0.00000   0.00000
     17000 MEOH     294      MEOH     H1A      HDA3B    0.080000        1.0080           0   0.00000   0.00000
     17001 MEOH     294      MEOH     H1B      HDA3B    0.080000        1.0080           0   0.00000   0.00000
     17002 MEOH     294      MEOH     H1C      HDA3B    0.080000        1.0080           0   0.00000   0.00000
     17003 MEOH     294      MEOH     LP1A     LPD     -0.230000        0.0000           -1   0.00000   0.00000
     17004 MEOH     294      MEOH     LP1B     LPD     -0.230000        0.0000           -1   0.00000   0.00000
     17005 MEOH     295      MEOH     C1       CD33B    2.314100       11.6110           0   -1.00000   1.30000
     17006 MEOH     295      MEOH     DC1      DRUD    -2.454100        0.4000           0   0.00000   0.00000
     17007 MEOH     295      MEOH     O1       OD31H    2.488300       15.5990           0   -1.02800   1.30000
     17008 MEOH     295      MEOH     DO1      DRUD    -2.488300        0.4000           0   0.00000   0.00000
     17009 MEOH     295      MEOH     HO1      HDP1A    0.360000        1.0080           0   0.00000   0.00000
     17010 MEOH     295      MEOH     HO2      DUMH     0.000000        1.0080           0   0.00000   0.00000
     17011 MEOH     295      MEOH     H1A      HDA3B    0.080000        1.0080           0   0.00000   0.00000
     17012 MEOH     295      MEOH     H1B      HDA3B    0.080000        1.0080           0   0.00000   0.00000
     17013 MEOH     295      MEOH     H1C      HDA3B    0.080000        1.0080           0   0.00000   0.00000
     17014 MEOH     295      MEOH     LP1A     LPD     -0.230000        0.0000           -1   0.00000   0.00000
     17015 MEOH     295      MEOH     LP1B     LPD     -0.230000        0.0000           -1   0.00000   0.00000
     17016 MEOH     296      MEOH     C1       CD33B    2.314100       11.6110           0   -1.00000   1.30000
     17017 MEOH     296      MEOH     DC1      DRUD    -2.454100        0.4000           0   0.00000   0.00000
     17018 MEOH     296      MEOH     O1       OD31H    2.488300       15.5990           0   -1.02800   1.30000
     17019 MEOH     296      MEOH     DO1      DRUD    -2.488300        0.4000           0   0.00000   0.00000
     17020 MEOH     296      MEOH     HO1      HDP1A    0.360000        1.0080           0   0.00000   0.00000
     17021 MEOH     296      MEOH     HO2      DUMH     0.000000        1.0080           0   0.00000   0.00000
     17022 MEOH     296      MEOH     H1A      HDA3B    0.080000        1.0080           0   0.00000   0.00000
     17023 MEOH     296      MEOH     H1B      HDA3B    0.080000        1.0080           0   0.00000   0.00000
     17024 MEOH     296      MEOH     H1C      HDA3B    0.080000        1.0080           0   0.00000   0.00000
     17025 MEOH     296      MEOH     LP1A     LPD     -0.230000        0.0000           -1   0.00000   0.00000
     17026 MEOH     296      MEOH     LP1B     LPD     -0.230000        0.0000           -1   0.00000   0.00000
     17027 MEOH     297      MEOH     C1       CD33B    2.314100       11.6110           0   -1.00000   1.30000
     17028 MEOH     297      MEOH     DC1      DRUD    -2.454100        0.4000           0   0.00000   0.00000
     17029 MEOH     297      MEOH     O1       OD31H    2.488300       15.5990           0   -1.02800   1.30000
     17030 MEOH     297      MEOH     DO1      DRUD    -2.488300        0.4000           0   0.00000   0.00000
     17031 MEOH     297      MEOH     HO1      HDP1A    0.360000        1.0080           0   0.00000   0.00000
     17032 MEOH     297      MEOH     HO2      DUMH     0.000000        1.0080           0   0.00000   0.00000
     17033 MEOH     297      MEOH     H1A      HDA3B    0.080000        1.0080           0   0.00000   0.00000
     17034 MEOH     297      MEOH     H1B      HDA3B    0.080000        1.0080           0   0.00000   0.00000
     17035 MEOH     297      MEOH     H1C      HDA3B    0.080000        1.0080           0   0.00000   0.00000
     17036 MEOH     297      MEOH     LP1A     LPD     -0.230000        0.0000           -1   0.00000   0.00000
     17037 MEOH     297      MEOH     LP1B     LPD     -0.230000        0.0000           -1   0.00000   0.00000
     17038 MEOH     298      MEOH     C1       CD33B    2.314100       11.6110           0   -1.00000   1.30000
     17039 MEOH     298      MEOH     DC1      DRUD    -2.454100        0.4000           0   0.00000   0.00000
     17040 MEOH     298      MEOH     O1       OD31H    2.488300       15.5990           0   -1.02800   1.30000
     17041 MEOH     298      MEOH     DO1      DRUD    -2.488300        0.4000           0   0.00000   0.00000
     17042 MEOH     298      MEOH     HO1      HDP1A    0.360000        1.0080           0   0.00000   0.00000
     17043 MEOH     298      MEOH     HO2      DUMH     0.000000        1.0080           0   0.00000   0.00000
     17044 MEOH     298      MEOH     H1A      HDA3B    0.080000        1.0080           0   0.00000   0.00000
     17045 MEOH     298      MEOH     H1B      HDA3B    0.080000        1.0080           0   0.00000   0.00000
     17046 MEOH     298      MEOH     H1C      HDA3B    0.080000        1.0080           0   0.00000   0.00000
     17047 MEOH     298      MEOH     LP1A     LPD     -0.230000        0.0000           -1   0.00000   0.00000
     17048 MEOH     298      MEOH     LP1B     LPD     -0.230000        0.0000           -1   0.00000   0.00000
     17049 MEOH     299      MEOH     C1       CD33B    2.314100       11.6110           0   -1.00000   1.30000
     17050 MEOH     299      MEOH     DC1      DRUD    -2.454100        0.4000           0   0.00000   0.00000
     17051 MEOH     299      MEOH     O1       OD31H    2.488300       15.5990           0   -1.02800   1.30000
     17052 MEOH     299      MEOH     DO1      DRUD    -2.488300        0.4000           0   0.00000   0.00000
     17053 MEOH     299      MEOH     HO1      HDP1A    0.360000        1.0080           0   0.00000   0.00000
     17054 MEOH     299      MEOH     HO2      DUMH     0.000000        1.0080           0   0.00000   0.00000
     17055 MEOH     299      MEOH     H1A      HDA3B    0.080000        1.0080           0   0.00000   0.00000
     17056 MEOH     299      MEOH     H1B      HDA3B    0.080000        1.0080           0   0.00000   0.00000
     17057 MEOH     299      MEOH     H1C      HDA3B    0.080000        1.0080           0   0.00000   0.00000
     17058 MEOH     299      MEOH     LP1A     LPD     -0.230000        0.0000           -1   0.00000   0.00000
     17059 MEOH     299      MEOH     LP1B     LPD     -0.230000        0.0000           -1   0.00000   0.00000
     17060 MEOH     300      MEOH     C1       CD33B    2.314100       11.6110           0   -1.00000   1.30000
     17061 MEOH     300      MEOH     DC1      DRUD    -2.454100        0.4000           0   0.00000   0.00000
     17062 MEOH     300      MEOH     O1       OD31H    2.488300       15.5990           0   -1.02800   1.30000
     17063 MEOH     300      MEOH     DO1      DRUD    -2.488300        0.4000           0   0.00000   0.00000
     17064 MEOH     300      MEOH     HO1      HDP1A    0.360000        1.0080           0   0.00000   0.00000
     17065 MEOH     300      MEOH     HO2      DUMH     0.000000        1.0080           0   0.00000   0.00000
     17066 MEOH     300      MEOH     H1A      HDA3B    0.080000        1.0080           0   0.00000   0.00000
     17067 MEOH     300      MEOH     H1B      HDA3B    0.080000        1.0080           0   0.00000   0.00000
     17068 MEOH     300      MEOH     H1C      HDA3B    0.080000        1.0080           0   0.00000   0.00000
     17069 MEOH     300      MEOH     LP1A     LPD     -0.230000        0.0000           -1   0.00000   0.00000
     17070 MEOH     300      MEOH     LP1B     LPD     -0.230000        0.0000           -1   0.00000   0.00000
     17071 MEOH     301      MEOH     C1       CD33B    2.314100       11.6110           0   -1.00000   1.30000
     17072 MEOH     301      MEOH     DC1      DRUD    -2.454100        0.4000           0   0.00000   0.00000
     17073 MEOH     301      MEOH     O1       OD31H    2.488300       15.5990           0   -1.02800   1.30000
     17074 MEOH     301      MEOH     DO1      DRUD    -2.488300        0.4000           0   0.00000   0.00000
     17075 MEOH     301      MEOH     HO1      HDP1A    0.360000        1.0080           0   0.00000   0.00000
     17076 MEOH     301      MEOH     HO2      DUMH     0.000000        1.0080           0   0.00000   0.00000
     17077 MEOH     301      MEOH     H1A      HDA3B    0.080000        1.0080           0   0.00000   0.00000
     17078 MEOH     301      MEOH     H1B      HDA3B    0.080000        1.0080           0   0.00000   0.00000
     17079 MEOH     301      MEOH     H1C      HDA3B    0.080000        1.0080           0   0.00000   0.00000
     17080 MEOH     301      MEOH     LP1A     LPD     -0.230000        0.0000           -1   0.00000   0.00000
     17081 MEOH     301      MEOH     LP1B     LPD     -0.230000        0.0000           -1   0.00000   0.00000
     17082 MEOH     302      MEOH     C1       CD33B    2.314100       11.6110           0   -1.00000   1.30000
     17083 MEOH     302      MEOH     DC1      DRUD    -2.454100        0.4000           0   0.00000   0.00000
     17084 MEOH     302      MEOH     O1       OD31H    2.488300       15.5990           0   -1.02800   1.30000
     17085 MEOH     302      MEOH     DO1      DRUD    -2.488300        0.4000           0   0.00000   0.00000
     17086 MEOH     302      MEOH     HO1      HDP1A    0.360000        1.0080           0   0.00000   0.00000
     17087 MEOH     302      MEOH     HO2      DUMH     0.000000        1.0080           0   0.00000   0.00000
     17088 MEOH     302      MEOH     H1A      HDA3B    0.080000        1.0080           0   0.00000   0.00000
     17089 MEOH     302      MEOH     H1B      HDA3B    0.080000        1.0080           0   0.00000   0.00000
     17090 MEOH     302      MEOH     H1C      HDA3B    0.080000        1.0080           0   0.00000   0.00000
     17091 MEOH     302      MEOH     LP1A     LPD     -0.230000        0.0000           -1   0.00000   0.00000
     17092 MEOH     302      MEOH     LP1B     LPD     -0.230000        0.0000           -1   0.00000   0.00000
     17093 MEOH     303      MEOH     C1       CD33B    2.314100       11.6110           0   -1.00000   1.30000
     17094 MEOH     303      MEOH     DC1      DRUD    -2.454100        0.4000           0   0.00000   0.00000
     17095 MEOH     303      MEOH     O1       OD31H    2.488300       15.5990           0   -1.02800   1.30000
     17096 MEOH     303      MEOH     DO1      DRUD    -2.488300        0.4000           0   0.00000   0.00000
     17097 MEOH     303      MEOH     HO1      HDP1A    0.360000        1.0080           0   0.00000   0.00000
     17098 MEOH     303      MEOH     HO2      DUMH     0.000000        1.0080           0   0.00000   0.00000
     17099 MEOH     303      MEOH     H1A      HDA3B    0.080000        1.0080           0   0.00000   0.00000
     17100 MEOH     303      MEOH     H1B      HDA3B    0.080000        1.0080           0   0.00000   0.00000
     17101 MEOH     303      MEOH     H1C      HDA3B    0.080000        1.0080           0   0.00000   0.00000
     17102 MEOH     303      MEOH     LP1A     LPD     -0.230000        0.0000           -1   0.00000   0.00000
     17103 MEOH     303      MEOH     LP1B     LPD     -0.230000        0.0000           -1   0.00000   0.00000
     17104 MEOH     304      MEOH     C1       CD33B    2.314100       11.6110           0   -1.00000   1.30000
     17105 MEOH     304      MEOH     DC1      DRUD    -2.454100        0.4000           0   0.00000   0.00000
     17106 MEOH     304      MEOH     O1       OD31H    2.488300       15.5990           0   -1.02800   1.30000
     17107 MEOH     304      MEOH     DO1      DRUD    -2.488300        0.4000           0   0.00000   0.00000
     17108 MEOH     304      MEOH     HO1      HDP1A    0.360000        1.0080           0   0.00000   0.00000
     17109 MEOH     304      MEOH     HO2      DUMH     0.000000        1.0080           0   0.00000   0.00000
     17110 MEOH     304      MEOH     H1A      HDA3B    0.080000        1.0080           0   0.00000   0.00000
     17111 MEOH     304      MEOH     H1B      HDA3B    0.080000        1.0080           0   0.00000   0.00000
     17112 MEOH     304      MEOH     H1C      HDA3B    0.080000        1.0080           0   0.00000   0.00000
     17113 MEOH     304      MEOH     LP1A     LPD     -0.230000        0.0000           -1   0.00000   0.00000
     17114 MEOH     304      MEOH     LP1B     LPD     -0.230000        0.0000           -1   0.00000   0.00000
     17115 MEOH     305      MEOH     C1       CD33B    2.314100       11.6110           0   -1.00000   1.30000
     17116 MEOH     305      MEOH     DC1      DRUD    -2.454100        0.4000           0   0.00000   0.00000
     17117 MEOH     305      MEOH     O1       OD31H    2.488300       15.5990           0   -1.02800   1.30000
     17118 MEOH     305      MEOH     DO1      DRUD    -2.488300        0.4000           0   0.00000   0.00000
     17119 MEOH     305      MEOH     HO1      HDP1A    0.360000        1.0080           0   0.00000   0.00000
     17120 MEOH     305      MEOH     HO2      DUMH     0.000000        1.0080           0   0.00000   0.00000
     17121 MEOH     305      MEOH     H1A      HDA3B    0.080000        1.0080           0   0.00000   0.00000
     17122 MEOH     305      MEOH     H1B      HDA3B    0.080000        1.0080           0   0.00000   0.00000
     17123 MEOH     305      MEOH     H1C      HDA3B    0.080000        1.0080           0   0.00000   0.00000
     17124 MEOH     305      MEOH     LP1A     LPD     -0.230000        0.0000           -1   0.00000   0.00000
     17125 MEOH     305      MEOH     LP1B     LPD     -0.230000        0.0000           -1   0.00000   0.00000
     17126 MEOH     306      MEOH     C1       CD33B    2.314100       11.6110           0   -1.00000   1.30000
     17127 MEOH     306      MEOH     DC1      DRUD    -2.454100        0.4000           0   0.00000   0.00000
     17128 MEOH     306      MEOH     O1       OD31H    2.488300       15.5990           0   -1.02800   1.30000
     17129 MEOH     306      MEOH     DO1      DRUD    -2.488300        0.4000           0   0.00000   0.00000
     17130 MEOH     306      MEOH     HO1      HDP1A    0.360000        1.0080           0   0.00000   0.00000
     17131 MEOH     306      MEOH     HO2      DUMH     0.000000        1.0080           0   0.00000   0.00000
     17132 MEOH     306      MEOH     H1A      HDA3B    0.080000        1.0080           0   0.00000   0.00000
     17133 MEOH     306      MEOH     H1B      HDA3B    0.080000        1.0080           0   0.00000   0.00000
     17134 MEOH     306      MEOH     H1C      HDA3B    0.080000        1.0080           0   0.00000   0.00000
     17135 MEOH     306      MEOH     LP1A     LPD     -0.230000        0.0000           -1   0.00000   0.00000
     17136 MEOH     306      MEOH     LP1B     LPD     -0.230000        0.0000           -1   0.00000   0.00000
     17137 MEOH     307      MEOH     C1       CD33B    2.314100       11.6110           0   -1.00000   1.30000
     17138 MEOH     307      MEOH     DC1      DRUD    -2.454100        0.4000           0   0.00000   0.00000
     17139 MEOH     307      MEOH     O1       OD31H    2.488300       15.5990           0   -1.02800   1.30000
     17140 MEOH     307      MEOH     DO1      DRUD    -2.488300        0.4000           0   0.00000   0.00000
     17141 MEOH     307      MEOH     HO1      HDP1A    0.360000        1.0080           0   0.00000   0.00000
     17142 MEOH     307      MEOH     HO2      DUMH     0.000000        1.0080           0   0.00000   0.00000
     17143 MEOH     307      MEOH     H1A      HDA3B    0.080000        1.0080           0   0.00000   0.00000
     17144 MEOH     307      MEOH     H1B      HDA3B    0.080000        1.0080           0   0.00000   0.00000
     17145 MEOH     307      MEOH     H1C      HDA3B    0.080000        1.0080           0   0.00000   0.00000
     17146 MEOH     307      MEOH     LP1A     LPD     -0.230000        0.0000           -1   0.00000   0.00000
     17147 MEOH     307      MEOH     LP1B     LPD     -0.230000        0.0000           -1   0.00000   0.00000
     17148 MEOH     308      MEOH     C1       CD33B    2.314100       11.6110           0   -1.00000   1.30000
     17149 MEOH     308      MEOH     DC1      DRUD    -2.454100        0.4000           0   0.00000   0.00000
     17150 MEOH     308      MEOH     O1       OD31H    2.488300       15.5990           0   -1.02800   1.30000
     17151 MEOH     308      MEOH     DO1      DRUD    -2.488300        0.4000           0   0.00000   0.00000
     17152 MEOH     308      MEOH     HO1      HDP1A    0.360000        1.0080           0   0.00000   0.00000
     17153 MEOH     308      MEOH     HO2      DUMH     0.000000        1.0080           0   0.00000   0.00000
     17154 MEOH     308      MEOH     H1A      HDA3B    0.080000        1.0080           0   0.00000   0.00000
     17155 MEOH     308      MEOH     H1B      HDA3B    0.080000        1.0080           0   0.00000   0.00000
     17156 MEOH     308      MEOH     H1C      HDA3B    0.080000        1.0080           0   0.00000   0.00000
     17157 MEOH     308      MEOH     LP1A     LPD     -0.230000        0.0000           -1   0.00000   0.00000
     17158 MEOH     308      MEOH     LP1B     LPD     -0.230000        0.0000           -1   0.00000   0.00000
     17159 MEOH     309      MEOH     C1       CD33B    2.314100       11.6110           0   -1.00000   1.30000
     17160 MEOH     309      MEOH     DC1      DRUD    -2.454100        0.4000           0   0.00000   0.00000
     17161 MEOH     309      MEOH     O1       OD31H    2.488300       15.5990           0   -1.02800   1.30000
     17162 MEOH     309      MEOH     DO1      DRUD    -2.488300        0.4000           0   0.00000   0.00000
     17163 MEOH     309      MEOH     HO1      HDP1A    0.360000        1.0080           0   0.00000   0.00000
     17164 MEOH     309      MEOH     HO2      DUMH     0.000000        1.0080           0   0.00000   0.00000
     17165 MEOH     309      MEOH     H1A      HDA3B    0.080000        1.0080           0   0.00000   0.00000
     17166 MEOH     309      MEOH     H1B      HDA3B    0.080000        1.0080           0   0.00000   0.00000
     17167 MEOH     309      MEOH     H1C      HDA3B    0.080000        1.0080           0   0.00000   0.00000
     17168 MEOH     309      MEOH     LP1A     LPD     -0.230000        0.0000           -1   0.00000   0.00000
     17169 MEOH     309      MEOH     LP1B     LPD     -0.230000        0.0000           -1   0.00000   0.00000
     17170 MEOH     310      MEOH     C1       CD33B    2.314100       11.6110           0   -1.00000   1.30000
     17171 MEOH     310      MEOH     DC1      DRUD    -2.454100        0.4000           0   0.00000   0.00000
     17172 MEOH     310      MEOH     O1       OD31H    2.488300       15.5990           0   -1.02800   1.30000
     17173 MEOH     310      MEOH     DO1      DRUD    -2.488300        0.4000           0   0.00000   0.00000
     17174 MEOH     310      MEOH     HO1      HDP1A    0.360000        1.0080           0   0.00000   0.00000
     17175 MEOH     310      MEOH     HO2      DUMH     0.000000        1.0080           0   0.00000   0.00000
     17176 MEOH     310      MEOH     H1A      HDA3B    0.080000        1.0080           0   0.00000   0.00000
     17177 MEOH     310      MEOH     H1B      HDA3B    0.080000        1.0080           0   0.00000   0.00000
     17178 MEOH     310      MEOH     H1C      HDA3B    0.080000        1.0080           0   0.00000   0.00000
     17179 MEOH     310      MEOH     LP1A     LPD     -0.230000        0.0000           -1   0.00000   0.00000
     17180 MEOH     310      MEOH     LP1B     LPD     -0.230000        0.0000           -1   0.00000   0.00000
     17181 MEOH     311      MEOH     C1       CD33B    2.314100       11.6110           0   -1.00000   1.30000
     17182 MEOH     311      MEOH     DC1      DRUD    -2.454100        0.4000           0   0.00000   0.00000
     17183 MEOH     311      MEOH     O1       OD31H    2.488300       15.5990           0   -1.02800   1.30000
     17184 MEOH     311      MEOH     DO1      DRUD    -2.488300        0.4000           0   0.00000   0.00000
     17185 MEOH     311      MEOH     HO1      HDP1A    0.360000        1.0080           0   0.00000   0.00000
     17186 MEOH     311      MEOH     HO2      DUMH     0.000000        1.0080           0   0.00000   0.00000
     17187 MEOH     311      MEOH     H1A      HDA3B    0.080000        1.0080           0   0.00000   0.00000
     17188 MEOH     311      MEOH     H1B      HDA3B    0.080000        1.0080           0   0.00000   0.00000
     17189 MEOH     311      MEOH     H1C      HDA3B    0.080000        1.0080           0   0.00000   0.00000
     17190 MEOH     311      MEOH     LP1A     LPD     -0.230000        0.0000           -1   0.00000   0.00000
     17191 MEOH     311      MEOH     LP1B     LPD     -0.230000        0.0000           -1   0.00000   0.00000
     17192 MEOH     312      MEOH     C1       CD33B    2.314100       11.6110           0   -1.00000   1.30000
     17193 MEOH     312      MEOH     DC1      DRUD    -2.454100        0.4000           0   0.00000   0.00000
     17194 MEOH     312      MEOH     O1       OD31H    2.488300       15.5990           0   -1.02800   1.30000
     17195 MEOH     312      MEOH     DO1      DRUD    -2.488300        0.4000           0   0.00000   0.00000
     17196 MEOH     312      MEOH     HO1      HDP1A    0.360000        1.0080           0   0.00000   0.00000
     17197 MEOH     312      MEOH     HO2      DUMH     0.000000        1.0080           0   0.00000   0.00000
     17198 MEOH     312      MEOH     H1A      HDA3B    0.080000        1.0080           0   0.00000   0.00000
     17199 MEOH     312      MEOH     H1B      HDA3B    0.080000        1.0080           0   0.00000   0.00000
     17200 MEOH     312      MEOH     H1C      HDA3B    0.080000        1.0080           0   0.00000   0.00000
     17201 MEOH     312      MEOH     LP1A     LPD     -0.230000        0.0000           -1   0.00000   0.00000
     17202 MEOH     312      MEOH     LP1B     LPD     -0.230000        0.0000           -1   0.00000   0.00000
     17203 MEOH     313      MEOH     C1       CD33B    2.314100       11.6110           0   -1.00000   1.30000
     17204 MEOH     313      MEOH     DC1      DRUD    -2.454100        0.4000           0   0.00000   0.00000
     17205 MEOH     313      MEOH     O1       OD31H    2.488300       15.5990           0   -1.02800   1.30000
     17206 MEOH     313      MEOH     DO1      DRUD    -2.488300        0.4000           0   0.00000   0.00000
     17207 MEOH     313      MEOH     HO1      HDP1A    0.360000        1.0080           0   0.00000   0.00000
     17208 MEOH     313      MEOH     HO2      DUMH     0.000000        1.0080           0   0.00000   0.00000
     17209 MEOH     313      MEOH     H1A      HDA3B    0.080000        1.0080           0   0.00000   0.00000
     17210 MEOH     313      MEOH     H1B      HDA3B    0.080000        1.0080           0   0.00000   0.00000
     17211 MEOH     313      MEOH     H1C      HDA3B    0.080000        1.0080           0   0.00000   0.00000
     17212 MEOH     313      MEOH     LP1A     LPD     -0.230000        0.0000           -1   0.00000   0.00000
     17213 MEOH     313      MEOH     LP1B     LPD     -0.230000        0.0000           -1   0.00000   0.00000
     17214 MEOH     314      MEOH     C1       CD33B    2.314100       11.6110           0   -1.00000   1.30000
     17215 MEOH     314      MEOH     DC1      DRUD    -2.454100        0.4000           0   0.00000   0.00000
     17216 MEOH     314      MEOH     O1       OD31H    2.488300       15.5990           0   -1.02800   1.30000
     17217 MEOH     314      MEOH     DO1      DRUD    -2.488300        0.4000           0   0.00000   0.00000
     17218 MEOH     314      MEOH     HO1      HDP1A    0.360000        1.0080           0   0.00000   0.00000
     17219 MEOH     314      MEOH     HO2      DUMH     0.000000        1.0080           0   0.00000   0.00000
     17220 MEOH     314      MEOH     H1A      HDA3B    0.080000        1.0080           0   0.00000   0.00000
     17221 MEOH     314      MEOH     H1B      HDA3B    0.080000        1.0080           0   0.00000   0.00000
     17222 MEOH     314      MEOH     H1C      HDA3B    0.080000        1.0080           0   0.00000   0.00000
     17223 MEOH     314      MEOH     LP1A     LPD     -0.230000        0.0000           -1   0.00000   0.00000
     17224 MEOH     314      MEOH     LP1B     LPD     -0.230000        0.0000           -1   0.00000   0.00000
     17225 MEOH     315      MEOH     C1       CD33B    2.314100       11.6110           0   -1.00000   1.30000
     17226 MEOH     315      MEOH     DC1      DRUD    -2.454100        0.4000           0   0.00000   0.00000
     17227 MEOH     315      MEOH     O1       OD31H    2.488300       15.5990           0   -1.02800   1.30000
     17228 MEOH     315      MEOH     DO1      DRUD    -2.488300        0.4000           0   0.00000   0.00000
     17229 MEOH     315      MEOH     HO1      HDP1A    0.360000        1.0080           0   0.00000   0.00000
     17230 MEOH     315      MEOH     HO2      DUMH     0.000000        1.0080           0   0.00000   0.00000
     17231 MEOH     315      MEOH     H1A      HDA3B    0.080000        1.0080           0   0.00000   0.00000
     17232 MEOH     315      MEOH     H1B      HDA3B    0.080000        1.0080           0   0.00000   0.00000
     17233 MEOH     315      MEOH     H1C      HDA3B    0.080000        1.0080           0   0.00000   0.00000
     17234 MEOH     315      MEOH     LP1A     LPD     -0.230000        0.0000           -1   0.00000   0.00000
     17235 MEOH     315      MEOH     LP1B     LPD     -0.230000        0.0000           -1   0.00000   0.00000
     17236 MEOH     316      MEOH     C1       CD33B    2.314100       11.6110           0   -1.00000   1.30000
     17237 MEOH     316      MEOH     DC1      DRUD    -2.454100        0.4000           0   0.00000   0.00000
     17238 MEOH     316      MEOH     O1       OD31H    2.488300       15.5990           0   -1.02800   1.30000
     17239 MEOH     316      MEOH     DO1      DRUD    -2.488300        0.4000           0   0.00000   0.00000
     17240 MEOH     316      MEOH     HO1      HDP1A    0.360000        1.0080           0   0.00000   0.00000
     17241 MEOH     316      MEOH     HO2      DUMH     0.000000        1.0080           0   0.00000   0.00000
     17242 MEOH     316      MEOH     H1A      HDA3B    0.080000        1.0080           0   0.00000   0.00000
     17243 MEOH     316      MEOH     H1B      HDA3B    0.080000        1.0080           0   0.00000   0.00000
     17244 MEOH     316      MEOH     H1C      HDA3B    0.080000        1.0080           0   0.00000   0.00000
     17245 MEOH     316      MEOH     LP1A     LPD     -0.230000        0.0000           -1   0.00000   0.00000
     17246 MEOH     316      MEOH     LP1B     LPD     -0.230000        0.0000           -1   0.00000   0.00000
     17247 MEOH     317      MEOH     C1       CD33B    2.314100       11.6110           0   -1.00000   1.30000
     17248 MEOH     317      MEOH     DC1      DRUD    -2.454100        0.4000           0   0.00000   0.00000
     17249 MEOH     317      MEOH     O1       OD31H    2.488300       15.5990           0   -1.02800   1.30000
     17250 MEOH     317      MEOH     DO1      DRUD    -2.488300        0.4000           0   0.00000   0.00000
     17251 MEOH     317      MEOH     HO1      HDP1A    0.360000        1.0080           0   0.00000   0.00000
     17252 MEOH     317      MEOH     HO2      DUMH     0.000000        1.0080           0   0.00000   0.00000
     17253 MEOH     317      MEOH     H1A      HDA3B    0.080000        1.0080           0   0.00000   0.00000
     17254 MEOH     317      MEOH     H1B      HDA3B    0.080000        1.0080           0   0.00000   0.00000
     17255 MEOH     317      MEOH     H1C      HDA3B    0.080000        1.0080           0   0.00000   0.00000
     17256 MEOH     317      MEOH     LP1A     LPD     -0.230000        0.0000           -1   0.00000   0.00000
     17257 MEOH     317      MEOH     LP1B     LPD     -0.230000        0.0000           -1   0.00000   0.00000
     17258 MEOH     318      MEOH     C1       CD33B    2.314100       11.6110           0   -1.00000   1.30000
     17259 MEOH     318      MEOH     DC1      DRUD    -2.454100        0.4000           0   0.00000   0.00000
     17260 MEOH     318      MEOH     O1       OD31H    2.488300       15.5990           0   -1.02800   1.30000
     17261 MEOH     318      MEOH     DO1      DRUD    -2.488300        0.4000           0   0.00000   0.00000
     17262 MEOH     318      MEOH     HO1      HDP1A    0.360000        1.0080           0   0.00000   0.00000
     17263 MEOH     318      MEOH     HO2      DUMH     0.000000        1.0080           0   0.00000   0.00000
     17264 MEOH     318      MEOH     H1A      HDA3B    0.080000        1.0080           0   0.00000   0.00000
     17265 MEOH     318      MEOH     H1B      HDA3B    0.080000        1.0080           0   0.00000   0.00000
     17266 MEOH     318      MEOH     H1C      HDA3B    0.080000        1.0080           0   0.00000   0.00000
     17267 MEOH     318      MEOH     LP1A     LPD     -0.230000        0.0000           -1   0.00000   0.00000
     17268 MEOH     318      MEOH     LP1B     LPD     -0.230000        0.0000           -1   0.00000   0.00000
     17269 MEOH     319      MEOH     C1       CD33B    2.314100       11.6110           0   -1.00000   1.30000
     17270 MEOH     319      MEOH     DC1      DRUD    -2.454100        0.4000           0   0.00000   0.00000
     17271 MEOH     319      MEOH     O1       OD31H    2.488300       15.5990           0   -1.02800   1.30000
     17272 MEOH     319      MEOH     DO1      DRUD    -2.488300        0.4000           0   0.00000   0.00000
     17273 MEOH     319      MEOH     HO1      HDP1A    0.360000        1.0080           0   0.00000   0.00000
     17274 MEOH     319      MEOH     HO2      DUMH     0.000000        1.0080           0   0.00000   0.00000
     17275 MEOH     319      MEOH     H1A      HDA3B    0.080000        1.0080           0   0.00000   0.00000
     17276 MEOH     319      MEOH     H1B      HDA3B    0.080000        1.0080           0   0.00000   0.00000
     17277 MEOH     319      MEOH     H1C      HDA3B    0.080000        1.0080           0   0.00000   0.00000
     17278 MEOH     319      MEOH     LP1A     LPD     -0.230000        0.0000           -1   0.00000   0.00000
     17279 MEOH     319      MEOH     LP1B     LPD     -0.230000        0.0000           -1   0.00000   0.00000
     17280 MEOH     320      MEOH     C1       CD33B    2.314100       11.6110           0   -1.00000   1.30000
     17281 MEOH     320      MEOH     DC1      DRUD    -2.454100        0.4000           0   0.00000   0.00000
     17282 MEOH     320      MEOH     O1       OD31H    2.488300       15.5990           0   -1.02800   1.30000
     17283 MEOH     320      MEOH     DO1      DRUD    -2.488300        0.4000           0   0.00000   0.00000
     17284 MEOH     320      MEOH     HO1      HDP1A    0.360000        1.0080           0   0.00000   0.00000
     17285 MEOH     320      MEOH     HO2      DUMH     0.000000        1.0080           0   0.00000   0.00000
     17286 MEOH     320      MEOH     H1A      HDA3B    0.080000        1.0080           0   0.00000   0.00000
     17287 MEOH     320      MEOH     H1B      HDA3B    0.080000        1.0080           0   0.00000   0.00000
     17288 MEOH     320      MEOH     H1C      HDA3B    0.080000        1.0080           0   0.00000   0.00000
     17289 MEOH     320      MEOH     LP1A     LPD     -0.230000        0.0000           -1   0.00000   0.00000
     17290 MEOH     320      MEOH     LP1B     LPD     -0.230000        0.0000           -1   0.00000   0.00000
     17291 MEOH     321      MEOH     C1       CD33B    2.314100       11.6110           0   -1.00000   1.30000
     17292 MEOH     321      MEOH     DC1      DRUD    -2.454100        0.4000           0   0.00000   0.00000
     17293 MEOH     321      MEOH     O1       OD31H    2.488300       15.5990           0   -1.02800   1.30000
     17294 MEOH     321      MEOH     DO1      DRUD    -2.488300        0.4000           0   0.00000   0.00000
     17295 MEOH     321      MEOH     HO1      HDP1A    0.360000        1.0080           0   0.00000   0.00000
     17296 MEOH     321      MEOH     HO2      DUMH     0.000000        1.0080           0   0.00000   0.00000
     17297 MEOH     321      MEOH     H1A      HDA3B    0.080000        1.0080           0   0.00000   0.00000
     17298 MEOH     321      MEOH     H1B      HDA3B    0.080000        1.0080           0   0.00000   0.00000
     17299 MEOH     321      MEOH     H1C      HDA3B    0.080000        1.0080           0   0.00000   0.00000
     17300 MEOH     321      MEOH     LP1A     LPD     -0.230000        0.0000           -1   0.00000   0.00000
     17301 MEOH     321      MEOH     LP1B     LPD     -0.230000        0.0000           -1   0.00000   0.00000
     17302 MEOH     322      MEOH     C1       CD33B    2.314100       11.6110           0   -1.00000   1.30000
     17303 MEOH     322      MEOH     DC1      DRUD    -2.454100        0.4000           0   0.00000   0.00000
     17304 MEOH     322      MEOH     O1       OD31H    2.488300       15.5990           0   -1.02800   1.30000
     17305 MEOH     322      MEOH     DO1      DRUD    -2.488300        0.4000           0   0.00000   0.00000
     17306 MEOH     322      MEOH     HO1      HDP1A    0.360000        1.0080           0   0.00000   0.00000
     17307 MEOH     322      MEOH     HO2      DUMH     0.000000        1.0080           0   0.00000   0.00000
     17308 MEOH     322      MEOH     H1A      HDA3B    0.080000        1.0080           0   0.00000   0.00000
     17309 MEOH     322      MEOH     H1B      HDA3B    0.080000        1.0080           0   0.00000   0.00000
     17310 MEOH     322      MEOH     H1C      HDA3B    0.080000        1.0080           0   0.00000   0.00000
     17311 MEOH     322      MEOH     LP1A     LPD     -0.230000        0.0000           -1   0.00000   0.00000
     17312 MEOH     322      MEOH     LP1B     LPD     -0.230000        0.0000           -1   0.00000   0.00000
     17313 MEOH     323      MEOH     C1       CD33B    2.314100       11.6110           0   -1.00000   1.30000
     17314 MEOH     323      MEOH     DC1      DRUD    -2.454100        0.4000           0   0.00000   0.00000
     17315 MEOH     323      MEOH     O1       OD31H    2.488300       15.5990           0   -1.02800   1.30000
     17316 MEOH     323      MEOH     DO1      DRUD    -2.488300        0.4000           0   0.00000   0.00000
     17317 MEOH     323      MEOH     HO1      HDP1A    0.360000        1.0080           0   0.00000   0.00000
     17318 MEOH     323      MEOH     HO2      DUMH     0.000000        1.0080           0   0.00000   0.00000
     17319 MEOH     323      MEOH     H1A      HDA3B    0.080000        1.0080           0   0.00000   0.00000
     17320 MEOH     323      MEOH     H1B      HDA3B    0.080000        1.0080           0   0.00000   0.00000
     17321 MEOH     323      MEOH     H1C      HDA3B    0.080000        1.0080           0   0.00000   0.00000
     17322 MEOH     323      MEOH     LP1A     LPD     -0.230000        0.0000           -1   0.00000   0.00000
     17323 MEOH     323      MEOH     LP1B     LPD     -0.230000        0.0000           -1   0.00000   0.00000
     17324 MEOH     324      MEOH     C1       CD33B    2.314100       11.6110           0   -1.00000   1.30000
     17325 MEOH     324      MEOH     DC1      DRUD    -2.454100        0.4000           0   0.00000   0.00000
     17326 MEOH     324      MEOH     O1       OD31H    2.488300       15.5990           0   -1.02800   1.30000
     17327 MEOH     324      MEOH     DO1      DRUD    -2.488300        0.4000           0   0.00000   0.00000
     17328 MEOH     324      MEOH     HO1      HDP1A    0.360000        1.0080           0   0.00000   0.00000
     17329 MEOH     324      MEOH     HO2      DUMH     0.000000        1.0080           0   0.00000   0.00000
     17330 MEOH     324      MEOH     H1A      HDA3B    0.080000        1.0080           0   0.00000   0.00000
     17331 MEOH     324      MEOH     H1B      HDA3B    0.080000        1.0080           0   0.00000   0.00000
     17332 MEOH     324      MEOH     H1C      HDA3B    0.080000        1.0080           0   0.00000   0.00000
     17333 MEOH     324      MEOH     LP1A     LPD     -0.230000        0.0000           -1   0.00000   0.00000
     17334 MEOH     324      MEOH     LP1B     LPD     -0.230000        0.0000           -1   0.00000   0.00000
     17335 MEOH     325      MEOH     C1       CD33B    2.314100       11.6110           0   -1.00000   1.30000
     17336 MEOH     325      MEOH     DC1      DRUD    -2.454100        0.4000           0   0.00000   0.00000
     17337 MEOH     325      MEOH     O1       OD31H    2.488300       15.5990           0   -1.02800   1.30000
     17338 MEOH     325      MEOH     DO1      DRUD    -2.488300        0.4000           0   0.00000   0.00000
     17339 MEOH     325      MEOH     HO1      HDP1A    0.360000        1.0080           0   0.00000   0.00000
     17340 MEOH     325      MEOH     HO2      DUMH     0.000000        1.0080           0   0.00000   0.00000
     17341 MEOH     325      MEOH     H1A      HDA3B    0.080000        1.0080           0   0.00000   0.00000
     17342 MEOH     325      MEOH     H1B      HDA3B    0.080000        1.0080           0   0.00000   0.00000
     17343 MEOH     325      MEOH     H1C      HDA3B    0.080000        1.0080           0   0.00000   0.00000
     17344 MEOH     325      MEOH     LP1A     LPD     -0.230000        0.0000           -1   0.00000   0.00000
     17345 MEOH     325      MEOH     LP1B     LPD     -0.230000        0.0000           -1   0.00000   0.00000
     17346 MEOH     326      MEOH     C1       CD33B    2.314100       11.6110           0   -1.00000   1.30000
     17347 MEOH     326      MEOH     DC1      DRUD    -2.454100        0.4000           0   0.00000   0.00000
     17348 MEOH     326      MEOH     O1       OD31H    2.488300       15.5990           0   -1.02800   1.30000
     17349 MEOH     326      MEOH     DO1      DRUD    -2.488300        0.4000           0   0.00000   0.00000
     17350 MEOH     326      MEOH     HO1      HDP1A    0.360000        1.0080           0   0.00000   0.00000
     17351 MEOH     326      MEOH     HO2      DUMH     0.000000        1.0080           0   0.00000   0.00000
     17352 MEOH     326      MEOH     H1A      HDA3B    0.080000        1.0080           0   0.00000   0.00000
     17353 MEOH     326      MEOH     H1B      HDA3B    0.080000        1.0080           0   0.00000   0.00000
     17354 MEOH     326      MEOH     H1C      HDA3B    0.080000        1.0080           0   0.00000   0.00000
     17355 MEOH     326      MEOH     LP1A     LPD     -0.230000        0.0000           -1   0.00000   0.00000
     17356 MEOH     326      MEOH     LP1B     LPD     -0.230000        0.0000           -1   0.00000   0.00000
     17357 MEOH     327      MEOH     C1       CD33B    2.314100       11.6110           0   -1.00000   1.30000
     17358 MEOH     327      MEOH     DC1      DRUD    -2.454100        0.4000           0   0.00000   0.00000
     17359 MEOH     327      MEOH     O1       OD31H    2.488300       15.5990           0   -1.02800   1.30000
     17360 MEOH     327      MEOH     DO1      DRUD    -2.488300        0.4000           0   0.00000   0.00000
     17361 MEOH     327      MEOH     HO1      HDP1A    0.360000        1.0080           0   0.00000   0.00000
     17362 MEOH     327      MEOH     HO2      DUMH     0.000000        1.0080           0   0.00000   0.00000
     17363 MEOH     327      MEOH     H1A      HDA3B    0.080000        1.0080           0   0.00000   0.00000
     17364 MEOH     327      MEOH     H1B      HDA3B    0.080000        1.0080           0   0.00000   0.00000
     17365 MEOH     327      MEOH     H1C      HDA3B    0.080000        1.0080           0   0.00000   0.00000
     17366 MEOH     327      MEOH     LP1A     LPD     -0.230000        0.0000           -1   0.00000   0.00000
     17367 MEOH     327      MEOH     LP1B     LPD     -0.230000        0.0000           -1   0.00000   0.00000
     17368 MEOH     328      MEOH     C1       CD33B    2.314100       11.6110           0   -1.00000   1.30000
     17369 MEOH     328      MEOH     DC1      DRUD    -2.454100        0.4000           0   0.00000   0.00000
     17370 MEOH     328      MEOH     O1       OD31H    2.488300       15.5990           0   -1.02800   1.30000
     17371 MEOH     328      MEOH     DO1      DRUD    -2.488300        0.4000           0   0.00000   0.00000
     17372 MEOH     328      MEOH     HO1      HDP1A    0.360000        1.0080           0   0.00000   0.00000
     17373 MEOH     328      MEOH     HO2      DUMH     0.000000        1.0080           0   0.00000   0.00000
     17374 MEOH     328      MEOH     H1A      HDA3B    0.080000        1.0080           0   0.00000   0.00000
     17375 MEOH     328      MEOH     H1B      HDA3B    0.080000        1.0080           0   0.00000   0.00000
     17376 MEOH     328      MEOH     H1C      HDA3B    0.080000        1.0080           0   0.00000   0.00000
     17377 MEOH     328      MEOH     LP1A     LPD     -0.230000        0.0000           -1   0.00000   0.00000
     17378 MEOH     328      MEOH     LP1B     LPD     -0.230000        0.0000           -1   0.00000   0.00000
     17379 MEOH     329      MEOH     C1       CD33B    2.314100       11.6110           0   -1.00000   1.30000
     17380 MEOH     329      MEOH     DC1      DRUD    -2.454100        0.4000           0   0.00000   0.00000
     17381 MEOH     329      MEOH     O1       OD31H    2.488300       15.5990           0   -1.02800   1.30000
     17382 MEOH     329      MEOH     DO1      DRUD    -2.488300        0.4000           0   0.00000   0.00000
     17383 MEOH     329      MEOH     HO1      HDP1A    0.360000        1.0080           0   0.00000   0.00000
     17384 MEOH     329      MEOH     HO2      DUMH     0.000000        1.0080           0   0.00000   0.00000
     17385 MEOH     329      MEOH     H1A      HDA3B    0.080000        1.0080           0   0.00000   0.00000
     17386 MEOH     329      MEOH     H1B      HDA3B    0.080000        1.0080           0   0.00000   0.00000
     17387 MEOH     329      MEOH     H1C      HDA3B    0.080000        1.0080           0   0.00000   0.00000
     17388 MEOH     329      MEOH     LP1A     LPD     -0.230000        0.0000           -1   0.00000   0.00000
     17389 MEOH     329      MEOH     LP1B     LPD     -0.230000        0.0000           -1   0.00000   0.00000
     17390 MEOH     330      MEOH     C1       CD33B    2.314100       11.6110           0   -1.00000   1.30000
     17391 MEOH     330      MEOH     DC1      DRUD    -2.454100        0.4000           0   0.00000   0.00000
     17392 MEOH     330      MEOH     O1       OD31H    2.488300       15.5990           0   -1.02800   1.30000
     17393 MEOH     330      MEOH     DO1      DRUD    -2.488300        0.4000           0   0.00000   0.00000
     17394 MEOH     330      MEOH     HO1      HDP1A    0.360000        1.0080           0   0.00000   0.00000
     17395 MEOH     330      MEOH     HO2      DUMH     0.000000        1.0080           0   0.00000   0.00000
     17396 MEOH     330      MEOH     H1A      HDA3B    0.080000        1.0080           0   0.00000   0.00000
     17397 MEOH     330      MEOH     H1B      HDA3B    0.080000        1.0080           0   0.00000   0.00000
     17398 MEOH     330      MEOH     H1C      HDA3B    0.080000        1.0080           0   0.00000   0.00000
     17399 MEOH     330      MEOH     LP1A     LPD     -0.230000        0.0000           -1   0.00000   0.00000
     17400 MEOH     330      MEOH     LP1B     LPD     -0.230000        0.0000           -1   0.00000   0.00000
     17401 MEOH     331      MEOH     C1       CD33B    2.314100       11.6110           0   -1.00000   1.30000
     17402 MEOH     331      MEOH     DC1      DRUD    -2.454100        0.4000           0   0.00000   0.00000
     17403 MEOH     331      MEOH     O1       OD31H    2.488300       15.5990           0   -1.02800   1.30000
     17404 MEOH     331      MEOH     DO1      DRUD    -2.488300        0.4000           0   0.00000   0.00000
     17405 MEOH     331      MEOH     HO1      HDP1A    0.360000        1.0080           0   0.00000   0.00000
     17406 MEOH     331      MEOH     HO2      DUMH     0.000000        1.0080           0   0.00000   0.00000
     17407 MEOH     331      MEOH     H1A      HDA3B    0.080000        1.0080           0   0.00000   0.00000
     17408 MEOH     331      MEOH     H1B      HDA3B    0.080000        1.0080           0   0.00000   0.00000
     17409 MEOH     331      MEOH     H1C      HDA3B    0.080000        1.0080           0   0.00000   0.00000
     17410 MEOH     331      MEOH     LP1A     LPD     -0.230000        0.0000           -1   0.00000   0.00000
     17411 MEOH     331      MEOH     LP1B     LPD     -0.230000        0.0000           -1   0.00000   0.00000
     17412 MEOH     332      MEOH     C1       CD33B    2.314100       11.6110           0   -1.00000   1.30000
     17413 MEOH     332      MEOH     DC1      DRUD    -2.454100        0.4000           0   0.00000   0.00000
     17414 MEOH     332      MEOH     O1       OD31H    2.488300       15.5990           0   -1.02800   1.30000
     17415 MEOH     332      MEOH     DO1      DRUD    -2.488300        0.4000           0   0.00000   0.00000
     17416 MEOH     332      MEOH     HO1      HDP1A    0.360000        1.0080           0   0.00000   0.00000
     17417 MEOH     332      MEOH     HO2      DUMH     0.000000        1.0080           0   0.00000   0.00000
     17418 MEOH     332      MEOH     H1A      HDA3B    0.080000        1.0080           0   0.00000   0.00000
     17419 MEOH     332      MEOH     H1B      HDA3B    0.080000        1.0080           0   0.00000   0.00000
     17420 MEOH     332      MEOH     H1C      HDA3B    0.080000        1.0080           0   0.00000   0.00000
     17421 MEOH     332      MEOH     LP1A     LPD     -0.230000        0.0000           -1   0.00000   0.00000
     17422 MEOH     332      MEOH     LP1B     LPD     -0.230000        0.0000           -1   0.00000   0.00000
     17423 MEOH     333      MEOH     C1       CD33B    2.314100       11.6110           0   -1.00000   1.30000
     17424 MEOH     333      MEOH     DC1      DRUD    -2.454100        0.4000           0   0.00000   0.00000
     17425 MEOH     333      MEOH     O1       OD31H    2.488300       15.5990           0   -1.02800   1.30000
     17426 MEOH     333      MEOH     DO1      DRUD    -2.488300        0.4000           0   0.00000   0.00000
     17427 MEOH     333      MEOH     HO1      HDP1A    0.360000        1.0080           0   0.00000   0.00000
     17428 MEOH     333      MEOH     HO2      DUMH     0.000000        1.0080           0   0.00000   0.00000
     17429 MEOH     333      MEOH     H1A      HDA3B    0.080000        1.0080           0   0.00000   0.00000
     17430 MEOH     333      MEOH     H1B      HDA3B    0.080000        1.0080           0   0.00000   0.00000
     17431 MEOH     333      MEOH     H1C      HDA3B    0.080000        1.0080           0   0.00000   0.00000
     17432 MEOH     333      MEOH     LP1A     LPD     -0.230000        0.0000           -1   0.00000   0.00000
     17433 MEOH     333      MEOH     LP1B     LPD     -0.230000        0.0000           -1   0.00000   0.00000
     17434 MEOH     334      MEOH     C1       CD33B    2.314100       11.6110           0   -1.00000   1.30000
     17435 MEOH     334      MEOH     DC1      DRUD    -2.454100        0.4000           0   0.00000   0.00000
     17436 MEOH     334      MEOH     O1       OD31H    2.488300       15.5990           0   -1.02800   1.30000
     17437 MEOH     334      MEOH     DO1      DRUD    -2.488300        0.4000           0   0.00000   0.00000
     17438 MEOH     334      MEOH     HO1      HDP1A    0.360000        1.0080           0   0.00000   0.00000
     17439 MEOH     334      MEOH     HO2      DUMH     0.000000        1.0080           0   0.00000   0.00000
     17440 MEOH     334      MEOH     H1A      HDA3B    0.080000        1.0080           0   0.00000   0.00000
     17441 MEOH     334      MEOH     H1B      HDA3B    0.080000        1.0080           0   0.00000   0.00000
     17442 MEOH     334      MEOH     H1C      HDA3B    0.080000        1.0080           0   0.00000   0.00000
     17443 MEOH     334      MEOH     LP1A     LPD     -0.230000        0.0000           -1   0.00000   0.00000
     17444 MEOH     334      MEOH     LP1B     LPD     -0.230000        0.0000           -1   0.00000   0.00000
     17445 MEOH     335      MEOH     C1       CD33B    2.314100       11.6110           0   -1.00000   1.30000
     17446 MEOH     335      MEOH     DC1      DRUD    -2.454100        0.4000           0   0.00000   0.00000
     17447 MEOH     335      MEOH     O1       OD31H    2.488300       15.5990           0   -1.02800   1.30000
     17448 MEOH     335      MEOH     DO1      DRUD    -2.488300        0.4000           0   0.00000   0.00000
     17449 MEOH     335      MEOH     HO1      HDP1A    0.360000        1.0080           0   0.00000   0.00000
     17450 MEOH     335      MEOH     HO2      DUMH     0.000000        1.0080           0   0.00000   0.00000
     17451 MEOH     335      MEOH     H1A      HDA3B    0.080000        1.0080           0   0.00000   0.00000
     17452 MEOH     335      MEOH     H1B      HDA3B    0.080000        1.0080           0   0.00000   0.00000
     17453 MEOH     335      MEOH     H1C      HDA3B    0.080000        1.0080           0   0.00000   0.00000
     17454 MEOH     335      MEOH     LP1A     LPD     -0.230000        0.0000           -1   0.00000   0.00000
     17455 MEOH     335      MEOH     LP1B     LPD     -0.230000        0.0000           -1   0.00000   0.00000
     17456 MEOH     336      MEOH     C1       CD33B    2.314100       11.6110           0   -1.00000   1.30000
     17457 MEOH     336      MEOH     DC1      DRUD    -2.454100        0.4000           0   0.00000   0.00000
     17458 MEOH     336      MEOH     O1       OD31H    2.488300       15.5990           0   -1.02800   1.30000
     17459 MEOH     336      MEOH     DO1      DRUD    -2.488300        0.4000           0   0.00000   0.00000
     17460 MEOH     336      MEOH     HO1      HDP1A    0.360000        1.0080           0   0.00000   0.00000
     17461 MEOH     336      MEOH     HO2      DUMH     0.000000        1.0080           0   0.00000   0.00000
     17462 MEOH     336      MEOH     H1A      HDA3B    0.080000        1.0080           0   0.00000   0.00000
     17463 MEOH     336      MEOH     H1B      HDA3B    0.080000        1.0080           0   0.00000   0.00000
     17464 MEOH     336      MEOH     H1C      HDA3B    0.080000        1.0080           0   0.00000   0.00000
     17465 MEOH     336      MEOH     LP1A     LPD     -0.230000        0.0000           -1   0.00000   0.00000
     17466 MEOH     336      MEOH     LP1B     LPD     -0.230000        0.0000           -1   0.00000   0.00000
     17467 MEOH     337      MEOH     C1       CD33B    2.314100       11.6110           0   -1.00000   1.30000
     17468 MEOH     337      MEOH     DC1      DRUD    -2.454100        0.4000           0   0.00000   0.00000
     17469 MEOH     337      MEOH     O1       OD31H    2.488300       15.5990           0   -1.02800   1.30000
     17470 MEOH     337      MEOH     DO1      DRUD    -2.488300        0.4000           0   0.00000   0.00000
     17471 MEOH     337      MEOH     HO1      HDP1A    0.360000        1.0080           0   0.00000   0.00000
     17472 MEOH     337      MEOH     HO2      DUMH     0.000000        1.0080           0   0.00000   0.00000
     17473 MEOH     337      MEOH     H1A      HDA3B    0.080000        1.0080           0   0.00000   0.00000
     17474 MEOH     337      MEOH     H1B      HDA3B    0.080000        1.0080           0   0.00000   0.00000
     17475 MEOH     337      MEOH     H1C      HDA3B    0.080000        1.0080           0   0.00000   0.00000
     17476 MEOH     337      MEOH     LP1A     LPD     -0.230000        0.0000           -1   0.00000   0.00000
     17477 MEOH     337      MEOH     LP1B     LPD     -0.230000        0.0000           -1   0.00000   0.00000
     17478 MEOH     338      MEOH     C1       CD33B    2.314100       11.6110           0   -1.00000   1.30000
     17479 MEOH     338      MEOH     DC1      DRUD    -2.454100        0.4000           0   0.00000   0.00000
     17480 MEOH     338      MEOH     O1       OD31H    2.488300       15.5990           0   -1.02800   1.30000
     17481 MEOH     338      MEOH     DO1      DRUD    -2.488300        0.4000           0   0.00000   0.00000
     17482 MEOH     338      MEOH     HO1      HDP1A    0.360000        1.0080           0   0.00000   0.00000
     17483 MEOH     338      MEOH     HO2      DUMH     0.000000        1.0080           0   0.00000   0.00000
     17484 MEOH     338      MEOH     H1A      HDA3B    0.080000        1.0080           0   0.00000   0.00000
     17485 MEOH     338      MEOH     H1B      HDA3B    0.080000        1.0080           0   0.00000   0.00000
     17486 MEOH     338      MEOH     H1C      HDA3B    0.080000        1.0080           0   0.00000   0.00000
     17487 MEOH     338      MEOH     LP1A     LPD     -0.230000        0.0000           -1   0.00000   0.00000
     17488 MEOH     338      MEOH     LP1B     LPD     -0.230000        0.0000           -1   0.00000   0.00000
     17489 MEOH     339      MEOH     C1       CD33B    2.314100       11.6110           0   -1.00000   1.30000
     17490 MEOH     339      MEOH     DC1      DRUD    -2.454100        0.4000           0   0.00000   0.00000
     17491 MEOH     339      MEOH     O1       OD31H    2.488300       15.5990           0   -1.02800   1.30000
     17492 MEOH     339      MEOH     DO1      DRUD    -2.488300        0.4000           0   0.00000   0.00000
     17493 MEOH     339      MEOH     HO1      HDP1A    0.360000        1.0080           0   0.00000   0.00000
     17494 MEOH     339      MEOH     HO2      DUMH     0.000000        1.0080           0   0.00000   0.00000
     17495 MEOH     339      MEOH     H1A      HDA3B    0.080000        1.0080           0   0.00000   0.00000
     17496 MEOH     339      MEOH     H1B      HDA3B    0.080000        1.0080           0   0.00000   0.00000
     17497 MEOH     339      MEOH     H1C      HDA3B    0.080000        1.0080           0   0.00000   0.00000
     17498 MEOH     339      MEOH     LP1A     LPD     -0.230000        0.0000           -1   0.00000   0.00000
     17499 MEOH     339      MEOH     LP1B     LPD     -0.230000        0.0000           -1   0.00000   0.00000
     17500 MEOH     340      MEOH     C1       CD33B    2.314100       11.6110           0   -1.00000   1.30000
     17501 MEOH     340      MEOH     DC1      DRUD    -2.454100        0.4000           0   0.00000   0.00000
     17502 MEOH     340      MEOH     O1       OD31H    2.488300       15.5990           0   -1.02800   1.30000
     17503 MEOH     340      MEOH     DO1      DRUD    -2.488300        0.4000           0   0.00000   0.00000
     17504 MEOH     340      MEOH     HO1      HDP1A    0.360000        1.0080           0   0.00000   0.00000
     17505 MEOH     340      MEOH     HO2      DUMH     0.000000        1.0080           0   0.00000   0.00000
     17506 MEOH     340      MEOH     H1A      HDA3B    0.080000        1.0080           0   0.00000   0.00000
     17507 MEOH     340      MEOH     H1B      HDA3B    0.080000        1.0080           0   0.00000   0.00000
     17508 MEOH     340      MEOH     H1C      HDA3B    0.080000        1.0080           0   0.00000   0.00000
     17509 MEOH     340      MEOH     LP1A     LPD     -0.230000        0.0000           -1   0.00000   0.00000
     17510 MEOH     340      MEOH     LP1B     LPD     -0.230000        0.0000           -1   0.00000   0.00000
     17511 MEOH     341      MEOH     C1       CD33B    2.314100       11.6110           0   -1.00000   1.30000
     17512 MEOH     341      MEOH     DC1      DRUD    -2.454100        0.4000           0   0.00000   0.00000
     17513 MEOH     341      MEOH     O1       OD31H    2.488300       15.5990           0   -1.02800   1.30000
     17514 MEOH     341      MEOH     DO1      DRUD    -2.488300        0.4000           0   0.00000   0.00000
     17515 MEOH     341      MEOH     HO1      HDP1A    0.360000        1.0080           0   0.00000   0.00000
     17516 MEOH     341      MEOH     HO2      DUMH     0.000000        1.0080           0   0.00000   0.00000
     17517 MEOH     341      MEOH     H1A      HDA3B    0.080000        1.0080           0   0.00000   0.00000
     17518 MEOH     341      MEOH     H1B      HDA3B    0.080000        1.0080           0   0.00000   0.00000
     17519 MEOH     341      MEOH     H1C      HDA3B    0.080000        1.0080           0   0.00000   0.00000
     17520 MEOH     341      MEOH     LP1A     LPD     -0.230000        0.0000           -1   0.00000   0.00000
     17521 MEOH     341      MEOH     LP1B     LPD     -0.230000        0.0000           -1   0.00000   0.00000
     17522 MEOH     342      MEOH     C1       CD33B    2.314100       11.6110           0   -1.00000   1.30000
     17523 MEOH     342      MEOH     DC1      DRUD    -2.454100        0.4000           0   0.00000   0.00000
     17524 MEOH     342      MEOH     O1       OD31H    2.488300       15.5990           0   -1.02800   1.30000
     17525 MEOH     342      MEOH     DO1      DRUD    -2.488300        0.4000           0   0.00000   0.00000
     17526 MEOH     342      MEOH     HO1      HDP1A    0.360000        1.0080           0   0.00000   0.00000
     17527 MEOH     342      MEOH     HO2      DUMH     0.000000        1.0080           0   0.00000   0.00000
     17528 MEOH     342      MEOH     H1A      HDA3B    0.080000        1.0080           0   0.00000   0.00000
     17529 MEOH     342      MEOH     H1B      HDA3B    0.080000        1.0080           0   0.00000   0.00000
     17530 MEOH     342      MEOH     H1C      HDA3B    0.080000        1.0080           0   0.00000   0.00000
     17531 MEOH     342      MEOH     LP1A     LPD     -0.230000        0.0000           -1   0.00000   0.00000
     17532 MEOH     342      MEOH     LP1B     LPD     -0.230000        0.0000           -1   0.00000   0.00000
     17533 MEOH     343      MEOH     C1       CD33B    2.314100       11.6110           0   -1.00000   1.30000
     17534 MEOH     343      MEOH     DC1      DRUD    -2.454100        0.4000           0   0.00000   0.00000
     17535 MEOH     343      MEOH     O1       OD31H    2.488300       15.5990           0   -1.02800   1.30000
     17536 MEOH     343      MEOH     DO1      DRUD    -2.488300        0.4000           0   0.00000   0.00000
     17537 MEOH     343      MEOH     HO1      HDP1A    0.360000        1.0080           0   0.00000   0.00000
     17538 MEOH     343      MEOH     HO2      DUMH     0.000000        1.0080           0   0.00000   0.00000
     17539 MEOH     343      MEOH     H1A      HDA3B    0.080000        1.0080           0   0.00000   0.00000
     17540 MEOH     343      MEOH     H1B      HDA3B    0.080000        1.0080           0   0.00000   0.00000
     17541 MEOH     343      MEOH     H1C      HDA3B    0.080000        1.0080           0   0.00000   0.00000
     17542 MEOH     343      MEOH     LP1A     LPD     -0.230000        0.0000           -1   0.00000   0.00000
     17543 MEOH     343      MEOH     LP1B     LPD     -0.230000        0.0000           -1   0.00000   0.00000
     17544 MEOH     344      MEOH     C1       CD33B    2.314100       11.6110           0   -1.00000   1.30000
     17545 MEOH     344      MEOH     DC1      DRUD    -2.454100        0.4000           0   0.00000   0.00000
     17546 MEOH     344      MEOH     O1       OD31H    2.488300       15.5990           0   -1.02800   1.30000
     17547 MEOH     344      MEOH     DO1      DRUD    -2.488300        0.4000           0   0.00000   0.00000
     17548 MEOH     344      MEOH     HO1      HDP1A    0.360000        1.0080           0   0.00000   0.00000
     17549 MEOH     344      MEOH     HO2      DUMH     0.000000        1.0080           0   0.00000   0.00000
     17550 MEOH     344      MEOH     H1A      HDA3B    0.080000        1.0080           0   0.00000   0.00000
     17551 MEOH     344      MEOH     H1B      HDA3B    0.080000        1.0080           0   0.00000   0.00000
     17552 MEOH     344      MEOH     H1C      HDA3B    0.080000        1.0080           0   0.00000   0.00000
     17553 MEOH     344      MEOH     LP1A     LPD     -0.230000        0.0000           -1   0.00000   0.00000
     17554 MEOH     344      MEOH     LP1B     LPD     -0.230000        0.0000           -1   0.00000   0.00000
     17555 MEOH     345      MEOH     C1       CD33B    2.314100       11.6110           0   -1.00000   1.30000
     17556 MEOH     345      MEOH     DC1      DRUD    -2.454100        0.4000           0   0.00000   0.00000
     17557 MEOH     345      MEOH     O1       OD31H    2.488300       15.5990           0   -1.02800   1.30000
     17558 MEOH     345      MEOH     DO1      DRUD    -2.488300        0.4000           0   0.00000   0.00000
     17559 MEOH     345      MEOH     HO1      HDP1A    0.360000        1.0080           0   0.00000   0.00000
     17560 MEOH     345      MEOH     HO2      DUMH     0.000000        1.0080           0   0.00000   0.00000
     17561 MEOH     345      MEOH     H1A      HDA3B    0.080000        1.0080           0   0.00000   0.00000
     17562 MEOH     345      MEOH     H1B      HDA3B    0.080000        1.0080           0   0.00000   0.00000
     17563 MEOH     345      MEOH     H1C      HDA3B    0.080000        1.0080           0   0.00000   0.00000
     17564 MEOH     345      MEOH     LP1A     LPD     -0.230000        0.0000           -1   0.00000   0.00000
     17565 MEOH     345      MEOH     LP1B     LPD     -0.230000        0.0000           -1   0.00000   0.00000
     17566 MEOH     346      MEOH     C1       CD33B    2.314100       11.6110           0   -1.00000   1.30000
     17567 MEOH     346      MEOH     DC1      DRUD    -2.454100        0.4000           0   0.00000   0.00000
     17568 MEOH     346      MEOH     O1       OD31H    2.488300       15.5990           0   -1.02800   1.30000
     17569 MEOH     346      MEOH     DO1      DRUD    -2.488300        0.4000           0   0.00000   0.00000
     17570 MEOH     346      MEOH     HO1      HDP1A    0.360000        1.0080           0   0.00000   0.00000
     17571 MEOH     346      MEOH     HO2      DUMH     0.000000        1.0080           0   0.00000   0.00000
     17572 MEOH     346      MEOH     H1A      HDA3B    0.080000        1.0080           0   0.00000   0.00000
     17573 MEOH     346      MEOH     H1B      HDA3B    0.080000        1.0080           0   0.00000   0.00000
     17574 MEOH     346      MEOH     H1C      HDA3B    0.080000        1.0080           0   0.00000   0.00000
     17575 MEOH     346      MEOH     LP1A     LPD     -0.230000        0.0000           -1   0.00000   0.00000
     17576 MEOH     346      MEOH     LP1B     LPD     -0.230000        0.0000           -1   0.00000   0.00000
     17577 MEOH     347      MEOH     C1       CD33B    2.314100       11.6110           0   -1.00000   1.30000
     17578 MEOH     347      MEOH     DC1      DRUD    -2.454100        0.4000           0   0.00000   0.00000
     17579 MEOH     347      MEOH     O1       OD31H    2.488300       15.5990           0   -1.02800   1.30000
     17580 MEOH     347      MEOH     DO1      DRUD    -2.488300        0.4000           0   0.00000   0.00000
     17581 MEOH     347      MEOH     HO1      HDP1A    0.360000        1.0080           0   0.00000   0.00000
     17582 MEOH     347      MEOH     HO2      DUMH     0.000000        1.0080           0   0.00000   0.00000
     17583 MEOH     347      MEOH     H1A      HDA3B    0.080000        1.0080           0   0.00000   0.00000
     17584 MEOH     347      MEOH     H1B      HDA3B    0.080000        1.0080           0   0.00000   0.00000
     17585 MEOH     347      MEOH     H1C      HDA3B    0.080000        1.0080           0   0.00000   0.00000
     17586 MEOH     347      MEOH     LP1A     LPD     -0.230000        0.0000           -1   0.00000   0.00000
     17587 MEOH     347      MEOH     LP1B     LPD     -0.230000        0.0000           -1   0.00000   0.00000
     17588 MEOH     348      MEOH     C1       CD33B    2.314100       11.6110           0   -1.00000   1.30000
     17589 MEOH     348      MEOH     DC1      DRUD    -2.454100        0.4000           0   0.00000   0.00000
     17590 MEOH     348      MEOH     O1       OD31H    2.488300       15.5990           0   -1.02800   1.30000
     17591 MEOH     348      MEOH     DO1      DRUD    -2.488300        0.4000           0   0.00000   0.00000
     17592 MEOH     348      MEOH     HO1      HDP1A    0.360000        1.0080           0   0.00000   0.00000
     17593 MEOH     348      MEOH     HO2      DUMH     0.000000        1.0080           0   0.00000   0.00000
     17594 MEOH     348      MEOH     H1A      HDA3B    0.080000        1.0080           0   0.00000   0.00000
     17595 MEOH     348      MEOH     H1B      HDA3B    0.080000        1.0080           0   0.00000   0.00000
     17596 MEOH     348      MEOH     H1C      HDA3B    0.080000        1.0080           0   0.00000   0.00000
     17597 MEOH     348      MEOH     LP1A     LPD     -0.230000        0.0000           -1   0.00000   0.00000
     17598 MEOH     348      MEOH     LP1B     LPD     -0.230000        0.0000           -1   0.00000   0.00000
     17599 MEOH     349      MEOH     C1       CD33B    2.314100       11.6110           0   -1.00000   1.30000
     17600 MEOH     349      MEOH     DC1      DRUD    -2.454100        0.4000           0   0.00000   0.00000
     17601 MEOH     349      MEOH     O1       OD31H    2.488300       15.5990           0   -1.02800   1.30000
     17602 MEOH     349      MEOH     DO1      DRUD    -2.488300        0.4000           0   0.00000   0.00000
     17603 MEOH     349      MEOH     HO1      HDP1A    0.360000        1.0080           0   0.00000   0.00000
     17604 MEOH     349      MEOH     HO2      DUMH     0.000000        1.0080           0   0.00000   0.00000
     17605 MEOH     349      MEOH     H1A      HDA3B    0.080000        1.0080           0   0.00000   0.00000
     17606 MEOH     349      MEOH     H1B      HDA3B    0.080000        1.0080           0   0.00000   0.00000
     17607 MEOH     349      MEOH     H1C      HDA3B    0.080000        1.0080           0   0.00000   0.00000
     17608 MEOH     349      MEOH     LP1A     LPD     -0.230000        0.0000           -1   0.00000   0.00000
     17609 MEOH     349      MEOH     LP1B     LPD     -0.230000        0.0000           -1   0.00000   0.00000
     17610 MEOH     350      MEOH     C1       CD33B    2.314100       11.6110           0   -1.00000   1.30000
     17611 MEOH     350      MEOH     DC1      DRUD    -2.454100        0.4000           0   0.00000   0.00000
     17612 MEOH     350      MEOH     O1       OD31H    2.488300       15.5990           0   -1.02800   1.30000
     17613 MEOH     350      MEOH     DO1      DRUD    -2.488300        0.4000           0   0.00000   0.00000
     17614 MEOH     350      MEOH     HO1      HDP1A    0.360000        1.0080           0   0.00000   0.00000
     17615 MEOH     350      MEOH     HO2      DUMH     0.000000        1.0080           0   0.00000   0.00000
     17616 MEOH     350      MEOH     H1A      HDA3B    0.080000        1.0080           0   0.00000   0.00000
     17617 MEOH     350      MEOH     H1B      HDA3B    0.080000        1.0080           0   0.00000   0.00000
     17618 MEOH     350      MEOH     H1C      HDA3B    0.080000        1.0080           0   0.00000   0.00000
     17619 MEOH     350      MEOH     LP1A     LPD     -0.230000        0.0000           -1   0.00000   0.00000
     17620 MEOH     350      MEOH     LP1B     LPD     -0.230000        0.0000           -1   0.00000   0.00000
     17621 MEOH     351      MEOH     C1       CD33B    2.314100       11.6110           0   -1.00000   1.30000
     17622 MEOH     351      MEOH     DC1      DRUD    -2.454100        0.4000           0   0.00000   0.00000
     17623 MEOH     351      MEOH     O1       OD31H    2.488300       15.5990           0   -1.02800   1.30000
     17624 MEOH     351      MEOH     DO1      DRUD    -2.488300        0.4000           0   0.00000   0.00000
     17625 MEOH     351      MEOH     HO1      HDP1A    0.360000        1.0080           0   0.00000   0.00000
     17626 MEOH     351      MEOH     HO2      DUMH     0.000000        1.0080           0   0.00000   0.00000
     17627 MEOH     351      MEOH     H1A      HDA3B    0.080000        1.0080           0   0.00000   0.00000
     17628 MEOH     351      MEOH     H1B      HDA3B    0.080000        1.0080           0   0.00000   0.00000
     17629 MEOH     351      MEOH     H1C      HDA3B    0.080000        1.0080           0   0.00000   0.00000
     17630 MEOH     351      MEOH     LP1A     LPD     -0.230000        0.0000           -1   0.00000   0.00000
     17631 MEOH     351      MEOH     LP1B     LPD     -0.230000        0.0000           -1   0.00000   0.00000
     17632 MEOH     352      MEOH     C1       CD33B    2.314100       11.6110           0   -1.00000   1.30000
     17633 MEOH     352      MEOH     DC1      DRUD    -2.454100        0.4000           0   0.00000   0.00000
     17634 MEOH     352      MEOH     O1       OD31H    2.488300       15.5990           0   -1.02800   1.30000
     17635 MEOH     352      MEOH     DO1      DRUD    -2.488300        0.4000           0   0.00000   0.00000
     17636 MEOH     352      MEOH     HO1      HDP1A    0.360000        1.0080           0   0.00000   0.00000
     17637 MEOH     352      MEOH     HO2      DUMH     0.000000        1.0080           0   0.00000   0.00000
     17638 MEOH     352      MEOH     H1A      HDA3B    0.080000        1.0080           0   0.00000   0.00000
     17639 MEOH     352      MEOH     H1B      HDA3B    0.080000        1.0080           0   0.00000   0.00000
     17640 MEOH     352      MEOH     H1C      HDA3B    0.080000        1.0080           0   0.00000   0.00000
     17641 MEOH     352      MEOH     LP1A     LPD     -0.230000        0.0000           -1   0.00000   0.00000
     17642 MEOH     352      MEOH     LP1B     LPD     -0.230000        0.0000           -1   0.00000   0.00000
     17643 MEOH     353      MEOH     C1       CD33B    2.314100       11.6110           0   -1.00000   1.30000
     17644 MEOH     353      MEOH     DC1      DRUD    -2.454100        0.4000           0   0.00000   0.00000
     17645 MEOH     353      MEOH     O1       OD31H    2.488300       15.5990           0   -1.02800   1.30000
     17646 MEOH     353      MEOH     DO1      DRUD    -2.488300        0.4000           0   0.00000   0.00000
     17647 MEOH     353      MEOH     HO1      HDP1A    0.360000        1.0080           0   0.00000   0.00000
     17648 MEOH     353      MEOH     HO2      DUMH     0.000000        1.0080           0   0.00000   0.00000
     17649 MEOH     353      MEOH     H1A      HDA3B    0.080000        1.0080           0   0.00000   0.00000
     17650 MEOH     353      MEOH     H1B      HDA3B    0.080000        1.0080           0   0.00000   0.00000
     17651 MEOH     353      MEOH     H1C      HDA3B    0.080000        1.0080           0   0.00000   0.00000
     17652 MEOH     353      MEOH     LP1A     LPD     -0.230000        0.0000           -1   0.00000   0.00000
     17653 MEOH     353      MEOH     LP1B     LPD     -0.230000        0.0000           -1   0.00000   0.00000
     17654 MEOH     354      MEOH     C1       CD33B    2.314100       11.6110           0   -1.00000   1.30000
     17655 MEOH     354      MEOH     DC1      DRUD    -2.454100        0.4000           0   0.00000   0.00000
     17656 MEOH     354      MEOH     O1       OD31H    2.488300       15.5990           0   -1.02800   1.30000
     17657 MEOH     354      MEOH     DO1      DRUD    -2.488300        0.4000           0   0.00000   0.00000
     17658 MEOH     354      MEOH     HO1      HDP1A    0.360000        1.0080           0   0.00000   0.00000
     17659 MEOH     354      MEOH     HO2      DUMH     0.000000        1.0080           0   0.00000   0.00000
     17660 MEOH     354      MEOH     H1A      HDA3B    0.080000        1.0080           0   0.00000   0.00000
     17661 MEOH     354      MEOH     H1B      HDA3B    0.080000        1.0080           0   0.00000   0.00000
     17662 MEOH     354      MEOH     H1C      HDA3B    0.080000        1.0080           0   0.00000   0.00000
     17663 MEOH     354      MEOH     LP1A     LPD     -0.230000        0.0000           -1   0.00000   0.00000
     17664 MEOH     354      MEOH     LP1B     LPD     -0.230000        0.0000           -1   0.00000   0.00000
     17665 MEOH     355      MEOH     C1       CD33B    2.314100       11.6110           0   -1.00000   1.30000
     17666 MEOH     355      MEOH     DC1      DRUD    -2.454100        0.4000           0   0.00000   0.00000
     17667 MEOH     355      MEOH     O1       OD31H    2.488300       15.5990           0   -1.02800   1.30000
     17668 MEOH     355      MEOH     DO1      DRUD    -2.488300        0.4000           0   0.00000   0.00000
     17669 MEOH     355      MEOH     HO1      HDP1A    0.360000        1.0080           0   0.00000   0.00000
     17670 MEOH     355      MEOH     HO2      DUMH     0.000000        1.0080           0   0.00000   0.00000
     17671 MEOH     355      MEOH     H1A      HDA3B    0.080000        1.0080           0   0.00000   0.00000
     17672 MEOH     355      MEOH     H1B      HDA3B    0.080000        1.0080           0   0.00000   0.00000
     17673 MEOH     355      MEOH     H1C      HDA3B    0.080000        1.0080           0   0.00000   0.00000
     17674 MEOH     355      MEOH     LP1A     LPD     -0.230000        0.0000           -1   0.00000   0.00000
     17675 MEOH     355      MEOH     LP1B     LPD     -0.230000        0.0000           -1   0.00000   0.00000
     17676 MEOH     356      MEOH     C1       CD33B    2.314100       11.6110           0   -1.00000   1.30000
     17677 MEOH     356      MEOH     DC1      DRUD    -2.454100        0.4000           0   0.00000   0.00000
     17678 MEOH     356      MEOH     O1       OD31H    2.488300       15.5990           0   -1.02800   1.30000
     17679 MEOH     356      MEOH     DO1      DRUD    -2.488300        0.4000           0   0.00000   0.00000
     17680 MEOH     356      MEOH     HO1      HDP1A    0.360000        1.0080           0   0.00000   0.00000
     17681 MEOH     356      MEOH     HO2      DUMH     0.000000        1.0080           0   0.00000   0.00000
     17682 MEOH     356      MEOH     H1A      HDA3B    0.080000        1.0080           0   0.00000   0.00000
     17683 MEOH     356      MEOH     H1B      HDA3B    0.080000        1.0080           0   0.00000   0.00000
     17684 MEOH     356      MEOH     H1C      HDA3B    0.080000        1.0080           0   0.00000   0.00000
     17685 MEOH     356      MEOH     LP1A     LPD     -0.230000        0.0000           -1   0.00000   0.00000
     17686 MEOH     356      MEOH     LP1B     LPD     -0.230000        0.0000           -1   0.00000   0.00000
     17687 MEOH     357      MEOH     C1       CD33B    2.314100       11.6110           0   -1.00000   1.30000
     17688 MEOH     357      MEOH     DC1      DRUD    -2.454100        0.4000           0   0.00000   0.00000
     17689 MEOH     357      MEOH     O1       OD31H    2.488300       15.5990           0   -1.02800   1.30000
     17690 MEOH     357      MEOH     DO1      DRUD    -2.488300        0.4000           0   0.00000   0.00000
     17691 MEOH     357      MEOH     HO1      HDP1A    0.360000        1.0080           0   0.00000   0.00000
     17692 MEOH     357      MEOH     HO2      DUMH     0.000000        1.0080           0   0.00000   0.00000
     17693 MEOH     357      MEOH     H1A      HDA3B    0.080000        1.0080           0   0.00000   0.00000
     17694 MEOH     357      MEOH     H1B      HDA3B    0.080000        1.0080           0   0.00000   0.00000
     17695 MEOH     357      MEOH     H1C      HDA3B    0.080000        1.0080           0   0.00000   0.00000
     17696 MEOH     357      MEOH     LP1A     LPD     -0.230000        0.0000           -1   0.00000   0.00000
     17697 MEOH     357      MEOH     LP1B     LPD     -0.230000        0.0000           -1   0.00000   0.00000
     17698 MEOH     358      MEOH     C1       CD33B    2.314100       11.6110           0   -1.00000   1.30000
     17699 MEOH     358      MEOH     DC1      DRUD    -2.454100        0.4000           0   0.00000   0.00000
     17700 MEOH     358      MEOH     O1       OD31H    2.488300       15.5990           0   -1.02800   1.30000
     17701 MEOH     358      MEOH     DO1      DRUD    -2.488300        0.4000           0   0.00000   0.00000
     17702 MEOH     358      MEOH     HO1      HDP1A    0.360000        1.0080           0   0.00000   0.00000
     17703 MEOH     358      MEOH     HO2      DUMH     0.000000        1.0080           0   0.00000   0.00000
     17704 MEOH     358      MEOH     H1A      HDA3B    0.080000        1.0080           0   0.00000   0.00000
     17705 MEOH     358      MEOH     H1B      HDA3B    0.080000        1.0080           0   0.00000   0.00000
     17706 MEOH     358      MEOH     H1C      HDA3B    0.080000        1.0080           0   0.00000   0.00000
     17707 MEOH     358      MEOH     LP1A     LPD     -0.230000        0.0000           -1   0.00000   0.00000
     17708 MEOH     358      MEOH     LP1B     LPD     -0.230000        0.0000           -1   0.00000   0.00000
     17709 MEOH     359      MEOH     C1       CD33B    2.314100       11.6110           0   -1.00000   1.30000
     17710 MEOH     359      MEOH     DC1      DRUD    -2.454100        0.4000           0   0.00000   0.00000
     17711 MEOH     359      MEOH     O1       OD31H    2.488300       15.5990           0   -1.02800   1.30000
     17712 MEOH     359      MEOH     DO1      DRUD    -2.488300        0.4000           0   0.00000   0.00000
     17713 MEOH     359      MEOH     HO1      HDP1A    0.360000        1.0080           0   0.00000   0.00000
     17714 MEOH     359      MEOH     HO2      DUMH     0.000000        1.0080           0   0.00000   0.00000
     17715 MEOH     359      MEOH     H1A      HDA3B    0.080000        1.0080           0   0.00000   0.00000
     17716 MEOH     359      MEOH     H1B      HDA3B    0.080000        1.0080           0   0.00000   0.00000
     17717 MEOH     359      MEOH     H1C      HDA3B    0.080000        1.0080           0   0.00000   0.00000
     17718 MEOH     359      MEOH     LP1A     LPD     -0.230000        0.0000           -1   0.00000   0.00000
     17719 MEOH     359      MEOH     LP1B     LPD     -0.230000        0.0000           -1   0.00000   0.00000
     17720 MEOH     360      MEOH     C1       CD33B    2.314100       11.6110           0   -1.00000   1.30000
     17721 MEOH     360      MEOH     DC1      DRUD    -2.454100        0.4000           0   0.00000   0.00000
     17722 MEOH     360      MEOH     O1       OD31H    2.488300       15.5990           0   -1.02800   1.30000
     17723 MEOH     360      MEOH     DO1      DRUD    -2.488300        0.4000           0   0.00000   0.00000
     17724 MEOH     360      MEOH     HO1      HDP1A    0.360000        1.0080           0   0.00000   0.00000
     17725 MEOH     360      MEOH     HO2      DUMH     0.000000        1.0080           0   0.00000   0.00000
     17726 MEOH     360      MEOH     H1A      HDA3B    0.080000        1.0080           0   0.00000   0.00000
     17727 MEOH     360      MEOH     H1B      HDA3B    0.080000        1.0080           0   0.00000   0.00000
     17728 MEOH     360      MEOH     H1C      HDA3B    0.080000        1.0080           0   0.00000   0.00000
     17729 MEOH     360      MEOH     LP1A     LPD     -0.230000        0.0000           -1   0.00000   0.00000
     17730 MEOH     360      MEOH     LP1B     LPD     -0.230000        0.0000           -1   0.00000   0.00000
     17731 MEOH     361      MEOH     C1       CD33B    2.314100       11.6110           0   -1.00000   1.30000
     17732 MEOH     361      MEOH     DC1      DRUD    -2.454100        0.4000           0   0.00000   0.00000
     17733 MEOH     361      MEOH     O1       OD31H    2.488300       15.5990           0   -1.02800   1.30000
     17734 MEOH     361      MEOH     DO1      DRUD    -2.488300        0.4000           0   0.00000   0.00000
     17735 MEOH     361      MEOH     HO1      HDP1A    0.360000        1.0080           0   0.00000   0.00000
     17736 MEOH     361      MEOH     HO2      DUMH     0.000000        1.0080           0   0.00000   0.00000
     17737 MEOH     361      MEOH     H1A      HDA3B    0.080000        1.0080           0   0.00000   0.00000
     17738 MEOH     361      MEOH     H1B      HDA3B    0.080000        1.0080           0   0.00000   0.00000
     17739 MEOH     361      MEOH     H1C      HDA3B    0.080000        1.0080           0   0.00000   0.00000
     17740 MEOH     361      MEOH     LP1A     LPD     -0.230000        0.0000           -1   0.00000   0.00000
     17741 MEOH     361      MEOH     LP1B     LPD     -0.230000        0.0000           -1   0.00000   0.00000
     17742 MEOH     362      MEOH     C1       CD33B    2.314100       11.6110           0   -1.00000   1.30000
     17743 MEOH     362      MEOH     DC1      DRUD    -2.454100        0.4000           0   0.00000   0.00000
     17744 MEOH     362      MEOH     O1       OD31H    2.488300       15.5990           0   -1.02800   1.30000
     17745 MEOH     362      MEOH     DO1      DRUD    -2.488300        0.4000           0   0.00000   0.00000
     17746 MEOH     362      MEOH     HO1      HDP1A    0.360000        1.0080           0   0.00000   0.00000
     17747 MEOH     362      MEOH     HO2      DUMH     0.000000        1.0080           0   0.00000   0.00000
     17748 MEOH     362      MEOH     H1A      HDA3B    0.080000        1.0080           0   0.00000   0.00000
     17749 MEOH     362      MEOH     H1B      HDA3B    0.080000        1.0080           0   0.00000   0.00000
     17750 MEOH     362      MEOH     H1C      HDA3B    0.080000        1.0080           0   0.00000   0.00000
     17751 MEOH     362      MEOH     LP1A     LPD     -0.230000        0.0000           -1   0.00000   0.00000
     17752 MEOH     362      MEOH     LP1B     LPD     -0.230000        0.0000           -1   0.00000   0.00000
     17753 MEOH     363      MEOH     C1       CD33B    2.314100       11.6110           0   -1.00000   1.30000
     17754 MEOH     363      MEOH     DC1      DRUD    -2.454100        0.4000           0   0.00000   0.00000
     17755 MEOH     363      MEOH     O1       OD31H    2.488300       15.5990           0   -1.02800   1.30000
     17756 MEOH     363      MEOH     DO1      DRUD    -2.488300        0.4000           0   0.00000   0.00000
     17757 MEOH     363      MEOH     HO1      HDP1A    0.360000        1.0080           0   0.00000   0.00000
     17758 MEOH     363      MEOH     HO2      DUMH     0.000000        1.0080           0   0.00000   0.00000
     17759 MEOH     363      MEOH     H1A      HDA3B    0.080000        1.0080           0   0.00000   0.00000
     17760 MEOH     363      MEOH     H1B      HDA3B    0.080000        1.0080           0   0.00000   0.00000
     17761 MEOH     363      MEOH     H1C      HDA3B    0.080000        1.0080           0   0.00000   0.00000
     17762 MEOH     363      MEOH     LP1A     LPD     -0.230000        0.0000           -1   0.00000   0.00000
     17763 MEOH     363      MEOH     LP1B     LPD     -0.230000        0.0000           -1   0.00000   0.00000
     17764 MEOH     364      MEOH     C1       CD33B    2.314100       11.6110           0   -1.00000   1.30000
     17765 MEOH     364      MEOH     DC1      DRUD    -2.454100        0.4000           0   0.00000   0.00000
     17766 MEOH     364      MEOH     O1       OD31H    2.488300       15.5990           0   -1.02800   1.30000
     17767 MEOH     364      MEOH     DO1      DRUD    -2.488300        0.4000           0   0.00000   0.00000
     17768 MEOH     364      MEOH     HO1      HDP1A    0.360000        1.0080           0   0.00000   0.00000
     17769 MEOH     364      MEOH     HO2      DUMH     0.000000        1.0080           0   0.00000   0.00000
     17770 MEOH     364      MEOH     H1A      HDA3B    0.080000        1.0080           0   0.00000   0.00000
     17771 MEOH     364      MEOH     H1B      HDA3B    0.080000        1.0080           0   0.00000   0.00000
     17772 MEOH     364      MEOH     H1C      HDA3B    0.080000        1.0080           0   0.00000   0.00000
     17773 MEOH     364      MEOH     LP1A     LPD     -0.230000        0.0000           -1   0.00000   0.00000
     17774 MEOH     364      MEOH     LP1B     LPD     -0.230000        0.0000           -1   0.00000   0.00000
     17775 MEOH     365      MEOH     C1       CD33B    2.314100       11.6110           0   -1.00000   1.30000
     17776 MEOH     365      MEOH     DC1      DRUD    -2.454100        0.4000           0   0.00000   0.00000
     17777 MEOH     365      MEOH     O1       OD31H    2.488300       15.5990           0   -1.02800   1.30000
     17778 MEOH     365      MEOH     DO1      DRUD    -2.488300        0.4000           0   0.00000   0.00000
     17779 MEOH     365      MEOH     HO1      HDP1A    0.360000        1.0080           0   0.00000   0.00000
     17780 MEOH     365      MEOH     HO2      DUMH     0.000000        1.0080           0   0.00000   0.00000
     17781 MEOH     365      MEOH     H1A      HDA3B    0.080000        1.0080           0   0.00000   0.00000
     17782 MEOH     365      MEOH     H1B      HDA3B    0.080000        1.0080           0   0.00000   0.00000
     17783 MEOH     365      MEOH     H1C      HDA3B    0.080000        1.0080           0   0.00000   0.00000
     17784 MEOH     365      MEOH     LP1A     LPD     -0.230000        0.0000           -1   0.00000   0.00000
     17785 MEOH     365      MEOH     LP1B     LPD     -0.230000        0.0000           -1   0.00000   0.00000
     17786 MEOH     366      MEOH     C1       CD33B    2.314100       11.6110           0   -1.00000   1.30000
     17787 MEOH     366      MEOH     DC1      DRUD    -2.454100        0.4000           0   0.00000   0.00000
     17788 MEOH     366      MEOH     O1       OD31H    2.488300       15.5990           0   -1.02800   1.30000
     17789 MEOH     366      MEOH     DO1      DRUD    -2.488300        0.4000           0   0.00000   0.00000
     17790 MEOH     366      MEOH     HO1      HDP1A    0.360000        1.0080           0   0.00000   0.00000
     17791 MEOH     366      MEOH     HO2      DUMH     0.000000        1.0080           0   0.00000   0.00000
     17792 MEOH     366      MEOH     H1A      HDA3B    0.080000        1.0080           0   0.00000   0.00000
     17793 MEOH     366      MEOH     H1B      HDA3B    0.080000        1.0080           0   0.00000   0.00000
     17794 MEOH     366      MEOH     H1C      HDA3B    0.080000        1.0080           0   0.00000   0.00000
     17795 MEOH     366      MEOH     LP1A     LPD     -0.230000        0.0000           -1   0.00000   0.00000
     17796 MEOH     366      MEOH     LP1B     LPD     -0.230000        0.0000           -1   0.00000   0.00000
     17797 MEOH     367      MEOH     C1       CD33B    2.314100       11.6110           0   -1.00000   1.30000
     17798 MEOH     367      MEOH     DC1      DRUD    -2.454100        0.4000           0   0.00000   0.00000
     17799 MEOH     367      MEOH     O1       OD31H    2.488300       15.5990           0   -1.02800   1.30000
     17800 MEOH     367      MEOH     DO1      DRUD    -2.488300        0.4000           0   0.00000   0.00000
     17801 MEOH     367      MEOH     HO1      HDP1A    0.360000        1.0080           0   0.00000   0.00000
     17802 MEOH     367      MEOH     HO2      DUMH     0.000000        1.0080           0   0.00000   0.00000
     17803 MEOH     367      MEOH     H1A      HDA3B    0.080000        1.0080           0   0.00000   0.00000
     17804 MEOH     367      MEOH     H1B      HDA3B    0.080000        1.0080           0   0.00000   0.00000
     17805 MEOH     367      MEOH     H1C      HDA3B    0.080000        1.0080           0   0.00000   0.00000
     17806 MEOH     367      MEOH     LP1A     LPD     -0.230000        0.0000           -1   0.00000   0.00000
     17807 MEOH     367      MEOH     LP1B     LPD     -0.230000        0.0000           -1   0.00000   0.00000
     17808 MEOH     368      MEOH     C1       CD33B    2.314100       11.6110           0   -1.00000   1.30000
     17809 MEOH     368      MEOH     DC1      DRUD    -2.454100        0.4000           0   0.00000   0.00000
     17810 MEOH     368      MEOH     O1       OD31H    2.488300       15.5990           0   -1.02800   1.30000
     17811 MEOH     368      MEOH     DO1      DRUD    -2.488300        0.4000           0   0.00000   0.00000
     17812 MEOH     368      MEOH     HO1      HDP1A    0.360000        1.0080           0   0.00000   0.00000
     17813 MEOH     368      MEOH     HO2      DUMH     0.000000        1.0080           0   0.00000   0.00000
     17814 MEOH     368      MEOH     H1A      HDA3B    0.080000        1.0080           0   0.00000   0.00000
     17815 MEOH     368      MEOH     H1B      HDA3B    0.080000        1.0080           0   0.00000   0.00000
     17816 MEOH     368      MEOH     H1C      HDA3B    0.080000        1.0080           0   0.00000   0.00000
     17817 MEOH     368      MEOH     LP1A     LPD     -0.230000        0.0000           -1   0.00000   0.00000
     17818 MEOH     368      MEOH     LP1B     LPD     -0.230000        0.0000           -1   0.00000   0.00000
     17819 MEOH     369      MEOH     C1       CD33B    2.314100       11.6110           0   -1.00000   1.30000
     17820 MEOH     369      MEOH     DC1      DRUD    -2.454100        0.4000           0   0.00000   0.00000
     17821 MEOH     369      MEOH     O1       OD31H    2.488300       15.5990           0   -1.02800   1.30000
     17822 MEOH     369      MEOH     DO1      DRUD    -2.488300        0.4000           0   0.00000   0.00000
     17823 MEOH     369      MEOH     HO1      HDP1A    0.360000        1.0080           0   0.00000   0.00000
     17824 MEOH     369      MEOH     HO2      DUMH     0.000000        1.0080           0   0.00000   0.00000
     17825 MEOH     369      MEOH     H1A      HDA3B    0.080000        1.0080           0   0.00000   0.00000
     17826 MEOH     369      MEOH     H1B      HDA3B    0.080000        1.0080           0   0.00000   0.00000
     17827 MEOH     369      MEOH     H1C      HDA3B    0.080000        1.0080           0   0.00000   0.00000
     17828 MEOH     369      MEOH     LP1A     LPD     -0.230000        0.0000           -1   0.00000   0.00000
     17829 MEOH     369      MEOH     LP1B     LPD     -0.230000        0.0000           -1   0.00000   0.00000
     17830 MEOH     370      MEOH     C1       CD33B    2.314100       11.6110           0   -1.00000   1.30000
     17831 MEOH     370      MEOH     DC1      DRUD    -2.454100        0.4000           0   0.00000   0.00000
     17832 MEOH     370      MEOH     O1       OD31H    2.488300       15.5990           0   -1.02800   1.30000
     17833 MEOH     370      MEOH     DO1      DRUD    -2.488300        0.4000           0   0.00000   0.00000
     17834 MEOH     370      MEOH     HO1      HDP1A    0.360000        1.0080           0   0.00000   0.00000
     17835 MEOH     370      MEOH     HO2      DUMH     0.000000        1.0080           0   0.00000   0.00000
     17836 MEOH     370      MEOH     H1A      HDA3B    0.080000        1.0080           0   0.00000   0.00000
     17837 MEOH     370      MEOH     H1B      HDA3B    0.080000        1.0080           0   0.00000   0.00000
     17838 MEOH     370      MEOH     H1C      HDA3B    0.080000        1.0080           0   0.00000   0.00000
     17839 MEOH     370      MEOH     LP1A     LPD     -0.230000        0.0000           -1   0.00000   0.00000
     17840 MEOH     370      MEOH     LP1B     LPD     -0.230000        0.0000           -1   0.00000   0.00000
     17841 MEOH     371      MEOH     C1       CD33B    2.314100       11.6110           0   -1.00000   1.30000
     17842 MEOH     371      MEOH     DC1      DRUD    -2.454100        0.4000           0   0.00000   0.00000
     17843 MEOH     371      MEOH     O1       OD31H    2.488300       15.5990           0   -1.02800   1.30000
     17844 MEOH     371      MEOH     DO1      DRUD    -2.488300        0.4000           0   0.00000   0.00000
     17845 MEOH     371      MEOH     HO1      HDP1A    0.360000        1.0080           0   0.00000   0.00000
     17846 MEOH     371      MEOH     HO2      DUMH     0.000000        1.0080           0   0.00000   0.00000
     17847 MEOH     371      MEOH     H1A      HDA3B    0.080000        1.0080           0   0.00000   0.00000
     17848 MEOH     371      MEOH     H1B      HDA3B    0.080000        1.0080           0   0.00000   0.00000
     17849 MEOH     371      MEOH     H1C      HDA3B    0.080000        1.0080           0   0.00000   0.00000
     17850 MEOH     371      MEOH     LP1A     LPD     -0.230000        0.0000           -1   0.00000   0.00000
     17851 MEOH     371      MEOH     LP1B     LPD     -0.230000        0.0000           -1   0.00000   0.00000
     17852 MEOH     372      MEOH     C1       CD33B    2.314100       11.6110           0   -1.00000   1.30000
     17853 MEOH     372      MEOH     DC1      DRUD    -2.454100        0.4000           0   0.00000   0.00000
     17854 MEOH     372      MEOH     O1       OD31H    2.488300       15.5990           0   -1.02800   1.30000
     17855 MEOH     372      MEOH     DO1      DRUD    -2.488300        0.4000           0   0.00000   0.00000
     17856 MEOH     372      MEOH     HO1      HDP1A    0.360000        1.0080           0   0.00000   0.00000
     17857 MEOH     372      MEOH     HO2      DUMH     0.000000        1.0080           0   0.00000   0.00000
     17858 MEOH     372      MEOH     H1A      HDA3B    0.080000        1.0080           0   0.00000   0.00000
     17859 MEOH     372      MEOH     H1B      HDA3B    0.080000        1.0080           0   0.00000   0.00000
     17860 MEOH     372      MEOH     H1C      HDA3B    0.080000        1.0080           0   0.00000   0.00000
     17861 MEOH     372      MEOH     LP1A     LPD     -0.230000        0.0000           -1   0.00000   0.00000
     17862 MEOH     372      MEOH     LP1B     LPD     -0.230000        0.0000           -1   0.00000   0.00000
     17863 MEOH     373      MEOH     C1       CD33B    2.314100       11.6110           0   -1.00000   1.30000
     17864 MEOH     373      MEOH     DC1      DRUD    -2.454100        0.4000           0   0.00000   0.00000
     17865 MEOH     373      MEOH     O1       OD31H    2.488300       15.5990           0   -1.02800   1.30000
     17866 MEOH     373      MEOH     DO1      DRUD    -2.488300        0.4000           0   0.00000   0.00000
     17867 MEOH     373      MEOH     HO1      HDP1A    0.360000        1.0080           0   0.00000   0.00000
     17868 MEOH     373      MEOH     HO2      DUMH     0.000000        1.0080           0   0.00000   0.00000
     17869 MEOH     373      MEOH     H1A      HDA3B    0.080000        1.0080           0   0.00000   0.00000
     17870 MEOH     373      MEOH     H1B      HDA3B    0.080000        1.0080           0   0.00000   0.00000
     17871 MEOH     373      MEOH     H1C      HDA3B    0.080000        1.0080           0   0.00000   0.00000
     17872 MEOH     373      MEOH     LP1A     LPD     -0.230000        0.0000           -1   0.00000   0.00000
     17873 MEOH     373      MEOH     LP1B     LPD     -0.230000        0.0000           -1   0.00000   0.00000
     17874 MEOH     374      MEOH     C1       CD33B    2.314100       11.6110           0   -1.00000   1.30000
     17875 MEOH     374      MEOH     DC1      DRUD    -2.454100        0.4000           0   0.00000   0.00000
     17876 MEOH     374      MEOH     O1       OD31H    2.488300       15.5990           0   -1.02800   1.30000
     17877 MEOH     374      MEOH     DO1      DRUD    -2.488300        0.4000           0   0.00000   0.00000
     17878 MEOH     374      MEOH     HO1      HDP1A    0.360000        1.0080           0   0.00000   0.00000
     17879 MEOH     374      MEOH     HO2      DUMH     0.000000        1.0080           0   0.00000   0.00000
     17880 MEOH     374      MEOH     H1A      HDA3B    0.080000        1.0080           0   0.00000   0.00000
     17881 MEOH     374      MEOH     H1B      HDA3B    0.080000        1.0080           0   0.00000   0.00000
     17882 MEOH     374      MEOH     H1C      HDA3B    0.080000        1.0080           0   0.00000   0.00000
     17883 MEOH     374      MEOH     LP1A     LPD     -0.230000        0.0000           -1   0.00000   0.00000
     17884 MEOH     374      MEOH     LP1B     LPD     -0.230000        0.0000           -1   0.00000   0.00000
     17885 MEOH     375      MEOH     C1       CD33B    2.314100       11.6110           0   -1.00000   1.30000
     17886 MEOH     375      MEOH     DC1      DRUD    -2.454100        0.4000           0   0.00000   0.00000
     17887 MEOH     375      MEOH     O1       OD31H    2.488300       15.5990           0   -1.02800   1.30000
     17888 MEOH     375      MEOH     DO1      DRUD    -2.488300        0.4000           0   0.00000   0.00000
     17889 MEOH     375      MEOH     HO1      HDP1A    0.360000        1.0080           0   0.00000   0.00000
     17890 MEOH     375      MEOH     HO2      DUMH     0.000000        1.0080           0   0.00000   0.00000
     17891 MEOH     375      MEOH     H1A      HDA3B    0.080000        1.0080           0   0.00000   0.00000
     17892 MEOH     375      MEOH     H1B      HDA3B    0.080000        1.0080           0   0.00000   0.00000
     17893 MEOH     375      MEOH     H1C      HDA3B    0.080000        1.0080           0   0.00000   0.00000
     17894 MEOH     375      MEOH     LP1A     LPD     -0.230000        0.0000           -1   0.00000   0.00000
     17895 MEOH     375      MEOH     LP1B     LPD     -0.230000        0.0000           -1   0.00000   0.00000
     17896 MEOH     376      MEOH     C1       CD33B    2.314100       11.6110           0   -1.00000   1.30000
     17897 MEOH     376      MEOH     DC1      DRUD    -2.454100        0.4000           0   0.00000   0.00000
     17898 MEOH     376      MEOH     O1       OD31H    2.488300       15.5990           0   -1.02800   1.30000
     17899 MEOH     376      MEOH     DO1      DRUD    -2.488300        0.4000           0   0.00000   0.00000
     17900 MEOH     376      MEOH     HO1      HDP1A    0.360000        1.0080           0   0.00000   0.00000
     17901 MEOH     376      MEOH     HO2      DUMH     0.000000        1.0080           0   0.00000   0.00000
     17902 MEOH     376      MEOH     H1A      HDA3B    0.080000        1.0080           0   0.00000   0.00000
     17903 MEOH     376      MEOH     H1B      HDA3B    0.080000        1.0080           0   0.00000   0.00000
     17904 MEOH     376      MEOH     H1C      HDA3B    0.080000        1.0080           0   0.00000   0.00000
     17905 MEOH     376      MEOH     LP1A     LPD     -0.230000        0.0000           -1   0.00000   0.00000
     17906 MEOH     376      MEOH     LP1B     LPD     -0.230000        0.0000           -1   0.00000   0.00000
     17907 MEOH     377      MEOH     C1       CD33B    2.314100       11.6110           0   -1.00000   1.30000
     17908 MEOH     377      MEOH     DC1      DRUD    -2.454100        0.4000           0   0.00000   0.00000
     17909 MEOH     377      MEOH     O1       OD31H    2.488300       15.5990           0   -1.02800   1.30000
     17910 MEOH     377      MEOH     DO1      DRUD    -2.488300        0.4000           0   0.00000   0.00000
     17911 MEOH     377      MEOH     HO1      HDP1A    0.360000        1.0080           0   0.00000   0.00000
     17912 MEOH     377      MEOH     HO2      DUMH     0.000000        1.0080           0   0.00000   0.00000
     17913 MEOH     377      MEOH     H1A      HDA3B    0.080000        1.0080           0   0.00000   0.00000
     17914 MEOH     377      MEOH     H1B      HDA3B    0.080000        1.0080           0   0.00000   0.00000
     17915 MEOH     377      MEOH     H1C      HDA3B    0.080000        1.0080           0   0.00000   0.00000
     17916 MEOH     377      MEOH     LP1A     LPD     -0.230000        0.0000           -1   0.00000   0.00000
     17917 MEOH     377      MEOH     LP1B     LPD     -0.230000        0.0000           -1   0.00000   0.00000
     17918 MEOH     378      MEOH     C1       CD33B    2.314100       11.6110           0   -1.00000   1.30000
     17919 MEOH     378      MEOH     DC1      DRUD    -2.454100        0.4000           0   0.00000   0.00000
     17920 MEOH     378      MEOH     O1       OD31H    2.488300       15.5990           0   -1.02800   1.30000
     17921 MEOH     378      MEOH     DO1      DRUD    -2.488300        0.4000           0   0.00000   0.00000
     17922 MEOH     378      MEOH     HO1      HDP1A    0.360000        1.0080           0   0.00000   0.00000
     17923 MEOH     378      MEOH     HO2      DUMH     0.000000        1.0080           0   0.00000   0.00000
     17924 MEOH     378      MEOH     H1A      HDA3B    0.080000        1.0080           0   0.00000   0.00000
     17925 MEOH     378      MEOH     H1B      HDA3B    0.080000        1.0080           0   0.00000   0.00000
     17926 MEOH     378      MEOH     H1C      HDA3B    0.080000        1.0080           0   0.00000   0.00000
     17927 MEOH     378      MEOH     LP1A     LPD     -0.230000        0.0000           -1   0.00000   0.00000
     17928 MEOH     378      MEOH     LP1B     LPD     -0.230000        0.0000           -1   0.00000   0.00000
     17929 MEOH     379      MEOH     C1       CD33B    2.314100       11.6110           0   -1.00000   1.30000
     17930 MEOH     379      MEOH     DC1      DRUD    -2.454100        0.4000           0   0.00000   0.00000
     17931 MEOH     379      MEOH     O1       OD31H    2.488300       15.5990           0   -1.02800   1.30000
     17932 MEOH     379      MEOH     DO1      DRUD    -2.488300        0.4000           0   0.00000   0.00000
     17933 MEOH     379      MEOH     HO1      HDP1A    0.360000        1.0080           0   0.00000   0.00000
     17934 MEOH     379      MEOH     HO2      DUMH     0.000000        1.0080           0   0.00000   0.00000
     17935 MEOH     379      MEOH     H1A      HDA3B    0.080000        1.0080           0   0.00000   0.00000
     17936 MEOH     379      MEOH     H1B      HDA3B    0.080000        1.0080           0   0.00000   0.00000
     17937 MEOH     379      MEOH     H1C      HDA3B    0.080000        1.0080           0   0.00000   0.00000
     17938 MEOH     379      MEOH     LP1A     LPD     -0.230000        0.0000           -1   0.00000   0.00000
     17939 MEOH     379      MEOH     LP1B     LPD     -0.230000        0.0000           -1   0.00000   0.00000
     17940 MEOH     380      MEOH     C1       CD33B    2.314100       11.6110           0   -1.00000   1.30000
     17941 MEOH     380      MEOH     DC1      DRUD    -2.454100        0.4000           0   0.00000   0.00000
     17942 MEOH     380      MEOH     O1       OD31H    2.488300       15.5990           0   -1.02800   1.30000
     17943 MEOH     380      MEOH     DO1      DRUD    -2.488300        0.4000           0   0.00000   0.00000
     17944 MEOH     380      MEOH     HO1      HDP1A    0.360000        1.0080           0   0.00000   0.00000
     17945 MEOH     380      MEOH     HO2      DUMH     0.000000        1.0080           0   0.00000   0.00000
     17946 MEOH     380      MEOH     H1A      HDA3B    0.080000        1.0080           0   0.00000   0.00000
     17947 MEOH     380      MEOH     H1B      HDA3B    0.080000        1.0080           0   0.00000   0.00000
     17948 MEOH     380      MEOH     H1C      HDA3B    0.080000        1.0080           0   0.00000   0.00000
     17949 MEOH     380      MEOH     LP1A     LPD     -0.230000        0.0000           -1   0.00000   0.00000
     17950 MEOH     380      MEOH     LP1B     LPD     -0.230000        0.0000           -1   0.00000   0.00000
     17951 MEOH     381      MEOH     C1       CD33B    2.314100       11.6110           0   -1.00000   1.30000
     17952 MEOH     381      MEOH     DC1      DRUD    -2.454100        0.4000           0   0.00000   0.00000
     17953 MEOH     381      MEOH     O1       OD31H    2.488300       15.5990           0   -1.02800   1.30000
     17954 MEOH     381      MEOH     DO1      DRUD    -2.488300        0.4000           0   0.00000   0.00000
     17955 MEOH     381      MEOH     HO1      HDP1A    0.360000        1.0080           0   0.00000   0.00000
     17956 MEOH     381      MEOH     HO2      DUMH     0.000000        1.0080           0   0.00000   0.00000
     17957 MEOH     381      MEOH     H1A      HDA3B    0.080000        1.0080           0   0.00000   0.00000
     17958 MEOH     381      MEOH     H1B      HDA3B    0.080000        1.0080           0   0.00000   0.00000
     17959 MEOH     381      MEOH     H1C      HDA3B    0.080000        1.0080           0   0.00000   0.00000
     17960 MEOH     381      MEOH     LP1A     LPD     -0.230000        0.0000           -1   0.00000   0.00000
     17961 MEOH     381      MEOH     LP1B     LPD     -0.230000        0.0000           -1   0.00000   0.00000
     17962 MEOH     382      MEOH     C1       CD33B    2.314100       11.6110           0   -1.00000   1.30000
     17963 MEOH     382      MEOH     DC1      DRUD    -2.454100        0.4000           0   0.00000   0.00000
     17964 MEOH     382      MEOH     O1       OD31H    2.488300       15.5990           0   -1.02800   1.30000
     17965 MEOH     382      MEOH     DO1      DRUD    -2.488300        0.4000           0   0.00000   0.00000
     17966 MEOH     382      MEOH     HO1      HDP1A    0.360000        1.0080           0   0.00000   0.00000
     17967 MEOH     382      MEOH     HO2      DUMH     0.000000        1.0080           0   0.00000   0.00000
     17968 MEOH     382      MEOH     H1A      HDA3B    0.080000        1.0080           0   0.00000   0.00000
     17969 MEOH     382      MEOH     H1B      HDA3B    0.080000        1.0080           0   0.00000   0.00000
     17970 MEOH     382      MEOH     H1C      HDA3B    0.080000        1.0080           0   0.00000   0.00000
     17971 MEOH     382      MEOH     LP1A     LPD     -0.230000        0.0000           -1   0.00000   0.00000
     17972 MEOH     382      MEOH     LP1B     LPD     -0.230000        0.0000           -1   0.00000   0.00000
     17973 MEOH     383      MEOH     C1       CD33B    2.314100       11.6110           0   -1.00000   1.30000
     17974 MEOH     383      MEOH     DC1      DRUD    -2.454100        0.4000           0   0.00000   0.00000
     17975 MEOH     383      MEOH     O1       OD31H    2.488300       15.5990           0   -1.02800   1.30000
     17976 MEOH     383      MEOH     DO1      DRUD    -2.488300        0.4000           0   0.00000   0.00000
     17977 MEOH     383      MEOH     HO1      HDP1A    0.360000        1.0080           0   0.00000   0.00000
     17978 MEOH     383      MEOH     HO2      DUMH     0.000000        1.0080           0   0.00000   0.00000
     17979 MEOH     383      MEOH     H1A      HDA3B    0.080000        1.0080           0   0.00000   0.00000
     17980 MEOH     383      MEOH     H1B      HDA3B    0.080000        1.0080           0   0.00000   0.00000
     17981 MEOH     383      MEOH     H1C      HDA3B    0.080000        1.0080           0   0.00000   0.00000
     17982 MEOH     383      MEOH     LP1A     LPD     -0.230000        0.0000           -1   0.00000   0.00000
     17983 MEOH     383      MEOH     LP1B     LPD     -0.230000        0.0000           -1   0.00000   0.00000
     17984 MEOH     384      MEOH     C1       CD33B    2.314100       11.6110           0   -1.00000   1.30000
     17985 MEOH     384      MEOH     DC1      DRUD    -2.454100        0.4000           0   0.00000   0.00000
     17986 MEOH     384      MEOH     O1       OD31H    2.488300       15.5990           0   -1.02800   1.30000
     17987 MEOH     384      MEOH     DO1      DRUD    -2.488300        0.4000           0   0.00000   0.00000
     17988 MEOH     384      MEOH     HO1      HDP1A    0.360000        1.0080           0   0.00000   0.00000
     17989 MEOH     384      MEOH     HO2      DUMH     0.000000        1.0080           0   0.00000   0.00000
     17990 MEOH     384      MEOH     H1A      HDA3B    0.080000        1.0080           0   0.00000   0.00000
     17991 MEOH     384      MEOH     H1B      HDA3B    0.080000        1.0080           0   0.00000   0.00000
     17992 MEOH     384      MEOH     H1C      HDA3B    0.080000        1.0080           0   0.00000   0.00000
     17993 MEOH     384      MEOH     LP1A     LPD     -0.230000        0.0000           -1   0.00000   0.00000
     17994 MEOH     384      MEOH     LP1B     LPD     -0.230000        0.0000           -1   0.00000   0.00000
     17995 MEOH     385      MEOH     C1       CD33B    2.314100       11.6110           0   -1.00000   1.30000
     17996 MEOH     385      MEOH     DC1      DRUD    -2.454100        0.4000           0   0.00000   0.00000
     17997 MEOH     385      MEOH     O1       OD31H    2.488300       15.5990           0   -1.02800   1.30000
     17998 MEOH     385      MEOH     DO1      DRUD    -2.488300        0.4000           0   0.00000   0.00000
     17999 MEOH     385      MEOH     HO1      HDP1A    0.360000        1.0080           0   0.00000   0.00000
     18000 MEOH     385      MEOH     HO2      DUMH     0.000000        1.0080           0   0.00000   0.00000
     18001 MEOH     385      MEOH     H1A      HDA3B    0.080000        1.0080           0   0.00000   0.00000
     18002 MEOH     385      MEOH     H1B      HDA3B    0.080000        1.0080           0   0.00000   0.00000
     18003 MEOH     385      MEOH     H1C      HDA3B    0.080000        1.0080           0   0.00000   0.00000
     18004 MEOH     385      MEOH     LP1A     LPD     -0.230000        0.0000           -1   0.00000   0.00000
     18005 MEOH     385      MEOH     LP1B     LPD     -0.230000        0.0000           -1   0.00000   0.00000
     18006 MEOH     386      MEOH     C1       CD33B    2.314100       11.6110           0   -1.00000   1.30000
     18007 MEOH     386      MEOH     DC1      DRUD    -2.454100        0.4000           0   0.00000   0.00000
     18008 MEOH     386      MEOH     O1       OD31H    2.488300       15.5990           0   -1.02800   1.30000
     18009 MEOH     386      MEOH     DO1      DRUD    -2.488300        0.4000           0   0.00000   0.00000
     18010 MEOH     386      MEOH     HO1      HDP1A    0.360000        1.0080           0   0.00000   0.00000
     18011 MEOH     386      MEOH     HO2      DUMH     0.000000        1.0080           0   0.00000   0.00000
     18012 MEOH     386      MEOH     H1A      HDA3B    0.080000        1.0080           0   0.00000   0.00000
     18013 MEOH     386      MEOH     H1B      HDA3B    0.080000        1.0080           0   0.00000   0.00000
     18014 MEOH     386      MEOH     H1C      HDA3B    0.080000        1.0080           0   0.00000   0.00000
     18015 MEOH     386      MEOH     LP1A     LPD     -0.230000        0.0000           -1   0.00000   0.00000
     18016 MEOH     386      MEOH     LP1B     LPD     -0.230000        0.0000           -1   0.00000   0.00000
     18017 MEOH     387      MEOH     C1       CD33B    2.314100       11.6110           0   -1.00000   1.30000
     18018 MEOH     387      MEOH     DC1      DRUD    -2.454100        0.4000           0   0.00000   0.00000
     18019 MEOH     387      MEOH     O1       OD31H    2.488300       15.5990           0   -1.02800   1.30000
     18020 MEOH     387      MEOH     DO1      DRUD    -2.488300        0.4000           0   0.00000   0.00000
     18021 MEOH     387      MEOH     HO1      HDP1A    0.360000        1.0080           0   0.00000   0.00000
     18022 MEOH     387      MEOH     HO2      DUMH     0.000000        1.0080           0   0.00000   0.00000
     18023 MEOH     387      MEOH     H1A      HDA3B    0.080000        1.0080           0   0.00000   0.00000
     18024 MEOH     387      MEOH     H1B      HDA3B    0.080000        1.0080           0   0.00000   0.00000
     18025 MEOH     387      MEOH     H1C      HDA3B    0.080000        1.0080           0   0.00000   0.00000
     18026 MEOH     387      MEOH     LP1A     LPD     -0.230000        0.0000           -1   0.00000   0.00000
     18027 MEOH     387      MEOH     LP1B     LPD     -0.230000        0.0000           -1   0.00000   0.00000
     18028 MEOH     388      MEOH     C1       CD33B    2.314100       11.6110           0   -1.00000   1.30000
     18029 MEOH     388      MEOH     DC1      DRUD    -2.454100        0.4000           0   0.00000   0.00000
     18030 MEOH     388      MEOH     O1       OD31H    2.488300       15.5990           0   -1.02800   1.30000
     18031 MEOH     388      MEOH     DO1      DRUD    -2.488300        0.4000           0   0.00000   0.00000
     18032 MEOH     388      MEOH     HO1      HDP1A    0.360000        1.0080           0   0.00000   0.00000
     18033 MEOH     388      MEOH     HO2      DUMH     0.000000        1.0080           0   0.00000   0.00000
     18034 MEOH     388      MEOH     H1A      HDA3B    0.080000        1.0080           0   0.00000   0.00000
     18035 MEOH     388      MEOH     H1B      HDA3B    0.080000        1.0080           0   0.00000   0.00000
     18036 MEOH     388      MEOH     H1C      HDA3B    0.080000        1.0080           0   0.00000   0.00000
     18037 MEOH     388      MEOH     LP1A     LPD     -0.230000        0.0000           -1   0.00000   0.00000
     18038 MEOH     388      MEOH     LP1B     LPD     -0.230000        0.0000           -1   0.00000   0.00000
     18039 MEOH     389      MEOH     C1       CD33B    2.314100       11.6110           0   -1.00000   1.30000
     18040 MEOH     389      MEOH     DC1      DRUD    -2.454100        0.4000           0   0.00000   0.00000
     18041 MEOH     389      MEOH     O1       OD31H    2.488300       15.5990           0   -1.02800   1.30000
     18042 MEOH     389      MEOH     DO1      DRUD    -2.488300        0.4000           0   0.00000   0.00000
     18043 MEOH     389      MEOH     HO1      HDP1A    0.360000        1.0080           0   0.00000   0.00000
     18044 MEOH     389      MEOH     HO2      DUMH     0.000000        1.0080           0   0.00000   0.00000
     18045 MEOH     389      MEOH     H1A      HDA3B    0.080000        1.0080           0   0.00000   0.00000
     18046 MEOH     389      MEOH     H1B      HDA3B    0.080000        1.0080           0   0.00000   0.00000
     18047 MEOH     389      MEOH     H1C      HDA3B    0.080000        1.0080           0   0.00000   0.00000
     18048 MEOH     389      MEOH     LP1A     LPD     -0.230000        0.0000           -1   0.00000   0.00000
     18049 MEOH     389      MEOH     LP1B     LPD     -0.230000        0.0000           -1   0.00000   0.00000
     18050 MEOH     390      MEOH     C1       CD33B    2.314100       11.6110           0   -1.00000   1.30000
     18051 MEOH     390      MEOH     DC1      DRUD    -2.454100        0.4000           0   0.00000   0.00000
     18052 MEOH     390      MEOH     O1       OD31H    2.488300       15.5990           0   -1.02800   1.30000
     18053 MEOH     390      MEOH     DO1      DRUD    -2.488300        0.4000           0   0.00000   0.00000
     18054 MEOH     390      MEOH     HO1      HDP1A    0.360000        1.0080           0   0.00000   0.00000
     18055 MEOH     390      MEOH     HO2      DUMH     0.000000        1.0080           0   0.00000   0.00000
     18056 MEOH     390      MEOH     H1A      HDA3B    0.080000        1.0080           0   0.00000   0.00000
     18057 MEOH     390      MEOH     H1B      HDA3B    0.080000        1.0080           0   0.00000   0.00000
     18058 MEOH     390      MEOH     H1C      HDA3B    0.080000        1.0080           0   0.00000   0.00000
     18059 MEOH     390      MEOH     LP1A     LPD     -0.230000        0.0000           -1   0.00000   0.00000
     18060 MEOH     390      MEOH     LP1B     LPD     -0.230000        0.0000           -1   0.00000   0.00000
     18061 MEOH     391      MEOH     C1       CD33B    2.314100       11.6110           0   -1.00000   1.30000
     18062 MEOH     391      MEOH     DC1      DRUD    -2.454100        0.4000           0   0.00000   0.00000
     18063 MEOH     391      MEOH     O1       OD31H    2.488300       15.5990           0   -1.02800   1.30000
     18064 MEOH     391      MEOH     DO1      DRUD    -2.488300        0.4000           0   0.00000   0.00000
     18065 MEOH     391      MEOH     HO1      HDP1A    0.360000        1.0080           0   0.00000   0.00000
     18066 MEOH     391      MEOH     HO2      DUMH     0.000000        1.0080           0   0.00000   0.00000
     18067 MEOH     391      MEOH     H1A      HDA3B    0.080000        1.0080           0   0.00000   0.00000
     18068 MEOH     391      MEOH     H1B      HDA3B    0.080000        1.0080           0   0.00000   0.00000
     18069 MEOH     391      MEOH     H1C      HDA3B    0.080000        1.0080           0   0.00000   0.00000
     18070 MEOH     391      MEOH     LP1A     LPD     -0.230000        0.0000           -1   0.00000   0.00000
     18071 MEOH     391      MEOH     LP1B     LPD     -0.230000        0.0000           -1   0.00000   0.00000
     18072 MEOH     392      MEOH     C1       CD33B    2.314100       11.6110           0   -1.00000   1.30000
     18073 MEOH     392      MEOH     DC1      DRUD    -2.454100        0.4000           0   0.00000   0.00000
     18074 MEOH     392      MEOH     O1       OD31H    2.488300       15.5990           0   -1.02800   1.30000
     18075 MEOH     392      MEOH     DO1      DRUD    -2.488300        0.4000           0   0.00000   0.00000
     18076 MEOH     392      MEOH     HO1      HDP1A    0.360000        1.0080           0   0.00000   0.00000
     18077 MEOH     392      MEOH     HO2      DUMH     0.000000        1.0080           0   0.00000   0.00000
     18078 MEOH     392      MEOH     H1A      HDA3B    0.080000        1.0080           0   0.00000   0.00000
     18079 MEOH     392      MEOH     H1B      HDA3B    0.080000        1.0080           0   0.00000   0.00000
     18080 MEOH     392      MEOH     H1C      HDA3B    0.080000        1.0080           0   0.00000   0.00000
     18081 MEOH     392      MEOH     LP1A     LPD     -0.230000        0.0000           -1   0.00000   0.00000
     18082 MEOH     392      MEOH     LP1B     LPD     -0.230000        0.0000           -1   0.00000   0.00000
     18083 MEOH     393      MEOH     C1       CD33B    2.314100       11.6110           0   -1.00000   1.30000
     18084 MEOH     393      MEOH     DC1      DRUD    -2.454100        0.4000           0   0.00000   0.00000
     18085 MEOH     393      MEOH     O1       OD31H    2.488300       15.5990           0   -1.02800   1.30000
     18086 MEOH     393      MEOH     DO1      DRUD    -2.488300        0.4000           0   0.00000   0.00000
     18087 MEOH     393      MEOH     HO1      HDP1A    0.360000        1.0080           0   0.00000   0.00000
     18088 MEOH     393      MEOH     HO2      DUMH     0.000000        1.0080           0   0.00000   0.00000
     18089 MEOH     393      MEOH     H1A      HDA3B    0.080000        1.0080           0   0.00000   0.00000
     18090 MEOH     393      MEOH     H1B      HDA3B    0.080000        1.0080           0   0.00000   0.00000
     18091 MEOH     393      MEOH     H1C      HDA3B    0.080000        1.0080           0   0.00000   0.00000
     18092 MEOH     393      MEOH     LP1A     LPD     -0.230000        0.0000           -1   0.00000   0.00000
     18093 MEOH     393      MEOH     LP1B     LPD     -0.230000        0.0000           -1   0.00000   0.00000
     18094 MEOH     394      MEOH     C1       CD33B    2.314100       11.6110           0   -1.00000   1.30000
     18095 MEOH     394      MEOH     DC1      DRUD    -2.454100        0.4000           0   0.00000   0.00000
     18096 MEOH     394      MEOH     O1       OD31H    2.488300       15.5990           0   -1.02800   1.30000
     18097 MEOH     394      MEOH     DO1      DRUD    -2.488300        0.4000           0   0.00000   0.00000
     18098 MEOH     394      MEOH     HO1      HDP1A    0.360000        1.0080           0   0.00000   0.00000
     18099 MEOH     394      MEOH     HO2      DUMH     0.000000        1.0080           0   0.00000   0.00000
     18100 MEOH     394      MEOH     H1A      HDA3B    0.080000        1.0080           0   0.00000   0.00000
     18101 MEOH     394      MEOH     H1B      HDA3B    0.080000        1.0080           0   0.00000   0.00000
     18102 MEOH     394      MEOH     H1C      HDA3B    0.080000        1.0080           0   0.00000   0.00000
     18103 MEOH     394      MEOH     LP1A     LPD     -0.230000        0.0000           -1   0.00000   0.00000
     18104 MEOH     394      MEOH     LP1B     LPD     -0.230000        0.0000           -1   0.00000   0.00000
     18105 MEOH     395      MEOH     C1       CD33B    2.314100       11.6110           0   -1.00000   1.30000
     18106 MEOH     395      MEOH     DC1      DRUD    -2.454100        0.4000           0   0.00000   0.00000
     18107 MEOH     395      MEOH     O1       OD31H    2.488300       15.5990           0   -1.02800   1.30000
     18108 MEOH     395      MEOH     DO1      DRUD    -2.488300        0.4000           0   0.00000   0.00000
     18109 MEOH     395      MEOH     HO1      HDP1A    0.360000        1.0080           0   0.00000   0.00000
     18110 MEOH     395      MEOH     HO2      DUMH     0.000000        1.0080           0   0.00000   0.00000
     18111 MEOH     395      MEOH     H1A      HDA3B    0.080000        1.0080           0   0.00000   0.00000
     18112 MEOH     395      MEOH     H1B      HDA3B    0.080000        1.0080           0   0.00000   0.00000
     18113 MEOH     395      MEOH     H1C      HDA3B    0.080000        1.0080           0   0.00000   0.00000
     18114 MEOH     395      MEOH     LP1A     LPD     -0.230000        0.0000           -1   0.00000   0.00000
     18115 MEOH     395      MEOH     LP1B     LPD     -0.230000        0.0000           -1   0.00000   0.00000
     18116 MEOH     396      MEOH     C1       CD33B    2.314100       11.6110           0   -1.00000   1.30000
     18117 MEOH     396      MEOH     DC1      DRUD    -2.454100        0.4000           0   0.00000   0.00000
     18118 MEOH     396      MEOH     O1       OD31H    2.488300       15.5990           0   -1.02800   1.30000
     18119 MEOH     396      MEOH     DO1      DRUD    -2.488300        0.4000           0   0.00000   0.00000
     18120 MEOH     396      MEOH     HO1      HDP1A    0.360000        1.0080           0   0.00000   0.00000
     18121 MEOH     396      MEOH     HO2      DUMH     0.000000        1.0080           0   0.00000   0.00000
     18122 MEOH     396      MEOH     H1A      HDA3B    0.080000        1.0080           0   0.00000   0.00000
     18123 MEOH     396      MEOH     H1B      HDA3B    0.080000        1.0080           0   0.00000   0.00000
     18124 MEOH     396      MEOH     H1C      HDA3B    0.080000        1.0080           0   0.00000   0.00000
     18125 MEOH     396      MEOH     LP1A     LPD     -0.230000        0.0000           -1   0.00000   0.00000
     18126 MEOH     396      MEOH     LP1B     LPD     -0.230000        0.0000           -1   0.00000   0.00000
     18127 MEOH     397      MEOH     C1       CD33B    2.314100       11.6110           0   -1.00000   1.30000
     18128 MEOH     397      MEOH     DC1      DRUD    -2.454100        0.4000           0   0.00000   0.00000
     18129 MEOH     397      MEOH     O1       OD31H    2.488300       15.5990           0   -1.02800   1.30000
     18130 MEOH     397      MEOH     DO1      DRUD    -2.488300        0.4000           0   0.00000   0.00000
     18131 MEOH     397      MEOH     HO1      HDP1A    0.360000        1.0080           0   0.00000   0.00000
     18132 MEOH     397      MEOH     HO2      DUMH     0.000000        1.0080           0   0.00000   0.00000
     18133 MEOH     397      MEOH     H1A      HDA3B    0.080000        1.0080           0   0.00000   0.00000
     18134 MEOH     397      MEOH     H1B      HDA3B    0.080000        1.0080           0   0.00000   0.00000
     18135 MEOH     397      MEOH     H1C      HDA3B    0.080000        1.0080           0   0.00000   0.00000
     18136 MEOH     397      MEOH     LP1A     LPD     -0.230000        0.0000           -1   0.00000   0.00000
     18137 MEOH     397      MEOH     LP1B     LPD     -0.230000        0.0000           -1   0.00000   0.00000
     18138 MEOH     398      MEOH     C1       CD33B    2.314100       11.6110           0   -1.00000   1.30000
     18139 MEOH     398      MEOH     DC1      DRUD    -2.454100        0.4000           0   0.00000   0.00000
     18140 MEOH     398      MEOH     O1       OD31H    2.488300       15.5990           0   -1.02800   1.30000
     18141 MEOH     398      MEOH     DO1      DRUD    -2.488300        0.4000           0   0.00000   0.00000
     18142 MEOH     398      MEOH     HO1      HDP1A    0.360000        1.0080           0   0.00000   0.00000
     18143 MEOH     398      MEOH     HO2      DUMH     0.000000        1.0080           0   0.00000   0.00000
     18144 MEOH     398      MEOH     H1A      HDA3B    0.080000        1.0080           0   0.00000   0.00000
     18145 MEOH     398      MEOH     H1B      HDA3B    0.080000        1.0080           0   0.00000   0.00000
     18146 MEOH     398      MEOH     H1C      HDA3B    0.080000        1.0080           0   0.00000   0.00000
     18147 MEOH     398      MEOH     LP1A     LPD     -0.230000        0.0000           -1   0.00000   0.00000
     18148 MEOH     398      MEOH     LP1B     LPD     -0.230000        0.0000           -1   0.00000   0.00000
     18149 MEOH     399      MEOH     C1       CD33B    2.314100       11.6110           0   -1.00000   1.30000
     18150 MEOH     399      MEOH     DC1      DRUD    -2.454100        0.4000           0   0.00000   0.00000
     18151 MEOH     399      MEOH     O1       OD31H    2.488300       15.5990           0   -1.02800   1.30000
     18152 MEOH     399      MEOH     DO1      DRUD    -2.488300        0.4000           0   0.00000   0.00000
     18153 MEOH     399      MEOH     HO1      HDP1A    0.360000        1.0080           0   0.00000   0.00000
     18154 MEOH     399      MEOH     HO2      DUMH     0.000000        1.0080           0   0.00000   0.00000
     18155 MEOH     399      MEOH     H1A      HDA3B    0.080000        1.0080           0   0.00000   0.00000
     18156 MEOH     399      MEOH     H1B      HDA3B    0.080000        1.0080           0   0.00000   0.00000
     18157 MEOH     399      MEOH     H1C      HDA3B    0.080000        1.0080           0   0.00000   0.00000
     18158 MEOH     399      MEOH     LP1A     LPD     -0.230000        0.0000           -1   0.00000   0.00000
     18159 MEOH     399      MEOH     LP1B     LPD     -0.230000        0.0000           -1   0.00000   0.00000
     18160 MEOH     400      MEOH     C1       CD33B    2.314100       11.6110           0   -1.00000   1.30000
     18161 MEOH     400      MEOH     DC1      DRUD    -2.454100        0.4000           0   0.00000   0.00000
     18162 MEOH     400      MEOH     O1       OD31H    2.488300       15.5990           0   -1.02800   1.30000
     18163 MEOH     400      MEOH     DO1      DRUD    -2.488300        0.4000           0   0.00000   0.00000
     18164 MEOH     400      MEOH     HO1      HDP1A    0.360000        1.0080           0   0.00000   0.00000
     18165 MEOH     400      MEOH     HO2      DUMH     0.000000        1.0080           0   0.00000   0.00000
     18166 MEOH     400      MEOH     H1A      HDA3B    0.080000        1.0080           0   0.00000   0.00000
     18167 MEOH     400      MEOH     H1B      HDA3B    0.080000        1.0080           0   0.00000   0.00000
     18168 MEOH     400      MEOH     H1C      HDA3B    0.080000        1.0080           0   0.00000   0.00000
     18169 MEOH     400      MEOH     LP1A     LPD     -0.230000        0.0000           -1   0.00000   0.00000
     18170 MEOH     400      MEOH     LP1B     LPD     -0.230000        0.0000           -1   0.00000   0.00000
     18171 MEOH     401      MEOH     C1       CD33B    2.314100       11.6110           0   -1.00000   1.30000
     18172 MEOH     401      MEOH     DC1      DRUD    -2.454100        0.4000           0   0.00000   0.00000
     18173 MEOH     401      MEOH     O1       OD31H    2.488300       15.5990           0   -1.02800   1.30000
     18174 MEOH     401      MEOH     DO1      DRUD    -2.488300        0.4000           0   0.00000   0.00000
     18175 MEOH     401      MEOH     HO1      HDP1A    0.360000        1.0080           0   0.00000   0.00000
     18176 MEOH     401      MEOH     HO2      DUMH     0.000000        1.0080           0   0.00000   0.00000
     18177 MEOH     401      MEOH     H1A      HDA3B    0.080000        1.0080           0   0.00000   0.00000
     18178 MEOH     401      MEOH     H1B      HDA3B    0.080000        1.0080           0   0.00000   0.00000
     18179 MEOH     401      MEOH     H1C      HDA3B    0.080000        1.0080           0   0.00000   0.00000
     18180 MEOH     401      MEOH     LP1A     LPD     -0.230000        0.0000           -1   0.00000   0.00000
     18181 MEOH     401      MEOH     LP1B     LPD     -0.230000        0.0000           -1   0.00000   0.00000
     18182 MEOH     402      MEOH     C1       CD33B    2.314100       11.6110           0   -1.00000   1.30000
     18183 MEOH     402      MEOH     DC1      DRUD    -2.454100        0.4000           0   0.00000   0.00000
     18184 MEOH     402      MEOH     O1       OD31H    2.488300       15.5990           0   -1.02800   1.30000
     18185 MEOH     402      MEOH     DO1      DRUD    -2.488300        0.4000           0   0.00000   0.00000
     18186 MEOH     402      MEOH     HO1      HDP1A    0.360000        1.0080           0   0.00000   0.00000
     18187 MEOH     402      MEOH     HO2      DUMH     0.000000        1.0080           0   0.00000   0.00000
     18188 MEOH     402      MEOH     H1A      HDA3B    0.080000        1.0080           0   0.00000   0.00000
     18189 MEOH     402      MEOH     H1B      HDA3B    0.080000        1.0080           0   0.00000   0.00000
     18190 MEOH     402      MEOH     H1C      HDA3B    0.080000        1.0080           0   0.00000   0.00000
     18191 MEOH     402      MEOH     LP1A     LPD     -0.230000        0.0000           -1   0.00000   0.00000
     18192 MEOH     402      MEOH     LP1B     LPD     -0.230000        0.0000           -1   0.00000   0.00000
     18193 MEOH     403      MEOH     C1       CD33B    2.314100       11.6110           0   -1.00000   1.30000
     18194 MEOH     403      MEOH     DC1      DRUD    -2.454100        0.4000           0   0.00000   0.00000
     18195 MEOH     403      MEOH     O1       OD31H    2.488300       15.5990           0   -1.02800   1.30000
     18196 MEOH     403      MEOH     DO1      DRUD    -2.488300        0.4000           0   0.00000   0.00000
     18197 MEOH     403      MEOH     HO1      HDP1A    0.360000        1.0080           0   0.00000   0.00000
     18198 MEOH     403      MEOH     HO2      DUMH     0.000000        1.0080           0   0.00000   0.00000
     18199 MEOH     403      MEOH     H1A      HDA3B    0.080000        1.0080           0   0.00000   0.00000
     18200 MEOH     403      MEOH     H1B      HDA3B    0.080000        1.0080           0   0.00000   0.00000
     18201 MEOH     403      MEOH     H1C      HDA3B    0.080000        1.0080           0   0.00000   0.00000
     18202 MEOH     403      MEOH     LP1A     LPD     -0.230000        0.0000           -1   0.00000   0.00000
     18203 MEOH     403      MEOH     LP1B     LPD     -0.230000        0.0000           -1   0.00000   0.00000
     18204 MEOH     404      MEOH     C1       CD33B    2.314100       11.6110           0   -1.00000   1.30000
     18205 MEOH     404      MEOH     DC1      DRUD    -2.454100        0.4000           0   0.00000   0.00000
     18206 MEOH     404      MEOH     O1       OD31H    2.488300       15.5990           0   -1.02800   1.30000
     18207 MEOH     404      MEOH     DO1      DRUD    -2.488300        0.4000           0   0.00000   0.00000
     18208 MEOH     404      MEOH     HO1      HDP1A    0.360000        1.0080           0   0.00000   0.00000
     18209 MEOH     404      MEOH     HO2      DUMH     0.000000        1.0080           0   0.00000   0.00000
     18210 MEOH     404      MEOH     H1A      HDA3B    0.080000        1.0080           0   0.00000   0.00000
     18211 MEOH     404      MEOH     H1B      HDA3B    0.080000        1.0080           0   0.00000   0.00000
     18212 MEOH     404      MEOH     H1C      HDA3B    0.080000        1.0080           0   0.00000   0.00000
     18213 MEOH     404      MEOH     LP1A     LPD     -0.230000        0.0000           -1   0.00000   0.00000
     18214 MEOH     404      MEOH     LP1B     LPD     -0.230000        0.0000           -1   0.00000   0.00000
     18215 MEOH     405      MEOH     C1       CD33B    2.314100       11.6110           0   -1.00000   1.30000
     18216 MEOH     405      MEOH     DC1      DRUD    -2.454100        0.4000           0   0.00000   0.00000
     18217 MEOH     405      MEOH     O1       OD31H    2.488300       15.5990           0   -1.02800   1.30000
     18218 MEOH     405      MEOH     DO1      DRUD    -2.488300        0.4000           0   0.00000   0.00000
     18219 MEOH     405      MEOH     HO1      HDP1A    0.360000        1.0080           0   0.00000   0.00000
     18220 MEOH     405      MEOH     HO2      DUMH     0.000000        1.0080           0   0.00000   0.00000
     18221 MEOH     405      MEOH     H1A      HDA3B    0.080000        1.0080           0   0.00000   0.00000
     18222 MEOH     405      MEOH     H1B      HDA3B    0.080000        1.0080           0   0.00000   0.00000
     18223 MEOH     405      MEOH     H1C      HDA3B    0.080000        1.0080           0   0.00000   0.00000
     18224 MEOH     405      MEOH     LP1A     LPD     -0.230000        0.0000           -1   0.00000   0.00000
     18225 MEOH     405      MEOH     LP1B     LPD     -0.230000        0.0000           -1   0.00000   0.00000
     18226 MEOH     406      MEOH     C1       CD33B    2.314100       11.6110           0   -1.00000   1.30000
     18227 MEOH     406      MEOH     DC1      DRUD    -2.454100        0.4000           0   0.00000   0.00000
     18228 MEOH     406      MEOH     O1       OD31H    2.488300       15.5990           0   -1.02800   1.30000
     18229 MEOH     406      MEOH     DO1      DRUD    -2.488300        0.4000           0   0.00000   0.00000
     18230 MEOH     406      MEOH     HO1      HDP1A    0.360000        1.0080           0   0.00000   0.00000
     18231 MEOH     406      MEOH     HO2      DUMH     0.000000        1.0080           0   0.00000   0.00000
     18232 MEOH     406      MEOH     H1A      HDA3B    0.080000        1.0080           0   0.00000   0.00000
     18233 MEOH     406      MEOH     H1B      HDA3B    0.080000        1.0080           0   0.00000   0.00000
     18234 MEOH     406      MEOH     H1C      HDA3B    0.080000        1.0080           0   0.00000   0.00000
     18235 MEOH     406      MEOH     LP1A     LPD     -0.230000        0.0000           -1   0.00000   0.00000
     18236 MEOH     406      MEOH     LP1B     LPD     -0.230000        0.0000           -1   0.00000   0.00000
     18237 MEOH     407      MEOH     C1       CD33B    2.314100       11.6110           0   -1.00000   1.30000
     18238 MEOH     407      MEOH     DC1      DRUD    -2.454100        0.4000           0   0.00000   0.00000
     18239 MEOH     407      MEOH     O1       OD31H    2.488300       15.5990           0   -1.02800   1.30000
     18240 MEOH     407      MEOH     DO1      DRUD    -2.488300        0.4000           0   0.00000   0.00000
     18241 MEOH     407      MEOH     HO1      HDP1A    0.360000        1.0080           0   0.00000   0.00000
     18242 MEOH     407      MEOH     HO2      DUMH     0.000000        1.0080           0   0.00000   0.00000
     18243 MEOH     407      MEOH     H1A      HDA3B    0.080000        1.0080           0   0.00000   0.00000
     18244 MEOH     407      MEOH     H1B      HDA3B    0.080000        1.0080           0   0.00000   0.00000
     18245 MEOH     407      MEOH     H1C      HDA3B    0.080000        1.0080           0   0.00000   0.00000
     18246 MEOH     407      MEOH     LP1A     LPD     -0.230000        0.0000           -1   0.00000   0.00000
     18247 MEOH     407      MEOH     LP1B     LPD     -0.230000        0.0000           -1   0.00000   0.00000
     18248 MEOH     408      MEOH     C1       CD33B    2.314100       11.6110           0   -1.00000   1.30000
     18249 MEOH     408      MEOH     DC1      DRUD    -2.454100        0.4000           0   0.00000   0.00000
     18250 MEOH     408      MEOH     O1       OD31H    2.488300       15.5990           0   -1.02800   1.30000
     18251 MEOH     408      MEOH     DO1      DRUD    -2.488300        0.4000           0   0.00000   0.00000
     18252 MEOH     408      MEOH     HO1      HDP1A    0.360000        1.0080           0   0.00000   0.00000
     18253 MEOH     408      MEOH     HO2      DUMH     0.000000        1.0080           0   0.00000   0.00000
     18254 MEOH     408      MEOH     H1A      HDA3B    0.080000        1.0080           0   0.00000   0.00000
     18255 MEOH     408      MEOH     H1B      HDA3B    0.080000        1.0080           0   0.00000   0.00000
     18256 MEOH     408      MEOH     H1C      HDA3B    0.080000        1.0080           0   0.00000   0.00000
     18257 MEOH     408      MEOH     LP1A     LPD     -0.230000        0.0000           -1   0.00000   0.00000
     18258 MEOH     408      MEOH     LP1B     LPD     -0.230000        0.0000           -1   0.00000   0.00000
     18259 MEOH     409      MEOH     C1       CD33B    2.314100       11.6110           0   -1.00000   1.30000
     18260 MEOH     409      MEOH     DC1      DRUD    -2.454100        0.4000           0   0.00000   0.00000
     18261 MEOH     409      MEOH     O1       OD31H    2.488300       15.5990           0   -1.02800   1.30000
     18262 MEOH     409      MEOH     DO1      DRUD    -2.488300        0.4000           0   0.00000   0.00000
     18263 MEOH     409      MEOH     HO1      HDP1A    0.360000        1.0080           0   0.00000   0.00000
     18264 MEOH     409      MEOH     HO2      DUMH     0.000000        1.0080           0   0.00000   0.00000
     18265 MEOH     409      MEOH     H1A      HDA3B    0.080000        1.0080           0   0.00000   0.00000
     18266 MEOH     409      MEOH     H1B      HDA3B    0.080000        1.0080           0   0.00000   0.00000
     18267 MEOH     409      MEOH     H1C      HDA3B    0.080000        1.0080           0   0.00000   0.00000
     18268 MEOH     409      MEOH     LP1A     LPD     -0.230000        0.0000           -1   0.00000   0.00000
     18269 MEOH     409      MEOH     LP1B     LPD     -0.230000        0.0000           -1   0.00000   0.00000
     18270 MEOH     410      MEOH     C1       CD33B    2.314100       11.6110           0   -1.00000   1.30000
     18271 MEOH     410      MEOH     DC1      DRUD    -2.454100        0.4000           0   0.00000   0.00000
     18272 MEOH     410      MEOH     O1       OD31H    2.488300       15.5990           0   -1.02800   1.30000
     18273 MEOH     410      MEOH     DO1      DRUD    -2.488300        0.4000           0   0.00000   0.00000
     18274 MEOH     410      MEOH     HO1      HDP1A    0.360000        1.0080           0   0.00000   0.00000
     18275 MEOH     410      MEOH     HO2      DUMH     0.000000        1.0080           0   0.00000   0.00000
     18276 MEOH     410      MEOH     H1A      HDA3B    0.080000        1.0080           0   0.00000   0.00000
     18277 MEOH     410      MEOH     H1B      HDA3B    0.080000        1.0080           0   0.00000   0.00000
     18278 MEOH     410      MEOH     H1C      HDA3B    0.080000        1.0080           0   0.00000   0.00000
     18279 MEOH     410      MEOH     LP1A     LPD     -0.230000        0.0000           -1   0.00000   0.00000
     18280 MEOH     410      MEOH     LP1B     LPD     -0.230000        0.0000           -1   0.00000   0.00000
     18281 MEOH     411      MEOH     C1       CD33B    2.314100       11.6110           0   -1.00000   1.30000
     18282 MEOH     411      MEOH     DC1      DRUD    -2.454100        0.4000           0   0.00000   0.00000
     18283 MEOH     411      MEOH     O1       OD31H    2.488300       15.5990           0   -1.02800   1.30000
     18284 MEOH     411      MEOH     DO1      DRUD    -2.488300        0.4000           0   0.00000   0.00000
     18285 MEOH     411      MEOH     HO1      HDP1A    0.360000        1.0080           0   0.00000   0.00000
     18286 MEOH     411      MEOH     HO2      DUMH     0.000000        1.0080           0   0.00000   0.00000
     18287 MEOH     411      MEOH     H1A      HDA3B    0.080000        1.0080           0   0.00000   0.00000
     18288 MEOH     411      MEOH     H1B      HDA3B    0.080000        1.0080           0   0.00000   0.00000
     18289 MEOH     411      MEOH     H1C      HDA3B    0.080000        1.0080           0   0.00000   0.00000
     18290 MEOH     411      MEOH     LP1A     LPD     -0.230000        0.0000           -1   0.00000   0.00000
     18291 MEOH     411      MEOH     LP1B     LPD     -0.230000        0.0000           -1   0.00000   0.00000
     18292 MEOH     412      MEOH     C1       CD33B    2.314100       11.6110           0   -1.00000   1.30000
     18293 MEOH     412      MEOH     DC1      DRUD    -2.454100        0.4000           0   0.00000   0.00000
     18294 MEOH     412      MEOH     O1       OD31H    2.488300       15.5990           0   -1.02800   1.30000
     18295 MEOH     412      MEOH     DO1      DRUD    -2.488300        0.4000           0   0.00000   0.00000
     18296 MEOH     412      MEOH     HO1      HDP1A    0.360000        1.0080           0   0.00000   0.00000
     18297 MEOH     412      MEOH     HO2      DUMH     0.000000        1.0080           0   0.00000   0.00000
     18298 MEOH     412      MEOH     H1A      HDA3B    0.080000        1.0080           0   0.00000   0.00000
     18299 MEOH     412      MEOH     H1B      HDA3B    0.080000        1.0080           0   0.00000   0.00000
     18300 MEOH     412      MEOH     H1C      HDA3B    0.080000        1.0080           0   0.00000   0.00000
     18301 MEOH     412      MEOH     LP1A     LPD     -0.230000        0.0000           -1   0.00000   0.00000
     18302 MEOH     412      MEOH     LP1B     LPD     -0.230000        0.0000           -1   0.00000   0.00000
     18303 MEOH     413      MEOH     C1       CD33B    2.314100       11.6110           0   -1.00000   1.30000
     18304 MEOH     413      MEOH     DC1      DRUD    -2.454100        0.4000           0   0.00000   0.00000
     18305 MEOH     413      MEOH     O1       OD31H    2.488300       15.5990           0   -1.02800   1.30000
     18306 MEOH     413      MEOH     DO1      DRUD    -2.488300        0.4000           0   0.00000   0.00000
     18307 MEOH     413      MEOH     HO1      HDP1A    0.360000        1.0080           0   0.00000   0.00000
     18308 MEOH     413      MEOH     HO2      DUMH     0.000000        1.0080           0   0.00000   0.00000
     18309 MEOH     413      MEOH     H1A      HDA3B    0.080000        1.0080           0   0.00000   0.00000
     18310 MEOH     413      MEOH     H1B      HDA3B    0.080000        1.0080           0   0.00000   0.00000
     18311 MEOH     413      MEOH     H1C      HDA3B    0.080000        1.0080           0   0.00000   0.00000
     18312 MEOH     413      MEOH     LP1A     LPD     -0.230000        0.0000           -1   0.00000   0.00000
     18313 MEOH     413      MEOH     LP1B     LPD     -0.230000        0.0000           -1   0.00000   0.00000
     18314 MEOH     414      MEOH     C1       CD33B    2.314100       11.6110           0   -1.00000   1.30000
     18315 MEOH     414      MEOH     DC1      DRUD    -2.454100        0.4000           0   0.00000   0.00000
     18316 MEOH     414      MEOH     O1       OD31H    2.488300       15.5990           0   -1.02800   1.30000
     18317 MEOH     414      MEOH     DO1      DRUD    -2.488300        0.4000           0   0.00000   0.00000
     18318 MEOH     414      MEOH     HO1      HDP1A    0.360000        1.0080           0   0.00000   0.00000
     18319 MEOH     414      MEOH     HO2      DUMH     0.000000        1.0080           0   0.00000   0.00000
     18320 MEOH     414      MEOH     H1A      HDA3B    0.080000        1.0080           0   0.00000   0.00000
     18321 MEOH     414      MEOH     H1B      HDA3B    0.080000        1.0080           0   0.00000   0.00000
     18322 MEOH     414      MEOH     H1C      HDA3B    0.080000        1.0080           0   0.00000   0.00000
     18323 MEOH     414      MEOH     LP1A     LPD     -0.230000        0.0000           -1   0.00000   0.00000
     18324 MEOH     414      MEOH     LP1B     LPD     -0.230000        0.0000           -1   0.00000   0.00000
     18325 MEOH     415      MEOH     C1       CD33B    2.314100       11.6110           0   -1.00000   1.30000
     18326 MEOH     415      MEOH     DC1      DRUD    -2.454100        0.4000           0   0.00000   0.00000
     18327 MEOH     415      MEOH     O1       OD31H    2.488300       15.5990           0   -1.02800   1.30000
     18328 MEOH     415      MEOH     DO1      DRUD    -2.488300        0.4000           0   0.00000   0.00000
     18329 MEOH     415      MEOH     HO1      HDP1A    0.360000        1.0080           0   0.00000   0.00000
     18330 MEOH     415      MEOH     HO2      DUMH     0.000000        1.0080           0   0.00000   0.00000
     18331 MEOH     415      MEOH     H1A      HDA3B    0.080000        1.0080           0   0.00000   0.00000
     18332 MEOH     415      MEOH     H1B      HDA3B    0.080000        1.0080           0   0.00000   0.00000
     18333 MEOH     415      MEOH     H1C      HDA3B    0.080000        1.0080           0   0.00000   0.00000
     18334 MEOH     415      MEOH     LP1A     LPD     -0.230000        0.0000           -1   0.00000   0.00000
     18335 MEOH     415      MEOH     LP1B     LPD     -0.230000        0.0000           -1   0.00000   0.00000
     18336 MEOH     416      MEOH     C1       CD33B    2.314100       11.6110           0   -1.00000   1.30000
     18337 MEOH     416      MEOH     DC1      DRUD    -2.454100        0.4000           0   0.00000   0.00000
     18338 MEOH     416      MEOH     O1       OD31H    2.488300       15.5990           0   -1.02800   1.30000
     18339 MEOH     416      MEOH     DO1      DRUD    -2.488300        0.4000           0   0.00000   0.00000
     18340 MEOH     416      MEOH     HO1      HDP1A    0.360000        1.0080           0   0.00000   0.00000
     18341 MEOH     416      MEOH     HO2      DUMH     0.000000        1.0080           0   0.00000   0.00000
     18342 MEOH     416      MEOH     H1A      HDA3B    0.080000        1.0080           0   0.00000   0.00000
     18343 MEOH     416      MEOH     H1B      HDA3B    0.080000        1.0080           0   0.00000   0.00000
     18344 MEOH     416      MEOH     H1C      HDA3B    0.080000        1.0080           0   0.00000   0.00000
     18345 MEOH     416      MEOH     LP1A     LPD     -0.230000        0.0000           -1   0.00000   0.00000
     18346 MEOH     416      MEOH     LP1B     LPD     -0.230000        0.0000           -1   0.00000   0.00000
     18347 MEOH     417      MEOH     C1       CD33B    2.314100       11.6110           0   -1.00000   1.30000
     18348 MEOH     417      MEOH     DC1      DRUD    -2.454100        0.4000           0   0.00000   0.00000
     18349 MEOH     417      MEOH     O1       OD31H    2.488300       15.5990           0   -1.02800   1.30000
     18350 MEOH     417      MEOH     DO1      DRUD    -2.488300        0.4000           0   0.00000   0.00000
     18351 MEOH     417      MEOH     HO1      HDP1A    0.360000        1.0080           0   0.00000   0.00000
     18352 MEOH     417      MEOH     HO2      DUMH     0.000000        1.0080           0   0.00000   0.00000
     18353 MEOH     417      MEOH     H1A      HDA3B    0.080000        1.0080           0   0.00000   0.00000
     18354 MEOH     417      MEOH     H1B      HDA3B    0.080000        1.0080           0   0.00000   0.00000
     18355 MEOH     417      MEOH     H1C      HDA3B    0.080000        1.0080           0   0.00000   0.00000
     18356 MEOH     417      MEOH     LP1A     LPD     -0.230000        0.0000           -1   0.00000   0.00000
     18357 MEOH     417      MEOH     LP1B     LPD     -0.230000        0.0000           -1   0.00000   0.00000
     18358 MEOH     418      MEOH     C1       CD33B    2.314100       11.6110           0   -1.00000   1.30000
     18359 MEOH     418      MEOH     DC1      DRUD    -2.454100        0.4000           0   0.00000   0.00000
     18360 MEOH     418      MEOH     O1       OD31H    2.488300       15.5990           0   -1.02800   1.30000
     18361 MEOH     418      MEOH     DO1      DRUD    -2.488300        0.4000           0   0.00000   0.00000
     18362 MEOH     418      MEOH     HO1      HDP1A    0.360000        1.0080           0   0.00000   0.00000
     18363 MEOH     418      MEOH     HO2      DUMH     0.000000        1.0080           0   0.00000   0.00000
     18364 MEOH     418      MEOH     H1A      HDA3B    0.080000        1.0080           0   0.00000   0.00000
     18365 MEOH     418      MEOH     H1B      HDA3B    0.080000        1.0080           0   0.00000   0.00000
     18366 MEOH     418      MEOH     H1C      HDA3B    0.080000        1.0080           0   0.00000   0.00000
     18367 MEOH     418      MEOH     LP1A     LPD     -0.230000        0.0000           -1   0.00000   0.00000
     18368 MEOH     418      MEOH     LP1B     LPD     -0.230000        0.0000           -1   0.00000   0.00000
     18369 MEOH     419      MEOH     C1       CD33B    2.314100       11.6110           0   -1.00000   1.30000
     18370 MEOH     419      MEOH     DC1      DRUD    -2.454100        0.4000           0   0.00000   0.00000
     18371 MEOH     419      MEOH     O1       OD31H    2.488300       15.5990           0   -1.02800   1.30000
     18372 MEOH     419      MEOH     DO1      DRUD    -2.488300        0.4000           0   0.00000   0.00000
     18373 MEOH     419      MEOH     HO1      HDP1A    0.360000        1.0080           0   0.00000   0.00000
     18374 MEOH     419      MEOH     HO2      DUMH     0.000000        1.0080           0   0.00000   0.00000
     18375 MEOH     419      MEOH     H1A      HDA3B    0.080000        1.0080           0   0.00000   0.00000
     18376 MEOH     419      MEOH     H1B      HDA3B    0.080000        1.0080           0   0.00000   0.00000
     18377 MEOH     419      MEOH     H1C      HDA3B    0.080000        1.0080           0   0.00000   0.00000
     18378 MEOH     419      MEOH     LP1A     LPD     -0.230000        0.0000           -1   0.00000   0.00000
     18379 MEOH     419      MEOH     LP1B     LPD     -0.230000        0.0000           -1   0.00000   0.00000
     18380 MEOH     420      MEOH     C1       CD33B    2.314100       11.6110           0   -1.00000   1.30000
     18381 MEOH     420      MEOH     DC1      DRUD    -2.454100        0.4000           0   0.00000   0.00000
     18382 MEOH     420      MEOH     O1       OD31H    2.488300       15.5990           0   -1.02800   1.30000
     18383 MEOH     420      MEOH     DO1      DRUD    -2.488300        0.4000           0   0.00000   0.00000
     18384 MEOH     420      MEOH     HO1      HDP1A    0.360000        1.0080           0   0.00000   0.00000
     18385 MEOH     420      MEOH     HO2      DUMH     0.000000        1.0080           0   0.00000   0.00000
     18386 MEOH     420      MEOH     H1A      HDA3B    0.080000        1.0080           0   0.00000   0.00000
     18387 MEOH     420      MEOH     H1B      HDA3B    0.080000        1.0080           0   0.00000   0.00000
     18388 MEOH     420      MEOH     H1C      HDA3B    0.080000        1.0080           0   0.00000   0.00000
     18389 MEOH     420      MEOH     LP1A     LPD     -0.230000        0.0000           -1   0.00000   0.00000
     18390 MEOH     420      MEOH     LP1B     LPD     -0.230000        0.0000           -1   0.00000   0.00000
     18391 MEOH     421      MEOH     C1       CD33B    2.314100       11.6110           0   -1.00000   1.30000
     18392 MEOH     421      MEOH     DC1      DRUD    -2.454100        0.4000           0   0.00000   0.00000
     18393 MEOH     421      MEOH     O1       OD31H    2.488300       15.5990           0   -1.02800   1.30000
     18394 MEOH     421      MEOH     DO1      DRUD    -2.488300        0.4000           0   0.00000   0.00000
     18395 MEOH     421      MEOH     HO1      HDP1A    0.360000        1.0080           0   0.00000   0.00000
     18396 MEOH     421      MEOH     HO2      DUMH     0.000000        1.0080           0   0.00000   0.00000
     18397 MEOH     421      MEOH     H1A      HDA3B    0.080000        1.0080           0   0.00000   0.00000
     18398 MEOH     421      MEOH     H1B      HDA3B    0.080000        1.0080           0   0.00000   0.00000
     18399 MEOH     421      MEOH     H1C      HDA3B    0.080000        1.0080           0   0.00000   0.00000
     18400 MEOH     421      MEOH     LP1A     LPD     -0.230000        0.0000           -1   0.00000   0.00000
     18401 MEOH     421      MEOH     LP1B     LPD     -0.230000        0.0000           -1   0.00000   0.00000
     18402 MEOH     422      MEOH     C1       CD33B    2.314100       11.6110           0   -1.00000   1.30000
     18403 MEOH     422      MEOH     DC1      DRUD    -2.454100        0.4000           0   0.00000   0.00000
     18404 MEOH     422      MEOH     O1       OD31H    2.488300       15.5990           0   -1.02800   1.30000
     18405 MEOH     422      MEOH     DO1      DRUD    -2.488300        0.4000           0   0.00000   0.00000
     18406 MEOH     422      MEOH     HO1      HDP1A    0.360000        1.0080           0   0.00000   0.00000
     18407 MEOH     422      MEOH     HO2      DUMH     0.000000        1.0080           0   0.00000   0.00000
     18408 MEOH     422      MEOH     H1A      HDA3B    0.080000        1.0080           0   0.00000   0.00000
     18409 MEOH     422      MEOH     H1B      HDA3B    0.080000        1.0080           0   0.00000   0.00000
     18410 MEOH     422      MEOH     H1C      HDA3B    0.080000        1.0080           0   0.00000   0.00000
     18411 MEOH     422      MEOH     LP1A     LPD     -0.230000        0.0000           -1   0.00000   0.00000
     18412 MEOH     422      MEOH     LP1B     LPD     -0.230000        0.0000           -1   0.00000   0.00000
     18413 MEOH     423      MEOH     C1       CD33B    2.314100       11.6110           0   -1.00000   1.30000
     18414 MEOH     423      MEOH     DC1      DRUD    -2.454100        0.4000           0   0.00000   0.00000
     18415 MEOH     423      MEOH     O1       OD31H    2.488300       15.5990           0   -1.02800   1.30000
     18416 MEOH     423      MEOH     DO1      DRUD    -2.488300        0.4000           0   0.00000   0.00000
     18417 MEOH     423      MEOH     HO1      HDP1A    0.360000        1.0080           0   0.00000   0.00000
     18418 MEOH     423      MEOH     HO2      DUMH     0.000000        1.0080           0   0.00000   0.00000
     18419 MEOH     423      MEOH     H1A      HDA3B    0.080000        1.0080           0   0.00000   0.00000
     18420 MEOH     423      MEOH     H1B      HDA3B    0.080000        1.0080           0   0.00000   0.00000
     18421 MEOH     423      MEOH     H1C      HDA3B    0.080000        1.0080           0   0.00000   0.00000
     18422 MEOH     423      MEOH     LP1A     LPD     -0.230000        0.0000           -1   0.00000   0.00000
     18423 MEOH     423      MEOH     LP1B     LPD     -0.230000        0.0000           -1   0.00000   0.00000
     18424 MEOH     424      MEOH     C1       CD33B    2.314100       11.6110           0   -1.00000   1.30000
     18425 MEOH     424      MEOH     DC1      DRUD    -2.454100        0.4000           0   0.00000   0.00000
     18426 MEOH     424      MEOH     O1       OD31H    2.488300       15.5990           0   -1.02800   1.30000
     18427 MEOH     424      MEOH     DO1      DRUD    -2.488300        0.4000           0   0.00000   0.00000
     18428 MEOH     424      MEOH     HO1      HDP1A    0.360000        1.0080           0   0.00000   0.00000
     18429 MEOH     424      MEOH     HO2      DUMH     0.000000        1.0080           0   0.00000   0.00000
     18430 MEOH     424      MEOH     H1A      HDA3B    0.080000        1.0080           0   0.00000   0.00000
     18431 MEOH     424      MEOH     H1B      HDA3B    0.080000        1.0080           0   0.00000   0.00000
     18432 MEOH     424      MEOH     H1C      HDA3B    0.080000        1.0080           0   0.00000   0.00000
     18433 MEOH     424      MEOH     LP1A     LPD     -0.230000        0.0000           -1   0.00000   0.00000
     18434 MEOH     424      MEOH     LP1B     LPD     -0.230000        0.0000           -1   0.00000   0.00000
     18435 MEOH     425      MEOH     C1       CD33B    2.314100       11.6110           0   -1.00000   1.30000
     18436 MEOH     425      MEOH     DC1      DRUD    -2.454100        0.4000           0   0.00000   0.00000
     18437 MEOH     425      MEOH     O1       OD31H    2.488300       15.5990           0   -1.02800   1.30000
     18438 MEOH     425      MEOH     DO1      DRUD    -2.488300        0.4000           0   0.00000   0.00000
     18439 MEOH     425      MEOH     HO1      HDP1A    0.360000        1.0080           0   0.00000   0.00000
     18440 MEOH     425      MEOH     HO2      DUMH     0.000000        1.0080           0   0.00000   0.00000
     18441 MEOH     425      MEOH     H1A      HDA3B    0.080000        1.0080           0   0.00000   0.00000
     18442 MEOH     425      MEOH     H1B      HDA3B    0.080000        1.0080           0   0.00000   0.00000
     18443 MEOH     425      MEOH     H1C      HDA3B    0.080000        1.0080           0   0.00000   0.00000
     18444 MEOH     425      MEOH     LP1A     LPD     -0.230000        0.0000           -1   0.00000   0.00000
     18445 MEOH     425      MEOH     LP1B     LPD     -0.230000        0.0000           -1   0.00000   0.00000
     18446 MEOH     426      MEOH     C1       CD33B    2.314100       11.6110           0   -1.00000   1.30000
     18447 MEOH     426      MEOH     DC1      DRUD    -2.454100        0.4000           0   0.00000   0.00000
     18448 MEOH     426      MEOH     O1       OD31H    2.488300       15.5990           0   -1.02800   1.30000
     18449 MEOH     426      MEOH     DO1      DRUD    -2.488300        0.4000           0   0.00000   0.00000
     18450 MEOH     426      MEOH     HO1      HDP1A    0.360000        1.0080           0   0.00000   0.00000
     18451 MEOH     426      MEOH     HO2      DUMH     0.000000        1.0080           0   0.00000   0.00000
     18452 MEOH     426      MEOH     H1A      HDA3B    0.080000        1.0080           0   0.00000   0.00000
     18453 MEOH     426      MEOH     H1B      HDA3B    0.080000        1.0080           0   0.00000   0.00000
     18454 MEOH     426      MEOH     H1C      HDA3B    0.080000        1.0080           0   0.00000   0.00000
     18455 MEOH     426      MEOH     LP1A     LPD     -0.230000        0.0000           -1   0.00000   0.00000
     18456 MEOH     426      MEOH     LP1B     LPD     -0.230000        0.0000           -1   0.00000   0.00000
     18457 MEOH     427      MEOH     C1       CD33B    2.314100       11.6110           0   -1.00000   1.30000
     18458 MEOH     427      MEOH     DC1      DRUD    -2.454100        0.4000           0   0.00000   0.00000
     18459 MEOH     427      MEOH     O1       OD31H    2.488300       15.5990           0   -1.02800   1.30000
     18460 MEOH     427      MEOH     DO1      DRUD    -2.488300        0.4000           0   0.00000   0.00000
     18461 MEOH     427      MEOH     HO1      HDP1A    0.360000        1.0080           0   0.00000   0.00000
     18462 MEOH     427      MEOH     HO2      DUMH     0.000000        1.0080           0   0.00000   0.00000
     18463 MEOH     427      MEOH     H1A      HDA3B    0.080000        1.0080           0   0.00000   0.00000
     18464 MEOH     427      MEOH     H1B      HDA3B    0.080000        1.0080           0   0.00000   0.00000
     18465 MEOH     427      MEOH     H1C      HDA3B    0.080000        1.0080           0   0.00000   0.00000
     18466 MEOH     427      MEOH     LP1A     LPD     -0.230000        0.0000           -1   0.00000   0.00000
     18467 MEOH     427      MEOH     LP1B     LPD     -0.230000        0.0000           -1   0.00000   0.00000
     18468 MEOH     428      MEOH     C1       CD33B    2.314100       11.6110           0   -1.00000   1.30000
     18469 MEOH     428      MEOH     DC1      DRUD    -2.454100        0.4000           0   0.00000   0.00000
     18470 MEOH     428      MEOH     O1       OD31H    2.488300       15.5990           0   -1.02800   1.30000
     18471 MEOH     428      MEOH     DO1      DRUD    -2.488300        0.4000           0   0.00000   0.00000
     18472 MEOH     428      MEOH     HO1      HDP1A    0.360000        1.0080           0   0.00000   0.00000
     18473 MEOH     428      MEOH     HO2      DUMH     0.000000        1.0080           0   0.00000   0.00000
     18474 MEOH     428      MEOH     H1A      HDA3B    0.080000        1.0080           0   0.00000   0.00000
     18475 MEOH     428      MEOH     H1B      HDA3B    0.080000        1.0080           0   0.00000   0.00000
     18476 MEOH     428      MEOH     H1C      HDA3B    0.080000        1.0080           0   0.00000   0.00000
     18477 MEOH     428      MEOH     LP1A     LPD     -0.230000        0.0000           -1   0.00000   0.00000
     18478 MEOH     428      MEOH     LP1B     LPD     -0.230000        0.0000           -1   0.00000   0.00000
     18479 MEOH     429      MEOH     C1       CD33B    2.314100       11.6110           0   -1.00000   1.30000
     18480 MEOH     429      MEOH     DC1      DRUD    -2.454100        0.4000           0   0.00000   0.00000
     18481 MEOH     429      MEOH     O1       OD31H    2.488300       15.5990           0   -1.02800   1.30000
     18482 MEOH     429      MEOH     DO1      DRUD    -2.488300        0.4000           0   0.00000   0.00000
     18483 MEOH     429      MEOH     HO1      HDP1A    0.360000        1.0080           0   0.00000   0.00000
     18484 MEOH     429      MEOH     HO2      DUMH     0.000000        1.0080           0   0.00000   0.00000
     18485 MEOH     429      MEOH     H1A      HDA3B    0.080000        1.0080           0   0.00000   0.00000
     18486 MEOH     429      MEOH     H1B      HDA3B    0.080000        1.0080           0   0.00000   0.00000
     18487 MEOH     429      MEOH     H1C      HDA3B    0.080000        1.0080           0   0.00000   0.00000
     18488 MEOH     429      MEOH     LP1A     LPD     -0.230000        0.0000           -1   0.00000   0.00000
     18489 MEOH     429      MEOH     LP1B     LPD     -0.230000        0.0000           -1   0.00000   0.00000
     18490 MEOH     430      MEOH     C1       CD33B    2.314100       11.6110           0   -1.00000   1.30000
     18491 MEOH     430      MEOH     DC1      DRUD    -2.454100        0.4000           0   0.00000   0.00000
     18492 MEOH     430      MEOH     O1       OD31H    2.488300       15.5990           0   -1.02800   1.30000
     18493 MEOH     430      MEOH     DO1      DRUD    -2.488300        0.4000           0   0.00000   0.00000
     18494 MEOH     430      MEOH     HO1      HDP1A    0.360000        1.0080           0   0.00000   0.00000
     18495 MEOH     430      MEOH     HO2      DUMH     0.000000        1.0080           0   0.00000   0.00000
     18496 MEOH     430      MEOH     H1A      HDA3B    0.080000        1.0080           0   0.00000   0.00000
     18497 MEOH     430      MEOH     H1B      HDA3B    0.080000        1.0080           0   0.00000   0.00000
     18498 MEOH     430      MEOH     H1C      HDA3B    0.080000        1.0080           0   0.00000   0.00000
     18499 MEOH     430      MEOH     LP1A     LPD     -0.230000        0.0000           -1   0.00000   0.00000
     18500 MEOH     430      MEOH     LP1B     LPD     -0.230000        0.0000           -1   0.00000   0.00000
     18501 MEOH     431      MEOH     C1       CD33B    2.314100       11.6110           0   -1.00000   1.30000
     18502 MEOH     431      MEOH     DC1      DRUD    -2.454100        0.4000           0   0.00000   0.00000
     18503 MEOH     431      MEOH     O1       OD31H    2.488300       15.5990           0   -1.02800   1.30000
     18504 MEOH     431      MEOH     DO1      DRUD    -2.488300        0.4000           0   0.00000   0.00000
     18505 MEOH     431      MEOH     HO1      HDP1A    0.360000        1.0080           0   0.00000   0.00000
     18506 MEOH     431      MEOH     HO2      DUMH     0.000000        1.0080           0   0.00000   0.00000
     18507 MEOH     431      MEOH     H1A      HDA3B    0.080000        1.0080           0   0.00000   0.00000
     18508 MEOH     431      MEOH     H1B      HDA3B    0.080000        1.0080           0   0.00000   0.00000
     18509 MEOH     431      MEOH     H1C      HDA3B    0.080000        1.0080           0   0.00000   0.00000
     18510 MEOH     431      MEOH     LP1A     LPD     -0.230000        0.0000           -1   0.00000   0.00000
     18511 MEOH     431      MEOH     LP1B     LPD     -0.230000        0.0000           -1   0.00000   0.00000
     18512 MEOH     432      MEOH     C1       CD33B    2.314100       11.6110           0   -1.00000   1.30000
     18513 MEOH     432      MEOH     DC1      DRUD    -2.454100        0.4000           0   0.00000   0.00000
     18514 MEOH     432      MEOH     O1       OD31H    2.488300       15.5990           0   -1.02800   1.30000
     18515 MEOH     432      MEOH     DO1      DRUD    -2.488300        0.4000           0   0.00000   0.00000
     18516 MEOH     432      MEOH     HO1      HDP1A    0.360000        1.0080           0   0.00000   0.00000
     18517 MEOH     432      MEOH     HO2      DUMH     0.000000        1.0080           0   0.00000   0.00000
     18518 MEOH     432      MEOH     H1A      HDA3B    0.080000        1.0080           0   0.00000   0.00000
     18519 MEOH     432      MEOH     H1B      HDA3B    0.080000        1.0080           0   0.00000   0.00000
     18520 MEOH     432      MEOH     H1C      HDA3B    0.080000        1.0080           0   0.00000   0.00000
     18521 MEOH     432      MEOH     LP1A     LPD     -0.230000        0.0000           -1   0.00000   0.00000
     18522 MEOH     432      MEOH     LP1B     LPD     -0.230000        0.0000           -1   0.00000   0.00000
     18523 MEOH     433      MEOH     C1       CD33B    2.314100       11.6110           0   -1.00000   1.30000
     18524 MEOH     433      MEOH     DC1      DRUD    -2.454100        0.4000           0   0.00000   0.00000
     18525 MEOH     433      MEOH     O1       OD31H    2.488300       15.5990           0   -1.02800   1.30000
     18526 MEOH     433      MEOH     DO1      DRUD    -2.488300        0.4000           0   0.00000   0.00000
     18527 MEOH     433      MEOH     HO1      HDP1A    0.360000        1.0080           0   0.00000   0.00000
     18528 MEOH     433      MEOH     HO2      DUMH     0.000000        1.0080           0   0.00000   0.00000
     18529 MEOH     433      MEOH     H1A      HDA3B    0.080000        1.0080           0   0.00000   0.00000
     18530 MEOH     433      MEOH     H1B      HDA3B    0.080000        1.0080           0   0.00000   0.00000
     18531 MEOH     433      MEOH     H1C      HDA3B    0.080000        1.0080           0   0.00000   0.00000
     18532 MEOH     433      MEOH     LP1A     LPD     -0.230000        0.0000           -1   0.00000   0.00000
     18533 MEOH     433      MEOH     LP1B     LPD     -0.230000        0.0000           -1   0.00000   0.00000
     18534 MEOH     434      MEOH     C1       CD33B    2.314100       11.6110           0   -1.00000   1.30000
     18535 MEOH     434      MEOH     DC1      DRUD    -2.454100        0.4000           0   0.00000   0.00000
     18536 MEOH     434      MEOH     O1       OD31H    2.488300       15.5990           0   -1.02800   1.30000
     18537 MEOH     434      MEOH     DO1      DRUD    -2.488300        0.4000           0   0.00000   0.00000
     18538 MEOH     434      MEOH     HO1      HDP1A    0.360000        1.0080           0   0.00000   0.00000
     18539 MEOH     434      MEOH     HO2      DUMH     0.000000        1.0080           0   0.00000   0.00000
     18540 MEOH     434      MEOH     H1A      HDA3B    0.080000        1.0080           0   0.00000   0.00000
     18541 MEOH     434      MEOH     H1B      HDA3B    0.080000        1.0080           0   0.00000   0.00000
     18542 MEOH     434      MEOH     H1C      HDA3B    0.080000        1.0080           0   0.00000   0.00000
     18543 MEOH     434      MEOH     LP1A     LPD     -0.230000        0.0000           -1   0.00000   0.00000
     18544 MEOH     434      MEOH     LP1B     LPD     -0.230000        0.0000           -1   0.00000   0.00000
     18545 MEOH     435      MEOH     C1       CD33B    2.314100       11.6110           0   -1.00000   1.30000
     18546 MEOH     435      MEOH     DC1      DRUD    -2.454100        0.4000           0   0.00000   0.00000
     18547 MEOH     435      MEOH     O1       OD31H    2.488300       15.5990           0   -1.02800   1.30000
     18548 MEOH     435      MEOH     DO1      DRUD    -2.488300        0.4000           0   0.00000   0.00000
     18549 MEOH     435      MEOH     HO1      HDP1A    0.360000        1.0080           0   0.00000   0.00000
     18550 MEOH     435      MEOH     HO2      DUMH     0.000000        1.0080           0   0.00000   0.00000
     18551 MEOH     435      MEOH     H1A      HDA3B    0.080000        1.0080           0   0.00000   0.00000
     18552 MEOH     435      MEOH     H1B      HDA3B    0.080000        1.0080           0   0.00000   0.00000
     18553 MEOH     435      MEOH     H1C      HDA3B    0.080000        1.0080           0   0.00000   0.00000
     18554 MEOH     435      MEOH     LP1A     LPD     -0.230000        0.0000           -1   0.00000   0.00000
     18555 MEOH     435      MEOH     LP1B     LPD     -0.230000        0.0000           -1   0.00000   0.00000
     18556 MEOH     436      MEOH     C1       CD33B    2.314100       11.6110           0   -1.00000   1.30000
     18557 MEOH     436      MEOH     DC1      DRUD    -2.454100        0.4000           0   0.00000   0.00000
     18558 MEOH     436      MEOH     O1       OD31H    2.488300       15.5990           0   -1.02800   1.30000
     18559 MEOH     436      MEOH     DO1      DRUD    -2.488300        0.4000           0   0.00000   0.00000
     18560 MEOH     436      MEOH     HO1      HDP1A    0.360000        1.0080           0   0.00000   0.00000
     18561 MEOH     436      MEOH     HO2      DUMH     0.000000        1.0080           0   0.00000   0.00000
     18562 MEOH     436      MEOH     H1A      HDA3B    0.080000        1.0080           0   0.00000   0.00000
     18563 MEOH     436      MEOH     H1B      HDA3B    0.080000        1.0080           0   0.00000   0.00000
     18564 MEOH     436      MEOH     H1C      HDA3B    0.080000        1.0080           0   0.00000   0.00000
     18565 MEOH     436      MEOH     LP1A     LPD     -0.230000        0.0000           -1   0.00000   0.00000
     18566 MEOH     436      MEOH     LP1B     LPD     -0.230000        0.0000           -1   0.00000   0.00000
     18567 MEOH     437      MEOH     C1       CD33B    2.314100       11.6110           0   -1.00000   1.30000
     18568 MEOH     437      MEOH     DC1      DRUD    -2.454100        0.4000           0   0.00000   0.00000
     18569 MEOH     437      MEOH     O1       OD31H    2.488300       15.5990           0   -1.02800   1.30000
     18570 MEOH     437      MEOH     DO1      DRUD    -2.488300        0.4000           0   0.00000   0.00000
     18571 MEOH     437      MEOH     HO1      HDP1A    0.360000        1.0080           0   0.00000   0.00000
     18572 MEOH     437      MEOH     HO2      DUMH     0.000000        1.0080           0   0.00000   0.00000
     18573 MEOH     437      MEOH     H1A      HDA3B    0.080000        1.0080           0   0.00000   0.00000
     18574 MEOH     437      MEOH     H1B      HDA3B    0.080000        1.0080           0   0.00000   0.00000
     18575 MEOH     437      MEOH     H1C      HDA3B    0.080000        1.0080           0   0.00000   0.00000
     18576 MEOH     437      MEOH     LP1A     LPD     -0.230000        0.0000           -1   0.00000   0.00000
     18577 MEOH     437      MEOH     LP1B     LPD     -0.230000        0.0000           -1   0.00000   0.00000
     18578 MEOH     438      MEOH     C1       CD33B    2.314100       11.6110           0   -1.00000   1.30000
     18579 MEOH     438      MEOH     DC1      DRUD    -2.454100        0.4000           0   0.00000   0.00000
     18580 MEOH     438      MEOH     O1       OD31H    2.488300       15.5990           0   -1.02800   1.30000
     18581 MEOH     438      MEOH     DO1      DRUD    -2.488300        0.4000           0   0.00000   0.00000
     18582 MEOH     438      MEOH     HO1      HDP1A    0.360000        1.0080           0   0.00000   0.00000
     18583 MEOH     438      MEOH     HO2      DUMH     0.000000        1.0080           0   0.00000   0.00000
     18584 MEOH     438      MEOH     H1A      HDA3B    0.080000        1.0080           0   0.00000   0.00000
     18585 MEOH     438      MEOH     H1B      HDA3B    0.080000        1.0080           0   0.00000   0.00000
     18586 MEOH     438      MEOH     H1C      HDA3B    0.080000        1.0080           0   0.00000   0.00000
     18587 MEOH     438      MEOH     LP1A     LPD     -0.230000        0.0000           -1   0.00000   0.00000
     18588 MEOH     438      MEOH     LP1B     LPD     -0.230000        0.0000           -1   0.00000   0.00000
     18589 MEOH     439      MEOH     C1       CD33B    2.314100       11.6110           0   -1.00000   1.30000
     18590 MEOH     439      MEOH     DC1      DRUD    -2.454100        0.4000           0   0.00000   0.00000
     18591 MEOH     439      MEOH     O1       OD31H    2.488300       15.5990           0   -1.02800   1.30000
     18592 MEOH     439      MEOH     DO1      DRUD    -2.488300        0.4000           0   0.00000   0.00000
     18593 MEOH     439      MEOH     HO1      HDP1A    0.360000        1.0080           0   0.00000   0.00000
     18594 MEOH     439      MEOH     HO2      DUMH     0.000000        1.0080           0   0.00000   0.00000
     18595 MEOH     439      MEOH     H1A      HDA3B    0.080000        1.0080           0   0.00000   0.00000
     18596 MEOH     439      MEOH     H1B      HDA3B    0.080000        1.0080           0   0.00000   0.00000
     18597 MEOH     439      MEOH     H1C      HDA3B    0.080000        1.0080           0   0.00000   0.00000
     18598 MEOH     439      MEOH     LP1A     LPD     -0.230000        0.0000           -1   0.00000   0.00000
     18599 MEOH     439      MEOH     LP1B     LPD     -0.230000        0.0000           -1   0.00000   0.00000
     18600 MEOH     440      MEOH     C1       CD33B    2.314100       11.6110           0   -1.00000   1.30000
     18601 MEOH     440      MEOH     DC1      DRUD    -2.454100        0.4000           0   0.00000   0.00000
     18602 MEOH     440      MEOH     O1       OD31H    2.488300       15.5990           0   -1.02800   1.30000
     18603 MEOH     440      MEOH     DO1      DRUD    -2.488300        0.4000           0   0.00000   0.00000
     18604 MEOH     440      MEOH     HO1      HDP1A    0.360000        1.0080           0   0.00000   0.00000
     18605 MEOH     440      MEOH     HO2      DUMH     0.000000        1.0080           0   0.00000   0.00000
     18606 MEOH     440      MEOH     H1A      HDA3B    0.080000        1.0080           0   0.00000   0.00000
     18607 MEOH     440      MEOH     H1B      HDA3B    0.080000        1.0080           0   0.00000   0.00000
     18608 MEOH     440      MEOH     H1C      HDA3B    0.080000        1.0080           0   0.00000   0.00000
     18609 MEOH     440      MEOH     LP1A     LPD     -0.230000        0.0000           -1   0.00000   0.00000
     18610 MEOH     440      MEOH     LP1B     LPD     -0.230000        0.0000           -1   0.00000   0.00000
     18611 MEOH     441      MEOH     C1       CD33B    2.314100       11.6110           0   -1.00000   1.30000
     18612 MEOH     441      MEOH     DC1      DRUD    -2.454100        0.4000           0   0.00000   0.00000
     18613 MEOH     441      MEOH     O1       OD31H    2.488300       15.5990           0   -1.02800   1.30000
     18614 MEOH     441      MEOH     DO1      DRUD    -2.488300        0.4000           0   0.00000   0.00000
     18615 MEOH     441      MEOH     HO1      HDP1A    0.360000        1.0080           0   0.00000   0.00000
     18616 MEOH     441      MEOH     HO2      DUMH     0.000000        1.0080           0   0.00000   0.00000
     18617 MEOH     441      MEOH     H1A      HDA3B    0.080000        1.0080           0   0.00000   0.00000
     18618 MEOH     441      MEOH     H1B      HDA3B    0.080000        1.0080           0   0.00000   0.00000
     18619 MEOH     441      MEOH     H1C      HDA3B    0.080000        1.0080           0   0.00000   0.00000
     18620 MEOH     441      MEOH     LP1A     LPD     -0.230000        0.0000           -1   0.00000   0.00000
     18621 MEOH     441      MEOH     LP1B     LPD     -0.230000        0.0000           -1   0.00000   0.00000
     18622 MEOH     442      MEOH     C1       CD33B    2.314100       11.6110           0   -1.00000   1.30000
     18623 MEOH     442      MEOH     DC1      DRUD    -2.454100        0.4000           0   0.00000   0.00000
     18624 MEOH     442      MEOH     O1       OD31H    2.488300       15.5990           0   -1.02800   1.30000
     18625 MEOH     442      MEOH     DO1      DRUD    -2.488300        0.4000           0   0.00000   0.00000
     18626 MEOH     442      MEOH     HO1      HDP1A    0.360000        1.0080           0   0.00000   0.00000
     18627 MEOH     442      MEOH     HO2      DUMH     0.000000        1.0080           0   0.00000   0.00000
     18628 MEOH     442      MEOH     H1A      HDA3B    0.080000        1.0080           0   0.00000   0.00000
     18629 MEOH     442      MEOH     H1B      HDA3B    0.080000        1.0080           0   0.00000   0.00000
     18630 MEOH     442      MEOH     H1C      HDA3B    0.080000        1.0080           0   0.00000   0.00000
     18631 MEOH     442      MEOH     LP1A     LPD     -0.230000        0.0000           -1   0.00000   0.00000
     18632 MEOH     442      MEOH     LP1B     LPD     -0.230000        0.0000           -1   0.00000   0.00000
     18633 MEOH     443      MEOH     C1       CD33B    2.314100       11.6110           0   -1.00000   1.30000
     18634 MEOH     443      MEOH     DC1      DRUD    -2.454100        0.4000           0   0.00000   0.00000
     18635 MEOH     443      MEOH     O1       OD31H    2.488300       15.5990           0   -1.02800   1.30000
     18636 MEOH     443      MEOH     DO1      DRUD    -2.488300        0.4000           0   0.00000   0.00000
     18637 MEOH     443      MEOH     HO1      HDP1A    0.360000        1.0080           0   0.00000   0.00000
     18638 MEOH     443      MEOH     HO2      DUMH     0.000000        1.0080           0   0.00000   0.00000
     18639 MEOH     443      MEOH     H1A      HDA3B    0.080000        1.0080           0   0.00000   0.00000
     18640 MEOH     443      MEOH     H1B      HDA3B    0.080000        1.0080           0   0.00000   0.00000
     18641 MEOH     443      MEOH     H1C      HDA3B    0.080000        1.0080           0   0.00000   0.00000
     18642 MEOH     443      MEOH     LP1A     LPD     -0.230000        0.0000           -1   0.00000   0.00000
     18643 MEOH     443      MEOH     LP1B     LPD     -0.230000        0.0000           -1   0.00000   0.00000
     18644 MEOH     444      MEOH     C1       CD33B    2.314100       11.6110           0   -1.00000   1.30000
     18645 MEOH     444      MEOH     DC1      DRUD    -2.454100        0.4000           0   0.00000   0.00000
     18646 MEOH     444      MEOH     O1       OD31H    2.488300       15.5990           0   -1.02800   1.30000
     18647 MEOH     444      MEOH     DO1      DRUD    -2.488300        0.4000           0   0.00000   0.00000
     18648 MEOH     444      MEOH     HO1      HDP1A    0.360000        1.0080           0   0.00000   0.00000
     18649 MEOH     444      MEOH     HO2      DUMH     0.000000        1.0080           0   0.00000   0.00000
     18650 MEOH     444      MEOH     H1A      HDA3B    0.080000        1.0080           0   0.00000   0.00000
     18651 MEOH     444      MEOH     H1B      HDA3B    0.080000        1.0080           0   0.00000   0.00000
     18652 MEOH     444      MEOH     H1C      HDA3B    0.080000        1.0080           0   0.00000   0.00000
     18653 MEOH     444      MEOH     LP1A     LPD     -0.230000        0.0000           -1   0.00000   0.00000
     18654 MEOH     444      MEOH     LP1B     LPD     -0.230000        0.0000           -1   0.00000   0.00000
     18655 MEOH     445      MEOH     C1       CD33B    2.314100       11.6110           0   -1.00000   1.30000
     18656 MEOH     445      MEOH     DC1      DRUD    -2.454100        0.4000           0   0.00000   0.00000
     18657 MEOH     445      MEOH     O1       OD31H    2.488300       15.5990           0   -1.02800   1.30000
     18658 MEOH     445      MEOH     DO1      DRUD    -2.488300        0.4000           0   0.00000   0.00000
     18659 MEOH     445      MEOH     HO1      HDP1A    0.360000        1.0080           0   0.00000   0.00000
     18660 MEOH     445      MEOH     HO2      DUMH     0.000000        1.0080           0   0.00000   0.00000
     18661 MEOH     445      MEOH     H1A      HDA3B    0.080000        1.0080           0   0.00000   0.00000
     18662 MEOH     445      MEOH     H1B      HDA3B    0.080000        1.0080           0   0.00000   0.00000
     18663 MEOH     445      MEOH     H1C      HDA3B    0.080000        1.0080           0   0.00000   0.00000
     18664 MEOH     445      MEOH     LP1A     LPD     -0.230000        0.0000           -1   0.00000   0.00000
     18665 MEOH     445      MEOH     LP1B     LPD     -0.230000        0.0000           -1   0.00000   0.00000
     18666 MEOH     446      MEOH     C1       CD33B    2.314100       11.6110           0   -1.00000   1.30000
     18667 MEOH     446      MEOH     DC1      DRUD    -2.454100        0.4000           0   0.00000   0.00000
     18668 MEOH     446      MEOH     O1       OD31H    2.488300       15.5990           0   -1.02800   1.30000
     18669 MEOH     446      MEOH     DO1      DRUD    -2.488300        0.4000           0   0.00000   0.00000
     18670 MEOH     446      MEOH     HO1      HDP1A    0.360000        1.0080           0   0.00000   0.00000
     18671 MEOH     446      MEOH     HO2      DUMH     0.000000        1.0080           0   0.00000   0.00000
     18672 MEOH     446      MEOH     H1A      HDA3B    0.080000        1.0080           0   0.00000   0.00000
     18673 MEOH     446      MEOH     H1B      HDA3B    0.080000        1.0080           0   0.00000   0.00000
     18674 MEOH     446      MEOH     H1C      HDA3B    0.080000        1.0080           0   0.00000   0.00000
     18675 MEOH     446      MEOH     LP1A     LPD     -0.230000        0.0000           -1   0.00000   0.00000
     18676 MEOH     446      MEOH     LP1B     LPD     -0.230000        0.0000           -1   0.00000   0.00000
     18677 MEOH     447      MEOH     C1       CD33B    2.314100       11.6110           0   -1.00000   1.30000
     18678 MEOH     447      MEOH     DC1      DRUD    -2.454100        0.4000           0   0.00000   0.00000
     18679 MEOH     447      MEOH     O1       OD31H    2.488300       15.5990           0   -1.02800   1.30000
     18680 MEOH     447      MEOH     DO1      DRUD    -2.488300        0.4000           0   0.00000   0.00000
     18681 MEOH     447      MEOH     HO1      HDP1A    0.360000        1.0080           0   0.00000   0.00000
     18682 MEOH     447      MEOH     HO2      DUMH     0.000000        1.0080           0   0.00000   0.00000
     18683 MEOH     447      MEOH     H1A      HDA3B    0.080000        1.0080           0   0.00000   0.00000
     18684 MEOH     447      MEOH     H1B      HDA3B    0.080000        1.0080           0   0.00000   0.00000
     18685 MEOH     447      MEOH     H1C      HDA3B    0.080000        1.0080           0   0.00000   0.00000
     18686 MEOH     447      MEOH     LP1A     LPD     -0.230000        0.0000           -1   0.00000   0.00000
     18687 MEOH     447      MEOH     LP1B     LPD     -0.230000        0.0000           -1   0.00000   0.00000
     18688 MEOH     448      MEOH     C1       CD33B    2.314100       11.6110           0   -1.00000   1.30000
     18689 MEOH     448      MEOH     DC1      DRUD    -2.454100        0.4000           0   0.00000   0.00000
     18690 MEOH     448      MEOH     O1       OD31H    2.488300       15.5990           0   -1.02800   1.30000
     18691 MEOH     448      MEOH     DO1      DRUD    -2.488300        0.4000           0   0.00000   0.00000
     18692 MEOH     448      MEOH     HO1      HDP1A    0.360000        1.0080           0   0.00000   0.00000
     18693 MEOH     448      MEOH     HO2      DUMH     0.000000        1.0080           0   0.00000   0.00000
     18694 MEOH     448      MEOH     H1A      HDA3B    0.080000        1.0080           0   0.00000   0.00000
     18695 MEOH     448      MEOH     H1B      HDA3B    0.080000        1.0080           0   0.00000   0.00000
     18696 MEOH     448      MEOH     H1C      HDA3B    0.080000        1.0080           0   0.00000   0.00000
     18697 MEOH     448      MEOH     LP1A     LPD     -0.230000        0.0000           -1   0.00000   0.00000
     18698 MEOH     448      MEOH     LP1B     LPD     -0.230000        0.0000           -1   0.00000   0.00000
     18699 MEOH     449      MEOH     C1       CD33B    2.314100       11.6110           0   -1.00000   1.30000
     18700 MEOH     449      MEOH     DC1      DRUD    -2.454100        0.4000           0   0.00000   0.00000
     18701 MEOH     449      MEOH     O1       OD31H    2.488300       15.5990           0   -1.02800   1.30000
     18702 MEOH     449      MEOH     DO1      DRUD    -2.488300        0.4000           0   0.00000   0.00000
     18703 MEOH     449      MEOH     HO1      HDP1A    0.360000        1.0080           0   0.00000   0.00000
     18704 MEOH     449      MEOH     HO2      DUMH     0.000000        1.0080           0   0.00000   0.00000
     18705 MEOH     449      MEOH     H1A      HDA3B    0.080000        1.0080           0   0.00000   0.00000
     18706 MEOH     449      MEOH     H1B      HDA3B    0.080000        1.0080           0   0.00000   0.00000
     18707 MEOH     449      MEOH     H1C      HDA3B    0.080000        1.0080           0   0.00000   0.00000
     18708 MEOH     449      MEOH     LP1A     LPD     -0.230000        0.0000           -1   0.00000   0.00000
     18709 MEOH     449      MEOH     LP1B     LPD     -0.230000        0.0000           -1   0.00000   0.00000
     18710 MEOH     450      MEOH     C1       CD33B    2.314100       11.6110           0   -1.00000   1.30000
     18711 MEOH     450      MEOH     DC1      DRUD    -2.454100        0.4000           0   0.00000   0.00000
     18712 MEOH     450      MEOH     O1       OD31H    2.488300       15.5990           0   -1.02800   1.30000
     18713 MEOH     450      MEOH     DO1      DRUD    -2.488300        0.4000           0   0.00000   0.00000
     18714 MEOH     450      MEOH     HO1      HDP1A    0.360000        1.0080           0   0.00000   0.00000
     18715 MEOH     450      MEOH     HO2      DUMH     0.000000        1.0080           0   0.00000   0.00000
     18716 MEOH     450      MEOH     H1A      HDA3B    0.080000        1.0080           0   0.00000   0.00000
     18717 MEOH     450      MEOH     H1B      HDA3B    0.080000        1.0080           0   0.00000   0.00000
     18718 MEOH     450      MEOH     H1C      HDA3B    0.080000        1.0080           0   0.00000   0.00000
     18719 MEOH     450      MEOH     LP1A     LPD     -0.230000        0.0000           -1   0.00000   0.00000
     18720 MEOH     450      MEOH     LP1B     LPD     -0.230000        0.0000           -1   0.00000   0.00000
     18721 MEOH     451      MEOH     C1       CD33B    2.314100       11.6110           0   -1.00000   1.30000
     18722 MEOH     451      MEOH     DC1      DRUD    -2.454100        0.4000           0   0.00000   0.00000
     18723 MEOH     451      MEOH     O1       OD31H    2.488300       15.5990           0   -1.02800   1.30000
     18724 MEOH     451      MEOH     DO1      DRUD    -2.488300        0.4000           0   0.00000   0.00000
     18725 MEOH     451      MEOH     HO1      HDP1A    0.360000        1.0080           0   0.00000   0.00000
     18726 MEOH     451      MEOH     HO2      DUMH     0.000000        1.0080           0   0.00000   0.00000
     18727 MEOH     451      MEOH     H1A      HDA3B    0.080000        1.0080           0   0.00000   0.00000
     18728 MEOH     451      MEOH     H1B      HDA3B    0.080000        1.0080           0   0.00000   0.00000
     18729 MEOH     451      MEOH     H1C      HDA3B    0.080000        1.0080           0   0.00000   0.00000
     18730 MEOH     451      MEOH     LP1A     LPD     -0.230000        0.0000           -1   0.00000   0.00000
     18731 MEOH     451      MEOH     LP1B     LPD     -0.230000        0.0000           -1   0.00000   0.00000
     18732 MEOH     452      MEOH     C1       CD33B    2.314100       11.6110           0   -1.00000   1.30000
     18733 MEOH     452      MEOH     DC1      DRUD    -2.454100        0.4000           0   0.00000   0.00000
     18734 MEOH     452      MEOH     O1       OD31H    2.488300       15.5990           0   -1.02800   1.30000
     18735 MEOH     452      MEOH     DO1      DRUD    -2.488300        0.4000           0   0.00000   0.00000
     18736 MEOH     452      MEOH     HO1      HDP1A    0.360000        1.0080           0   0.00000   0.00000
     18737 MEOH     452      MEOH     HO2      DUMH     0.000000        1.0080           0   0.00000   0.00000
     18738 MEOH     452      MEOH     H1A      HDA3B    0.080000        1.0080           0   0.00000   0.00000
     18739 MEOH     452      MEOH     H1B      HDA3B    0.080000        1.0080           0   0.00000   0.00000
     18740 MEOH     452      MEOH     H1C      HDA3B    0.080000        1.0080           0   0.00000   0.00000
     18741 MEOH     452      MEOH     LP1A     LPD     -0.230000        0.0000           -1   0.00000   0.00000
     18742 MEOH     452      MEOH     LP1B     LPD     -0.230000        0.0000           -1   0.00000   0.00000
     18743 MEOH     453      MEOH     C1       CD33B    2.314100       11.6110           0   -1.00000   1.30000
     18744 MEOH     453      MEOH     DC1      DRUD    -2.454100        0.4000           0   0.00000   0.00000
     18745 MEOH     453      MEOH     O1       OD31H    2.488300       15.5990           0   -1.02800   1.30000
     18746 MEOH     453      MEOH     DO1      DRUD    -2.488300        0.4000           0   0.00000   0.00000
     18747 MEOH     453      MEOH     HO1      HDP1A    0.360000        1.0080           0   0.00000   0.00000
     18748 MEOH     453      MEOH     HO2      DUMH     0.000000        1.0080           0   0.00000   0.00000
     18749 MEOH     453      MEOH     H1A      HDA3B    0.080000        1.0080           0   0.00000   0.00000
     18750 MEOH     453      MEOH     H1B      HDA3B    0.080000        1.0080           0   0.00000   0.00000
     18751 MEOH     453      MEOH     H1C      HDA3B    0.080000        1.0080           0   0.00000   0.00000
     18752 MEOH     453      MEOH     LP1A     LPD     -0.230000        0.0000           -1   0.00000   0.00000
     18753 MEOH     453      MEOH     LP1B     LPD     -0.230000        0.0000           -1   0.00000   0.00000
     18754 MEOH     454      MEOH     C1       CD33B    2.314100       11.6110           0   -1.00000   1.30000
     18755 MEOH     454      MEOH     DC1      DRUD    -2.454100        0.4000           0   0.00000   0.00000
     18756 MEOH     454      MEOH     O1       OD31H    2.488300       15.5990           0   -1.02800   1.30000
     18757 MEOH     454      MEOH     DO1      DRUD    -2.488300        0.4000           0   0.00000   0.00000
     18758 MEOH     454      MEOH     HO1      HDP1A    0.360000        1.0080           0   0.00000   0.00000
     18759 MEOH     454      MEOH     HO2      DUMH     0.000000        1.0080           0   0.00000   0.00000
     18760 MEOH     454      MEOH     H1A      HDA3B    0.080000        1.0080           0   0.00000   0.00000
     18761 MEOH     454      MEOH     H1B      HDA3B    0.080000        1.0080           0   0.00000   0.00000
     18762 MEOH     454      MEOH     H1C      HDA3B    0.080000        1.0080           0   0.00000   0.00000
     18763 MEOH     454      MEOH     LP1A     LPD     -0.230000        0.0000           -1   0.00000   0.00000
     18764 MEOH     454      MEOH     LP1B     LPD     -0.230000        0.0000           -1   0.00000   0.00000
     18765 MEOH     455      MEOH     C1       CD33B    2.314100       11.6110           0   -1.00000   1.30000
     18766 MEOH     455      MEOH     DC1      DRUD    -2.454100        0.4000           0   0.00000   0.00000
     18767 MEOH     455      MEOH     O1       OD31H    2.488300       15.5990           0   -1.02800   1.30000
     18768 MEOH     455      MEOH     DO1      DRUD    -2.488300        0.4000           0   0.00000   0.00000
     18769 MEOH     455      MEOH     HO1      HDP1A    0.360000        1.0080           0   0.00000   0.00000
     18770 MEOH     455      MEOH     HO2      DUMH     0.000000        1.0080           0   0.00000   0.00000
     18771 MEOH     455      MEOH     H1A      HDA3B    0.080000        1.0080           0   0.00000   0.00000
     18772 MEOH     455      MEOH     H1B      HDA3B    0.080000        1.0080           0   0.00000   0.00000
     18773 MEOH     455      MEOH     H1C      HDA3B    0.080000        1.0080           0   0.00000   0.00000
     18774 MEOH     455      MEOH     LP1A     LPD     -0.230000        0.0000           -1   0.00000   0.00000
     18775 MEOH     455      MEOH     LP1B     LPD     -0.230000        0.0000           -1   0.00000   0.00000
     18776 MEOH     456      MEOH     C1       CD33B    2.314100       11.6110           0   -1.00000   1.30000
     18777 MEOH     456      MEOH     DC1      DRUD    -2.454100        0.4000           0   0.00000   0.00000
     18778 MEOH     456      MEOH     O1       OD31H    2.488300       15.5990           0   -1.02800   1.30000
     18779 MEOH     456      MEOH     DO1      DRUD    -2.488300        0.4000           0   0.00000   0.00000
     18780 MEOH     456      MEOH     HO1      HDP1A    0.360000        1.0080           0   0.00000   0.00000
     18781 MEOH     456      MEOH     HO2      DUMH     0.000000        1.0080           0   0.00000   0.00000
     18782 MEOH     456      MEOH     H1A      HDA3B    0.080000        1.0080           0   0.00000   0.00000
     18783 MEOH     456      MEOH     H1B      HDA3B    0.080000        1.0080           0   0.00000   0.00000
     18784 MEOH     456      MEOH     H1C      HDA3B    0.080000        1.0080           0   0.00000   0.00000
     18785 MEOH     456      MEOH     LP1A     LPD     -0.230000        0.0000           -1   0.00000   0.00000
     18786 MEOH     456      MEOH     LP1B     LPD     -0.230000        0.0000           -1   0.00000   0.00000
     18787 MEOH     457      MEOH     C1       CD33B    2.314100       11.6110           0   -1.00000   1.30000
     18788 MEOH     457      MEOH     DC1      DRUD    -2.454100        0.4000           0   0.00000   0.00000
     18789 MEOH     457      MEOH     O1       OD31H    2.488300       15.5990           0   -1.02800   1.30000
     18790 MEOH     457      MEOH     DO1      DRUD    -2.488300        0.4000           0   0.00000   0.00000
     18791 MEOH     457      MEOH     HO1      HDP1A    0.360000        1.0080           0   0.00000   0.00000
     18792 MEOH     457      MEOH     HO2      DUMH     0.000000        1.0080           0   0.00000   0.00000
     18793 MEOH     457      MEOH     H1A      HDA3B    0.080000        1.0080           0   0.00000   0.00000
     18794 MEOH     457      MEOH     H1B      HDA3B    0.080000        1.0080           0   0.00000   0.00000
     18795 MEOH     457      MEOH     H1C      HDA3B    0.080000        1.0080           0   0.00000   0.00000
     18796 MEOH     457      MEOH     LP1A     LPD     -0.230000        0.0000           -1   0.00000   0.00000
     18797 MEOH     457      MEOH     LP1B     LPD     -0.230000        0.0000           -1   0.00000   0.00000
     18798 MEOH     458      MEOH     C1       CD33B    2.314100       11.6110           0   -1.00000   1.30000
     18799 MEOH     458      MEOH     DC1      DRUD    -2.454100        0.4000           0   0.00000   0.00000
     18800 MEOH     458      MEOH     O1       OD31H    2.488300       15.5990           0   -1.02800   1.30000
     18801 MEOH     458      MEOH     DO1      DRUD    -2.488300        0.4000           0   0.00000   0.00000
     18802 MEOH     458      MEOH     HO1      HDP1A    0.360000        1.0080           0   0.00000   0.00000
     18803 MEOH     458      MEOH     HO2      DUMH     0.000000        1.0080           0   0.00000   0.00000
     18804 MEOH     458      MEOH     H1A      HDA3B    0.080000        1.0080           0   0.00000   0.00000
     18805 MEOH     458      MEOH     H1B      HDA3B    0.080000        1.0080           0   0.00000   0.00000
     18806 MEOH     458      MEOH     H1C      HDA3B    0.080000        1.0080           0   0.00000   0.00000
     18807 MEOH     458      MEOH     LP1A     LPD     -0.230000        0.0000           -1   0.00000   0.00000
     18808 MEOH     458      MEOH     LP1B     LPD     -0.230000        0.0000           -1   0.00000   0.00000
     18809 MEOH     459      MEOH     C1       CD33B    2.314100       11.6110           0   -1.00000   1.30000
     18810 MEOH     459      MEOH     DC1      DRUD    -2.454100        0.4000           0   0.00000   0.00000
     18811 MEOH     459      MEOH     O1       OD31H    2.488300       15.5990           0   -1.02800   1.30000
     18812 MEOH     459      MEOH     DO1      DRUD    -2.488300        0.4000           0   0.00000   0.00000
     18813 MEOH     459      MEOH     HO1      HDP1A    0.360000        1.0080           0   0.00000   0.00000
     18814 MEOH     459      MEOH     HO2      DUMH     0.000000        1.0080           0   0.00000   0.00000
     18815 MEOH     459      MEOH     H1A      HDA3B    0.080000        1.0080           0   0.00000   0.00000
     18816 MEOH     459      MEOH     H1B      HDA3B    0.080000        1.0080           0   0.00000   0.00000
     18817 MEOH     459      MEOH     H1C      HDA3B    0.080000        1.0080           0   0.00000   0.00000
     18818 MEOH     459      MEOH     LP1A     LPD     -0.230000        0.0000           -1   0.00000   0.00000
     18819 MEOH     459      MEOH     LP1B     LPD     -0.230000        0.0000           -1   0.00000   0.00000
     18820 MEOH     460      MEOH     C1       CD33B    2.314100       11.6110           0   -1.00000   1.30000
     18821 MEOH     460      MEOH     DC1      DRUD    -2.454100        0.4000           0   0.00000   0.00000
     18822 MEOH     460      MEOH     O1       OD31H    2.488300       15.5990           0   -1.02800   1.30000
     18823 MEOH     460      MEOH     DO1      DRUD    -2.488300        0.4000           0   0.00000   0.00000
     18824 MEOH     460      MEOH     HO1      HDP1A    0.360000        1.0080           0   0.00000   0.00000
     18825 MEOH     460      MEOH     HO2      DUMH     0.000000        1.0080           0   0.00000   0.00000
     18826 MEOH     460      MEOH     H1A      HDA3B    0.080000        1.0080           0   0.00000   0.00000
     18827 MEOH     460      MEOH     H1B      HDA3B    0.080000        1.0080           0   0.00000   0.00000
     18828 MEOH     460      MEOH     H1C      HDA3B    0.080000        1.0080           0   0.00000   0.00000
     18829 MEOH     460      MEOH     LP1A     LPD     -0.230000        0.0000           -1   0.00000   0.00000
     18830 MEOH     460      MEOH     LP1B     LPD     -0.230000        0.0000           -1   0.00000   0.00000
     18831 MEOH     461      MEOH     C1       CD33B    2.314100       11.6110           0   -1.00000   1.30000
     18832 MEOH     461      MEOH     DC1      DRUD    -2.454100        0.4000           0   0.00000   0.00000
     18833 MEOH     461      MEOH     O1       OD31H    2.488300       15.5990           0   -1.02800   1.30000
     18834 MEOH     461      MEOH     DO1      DRUD    -2.488300        0.4000           0   0.00000   0.00000
     18835 MEOH     461      MEOH     HO1      HDP1A    0.360000        1.0080           0   0.00000   0.00000
     18836 MEOH     461      MEOH     HO2      DUMH     0.000000        1.0080           0   0.00000   0.00000
     18837 MEOH     461      MEOH     H1A      HDA3B    0.080000        1.0080           0   0.00000   0.00000
     18838 MEOH     461      MEOH     H1B      HDA3B    0.080000        1.0080           0   0.00000   0.00000
     18839 MEOH     461      MEOH     H1C      HDA3B    0.080000        1.0080           0   0.00000   0.00000
     18840 MEOH     461      MEOH     LP1A     LPD     -0.230000        0.0000           -1   0.00000   0.00000
     18841 MEOH     461      MEOH     LP1B     LPD     -0.230000        0.0000           -1   0.00000   0.00000
     18842 MEOH     462      MEOH     C1       CD33B    2.314100       11.6110           0   -1.00000   1.30000
     18843 MEOH     462      MEOH     DC1      DRUD    -2.454100        0.4000           0   0.00000   0.00000
     18844 MEOH     462      MEOH     O1       OD31H    2.488300       15.5990           0   -1.02800   1.30000
     18845 MEOH     462      MEOH     DO1      DRUD    -2.488300        0.4000           0   0.00000   0.00000
     18846 MEOH     462      MEOH     HO1      HDP1A    0.360000        1.0080           0   0.00000   0.00000
     18847 MEOH     462      MEOH     HO2      DUMH     0.000000        1.0080           0   0.00000   0.00000
     18848 MEOH     462      MEOH     H1A      HDA3B    0.080000        1.0080           0   0.00000   0.00000
     18849 MEOH     462      MEOH     H1B      HDA3B    0.080000        1.0080           0   0.00000   0.00000
     18850 MEOH     462      MEOH     H1C      HDA3B    0.080000        1.0080           0   0.00000   0.00000
     18851 MEOH     462      MEOH     LP1A     LPD     -0.230000        0.0000           -1   0.00000   0.00000
     18852 MEOH     462      MEOH     LP1B     LPD     -0.230000        0.0000           -1   0.00000   0.00000
     18853 MEOH     463      MEOH     C1       CD33B    2.314100       11.6110           0   -1.00000   1.30000
     18854 MEOH     463      MEOH     DC1      DRUD    -2.454100        0.4000           0   0.00000   0.00000
     18855 MEOH     463      MEOH     O1       OD31H    2.488300       15.5990           0   -1.02800   1.30000
     18856 MEOH     463      MEOH     DO1      DRUD    -2.488300        0.4000           0   0.00000   0.00000
     18857 MEOH     463      MEOH     HO1      HDP1A    0.360000        1.0080           0   0.00000   0.00000
     18858 MEOH     463      MEOH     HO2      DUMH     0.000000        1.0080           0   0.00000   0.00000
     18859 MEOH     463      MEOH     H1A      HDA3B    0.080000        1.0080           0   0.00000   0.00000
     18860 MEOH     463      MEOH     H1B      HDA3B    0.080000        1.0080           0   0.00000   0.00000
     18861 MEOH     463      MEOH     H1C      HDA3B    0.080000        1.0080           0   0.00000   0.00000
     18862 MEOH     463      MEOH     LP1A     LPD     -0.230000        0.0000           -1   0.00000   0.00000
     18863 MEOH     463      MEOH     LP1B     LPD     -0.230000        0.0000           -1   0.00000   0.00000
     18864 MEOH     464      MEOH     C1       CD33B    2.314100       11.6110           0   -1.00000   1.30000
     18865 MEOH     464      MEOH     DC1      DRUD    -2.454100        0.4000           0   0.00000   0.00000
     18866 MEOH     464      MEOH     O1       OD31H    2.488300       15.5990           0   -1.02800   1.30000
     18867 MEOH     464      MEOH     DO1      DRUD    -2.488300        0.4000           0   0.00000   0.00000
     18868 MEOH     464      MEOH     HO1      HDP1A    0.360000        1.0080           0   0.00000   0.00000
     18869 MEOH     464      MEOH     HO2      DUMH     0.000000        1.0080           0   0.00000   0.00000
     18870 MEOH     464      MEOH     H1A      HDA3B    0.080000        1.0080           0   0.00000   0.00000
     18871 MEOH     464      MEOH     H1B      HDA3B    0.080000        1.0080           0   0.00000   0.00000
     18872 MEOH     464      MEOH     H1C      HDA3B    0.080000        1.0080           0   0.00000   0.00000
     18873 MEOH     464      MEOH     LP1A     LPD     -0.230000        0.0000           -1   0.00000   0.00000
     18874 MEOH     464      MEOH     LP1B     LPD     -0.230000        0.0000           -1   0.00000   0.00000
     18875 MEOH     465      MEOH     C1       CD33B    2.314100       11.6110           0   -1.00000   1.30000
     18876 MEOH     465      MEOH     DC1      DRUD    -2.454100        0.4000           0   0.00000   0.00000
     18877 MEOH     465      MEOH     O1       OD31H    2.488300       15.5990           0   -1.02800   1.30000
     18878 MEOH     465      MEOH     DO1      DRUD    -2.488300        0.4000           0   0.00000   0.00000
     18879 MEOH     465      MEOH     HO1      HDP1A    0.360000        1.0080           0   0.00000   0.00000
     18880 MEOH     465      MEOH     HO2      DUMH     0.000000        1.0080           0   0.00000   0.00000
     18881 MEOH     465      MEOH     H1A      HDA3B    0.080000        1.0080           0   0.00000   0.00000
     18882 MEOH     465      MEOH     H1B      HDA3B    0.080000        1.0080           0   0.00000   0.00000
     18883 MEOH     465      MEOH     H1C      HDA3B    0.080000        1.0080           0   0.00000   0.00000
     18884 MEOH     465      MEOH     LP1A     LPD     -0.230000        0.0000           -1   0.00000   0.00000
     18885 MEOH     465      MEOH     LP1B     LPD     -0.230000        0.0000           -1   0.00000   0.00000
     18886 MEOH     466      MEOH     C1       CD33B    2.314100       11.6110           0   -1.00000   1.30000
     18887 MEOH     466      MEOH     DC1      DRUD    -2.454100        0.4000           0   0.00000   0.00000
     18888 MEOH     466      MEOH     O1       OD31H    2.488300       15.5990           0   -1.02800   1.30000
     18889 MEOH     466      MEOH     DO1      DRUD    -2.488300        0.4000           0   0.00000   0.00000
     18890 MEOH     466      MEOH     HO1      HDP1A    0.360000        1.0080           0   0.00000   0.00000
     18891 MEOH     466      MEOH     HO2      DUMH     0.000000        1.0080           0   0.00000   0.00000
     18892 MEOH     466      MEOH     H1A      HDA3B    0.080000        1.0080           0   0.00000   0.00000
     18893 MEOH     466      MEOH     H1B      HDA3B    0.080000        1.0080           0   0.00000   0.00000
     18894 MEOH     466      MEOH     H1C      HDA3B    0.080000        1.0080           0   0.00000   0.00000
     18895 MEOH     466      MEOH     LP1A     LPD     -0.230000        0.0000           -1   0.00000   0.00000
     18896 MEOH     466      MEOH     LP1B     LPD     -0.230000        0.0000           -1   0.00000   0.00000
     18897 MEOH     467      MEOH     C1       CD33B    2.314100       11.6110           0   -1.00000   1.30000
     18898 MEOH     467      MEOH     DC1      DRUD    -2.454100        0.4000           0   0.00000   0.00000
     18899 MEOH     467      MEOH     O1       OD31H    2.488300       15.5990           0   -1.02800   1.30000
     18900 MEOH     467      MEOH     DO1      DRUD    -2.488300        0.4000           0   0.00000   0.00000
     18901 MEOH     467      MEOH     HO1      HDP1A    0.360000        1.0080           0   0.00000   0.00000
     18902 MEOH     467      MEOH     HO2      DUMH     0.000000        1.0080           0   0.00000   0.00000
     18903 MEOH     467      MEOH     H1A      HDA3B    0.080000        1.0080           0   0.00000   0.00000
     18904 MEOH     467      MEOH     H1B      HDA3B    0.080000        1.0080           0   0.00000   0.00000
     18905 MEOH     467      MEOH     H1C      HDA3B    0.080000        1.0080           0   0.00000   0.00000
     18906 MEOH     467      MEOH     LP1A     LPD     -0.230000        0.0000           -1   0.00000   0.00000
     18907 MEOH     467      MEOH     LP1B     LPD     -0.230000        0.0000           -1   0.00000   0.00000
     18908 MEOH     468      MEOH     C1       CD33B    2.314100       11.6110           0   -1.00000   1.30000
     18909 MEOH     468      MEOH     DC1      DRUD    -2.454100        0.4000           0   0.00000   0.00000
     18910 MEOH     468      MEOH     O1       OD31H    2.488300       15.5990           0   -1.02800   1.30000
     18911 MEOH     468      MEOH     DO1      DRUD    -2.488300        0.4000           0   0.00000   0.00000
     18912 MEOH     468      MEOH     HO1      HDP1A    0.360000        1.0080           0   0.00000   0.00000
     18913 MEOH     468      MEOH     HO2      DUMH     0.000000        1.0080           0   0.00000   0.00000
     18914 MEOH     468      MEOH     H1A      HDA3B    0.080000        1.0080           0   0.00000   0.00000
     18915 MEOH     468      MEOH     H1B      HDA3B    0.080000        1.0080           0   0.00000   0.00000
     18916 MEOH     468      MEOH     H1C      HDA3B    0.080000        1.0080           0   0.00000   0.00000
     18917 MEOH     468      MEOH     LP1A     LPD     -0.230000        0.0000           -1   0.00000   0.00000
     18918 MEOH     468      MEOH     LP1B     LPD     -0.230000        0.0000           -1   0.00000   0.00000
     18919 MEOH     469      MEOH     C1       CD33B    2.314100       11.6110           0   -1.00000   1.30000
     18920 MEOH     469      MEOH     DC1      DRUD    -2.454100        0.4000           0   0.00000   0.00000
     18921 MEOH     469      MEOH     O1       OD31H    2.488300       15.5990           0   -1.02800   1.30000
     18922 MEOH     469      MEOH     DO1      DRUD    -2.488300        0.4000           0   0.00000   0.00000
     18923 MEOH     469      MEOH     HO1      HDP1A    0.360000        1.0080           0   0.00000   0.00000
     18924 MEOH     469      MEOH     HO2      DUMH     0.000000        1.0080           0   0.00000   0.00000
     18925 MEOH     469      MEOH     H1A      HDA3B    0.080000        1.0080           0   0.00000   0.00000
     18926 MEOH     469      MEOH     H1B      HDA3B    0.080000        1.0080           0   0.00000   0.00000
     18927 MEOH     469      MEOH     H1C      HDA3B    0.080000        1.0080           0   0.00000   0.00000
     18928 MEOH     469      MEOH     LP1A     LPD     -0.230000        0.0000           -1   0.00000   0.00000
     18929 MEOH     469      MEOH     LP1B     LPD     -0.230000        0.0000           -1   0.00000   0.00000
     18930 MEOH     470      MEOH     C1       CD33B    2.314100       11.6110           0   -1.00000   1.30000
     18931 MEOH     470      MEOH     DC1      DRUD    -2.454100        0.4000           0   0.00000   0.00000
     18932 MEOH     470      MEOH     O1       OD31H    2.488300       15.5990           0   -1.02800   1.30000
     18933 MEOH     470      MEOH     DO1      DRUD    -2.488300        0.4000           0   0.00000   0.00000
     18934 MEOH     470      MEOH     HO1      HDP1A    0.360000        1.0080           0   0.00000   0.00000
     18935 MEOH     470      MEOH     HO2      DUMH     0.000000        1.0080           0   0.00000   0.00000
     18936 MEOH     470      MEOH     H1A      HDA3B    0.080000        1.0080           0   0.00000   0.00000
     18937 MEOH     470      MEOH     H1B      HDA3B    0.080000        1.0080           0   0.00000   0.00000
     18938 MEOH     470      MEOH     H1C      HDA3B    0.080000        1.0080           0   0.00000   0.00000
     18939 MEOH     470      MEOH     LP1A     LPD     -0.230000        0.0000           -1   0.00000   0.00000
     18940 MEOH     470      MEOH     LP1B     LPD     -0.230000        0.0000           -1   0.00000   0.00000
     18941 MEOH     471      MEOH     C1       CD33B    2.314100       11.6110           0   -1.00000   1.30000
     18942 MEOH     471      MEOH     DC1      DRUD    -2.454100        0.4000           0   0.00000   0.00000
     18943 MEOH     471      MEOH     O1       OD31H    2.488300       15.5990           0   -1.02800   1.30000
     18944 MEOH     471      MEOH     DO1      DRUD    -2.488300        0.4000           0   0.00000   0.00000
     18945 MEOH     471      MEOH     HO1      HDP1A    0.360000        1.0080           0   0.00000   0.00000
     18946 MEOH     471      MEOH     HO2      DUMH     0.000000        1.0080           0   0.00000   0.00000
     18947 MEOH     471      MEOH     H1A      HDA3B    0.080000        1.0080           0   0.00000   0.00000
     18948 MEOH     471      MEOH     H1B      HDA3B    0.080000        1.0080           0   0.00000   0.00000
     18949 MEOH     471      MEOH     H1C      HDA3B    0.080000        1.0080           0   0.00000   0.00000
     18950 MEOH     471      MEOH     LP1A     LPD     -0.230000        0.0000           -1   0.00000   0.00000
     18951 MEOH     471      MEOH     LP1B     LPD     -0.230000        0.0000           -1   0.00000   0.00000
     18952 MEOH     472      MEOH     C1       CD33B    2.314100       11.6110           0   -1.00000   1.30000
     18953 MEOH     472      MEOH     DC1      DRUD    -2.454100        0.4000           0   0.00000   0.00000
     18954 MEOH     472      MEOH     O1       OD31H    2.488300       15.5990           0   -1.02800   1.30000
     18955 MEOH     472      MEOH     DO1      DRUD    -2.488300        0.4000           0   0.00000   0.00000
     18956 MEOH     472      MEOH     HO1      HDP1A    0.360000        1.0080           0   0.00000   0.00000
     18957 MEOH     472      MEOH     HO2      DUMH     0.000000        1.0080           0   0.00000   0.00000
     18958 MEOH     472      MEOH     H1A      HDA3B    0.080000        1.0080           0   0.00000   0.00000
     18959 MEOH     472      MEOH     H1B      HDA3B    0.080000        1.0080           0   0.00000   0.00000
     18960 MEOH     472      MEOH     H1C      HDA3B    0.080000        1.0080           0   0.00000   0.00000
     18961 MEOH     472      MEOH     LP1A     LPD     -0.230000        0.0000           -1   0.00000   0.00000
     18962 MEOH     472      MEOH     LP1B     LPD     -0.230000        0.0000           -1   0.00000   0.00000
     18963 MEOH     473      MEOH     C1       CD33B    2.314100       11.6110           0   -1.00000   1.30000
     18964 MEOH     473      MEOH     DC1      DRUD    -2.454100        0.4000           0   0.00000   0.00000
     18965 MEOH     473      MEOH     O1       OD31H    2.488300       15.5990           0   -1.02800   1.30000
     18966 MEOH     473      MEOH     DO1      DRUD    -2.488300        0.4000           0   0.00000   0.00000
     18967 MEOH     473      MEOH     HO1      HDP1A    0.360000        1.0080           0   0.00000   0.00000
     18968 MEOH     473      MEOH     HO2      DUMH     0.000000        1.0080           0   0.00000   0.00000
     18969 MEOH     473      MEOH     H1A      HDA3B    0.080000        1.0080           0   0.00000   0.00000
     18970 MEOH     473      MEOH     H1B      HDA3B    0.080000        1.0080           0   0.00000   0.00000
     18971 MEOH     473      MEOH     H1C      HDA3B    0.080000        1.0080           0   0.00000   0.00000
     18972 MEOH     473      MEOH     LP1A     LPD     -0.230000        0.0000           -1   0.00000   0.00000
     18973 MEOH     473      MEOH     LP1B     LPD     -0.230000        0.0000           -1   0.00000   0.00000
     18974 MEOH     474      MEOH     C1       CD33B    2.314100       11.6110           0   -1.00000   1.30000
     18975 MEOH     474      MEOH     DC1      DRUD    -2.454100        0.4000           0   0.00000   0.00000
     18976 MEOH     474      MEOH     O1       OD31H    2.488300       15.5990           0   -1.02800   1.30000
     18977 MEOH     474      MEOH     DO1      DRUD    -2.488300        0.4000           0   0.00000   0.00000
     18978 MEOH     474      MEOH     HO1      HDP1A    0.360000        1.0080           0   0.00000   0.00000
     18979 MEOH     474      MEOH     HO2      DUMH     0.000000        1.0080           0   0.00000   0.00000
     18980 MEOH     474      MEOH     H1A      HDA3B    0.080000        1.0080           0   0.00000   0.00000
     18981 MEOH     474      MEOH     H1B      HDA3B    0.080000        1.0080           0   0.00000   0.00000
     18982 MEOH     474      MEOH     H1C      HDA3B    0.080000        1.0080           0   0.00000   0.00000
     18983 MEOH     474      MEOH     LP1A     LPD     -0.230000        0.0000           -1   0.00000   0.00000
     18984 MEOH     474      MEOH     LP1B     LPD     -0.230000        0.0000           -1   0.00000   0.00000
     18985 MEOH     475      MEOH     C1       CD33B    2.314100       11.6110           0   -1.00000   1.30000
     18986 MEOH     475      MEOH     DC1      DRUD    -2.454100        0.4000           0   0.00000   0.00000
     18987 MEOH     475      MEOH     O1       OD31H    2.488300       15.5990           0   -1.02800   1.30000
     18988 MEOH     475      MEOH     DO1      DRUD    -2.488300        0.4000           0   0.00000   0.00000
     18989 MEOH     475      MEOH     HO1      HDP1A    0.360000        1.0080           0   0.00000   0.00000
     18990 MEOH     475      MEOH     HO2      DUMH     0.000000        1.0080           0   0.00000   0.00000
     18991 MEOH     475      MEOH     H1A      HDA3B    0.080000        1.0080           0   0.00000   0.00000
     18992 MEOH     475      MEOH     H1B      HDA3B    0.080000        1.0080           0   0.00000   0.00000
     18993 MEOH     475      MEOH     H1C      HDA3B    0.080000        1.0080           0   0.00000   0.00000
     18994 MEOH     475      MEOH     LP1A     LPD     -0.230000        0.0000           -1   0.00000   0.00000
     18995 MEOH     475      MEOH     LP1B     LPD     -0.230000        0.0000           -1   0.00000   0.00000
     18996 MEOH     476      MEOH     C1       CD33B    2.314100       11.6110           0   -1.00000   1.30000
     18997 MEOH     476      MEOH     DC1      DRUD    -2.454100        0.4000           0   0.00000   0.00000
     18998 MEOH     476      MEOH     O1       OD31H    2.488300       15.5990           0   -1.02800   1.30000
     18999 MEOH     476      MEOH     DO1      DRUD    -2.488300        0.4000           0   0.00000   0.00000
     19000 MEOH     476      MEOH     HO1      HDP1A    0.360000        1.0080           0   0.00000   0.00000
     19001 MEOH     476      MEOH     HO2      DUMH     0.000000        1.0080           0   0.00000   0.00000
     19002 MEOH     476      MEOH     H1A      HDA3B    0.080000        1.0080           0   0.00000   0.00000
     19003 MEOH     476      MEOH     H1B      HDA3B    0.080000        1.0080           0   0.00000   0.00000
     19004 MEOH     476      MEOH     H1C      HDA3B    0.080000        1.0080           0   0.00000   0.00000
     19005 MEOH     476      MEOH     LP1A     LPD     -0.230000        0.0000           -1   0.00000   0.00000
     19006 MEOH     476      MEOH     LP1B     LPD     -0.230000        0.0000           -1   0.00000   0.00000
     19007 MEOH     477      MEOH     C1       CD33B    2.314100       11.6110           0   -1.00000   1.30000
     19008 MEOH     477      MEOH     DC1      DRUD    -2.454100        0.4000           0   0.00000   0.00000
     19009 MEOH     477      MEOH     O1       OD31H    2.488300       15.5990           0   -1.02800   1.30000
     19010 MEOH     477      MEOH     DO1      DRUD    -2.488300        0.4000           0   0.00000   0.00000
     19011 MEOH     477      MEOH     HO1      HDP1A    0.360000        1.0080           0   0.00000   0.00000
     19012 MEOH     477      MEOH     HO2      DUMH     0.000000        1.0080           0   0.00000   0.00000
     19013 MEOH     477      MEOH     H1A      HDA3B    0.080000        1.0080           0   0.00000   0.00000
     19014 MEOH     477      MEOH     H1B      HDA3B    0.080000        1.0080           0   0.00000   0.00000
     19015 MEOH     477      MEOH     H1C      HDA3B    0.080000        1.0080           0   0.00000   0.00000
     19016 MEOH     477      MEOH     LP1A     LPD     -0.230000        0.0000           -1   0.00000   0.00000
     19017 MEOH     477      MEOH     LP1B     LPD     -0.230000        0.0000           -1   0.00000   0.00000
     19018 MEOH     478      MEOH     C1       CD33B    2.314100       11.6110           0   -1.00000   1.30000
     19019 MEOH     478      MEOH     DC1      DRUD    -2.454100        0.4000           0   0.00000   0.00000
     19020 MEOH     478      MEOH     O1       OD31H    2.488300       15.5990           0   -1.02800   1.30000
     19021 MEOH     478      MEOH     DO1      DRUD    -2.488300        0.4000           0   0.00000   0.00000
     19022 MEOH     478      MEOH     HO1      HDP1A    0.360000        1.0080           0   0.00000   0.00000
     19023 MEOH     478      MEOH     HO2      DUMH     0.000000        1.0080           0   0.00000   0.00000
     19024 MEOH     478      MEOH     H1A      HDA3B    0.080000        1.0080           0   0.00000   0.00000
     19025 MEOH     478      MEOH     H1B      HDA3B    0.080000        1.0080           0   0.00000   0.00000
     19026 MEOH     478      MEOH     H1C      HDA3B    0.080000        1.0080           0   0.00000   0.00000
     19027 MEOH     478      MEOH     LP1A     LPD     -0.230000        0.0000           -1   0.00000   0.00000
     19028 MEOH     478      MEOH     LP1B     LPD     -0.230000        0.0000           -1   0.00000   0.00000
     19029 MEOH     479      MEOH     C1       CD33B    2.314100       11.6110           0   -1.00000   1.30000
     19030 MEOH     479      MEOH     DC1      DRUD    -2.454100        0.4000           0   0.00000   0.00000
     19031 MEOH     479      MEOH     O1       OD31H    2.488300       15.5990           0   -1.02800   1.30000
     19032 MEOH     479      MEOH     DO1      DRUD    -2.488300        0.4000           0   0.00000   0.00000
     19033 MEOH     479      MEOH     HO1      HDP1A    0.360000        1.0080           0   0.00000   0.00000
     19034 MEOH     479      MEOH     HO2      DUMH     0.000000        1.0080           0   0.00000   0.00000
     19035 MEOH     479      MEOH     H1A      HDA3B    0.080000        1.0080           0   0.00000   0.00000
     19036 MEOH     479      MEOH     H1B      HDA3B    0.080000        1.0080           0   0.00000   0.00000
     19037 MEOH     479      MEOH     H1C      HDA3B    0.080000        1.0080           0   0.00000   0.00000
     19038 MEOH     479      MEOH     LP1A     LPD     -0.230000        0.0000           -1   0.00000   0.00000
     19039 MEOH     479      MEOH     LP1B     LPD     -0.230000        0.0000           -1   0.00000   0.00000
     19040 MEOH     480      MEOH     C1       CD33B    2.314100       11.6110           0   -1.00000   1.30000
     19041 MEOH     480      MEOH     DC1      DRUD    -2.454100        0.4000           0   0.00000   0.00000
     19042 MEOH     480      MEOH     O1       OD31H    2.488300       15.5990           0   -1.02800   1.30000
     19043 MEOH     480      MEOH     DO1      DRUD    -2.488300        0.4000           0   0.00000   0.00000
     19044 MEOH     480      MEOH     HO1      HDP1A    0.360000        1.0080           0   0.00000   0.00000
     19045 MEOH     480      MEOH     HO2      DUMH     0.000000        1.0080           0   0.00000   0.00000
     19046 MEOH     480      MEOH     H1A      HDA3B    0.080000        1.0080           0   0.00000   0.00000
     19047 MEOH     480      MEOH     H1B      HDA3B    0.080000        1.0080           0   0.00000   0.00000
     19048 MEOH     480      MEOH     H1C      HDA3B    0.080000        1.0080           0   0.00000   0.00000
     19049 MEOH     480      MEOH     LP1A     LPD     -0.230000        0.0000           -1   0.00000   0.00000
     19050 MEOH     480      MEOH     LP1B     LPD     -0.230000        0.0000           -1   0.00000   0.00000
     19051 MEOH     481      MEOH     C1       CD33B    2.314100       11.6110           0   -1.00000   1.30000
     19052 MEOH     481      MEOH     DC1      DRUD    -2.454100        0.4000           0   0.00000   0.00000
     19053 MEOH     481      MEOH     O1       OD31H    2.488300       15.5990           0   -1.02800   1.30000
     19054 MEOH     481      MEOH     DO1      DRUD    -2.488300        0.4000           0   0.00000   0.00000
     19055 MEOH     481      MEOH     HO1      HDP1A    0.360000        1.0080           0   0.00000   0.00000
     19056 MEOH     481      MEOH     HO2      DUMH     0.000000        1.0080           0   0.00000   0.00000
     19057 MEOH     481      MEOH     H1A      HDA3B    0.080000        1.0080           0   0.00000   0.00000
     19058 MEOH     481      MEOH     H1B      HDA3B    0.080000        1.0080           0   0.00000   0.00000
     19059 MEOH     481      MEOH     H1C      HDA3B    0.080000        1.0080           0   0.00000   0.00000
     19060 MEOH     481      MEOH     LP1A     LPD     -0.230000        0.0000           -1   0.00000   0.00000
     19061 MEOH     481      MEOH     LP1B     LPD     -0.230000        0.0000           -1   0.00000   0.00000
     19062 MEOH     482      MEOH     C1       CD33B    2.314100       11.6110           0   -1.00000   1.30000
     19063 MEOH     482      MEOH     DC1      DRUD    -2.454100        0.4000           0   0.00000   0.00000
     19064 MEOH     482      MEOH     O1       OD31H    2.488300       15.5990           0   -1.02800   1.30000
     19065 MEOH     482      MEOH     DO1      DRUD    -2.488300        0.4000           0   0.00000   0.00000
     19066 MEOH     482      MEOH     HO1      HDP1A    0.360000        1.0080           0   0.00000   0.00000
     19067 MEOH     482      MEOH     HO2      DUMH     0.000000        1.0080           0   0.00000   0.00000
     19068 MEOH     482      MEOH     H1A      HDA3B    0.080000        1.0080           0   0.00000   0.00000
     19069 MEOH     482      MEOH     H1B      HDA3B    0.080000        1.0080           0   0.00000   0.00000
     19070 MEOH     482      MEOH     H1C      HDA3B    0.080000        1.0080           0   0.00000   0.00000
     19071 MEOH     482      MEOH     LP1A     LPD     -0.230000        0.0000           -1   0.00000   0.00000
     19072 MEOH     482      MEOH     LP1B     LPD     -0.230000        0.0000           -1   0.00000   0.00000
     19073 MEOH     483      MEOH     C1       CD33B    2.314100       11.6110           0   -1.00000   1.30000
     19074 MEOH     483      MEOH     DC1      DRUD    -2.454100        0.4000           0   0.00000   0.00000
     19075 MEOH     483      MEOH     O1       OD31H    2.488300       15.5990           0   -1.02800   1.30000
     19076 MEOH     483      MEOH     DO1      DRUD    -2.488300        0.4000           0   0.00000   0.00000
     19077 MEOH     483      MEOH     HO1      HDP1A    0.360000        1.0080           0   0.00000   0.00000
     19078 MEOH     483      MEOH     HO2      DUMH     0.000000        1.0080           0   0.00000   0.00000
     19079 MEOH     483      MEOH     H1A      HDA3B    0.080000        1.0080           0   0.00000   0.00000
     19080 MEOH     483      MEOH     H1B      HDA3B    0.080000        1.0080           0   0.00000   0.00000
     19081 MEOH     483      MEOH     H1C      HDA3B    0.080000        1.0080           0   0.00000   0.00000
     19082 MEOH     483      MEOH     LP1A     LPD     -0.230000        0.0000           -1   0.00000   0.00000
     19083 MEOH     483      MEOH     LP1B     LPD     -0.230000        0.0000           -1   0.00000   0.00000
     19084 MEOH     484      MEOH     C1       CD33B    2.314100       11.6110           0   -1.00000   1.30000
     19085 MEOH     484      MEOH     DC1      DRUD    -2.454100        0.4000           0   0.00000   0.00000
     19086 MEOH     484      MEOH     O1       OD31H    2.488300       15.5990           0   -1.02800   1.30000
     19087 MEOH     484      MEOH     DO1      DRUD    -2.488300        0.4000           0   0.00000   0.00000
     19088 MEOH     484      MEOH     HO1      HDP1A    0.360000        1.0080           0   0.00000   0.00000
     19089 MEOH     484      MEOH     HO2      DUMH     0.000000        1.0080           0   0.00000   0.00000
     19090 MEOH     484      MEOH     H1A      HDA3B    0.080000        1.0080           0   0.00000   0.00000
     19091 MEOH     484      MEOH     H1B      HDA3B    0.080000        1.0080           0   0.00000   0.00000
     19092 MEOH     484      MEOH     H1C      HDA3B    0.080000        1.0080           0   0.00000   0.00000
     19093 MEOH     484      MEOH     LP1A     LPD     -0.230000        0.0000           -1   0.00000   0.00000
     19094 MEOH     484      MEOH     LP1B     LPD     -0.230000        0.0000           -1   0.00000   0.00000
     19095 MEOH     485      MEOH     C1       CD33B    2.314100       11.6110           0   -1.00000   1.30000
     19096 MEOH     485      MEOH     DC1      DRUD    -2.454100        0.4000           0   0.00000   0.00000
     19097 MEOH     485      MEOH     O1       OD31H    2.488300       15.5990           0   -1.02800   1.30000
     19098 MEOH     485      MEOH     DO1      DRUD    -2.488300        0.4000           0   0.00000   0.00000
     19099 MEOH     485      MEOH     HO1      HDP1A    0.360000        1.0080           0   0.00000   0.00000
     19100 MEOH     485      MEOH     HO2      DUMH     0.000000        1.0080           0   0.00000   0.00000
     19101 MEOH     485      MEOH     H1A      HDA3B    0.080000        1.0080           0   0.00000   0.00000
     19102 MEOH     485      MEOH     H1B      HDA3B    0.080000        1.0080           0   0.00000   0.00000
     19103 MEOH     485      MEOH     H1C      HDA3B    0.080000        1.0080           0   0.00000   0.00000
     19104 MEOH     485      MEOH     LP1A     LPD     -0.230000        0.0000           -1   0.00000   0.00000
     19105 MEOH     485      MEOH     LP1B     LPD     -0.230000        0.0000           -1   0.00000   0.00000
     19106 MEOH     486      MEOH     C1       CD33B    2.314100       11.6110           0   -1.00000   1.30000
     19107 MEOH     486      MEOH     DC1      DRUD    -2.454100        0.4000           0   0.00000   0.00000
     19108 MEOH     486      MEOH     O1       OD31H    2.488300       15.5990           0   -1.02800   1.30000
     19109 MEOH     486      MEOH     DO1      DRUD    -2.488300        0.4000           0   0.00000   0.00000
     19110 MEOH     486      MEOH     HO1      HDP1A    0.360000        1.0080           0   0.00000   0.00000
     19111 MEOH     486      MEOH     HO2      DUMH     0.000000        1.0080           0   0.00000   0.00000
     19112 MEOH     486      MEOH     H1A      HDA3B    0.080000        1.0080           0   0.00000   0.00000
     19113 MEOH     486      MEOH     H1B      HDA3B    0.080000        1.0080           0   0.00000   0.00000
     19114 MEOH     486      MEOH     H1C      HDA3B    0.080000        1.0080           0   0.00000   0.00000
     19115 MEOH     486      MEOH     LP1A     LPD     -0.230000        0.0000           -1   0.00000   0.00000
     19116 MEOH     486      MEOH     LP1B     LPD     -0.230000        0.0000           -1   0.00000   0.00000
     19117 MEOH     487      MEOH     C1       CD33B    2.314100       11.6110           0   -1.00000   1.30000
     19118 MEOH     487      MEOH     DC1      DRUD    -2.454100        0.4000           0   0.00000   0.00000
     19119 MEOH     487      MEOH     O1       OD31H    2.488300       15.5990           0   -1.02800   1.30000
     19120 MEOH     487      MEOH     DO1      DRUD    -2.488300        0.4000           0   0.00000   0.00000
     19121 MEOH     487      MEOH     HO1      HDP1A    0.360000        1.0080           0   0.00000   0.00000
     19122 MEOH     487      MEOH     HO2      DUMH     0.000000        1.0080           0   0.00000   0.00000
     19123 MEOH     487      MEOH     H1A      HDA3B    0.080000        1.0080           0   0.00000   0.00000
     19124 MEOH     487      MEOH     H1B      HDA3B    0.080000        1.0080           0   0.00000   0.00000
     19125 MEOH     487      MEOH     H1C      HDA3B    0.080000        1.0080           0   0.00000   0.00000
     19126 MEOH     487      MEOH     LP1A     LPD     -0.230000        0.0000           -1   0.00000   0.00000
     19127 MEOH     487      MEOH     LP1B     LPD     -0.230000        0.0000           -1   0.00000   0.00000
     19128 MEOH     488      MEOH     C1       CD33B    2.314100       11.6110           0   -1.00000   1.30000
     19129 MEOH     488      MEOH     DC1      DRUD    -2.454100        0.4000           0   0.00000   0.00000
     19130 MEOH     488      MEOH     O1       OD31H    2.488300       15.5990           0   -1.02800   1.30000
     19131 MEOH     488      MEOH     DO1      DRUD    -2.488300        0.4000           0   0.00000   0.00000
     19132 MEOH     488      MEOH     HO1      HDP1A    0.360000        1.0080           0   0.00000   0.00000
     19133 MEOH     488      MEOH     HO2      DUMH     0.000000        1.0080           0   0.00000   0.00000
     19134 MEOH     488      MEOH     H1A      HDA3B    0.080000        1.0080           0   0.00000   0.00000
     19135 MEOH     488      MEOH     H1B      HDA3B    0.080000        1.0080           0   0.00000   0.00000
     19136 MEOH     488      MEOH     H1C      HDA3B    0.080000        1.0080           0   0.00000   0.00000
     19137 MEOH     488      MEOH     LP1A     LPD     -0.230000        0.0000           -1   0.00000   0.00000
     19138 MEOH     488      MEOH     LP1B     LPD     -0.230000        0.0000           -1   0.00000   0.00000
     19139 MEOH     489      MEOH     C1       CD33B    2.314100       11.6110           0   -1.00000   1.30000
     19140 MEOH     489      MEOH     DC1      DRUD    -2.454100        0.4000           0   0.00000   0.00000
     19141 MEOH     489      MEOH     O1       OD31H    2.488300       15.5990           0   -1.02800   1.30000
     19142 MEOH     489      MEOH     DO1      DRUD    -2.488300        0.4000           0   0.00000   0.00000
     19143 MEOH     489      MEOH     HO1      HDP1A    0.360000        1.0080           0   0.00000   0.00000
     19144 MEOH     489      MEOH     HO2      DUMH     0.000000        1.0080           0   0.00000   0.00000
     19145 MEOH     489      MEOH     H1A      HDA3B    0.080000        1.0080           0   0.00000   0.00000
     19146 MEOH     489      MEOH     H1B      HDA3B    0.080000        1.0080           0   0.00000   0.00000
     19147 MEOH     489      MEOH     H1C      HDA3B    0.080000        1.0080           0   0.00000   0.00000
     19148 MEOH     489      MEOH     LP1A     LPD     -0.230000        0.0000           -1   0.00000   0.00000
     19149 MEOH     489      MEOH     LP1B     LPD     -0.230000        0.0000           -1   0.00000   0.00000
     19150 MEOH     490      MEOH     C1       CD33B    2.314100       11.6110           0   -1.00000   1.30000
     19151 MEOH     490      MEOH     DC1      DRUD    -2.454100        0.4000           0   0.00000   0.00000
     19152 MEOH     490      MEOH     O1       OD31H    2.488300       15.5990           0   -1.02800   1.30000
     19153 MEOH     490      MEOH     DO1      DRUD    -2.488300        0.4000           0   0.00000   0.00000
     19154 MEOH     490      MEOH     HO1      HDP1A    0.360000        1.0080           0   0.00000   0.00000
     19155 MEOH     490      MEOH     HO2      DUMH     0.000000        1.0080           0   0.00000   0.00000
     19156 MEOH     490      MEOH     H1A      HDA3B    0.080000        1.0080           0   0.00000   0.00000
     19157 MEOH     490      MEOH     H1B      HDA3B    0.080000        1.0080           0   0.00000   0.00000
     19158 MEOH     490      MEOH     H1C      HDA3B    0.080000        1.0080           0   0.00000   0.00000
     19159 MEOH     490      MEOH     LP1A     LPD     -0.230000        0.0000           -1   0.00000   0.00000
     19160 MEOH     490      MEOH     LP1B     LPD     -0.230000        0.0000           -1   0.00000   0.00000
     19161 MEOH     491      MEOH     C1       CD33B    2.314100       11.6110           0   -1.00000   1.30000
     19162 MEOH     491      MEOH     DC1      DRUD    -2.454100        0.4000           0   0.00000   0.00000
     19163 MEOH     491      MEOH     O1       OD31H    2.488300       15.5990           0   -1.02800   1.30000
     19164 MEOH     491      MEOH     DO1      DRUD    -2.488300        0.4000           0   0.00000   0.00000
     19165 MEOH     491      MEOH     HO1      HDP1A    0.360000        1.0080           0   0.00000   0.00000
     19166 MEOH     491      MEOH     HO2      DUMH     0.000000        1.0080           0   0.00000   0.00000
     19167 MEOH     491      MEOH     H1A      HDA3B    0.080000        1.0080           0   0.00000   0.00000
     19168 MEOH     491      MEOH     H1B      HDA3B    0.080000        1.0080           0   0.00000   0.00000
     19169 MEOH     491      MEOH     H1C      HDA3B    0.080000        1.0080           0   0.00000   0.00000
     19170 MEOH     491      MEOH     LP1A     LPD     -0.230000        0.0000           -1   0.00000   0.00000
     19171 MEOH     491      MEOH     LP1B     LPD     -0.230000        0.0000           -1   0.00000   0.00000
     19172 MEOH     492      MEOH     C1       CD33B    2.314100       11.6110           0   -1.00000   1.30000
     19173 MEOH     492      MEOH     DC1      DRUD    -2.454100        0.4000           0   0.00000   0.00000
     19174 MEOH     492      MEOH     O1       OD31H    2.488300       15.5990           0   -1.02800   1.30000
     19175 MEOH     492      MEOH     DO1      DRUD    -2.488300        0.4000           0   0.00000   0.00000
     19176 MEOH     492      MEOH     HO1      HDP1A    0.360000        1.0080           0   0.00000   0.00000
     19177 MEOH     492      MEOH     HO2      DUMH     0.000000        1.0080           0   0.00000   0.00000
     19178 MEOH     492      MEOH     H1A      HDA3B    0.080000        1.0080           0   0.00000   0.00000
     19179 MEOH     492      MEOH     H1B      HDA3B    0.080000        1.0080           0   0.00000   0.00000
     19180 MEOH     492      MEOH     H1C      HDA3B    0.080000        1.0080           0   0.00000   0.00000
     19181 MEOH     492      MEOH     LP1A     LPD     -0.230000        0.0000           -1   0.00000   0.00000
     19182 MEOH     492      MEOH     LP1B     LPD     -0.230000        0.0000           -1   0.00000   0.00000
     19183 MEOH     493      MEOH     C1       CD33B    2.314100       11.6110           0   -1.00000   1.30000
     19184 MEOH     493      MEOH     DC1      DRUD    -2.454100        0.4000           0   0.00000   0.00000
     19185 MEOH     493      MEOH     O1       OD31H    2.488300       15.5990           0   -1.02800   1.30000
     19186 MEOH     493      MEOH     DO1      DRUD    -2.488300        0.4000           0   0.00000   0.00000
     19187 MEOH     493      MEOH     HO1      HDP1A    0.360000        1.0080           0   0.00000   0.00000
     19188 MEOH     493      MEOH     HO2      DUMH     0.000000        1.0080           0   0.00000   0.00000
     19189 MEOH     493      MEOH     H1A      HDA3B    0.080000        1.0080           0   0.00000   0.00000
     19190 MEOH     493      MEOH     H1B      HDA3B    0.080000        1.0080           0   0.00000   0.00000
     19191 MEOH     493      MEOH     H1C      HDA3B    0.080000        1.0080           0   0.00000   0.00000
     19192 MEOH     493      MEOH     LP1A     LPD     -0.230000        0.0000           -1   0.00000   0.00000
     19193 MEOH     493      MEOH     LP1B     LPD     -0.230000        0.0000           -1   0.00000   0.00000
     19194 MEOH     494      MEOH     C1       CD33B    2.314100       11.6110           0   -1.00000   1.30000
     19195 MEOH     494      MEOH     DC1      DRUD    -2.454100        0.4000           0   0.00000   0.00000
     19196 MEOH     494      MEOH     O1       OD31H    2.488300       15.5990           0   -1.02800   1.30000
     19197 MEOH     494      MEOH     DO1      DRUD    -2.488300        0.4000           0   0.00000   0.00000
     19198 MEOH     494      MEOH     HO1      HDP1A    0.360000        1.0080           0   0.00000   0.00000
     19199 MEOH     494      MEOH     HO2      DUMH     0.000000        1.0080           0   0.00000   0.00000
     19200 MEOH     494      MEOH     H1A      HDA3B    0.080000        1.0080           0   0.00000   0.00000
     19201 MEOH     494      MEOH     H1B      HDA3B    0.080000        1.0080           0   0.00000   0.00000
     19202 MEOH     494      MEOH     H1C      HDA3B    0.080000        1.0080           0   0.00000   0.00000
     19203 MEOH     494      MEOH     LP1A     LPD     -0.230000        0.0000           -1   0.00000   0.00000
     19204 MEOH     494      MEOH     LP1B     LPD     -0.230000        0.0000           -1   0.00000   0.00000
     19205 MEOH     495      MEOH     C1       CD33B    2.314100       11.6110           0   -1.00000   1.30000
     19206 MEOH     495      MEOH     DC1      DRUD    -2.454100        0.4000           0   0.00000   0.00000
     19207 MEOH     495      MEOH     O1       OD31H    2.488300       15.5990           0   -1.02800   1.30000
     19208 MEOH     495      MEOH     DO1      DRUD    -2.488300        0.4000           0   0.00000   0.00000
     19209 MEOH     495      MEOH     HO1      HDP1A    0.360000        1.0080           0   0.00000   0.00000
     19210 MEOH     495      MEOH     HO2      DUMH     0.000000        1.0080           0   0.00000   0.00000
     19211 MEOH     495      MEOH     H1A      HDA3B    0.080000        1.0080           0   0.00000   0.00000
     19212 MEOH     495      MEOH     H1B      HDA3B    0.080000        1.0080           0   0.00000   0.00000
     19213 MEOH     495      MEOH     H1C      HDA3B    0.080000        1.0080           0   0.00000   0.00000
     19214 MEOH     495      MEOH     LP1A     LPD     -0.230000        0.0000           -1   0.00000   0.00000
     19215 MEOH     495      MEOH     LP1B     LPD     -0.230000        0.0000           -1   0.00000   0.00000
     19216 MEOH     496      MEOH     C1       CD33B    2.314100       11.6110           0   -1.00000   1.30000
     19217 MEOH     496      MEOH     DC1      DRUD    -2.454100        0.4000           0   0.00000   0.00000
     19218 MEOH     496      MEOH     O1       OD31H    2.488300       15.5990           0   -1.02800   1.30000
     19219 MEOH     496      MEOH     DO1      DRUD    -2.488300        0.4000           0   0.00000   0.00000
     19220 MEOH     496      MEOH     HO1      HDP1A    0.360000        1.0080           0   0.00000   0.00000
     19221 MEOH     496      MEOH     HO2      DUMH     0.000000        1.0080           0   0.00000   0.00000
     19222 MEOH     496      MEOH     H1A      HDA3B    0.080000        1.0080           0   0.00000   0.00000
     19223 MEOH     496      MEOH     H1B      HDA3B    0.080000        1.0080           0   0.00000   0.00000
     19224 MEOH     496      MEOH     H1C      HDA3B    0.080000        1.0080           0   0.00000   0.00000
     19225 MEOH     496      MEOH     LP1A     LPD     -0.230000        0.0000           -1   0.00000   0.00000
     19226 MEOH     496      MEOH     LP1B     LPD     -0.230000        0.0000           -1   0.00000   0.00000
     19227 MEOH     497      MEOH     C1       CD33B    2.314100       11.6110           0   -1.00000   1.30000
     19228 MEOH     497      MEOH     DC1      DRUD    -2.454100        0.4000           0   0.00000   0.00000
     19229 MEOH     497      MEOH     O1       OD31H    2.488300       15.5990           0   -1.02800   1.30000
     19230 MEOH     497      MEOH     DO1      DRUD    -2.488300        0.4000           0   0.00000   0.00000
     19231 MEOH     497      MEOH     HO1      HDP1A    0.360000        1.0080           0   0.00000   0.00000
     19232 MEOH     497      MEOH     HO2      DUMH     0.000000        1.0080           0   0.00000   0.00000
     19233 MEOH     497      MEOH     H1A      HDA3B    0.080000        1.0080           0   0.00000   0.00000
     19234 MEOH     497      MEOH     H1B      HDA3B    0.080000        1.0080           0   0.00000   0.00000
     19235 MEOH     497      MEOH     H1C      HDA3B    0.080000        1.0080           0   0.00000   0.00000
     19236 MEOH     497      MEOH     LP1A     LPD     -0.230000        0.0000           -1   0.00000   0.00000
     19237 MEOH     497      MEOH     LP1B     LPD     -0.230000        0.0000           -1   0.00000   0.00000
     19238 MEOH     498      MEOH     C1       CD33B    2.314100       11.6110           0   -1.00000   1.30000
     19239 MEOH     498      MEOH     DC1      DRUD    -2.454100        0.4000           0   0.00000   0.00000
     19240 MEOH     498      MEOH     O1       OD31H    2.488300       15.5990           0   -1.02800   1.30000
     19241 MEOH     498      MEOH     DO1      DRUD    -2.488300        0.4000           0   0.00000   0.00000
     19242 MEOH     498      MEOH     HO1      HDP1A    0.360000        1.0080           0   0.00000   0.00000
     19243 MEOH     498      MEOH     HO2      DUMH     0.000000        1.0080           0   0.00000   0.00000
     19244 MEOH     498      MEOH     H1A      HDA3B    0.080000        1.0080           0   0.00000   0.00000
     19245 MEOH     498      MEOH     H1B      HDA3B    0.080000        1.0080           0   0.00000   0.00000
     19246 MEOH     498      MEOH     H1C      HDA3B    0.080000        1.0080           0   0.00000   0.00000
     19247 MEOH     498      MEOH     LP1A     LPD     -0.230000        0.0000           -1   0.00000   0.00000
     19248 MEOH     498      MEOH     LP1B     LPD     -0.230000        0.0000           -1   0.00000   0.00000
     19249 MEOH     499      MEOH     C1       CD33B    2.314100       11.6110           0   -1.00000   1.30000
     19250 MEOH     499      MEOH     DC1      DRUD    -2.454100        0.4000           0   0.00000   0.00000
     19251 MEOH     499      MEOH     O1       OD31H    2.488300       15.5990           0   -1.02800   1.30000
     19252 MEOH     499      MEOH     DO1      DRUD    -2.488300        0.4000           0   0.00000   0.00000
     19253 MEOH     499      MEOH     HO1      HDP1A    0.360000        1.0080           0   0.00000   0.00000
     19254 MEOH     499      MEOH     HO2      DUMH     0.000000        1.0080           0   0.00000   0.00000
     19255 MEOH     499      MEOH     H1A      HDA3B    0.080000        1.0080           0   0.00000   0.00000
     19256 MEOH     499      MEOH     H1B      HDA3B    0.080000        1.0080           0   0.00000   0.00000
     19257 MEOH     499      MEOH     H1C      HDA3B    0.080000        1.0080           0   0.00000   0.00000
     19258 MEOH     499      MEOH     LP1A     LPD     -0.230000        0.0000           -1   0.00000   0.00000
     19259 MEOH     499      MEOH     LP1B     LPD     -0.230000        0.0000           -1   0.00000   0.00000
     19260 MEOH     500      MEOH     C1       CD33B    2.314100       11.6110           0   -1.00000   1.30000
     19261 MEOH     500      MEOH     DC1      DRUD    -2.454100        0.4000           0   0.00000   0.00000
     19262 MEOH     500      MEOH     O1       OD31H    2.488300       15.5990           0   -1.02800   1.30000
     19263 MEOH     500      MEOH     DO1      DRUD    -2.488300        0.4000           0   0.00000   0.00000
     19264 MEOH     500      MEOH     HO1      HDP1A    0.360000        1.0080           0   0.00000   0.00000
     19265 MEOH     500      MEOH     HO2      DUMH     0.000000        1.0080           0   0.00000   0.00000
     19266 MEOH     500      MEOH     H1A      HDA3B    0.080000        1.0080           0   0.00000   0.00000
     19267 MEOH     500      MEOH     H1B      HDA3B    0.080000        1.0080           0   0.00000   0.00000
     19268 MEOH     500      MEOH     H1C      HDA3B    0.080000        1.0080           0   0.00000   0.00000
     19269 MEOH     500      MEOH     LP1A     LPD     -0.230000        0.0000           -1   0.00000   0.00000
     19270 MEOH     500      MEOH     LP1B     LPD     -0.230000        0.0000           -1   0.00000   0.00000
     19271 MEOH     501      MEOH     C1       CD33B    2.314100       11.6110           0   -1.00000   1.30000
     19272 MEOH     501      MEOH     DC1      DRUD    -2.454100        0.4000           0   0.00000   0.00000
     19273 MEOH     501      MEOH     O1       OD31H    2.488300       15.5990           0   -1.02800   1.30000
     19274 MEOH     501      MEOH     DO1      DRUD    -2.488300        0.4000           0   0.00000   0.00000
     19275 MEOH     501      MEOH     HO1      HDP1A    0.360000        1.0080           0   0.00000   0.00000
     19276 MEOH     501      MEOH     HO2      DUMH     0.000000        1.0080           0   0.00000   0.00000
     19277 MEOH     501      MEOH     H1A      HDA3B    0.080000        1.0080           0   0.00000   0.00000
     19278 MEOH     501      MEOH     H1B      HDA3B    0.080000        1.0080           0   0.00000   0.00000
     19279 MEOH     501      MEOH     H1C      HDA3B    0.080000        1.0080           0   0.00000   0.00000
     19280 MEOH     501      MEOH     LP1A     LPD     -0.230000        0.0000           -1   0.00000   0.00000
     19281 MEOH     501      MEOH     LP1B     LPD     -0.230000        0.0000           -1   0.00000   0.00000
     19282 MEOH     502      MEOH     C1       CD33B    2.314100       11.6110           0   -1.00000   1.30000
     19283 MEOH     502      MEOH     DC1      DRUD    -2.454100        0.4000           0   0.00000   0.00000
     19284 MEOH     502      MEOH     O1       OD31H    2.488300       15.5990           0   -1.02800   1.30000
     19285 MEOH     502      MEOH     DO1      DRUD    -2.488300        0.4000           0   0.00000   0.00000
     19286 MEOH     502      MEOH     HO1      HDP1A    0.360000        1.0080           0   0.00000   0.00000
     19287 MEOH     502      MEOH     HO2      DUMH     0.000000        1.0080           0   0.00000   0.00000
     19288 MEOH     502      MEOH     H1A      HDA3B    0.080000        1.0080           0   0.00000   0.00000
     19289 MEOH     502      MEOH     H1B      HDA3B    0.080000        1.0080           0   0.00000   0.00000
     19290 MEOH     502      MEOH     H1C      HDA3B    0.080000        1.0080           0   0.00000   0.00000
     19291 MEOH     502      MEOH     LP1A     LPD     -0.230000        0.0000           -1   0.00000   0.00000
     19292 MEOH     502      MEOH     LP1B     LPD     -0.230000        0.0000           -1   0.00000   0.00000
     19293 MEOH     503      MEOH     C1       CD33B    2.314100       11.6110           0   -1.00000   1.30000
     19294 MEOH     503      MEOH     DC1      DRUD    -2.454100        0.4000           0   0.00000   0.00000
     19295 MEOH     503      MEOH     O1       OD31H    2.488300       15.5990           0   -1.02800   1.30000
     19296 MEOH     503      MEOH     DO1      DRUD    -2.488300        0.4000           0   0.00000   0.00000
     19297 MEOH     503      MEOH     HO1      HDP1A    0.360000        1.0080           0   0.00000   0.00000
     19298 MEOH     503      MEOH     HO2      DUMH     0.000000        1.0080           0   0.00000   0.00000
     19299 MEOH     503      MEOH     H1A      HDA3B    0.080000        1.0080           0   0.00000   0.00000
     19300 MEOH     503      MEOH     H1B      HDA3B    0.080000        1.0080           0   0.00000   0.00000
     19301 MEOH     503      MEOH     H1C      HDA3B    0.080000        1.0080           0   0.00000   0.00000
     19302 MEOH     503      MEOH     LP1A     LPD     -0.230000        0.0000           -1   0.00000   0.00000
     19303 MEOH     503      MEOH     LP1B     LPD     -0.230000        0.0000           -1   0.00000   0.00000
     19304 MEOH     504      MEOH     C1       CD33B    2.314100       11.6110           0   -1.00000   1.30000
     19305 MEOH     504      MEOH     DC1      DRUD    -2.454100        0.4000           0   0.00000   0.00000
     19306 MEOH     504      MEOH     O1       OD31H    2.488300       15.5990           0   -1.02800   1.30000
     19307 MEOH     504      MEOH     DO1      DRUD    -2.488300        0.4000           0   0.00000   0.00000
     19308 MEOH     504      MEOH     HO1      HDP1A    0.360000        1.0080           0   0.00000   0.00000
     19309 MEOH     504      MEOH     HO2      DUMH     0.000000        1.0080           0   0.00000   0.00000
     19310 MEOH     504      MEOH     H1A      HDA3B    0.080000        1.0080           0   0.00000   0.00000
     19311 MEOH     504      MEOH     H1B      HDA3B    0.080000        1.0080           0   0.00000   0.00000
     19312 MEOH     504      MEOH     H1C      HDA3B    0.080000        1.0080           0   0.00000   0.00000
     19313 MEOH     504      MEOH     LP1A     LPD     -0.230000        0.0000           -1   0.00000   0.00000
     19314 MEOH     504      MEOH     LP1B     LPD     -0.230000        0.0000           -1   0.00000   0.00000
     19315 MEOH     505      MEOH     C1       CD33B    2.314100       11.6110           0   -1.00000   1.30000
     19316 MEOH     505      MEOH     DC1      DRUD    -2.454100        0.4000           0   0.00000   0.00000
     19317 MEOH     505      MEOH     O1       OD31H    2.488300       15.5990           0   -1.02800   1.30000
     19318 MEOH     505      MEOH     DO1      DRUD    -2.488300        0.4000           0   0.00000   0.00000
     19319 MEOH     505      MEOH     HO1      HDP1A    0.360000        1.0080           0   0.00000   0.00000
     19320 MEOH     505      MEOH     HO2      DUMH     0.000000        1.0080           0   0.00000   0.00000
     19321 MEOH     505      MEOH     H1A      HDA3B    0.080000        1.0080           0   0.00000   0.00000
     19322 MEOH     505      MEOH     H1B      HDA3B    0.080000        1.0080           0   0.00000   0.00000
     19323 MEOH     505      MEOH     H1C      HDA3B    0.080000        1.0080           0   0.00000   0.00000
     19324 MEOH     505      MEOH     LP1A     LPD     -0.230000        0.0000           -1   0.00000   0.00000
     19325 MEOH     505      MEOH     LP1B     LPD     -0.230000        0.0000           -1   0.00000   0.00000
     19326 MEOH     506      MEOH     C1       CD33B    2.314100       11.6110           0   -1.00000   1.30000
     19327 MEOH     506      MEOH     DC1      DRUD    -2.454100        0.4000           0   0.00000   0.00000
     19328 MEOH     506      MEOH     O1       OD31H    2.488300       15.5990           0   -1.02800   1.30000
     19329 MEOH     506      MEOH     DO1      DRUD    -2.488300        0.4000           0   0.00000   0.00000
     19330 MEOH     506      MEOH     HO1      HDP1A    0.360000        1.0080           0   0.00000   0.00000
     19331 MEOH     506      MEOH     HO2      DUMH     0.000000        1.0080           0   0.00000   0.00000
     19332 MEOH     506      MEOH     H1A      HDA3B    0.080000        1.0080           0   0.00000   0.00000
     19333 MEOH     506      MEOH     H1B      HDA3B    0.080000        1.0080           0   0.00000   0.00000
     19334 MEOH     506      MEOH     H1C      HDA3B    0.080000        1.0080           0   0.00000   0.00000
     19335 MEOH     506      MEOH     LP1A     LPD     -0.230000        0.0000           -1   0.00000   0.00000
     19336 MEOH     506      MEOH     LP1B     LPD     -0.230000        0.0000           -1   0.00000   0.00000
     19337 MEOH     507      MEOH     C1       CD33B    2.314100       11.6110           0   -1.00000   1.30000
     19338 MEOH     507      MEOH     DC1      DRUD    -2.454100        0.4000           0   0.00000   0.00000
     19339 MEOH     507      MEOH     O1       OD31H    2.488300       15.5990           0   -1.02800   1.30000
     19340 MEOH     507      MEOH     DO1      DRUD    -2.488300        0.4000           0   0.00000   0.00000
     19341 MEOH     507      MEOH     HO1      HDP1A    0.360000        1.0080           0   0.00000   0.00000
     19342 MEOH     507      MEOH     HO2      DUMH     0.000000        1.0080           0   0.00000   0.00000
     19343 MEOH     507      MEOH     H1A      HDA3B    0.080000        1.0080           0   0.00000   0.00000
     19344 MEOH     507      MEOH     H1B      HDA3B    0.080000        1.0080           0   0.00000   0.00000
     19345 MEOH     507      MEOH     H1C      HDA3B    0.080000        1.0080           0   0.00000   0.00000
     19346 MEOH     507      MEOH     LP1A     LPD     -0.230000        0.0000           -1   0.00000   0.00000
     19347 MEOH     507      MEOH     LP1B     LPD     -0.230000        0.0000           -1   0.00000   0.00000
     19348 MEOH     508      MEOH     C1       CD33B    2.314100       11.6110           0   -1.00000   1.30000
     19349 MEOH     508      MEOH     DC1      DRUD    -2.454100        0.4000           0   0.00000   0.00000
     19350 MEOH     508      MEOH     O1       OD31H    2.488300       15.5990           0   -1.02800   1.30000
     19351 MEOH     508      MEOH     DO1      DRUD    -2.488300        0.4000           0   0.00000   0.00000
     19352 MEOH     508      MEOH     HO1      HDP1A    0.360000        1.0080           0   0.00000   0.00000
     19353 MEOH     508      MEOH     HO2      DUMH     0.000000        1.0080           0   0.00000   0.00000
     19354 MEOH     508      MEOH     H1A      HDA3B    0.080000        1.0080           0   0.00000   0.00000
     19355 MEOH     508      MEOH     H1B      HDA3B    0.080000        1.0080           0   0.00000   0.00000
     19356 MEOH     508      MEOH     H1C      HDA3B    0.080000        1.0080           0   0.00000   0.00000
     19357 MEOH     508      MEOH     LP1A     LPD     -0.230000        0.0000           -1   0.00000   0.00000
     19358 MEOH     508      MEOH     LP1B     LPD     -0.230000        0.0000           -1   0.00000   0.00000
     19359 MEOH     509      MEOH     C1       CD33B    2.314100       11.6110           0   -1.00000   1.30000
     19360 MEOH     509      MEOH     DC1      DRUD    -2.454100        0.4000           0   0.00000   0.00000
     19361 MEOH     509      MEOH     O1       OD31H    2.488300       15.5990           0   -1.02800   1.30000
     19362 MEOH     509      MEOH     DO1      DRUD    -2.488300        0.4000           0   0.00000   0.00000
     19363 MEOH     509      MEOH     HO1      HDP1A    0.360000        1.0080           0   0.00000   0.00000
     19364 MEOH     509      MEOH     HO2      DUMH     0.000000        1.0080           0   0.00000   0.00000
     19365 MEOH     509      MEOH     H1A      HDA3B    0.080000        1.0080           0   0.00000   0.00000
     19366 MEOH     509      MEOH     H1B      HDA3B    0.080000        1.0080           0   0.00000   0.00000
     19367 MEOH     509      MEOH     H1C      HDA3B    0.080000        1.0080           0   0.00000   0.00000
     19368 MEOH     509      MEOH     LP1A     LPD     -0.230000        0.0000           -1   0.00000   0.00000
     19369 MEOH     509      MEOH     LP1B     LPD     -0.230000        0.0000           -1   0.00000   0.00000
     19370 MEOH     510      MEOH     C1       CD33B    2.314100       11.6110           0   -1.00000   1.30000
     19371 MEOH     510      MEOH     DC1      DRUD    -2.454100        0.4000           0   0.00000   0.00000
     19372 MEOH     510      MEOH     O1       OD31H    2.488300       15.5990           0   -1.02800   1.30000
     19373 MEOH     510      MEOH     DO1      DRUD    -2.488300        0.4000           0   0.00000   0.00000
     19374 MEOH     510      MEOH     HO1      HDP1A    0.360000        1.0080           0   0.00000   0.00000
     19375 MEOH     510      MEOH     HO2      DUMH     0.000000        1.0080           0   0.00000   0.00000
     19376 MEOH     510      MEOH     H1A      HDA3B    0.080000        1.0080           0   0.00000   0.00000
     19377 MEOH     510      MEOH     H1B      HDA3B    0.080000        1.0080           0   0.00000   0.00000
     19378 MEOH     510      MEOH     H1C      HDA3B    0.080000        1.0080           0   0.00000   0.00000
     19379 MEOH     510      MEOH     LP1A     LPD     -0.230000        0.0000           -1   0.00000   0.00000
     19380 MEOH     510      MEOH     LP1B     LPD     -0.230000        0.0000           -1   0.00000   0.00000
     19381 MEOH     511      MEOH     C1       CD33B    2.314100       11.6110           0   -1.00000   1.30000
     19382 MEOH     511      MEOH     DC1      DRUD    -2.454100        0.4000           0   0.00000   0.00000
     19383 MEOH     511      MEOH     O1       OD31H    2.488300       15.5990           0   -1.02800   1.30000
     19384 MEOH     511      MEOH     DO1      DRUD    -2.488300        0.4000           0   0.00000   0.00000
     19385 MEOH     511      MEOH     HO1      HDP1A    0.360000        1.0080           0   0.00000   0.00000
     19386 MEOH     511      MEOH     HO2      DUMH     0.000000        1.0080           0   0.00000   0.00000
     19387 MEOH     511      MEOH     H1A      HDA3B    0.080000        1.0080           0   0.00000   0.00000
     19388 MEOH     511      MEOH     H1B      HDA3B    0.080000        1.0080           0   0.00000   0.00000
     19389 MEOH     511      MEOH     H1C      HDA3B    0.080000        1.0080           0   0.00000   0.00000
     19390 MEOH     511      MEOH     LP1A     LPD     -0.230000        0.0000           -1   0.00000   0.00000
     19391 MEOH     511      MEOH     LP1B     LPD     -0.230000        0.0000           -1   0.00000   0.00000
     19392 MEOH     512      MEOH     C1       CD33B    2.314100       11.6110           0   -1.00000   1.30000
     19393 MEOH     512      MEOH     DC1      DRUD    -2.454100        0.4000           0   0.00000   0.00000
     19394 MEOH     512      MEOH     O1       OD31H    2.488300       15.5990           0   -1.02800   1.30000
     19395 MEOH     512      MEOH     DO1      DRUD    -2.488300        0.4000           0   0.00000   0.00000
     19396 MEOH     512      MEOH     HO1      HDP1A    0.360000        1.0080           0   0.00000   0.00000
     19397 MEOH     512      MEOH     HO2      DUMH     0.000000        1.0080           0   0.00000   0.00000
     19398 MEOH     512      MEOH     H1A      HDA3B    0.080000        1.0080           0   0.00000   0.00000
     19399 MEOH     512      MEOH     H1B      HDA3B    0.080000        1.0080           0   0.00000   0.00000
     19400 MEOH     512      MEOH     H1C      HDA3B    0.080000        1.0080           0   0.00000   0.00000
     19401 MEOH     512      MEOH     LP1A     LPD     -0.230000        0.0000           -1   0.00000   0.00000
     19402 MEOH     512      MEOH     LP1B     LPD     -0.230000        0.0000           -1   0.00000   0.00000
     19403 MEOH     513      MEOH     C1       CD33B    2.314100       11.6110           0   -1.00000   1.30000
     19404 MEOH     513      MEOH     DC1      DRUD    -2.454100        0.4000           0   0.00000   0.00000
     19405 MEOH     513      MEOH     O1       OD31H    2.488300       15.5990           0   -1.02800   1.30000
     19406 MEOH     513      MEOH     DO1      DRUD    -2.488300        0.4000           0   0.00000   0.00000
     19407 MEOH     513      MEOH     HO1      HDP1A    0.360000        1.0080           0   0.00000   0.00000
     19408 MEOH     513      MEOH     HO2      DUMH     0.000000        1.0080           0   0.00000   0.00000
     19409 MEOH     513      MEOH     H1A      HDA3B    0.080000        1.0080           0   0.00000   0.00000
     19410 MEOH     513      MEOH     H1B      HDA3B    0.080000        1.0080           0   0.00000   0.00000
     19411 MEOH     513      MEOH     H1C      HDA3B    0.080000        1.0080           0   0.00000   0.00000
     19412 MEOH     513      MEOH     LP1A     LPD     -0.230000        0.0000           -1   0.00000   0.00000
     19413 MEOH     513      MEOH     LP1B     LPD     -0.230000        0.0000           -1   0.00000   0.00000
     19414 MEOH     514      MEOH     C1       CD33B    2.314100       11.6110           0   -1.00000   1.30000
     19415 MEOH     514      MEOH     DC1      DRUD    -2.454100        0.4000           0   0.00000   0.00000
     19416 MEOH     514      MEOH     O1       OD31H    2.488300       15.5990           0   -1.02800   1.30000
     19417 MEOH     514      MEOH     DO1      DRUD    -2.488300        0.4000           0   0.00000   0.00000
     19418 MEOH     514      MEOH     HO1      HDP1A    0.360000        1.0080           0   0.00000   0.00000
     19419 MEOH     514      MEOH     HO2      DUMH     0.000000        1.0080           0   0.00000   0.00000
     19420 MEOH     514      MEOH     H1A      HDA3B    0.080000        1.0080           0   0.00000   0.00000
     19421 MEOH     514      MEOH     H1B      HDA3B    0.080000        1.0080           0   0.00000   0.00000
     19422 MEOH     514      MEOH     H1C      HDA3B    0.080000        1.0080           0   0.00000   0.00000
     19423 MEOH     514      MEOH     LP1A     LPD     -0.230000        0.0000           -1   0.00000   0.00000
     19424 MEOH     514      MEOH     LP1B     LPD     -0.230000        0.0000           -1   0.00000   0.00000
     19425 MEOH     515      MEOH     C1       CD33B    2.314100       11.6110           0   -1.00000   1.30000
     19426 MEOH     515      MEOH     DC1      DRUD    -2.454100        0.4000           0   0.00000   0.00000
     19427 MEOH     515      MEOH     O1       OD31H    2.488300       15.5990           0   -1.02800   1.30000
     19428 MEOH     515      MEOH     DO1      DRUD    -2.488300        0.4000           0   0.00000   0.00000
     19429 MEOH     515      MEOH     HO1      HDP1A    0.360000        1.0080           0   0.00000   0.00000
     19430 MEOH     515      MEOH     HO2      DUMH     0.000000        1.0080           0   0.00000   0.00000
     19431 MEOH     515      MEOH     H1A      HDA3B    0.080000        1.0080           0   0.00000   0.00000
     19432 MEOH     515      MEOH     H1B      HDA3B    0.080000        1.0080           0   0.00000   0.00000
     19433 MEOH     515      MEOH     H1C      HDA3B    0.080000        1.0080           0   0.00000   0.00000
     19434 MEOH     515      MEOH     LP1A     LPD     -0.230000        0.0000           -1   0.00000   0.00000
     19435 MEOH     515      MEOH     LP1B     LPD     -0.230000        0.0000           -1   0.00000   0.00000
     19436 MEOH     516      MEOH     C1       CD33B    2.314100       11.6110           0   -1.00000   1.30000
     19437 MEOH     516      MEOH     DC1      DRUD    -2.454100        0.4000           0   0.00000   0.00000
     19438 MEOH     516      MEOH     O1       OD31H    2.488300       15.5990           0   -1.02800   1.30000
     19439 MEOH     516      MEOH     DO1      DRUD    -2.488300        0.4000           0   0.00000   0.00000
     19440 MEOH     516      MEOH     HO1      HDP1A    0.360000        1.0080           0   0.00000   0.00000
     19441 MEOH     516      MEOH     HO2      DUMH     0.000000        1.0080           0   0.00000   0.00000
     19442 MEOH     516      MEOH     H1A      HDA3B    0.080000        1.0080           0   0.00000   0.00000
     19443 MEOH     516      MEOH     H1B      HDA3B    0.080000        1.0080           0   0.00000   0.00000
     19444 MEOH     516      MEOH     H1C      HDA3B    0.080000        1.0080           0   0.00000   0.00000
     19445 MEOH     516      MEOH     LP1A     LPD     -0.230000        0.0000           -1   0.00000   0.00000
     19446 MEOH     516      MEOH     LP1B     LPD     -0.230000        0.0000           -1   0.00000   0.00000
     19447 MEOH     517      MEOH     C1       CD33B    2.314100       11.6110           0   -1.00000   1.30000
     19448 MEOH     517      MEOH     DC1      DRUD    -2.454100        0.4000           0   0.00000   0.00000
     19449 MEOH     517      MEOH     O1       OD31H    2.488300       15.5990           0   -1.02800   1.30000
     19450 MEOH     517      MEOH     DO1      DRUD    -2.488300        0.4000           0   0.00000   0.00000
     19451 MEOH     517      MEOH     HO1      HDP1A    0.360000        1.0080           0   0.00000   0.00000
     19452 MEOH     517      MEOH     HO2      DUMH     0.000000        1.0080           0   0.00000   0.00000
     19453 MEOH     517      MEOH     H1A      HDA3B    0.080000        1.0080           0   0.00000   0.00000
     19454 MEOH     517      MEOH     H1B      HDA3B    0.080000        1.0080           0   0.00000   0.00000
     19455 MEOH     517      MEOH     H1C      HDA3B    0.080000        1.0080           0   0.00000   0.00000
     19456 MEOH     517      MEOH     LP1A     LPD     -0.230000        0.0000           -1   0.00000   0.00000
     19457 MEOH     517      MEOH     LP1B     LPD     -0.230000        0.0000           -1   0.00000   0.00000
     19458 MEOH     518      MEOH     C1       CD33B    2.314100       11.6110           0   -1.00000   1.30000
     19459 MEOH     518      MEOH     DC1      DRUD    -2.454100        0.4000           0   0.00000   0.00000
     19460 MEOH     518      MEOH     O1       OD31H    2.488300       15.5990           0   -1.02800   1.30000
     19461 MEOH     518      MEOH     DO1      DRUD    -2.488300        0.4000           0   0.00000   0.00000
     19462 MEOH     518      MEOH     HO1      HDP1A    0.360000        1.0080           0   0.00000   0.00000
     19463 MEOH     518      MEOH     HO2      DUMH     0.000000        1.0080           0   0.00000   0.00000
     19464 MEOH     518      MEOH     H1A      HDA3B    0.080000        1.0080           0   0.00000   0.00000
     19465 MEOH     518      MEOH     H1B      HDA3B    0.080000        1.0080           0   0.00000   0.00000
     19466 MEOH     518      MEOH     H1C      HDA3B    0.080000        1.0080           0   0.00000   0.00000
     19467 MEOH     518      MEOH     LP1A     LPD     -0.230000        0.0000           -1   0.00000   0.00000
     19468 MEOH     518      MEOH     LP1B     LPD     -0.230000        0.0000           -1   0.00000   0.00000
     19469 MEOH     519      MEOH     C1       CD33B    2.314100       11.6110           0   -1.00000   1.30000
     19470 MEOH     519      MEOH     DC1      DRUD    -2.454100        0.4000           0   0.00000   0.00000
     19471 MEOH     519      MEOH     O1       OD31H    2.488300       15.5990           0   -1.02800   1.30000
     19472 MEOH     519      MEOH     DO1      DRUD    -2.488300        0.4000           0   0.00000   0.00000
     19473 MEOH     519      MEOH     HO1      HDP1A    0.360000        1.0080           0   0.00000   0.00000
     19474 MEOH     519      MEOH     HO2      DUMH     0.000000        1.0080           0   0.00000   0.00000
     19475 MEOH     519      MEOH     H1A      HDA3B    0.080000        1.0080           0   0.00000   0.00000
     19476 MEOH     519      MEOH     H1B      HDA3B    0.080000        1.0080           0   0.00000   0.00000
     19477 MEOH     519      MEOH     H1C      HDA3B    0.080000        1.0080           0   0.00000   0.00000
     19478 MEOH     519      MEOH     LP1A     LPD     -0.230000        0.0000           -1   0.00000   0.00000
     19479 MEOH     519      MEOH     LP1B     LPD     -0.230000        0.0000           -1   0.00000   0.00000
     19480 MEOH     520      MEOH     C1       CD33B    2.314100       11.6110           0   -1.00000   1.30000
     19481 MEOH     520      MEOH     DC1      DRUD    -2.454100        0.4000           0   0.00000   0.00000
     19482 MEOH     520      MEOH     O1       OD31H    2.488300       15.5990           0   -1.02800   1.30000
     19483 MEOH     520      MEOH     DO1      DRUD    -2.488300        0.4000           0   0.00000   0.00000
     19484 MEOH     520      MEOH     HO1      HDP1A    0.360000        1.0080           0   0.00000   0.00000
     19485 MEOH     520      MEOH     HO2      DUMH     0.000000        1.0080           0   0.00000   0.00000
     19486 MEOH     520      MEOH     H1A      HDA3B    0.080000        1.0080           0   0.00000   0.00000
     19487 MEOH     520      MEOH     H1B      HDA3B    0.080000        1.0080           0   0.00000   0.00000
     19488 MEOH     520      MEOH     H1C      HDA3B    0.080000        1.0080           0   0.00000   0.00000
     19489 MEOH     520      MEOH     LP1A     LPD     -0.230000        0.0000           -1   0.00000   0.00000
     19490 MEOH     520      MEOH     LP1B     LPD     -0.230000        0.0000           -1   0.00000   0.00000
     19491 MEOH     521      MEOH     C1       CD33B    2.314100       11.6110           0   -1.00000   1.30000
     19492 MEOH     521      MEOH     DC1      DRUD    -2.454100        0.4000           0   0.00000   0.00000
     19493 MEOH     521      MEOH     O1       OD31H    2.488300       15.5990           0   -1.02800   1.30000
     19494 MEOH     521      MEOH     DO1      DRUD    -2.488300        0.4000           0   0.00000   0.00000
     19495 MEOH     521      MEOH     HO1      HDP1A    0.360000        1.0080           0   0.00000   0.00000
     19496 MEOH     521      MEOH     HO2      DUMH     0.000000        1.0080           0   0.00000   0.00000
     19497 MEOH     521      MEOH     H1A      HDA3B    0.080000        1.0080           0   0.00000   0.00000
     19498 MEOH     521      MEOH     H1B      HDA3B    0.080000        1.0080           0   0.00000   0.00000
     19499 MEOH     521      MEOH     H1C      HDA3B    0.080000        1.0080           0   0.00000   0.00000
     19500 MEOH     521      MEOH     LP1A     LPD     -0.230000        0.0000           -1   0.00000   0.00000
     19501 MEOH     521      MEOH     LP1B     LPD     -0.230000        0.0000           -1   0.00000   0.00000
     19502 MEOH     522      MEOH     C1       CD33B    2.314100       11.6110           0   -1.00000   1.30000
     19503 MEOH     522      MEOH     DC1      DRUD    -2.454100        0.4000           0   0.00000   0.00000
     19504 MEOH     522      MEOH     O1       OD31H    2.488300       15.5990           0   -1.02800   1.30000
     19505 MEOH     522      MEOH     DO1      DRUD    -2.488300        0.4000           0   0.00000   0.00000
     19506 MEOH     522      MEOH     HO1      HDP1A    0.360000        1.0080           0   0.00000   0.00000
     19507 MEOH     522      MEOH     HO2      DUMH     0.000000        1.0080           0   0.00000   0.00000
     19508 MEOH     522      MEOH     H1A      HDA3B    0.080000        1.0080           0   0.00000   0.00000
     19509 MEOH     522      MEOH     H1B      HDA3B    0.080000        1.0080           0   0.00000   0.00000
     19510 MEOH     522      MEOH     H1C      HDA3B    0.080000        1.0080           0   0.00000   0.00000
     19511 MEOH     522      MEOH     LP1A     LPD     -0.230000        0.0000           -1   0.00000   0.00000
     19512 MEOH     522      MEOH     LP1B     LPD     -0.230000        0.0000           -1   0.00000   0.00000
     19513 MEOH     523      MEOH     C1       CD33B    2.314100       11.6110           0   -1.00000   1.30000
     19514 MEOH     523      MEOH     DC1      DRUD    -2.454100        0.4000           0   0.00000   0.00000
     19515 MEOH     523      MEOH     O1       OD31H    2.488300       15.5990           0   -1.02800   1.30000
     19516 MEOH     523      MEOH     DO1      DRUD    -2.488300        0.4000           0   0.00000   0.00000
     19517 MEOH     523      MEOH     HO1      HDP1A    0.360000        1.0080           0   0.00000   0.00000
     19518 MEOH     523      MEOH     HO2      DUMH     0.000000        1.0080           0   0.00000   0.00000
     19519 MEOH     523      MEOH     H1A      HDA3B    0.080000        1.0080           0   0.00000   0.00000
     19520 MEOH     523      MEOH     H1B      HDA3B    0.080000        1.0080           0   0.00000   0.00000
     19521 MEOH     523      MEOH     H1C      HDA3B    0.080000        1.0080           0   0.00000   0.00000
     19522 MEOH     523      MEOH     LP1A     LPD     -0.230000        0.0000           -1   0.00000   0.00000
     19523 MEOH     523      MEOH     LP1B     LPD     -0.230000        0.0000           -1   0.00000   0.00000
     19524 MEOH     524      MEOH     C1       CD33B    2.314100       11.6110           0   -1.00000   1.30000
     19525 MEOH     524      MEOH     DC1      DRUD    -2.454100        0.4000           0   0.00000   0.00000
     19526 MEOH     524      MEOH     O1       OD31H    2.488300       15.5990           0   -1.02800   1.30000
     19527 MEOH     524      MEOH     DO1      DRUD    -2.488300        0.4000           0   0.00000   0.00000
     19528 MEOH     524      MEOH     HO1      HDP1A    0.360000        1.0080           0   0.00000   0.00000
     19529 MEOH     524      MEOH     HO2      DUMH     0.000000        1.0080           0   0.00000   0.00000
     19530 MEOH     524      MEOH     H1A      HDA3B    0.080000        1.0080           0   0.00000   0.00000
     19531 MEOH     524      MEOH     H1B      HDA3B    0.080000        1.0080           0   0.00000   0.00000
     19532 MEOH     524      MEOH     H1C      HDA3B    0.080000        1.0080           0   0.00000   0.00000
     19533 MEOH     524      MEOH     LP1A     LPD     -0.230000        0.0000           -1   0.00000   0.00000
     19534 MEOH     524      MEOH     LP1B     LPD     -0.230000        0.0000           -1   0.00000   0.00000
     19535 MEOH     525      MEOH     C1       CD33B    2.314100       11.6110           0   -1.00000   1.30000
     19536 MEOH     525      MEOH     DC1      DRUD    -2.454100        0.4000           0   0.00000   0.00000
     19537 MEOH     525      MEOH     O1       OD31H    2.488300       15.5990           0   -1.02800   1.30000
     19538 MEOH     525      MEOH     DO1      DRUD    -2.488300        0.4000           0   0.00000   0.00000
     19539 MEOH     525      MEOH     HO1      HDP1A    0.360000        1.0080           0   0.00000   0.00000
     19540 MEOH     525      MEOH     HO2      DUMH     0.000000        1.0080           0   0.00000   0.00000
     19541 MEOH     525      MEOH     H1A      HDA3B    0.080000        1.0080           0   0.00000   0.00000
     19542 MEOH     525      MEOH     H1B      HDA3B    0.080000        1.0080           0   0.00000   0.00000
     19543 MEOH     525      MEOH     H1C      HDA3B    0.080000        1.0080           0   0.00000   0.00000
     19544 MEOH     525      MEOH     LP1A     LPD     -0.230000        0.0000           -1   0.00000   0.00000
     19545 MEOH     525      MEOH     LP1B     LPD     -0.230000        0.0000           -1   0.00000   0.00000
     19546 MEOH     526      MEOH     C1       CD33B    2.314100       11.6110           0   -1.00000   1.30000
     19547 MEOH     526      MEOH     DC1      DRUD    -2.454100        0.4000           0   0.00000   0.00000
     19548 MEOH     526      MEOH     O1       OD31H    2.488300       15.5990           0   -1.02800   1.30000
     19549 MEOH     526      MEOH     DO1      DRUD    -2.488300        0.4000           0   0.00000   0.00000
     19550 MEOH     526      MEOH     HO1      HDP1A    0.360000        1.0080           0   0.00000   0.00000
     19551 MEOH     526      MEOH     HO2      DUMH     0.000000        1.0080           0   0.00000   0.00000
     19552 MEOH     526      MEOH     H1A      HDA3B    0.080000        1.0080           0   0.00000   0.00000
     19553 MEOH     526      MEOH     H1B      HDA3B    0.080000        1.0080           0   0.00000   0.00000
     19554 MEOH     526      MEOH     H1C      HDA3B    0.080000        1.0080           0   0.00000   0.00000
     19555 MEOH     526      MEOH     LP1A     LPD     -0.230000        0.0000           -1   0.00000   0.00000
     19556 MEOH     526      MEOH     LP1B     LPD     -0.230000        0.0000           -1   0.00000   0.00000
     19557 MEOH     527      MEOH     C1       CD33B    2.314100       11.6110           0   -1.00000   1.30000
     19558 MEOH     527      MEOH     DC1      DRUD    -2.454100        0.4000           0   0.00000   0.00000
     19559 MEOH     527      MEOH     O1       OD31H    2.488300       15.5990           0   -1.02800   1.30000
     19560 MEOH     527      MEOH     DO1      DRUD    -2.488300        0.4000           0   0.00000   0.00000
     19561 MEOH     527      MEOH     HO1      HDP1A    0.360000        1.0080           0   0.00000   0.00000
     19562 MEOH     527      MEOH     HO2      DUMH     0.000000        1.0080           0   0.00000   0.00000
     19563 MEOH     527      MEOH     H1A      HDA3B    0.080000        1.0080           0   0.00000   0.00000
     19564 MEOH     527      MEOH     H1B      HDA3B    0.080000        1.0080           0   0.00000   0.00000
     19565 MEOH     527      MEOH     H1C      HDA3B    0.080000        1.0080           0   0.00000   0.00000
     19566 MEOH     527      MEOH     LP1A     LPD     -0.230000        0.0000           -1   0.00000   0.00000
     19567 MEOH     527      MEOH     LP1B     LPD     -0.230000        0.0000           -1   0.00000   0.00000
     19568 MEOH     528      MEOH     C1       CD33B    2.314100       11.6110           0   -1.00000   1.30000
     19569 MEOH     528      MEOH     DC1      DRUD    -2.454100        0.4000           0   0.00000   0.00000
     19570 MEOH     528      MEOH     O1       OD31H    2.488300       15.5990           0   -1.02800   1.30000
     19571 MEOH     528      MEOH     DO1      DRUD    -2.488300        0.4000           0   0.00000   0.00000
     19572 MEOH     528      MEOH     HO1      HDP1A    0.360000        1.0080           0   0.00000   0.00000
     19573 MEOH     528      MEOH     HO2      DUMH     0.000000        1.0080           0   0.00000   0.00000
     19574 MEOH     528      MEOH     H1A      HDA3B    0.080000        1.0080           0   0.00000   0.00000
     19575 MEOH     528      MEOH     H1B      HDA3B    0.080000        1.0080           0   0.00000   0.00000
     19576 MEOH     528      MEOH     H1C      HDA3B    0.080000        1.0080           0   0.00000   0.00000
     19577 MEOH     528      MEOH     LP1A     LPD     -0.230000        0.0000           -1   0.00000   0.00000
     19578 MEOH     528      MEOH     LP1B     LPD     -0.230000        0.0000           -1   0.00000   0.00000
     19579 MEOH     529      MEOH     C1       CD33B    2.314100       11.6110           0   -1.00000   1.30000
     19580 MEOH     529      MEOH     DC1      DRUD    -2.454100        0.4000           0   0.00000   0.00000
     19581 MEOH     529      MEOH     O1       OD31H    2.488300       15.5990           0   -1.02800   1.30000
     19582 MEOH     529      MEOH     DO1      DRUD    -2.488300        0.4000           0   0.00000   0.00000
     19583 MEOH     529      MEOH     HO1      HDP1A    0.360000        1.0080           0   0.00000   0.00000
     19584 MEOH     529      MEOH     HO2      DUMH     0.000000        1.0080           0   0.00000   0.00000
     19585 MEOH     529      MEOH     H1A      HDA3B    0.080000        1.0080           0   0.00000   0.00000
     19586 MEOH     529      MEOH     H1B      HDA3B    0.080000        1.0080           0   0.00000   0.00000
     19587 MEOH     529      MEOH     H1C      HDA3B    0.080000        1.0080           0   0.00000   0.00000
     19588 MEOH     529      MEOH     LP1A     LPD     -0.230000        0.0000           -1   0.00000   0.00000
     19589 MEOH     529      MEOH     LP1B     LPD     -0.230000        0.0000           -1   0.00000   0.00000
     19590 MEOH     530      MEOH     C1       CD33B    2.314100       11.6110           0   -1.00000   1.30000
     19591 MEOH     530      MEOH     DC1      DRUD    -2.454100        0.4000           0   0.00000   0.00000
     19592 MEOH     530      MEOH     O1       OD31H    2.488300       15.5990           0   -1.02800   1.30000
     19593 MEOH     530      MEOH     DO1      DRUD    -2.488300        0.4000           0   0.00000   0.00000
     19594 MEOH     530      MEOH     HO1      HDP1A    0.360000        1.0080           0   0.00000   0.00000
     19595 MEOH     530      MEOH     HO2      DUMH     0.000000        1.0080           0   0.00000   0.00000
     19596 MEOH     530      MEOH     H1A      HDA3B    0.080000        1.0080           0   0.00000   0.00000
     19597 MEOH     530      MEOH     H1B      HDA3B    0.080000        1.0080           0   0.00000   0.00000
     19598 MEOH     530      MEOH     H1C      HDA3B    0.080000        1.0080           0   0.00000   0.00000
     19599 MEOH     530      MEOH     LP1A     LPD     -0.230000        0.0000           -1   0.00000   0.00000
     19600 MEOH     530      MEOH     LP1B     LPD     -0.230000        0.0000           -1   0.00000   0.00000
     19601 MEOH     531      MEOH     C1       CD33B    2.314100       11.6110           0   -1.00000   1.30000
     19602 MEOH     531      MEOH     DC1      DRUD    -2.454100        0.4000           0   0.00000   0.00000
     19603 MEOH     531      MEOH     O1       OD31H    2.488300       15.5990           0   -1.02800   1.30000
     19604 MEOH     531      MEOH     DO1      DRUD    -2.488300        0.4000           0   0.00000   0.00000
     19605 MEOH     531      MEOH     HO1      HDP1A    0.360000        1.0080           0   0.00000   0.00000
     19606 MEOH     531      MEOH     HO2      DUMH     0.000000        1.0080           0   0.00000   0.00000
     19607 MEOH     531      MEOH     H1A      HDA3B    0.080000        1.0080           0   0.00000   0.00000
     19608 MEOH     531      MEOH     H1B      HDA3B    0.080000        1.0080           0   0.00000   0.00000
     19609 MEOH     531      MEOH     H1C      HDA3B    0.080000        1.0080           0   0.00000   0.00000
     19610 MEOH     531      MEOH     LP1A     LPD     -0.230000        0.0000           -1   0.00000   0.00000
     19611 MEOH     531      MEOH     LP1B     LPD     -0.230000        0.0000           -1   0.00000   0.00000
     19612 MEOH     532      MEOH     C1       CD33B    2.314100       11.6110           0   -1.00000   1.30000
     19613 MEOH     532      MEOH     DC1      DRUD    -2.454100        0.4000           0   0.00000   0.00000
     19614 MEOH     532      MEOH     O1       OD31H    2.488300       15.5990           0   -1.02800   1.30000
     19615 MEOH     532      MEOH     DO1      DRUD    -2.488300        0.4000           0   0.00000   0.00000
     19616 MEOH     532      MEOH     HO1      HDP1A    0.360000        1.0080           0   0.00000   0.00000
     19617 MEOH     532      MEOH     HO2      DUMH     0.000000        1.0080           0   0.00000   0.00000
     19618 MEOH     532      MEOH     H1A      HDA3B    0.080000        1.0080           0   0.00000   0.00000
     19619 MEOH     532      MEOH     H1B      HDA3B    0.080000        1.0080           0   0.00000   0.00000
     19620 MEOH     532      MEOH     H1C      HDA3B    0.080000        1.0080           0   0.00000   0.00000
     19621 MEOH     532      MEOH     LP1A     LPD     -0.230000        0.0000           -1   0.00000   0.00000
     19622 MEOH     532      MEOH     LP1B     LPD     -0.230000        0.0000           -1   0.00000   0.00000
     19623 MEOH     533      MEOH     C1       CD33B    2.314100       11.6110           0   -1.00000   1.30000
     19624 MEOH     533      MEOH     DC1      DRUD    -2.454100        0.4000           0   0.00000   0.00000
     19625 MEOH     533      MEOH     O1       OD31H    2.488300       15.5990           0   -1.02800   1.30000
     19626 MEOH     533      MEOH     DO1      DRUD    -2.488300        0.4000           0   0.00000   0.00000
     19627 MEOH     533      MEOH     HO1      HDP1A    0.360000        1.0080           0   0.00000   0.00000
     19628 MEOH     533      MEOH     HO2      DUMH     0.000000        1.0080           0   0.00000   0.00000
     19629 MEOH     533      MEOH     H1A      HDA3B    0.080000        1.0080           0   0.00000   0.00000
     19630 MEOH     533      MEOH     H1B      HDA3B    0.080000        1.0080           0   0.00000   0.00000
     19631 MEOH     533      MEOH     H1C      HDA3B    0.080000        1.0080           0   0.00000   0.00000
     19632 MEOH     533      MEOH     LP1A     LPD     -0.230000        0.0000           -1   0.00000   0.00000
     19633 MEOH     533      MEOH     LP1B     LPD     -0.230000        0.0000           -1   0.00000   0.00000
     19634 MEOH     534      MEOH     C1       CD33B    2.314100       11.6110           0   -1.00000   1.30000
     19635 MEOH     534      MEOH     DC1      DRUD    -2.454100        0.4000           0   0.00000   0.00000
     19636 MEOH     534      MEOH     O1       OD31H    2.488300       15.5990           0   -1.02800   1.30000
     19637 MEOH     534      MEOH     DO1      DRUD    -2.488300        0.4000           0   0.00000   0.00000
     19638 MEOH     534      MEOH     HO1      HDP1A    0.360000        1.0080           0   0.00000   0.00000
     19639 MEOH     534      MEOH     HO2      DUMH     0.000000        1.0080           0   0.00000   0.00000
     19640 MEOH     534      MEOH     H1A      HDA3B    0.080000        1.0080           0   0.00000   0.00000
     19641 MEOH     534      MEOH     H1B      HDA3B    0.080000        1.0080           0   0.00000   0.00000
     19642 MEOH     534      MEOH     H1C      HDA3B    0.080000        1.0080           0   0.00000   0.00000
     19643 MEOH     534      MEOH     LP1A     LPD     -0.230000        0.0000           -1   0.00000   0.00000
     19644 MEOH     534      MEOH     LP1B     LPD     -0.230000        0.0000           -1   0.00000   0.00000
     19645 MEOH     535      MEOH     C1       CD33B    2.314100       11.6110           0   -1.00000   1.30000
     19646 MEOH     535      MEOH     DC1      DRUD    -2.454100        0.4000           0   0.00000   0.00000
     19647 MEOH     535      MEOH     O1       OD31H    2.488300       15.5990           0   -1.02800   1.30000
     19648 MEOH     535      MEOH     DO1      DRUD    -2.488300        0.4000           0   0.00000   0.00000
     19649 MEOH     535      MEOH     HO1      HDP1A    0.360000        1.0080           0   0.00000   0.00000
     19650 MEOH     535      MEOH     HO2      DUMH     0.000000        1.0080           0   0.00000   0.00000
     19651 MEOH     535      MEOH     H1A      HDA3B    0.080000        1.0080           0   0.00000   0.00000
     19652 MEOH     535      MEOH     H1B      HDA3B    0.080000        1.0080           0   0.00000   0.00000
     19653 MEOH     535      MEOH     H1C      HDA3B    0.080000        1.0080           0   0.00000   0.00000
     19654 MEOH     535      MEOH     LP1A     LPD     -0.230000        0.0000           -1   0.00000   0.00000
     19655 MEOH     535      MEOH     LP1B     LPD     -0.230000        0.0000           -1   0.00000   0.00000
     19656 MEOH     536      MEOH     C1       CD33B    2.314100       11.6110           0   -1.00000   1.30000
     19657 MEOH     536      MEOH     DC1      DRUD    -2.454100        0.4000           0   0.00000   0.00000
     19658 MEOH     536      MEOH     O1       OD31H    2.488300       15.5990           0   -1.02800   1.30000
     19659 MEOH     536      MEOH     DO1      DRUD    -2.488300        0.4000           0   0.00000   0.00000
     19660 MEOH     536      MEOH     HO1      HDP1A    0.360000        1.0080           0   0.00000   0.00000
     19661 MEOH     536      MEOH     HO2      DUMH     0.000000        1.0080           0   0.00000   0.00000
     19662 MEOH     536      MEOH     H1A      HDA3B    0.080000        1.0080           0   0.00000   0.00000
     19663 MEOH     536      MEOH     H1B      HDA3B    0.080000        1.0080           0   0.00000   0.00000
     19664 MEOH     536      MEOH     H1C      HDA3B    0.080000        1.0080           0   0.00000   0.00000
     19665 MEOH     536      MEOH     LP1A     LPD     -0.230000        0.0000           -1   0.00000   0.00000
     19666 MEOH     536      MEOH     LP1B     LPD     -0.230000        0.0000           -1   0.00000   0.00000
     19667 MEOH     537      MEOH     C1       CD33B    2.314100       11.6110           0   -1.00000   1.30000
     19668 MEOH     537      MEOH     DC1      DRUD    -2.454100        0.4000           0   0.00000   0.00000
     19669 MEOH     537      MEOH     O1       OD31H    2.488300       15.5990           0   -1.02800   1.30000
     19670 MEOH     537      MEOH     DO1      DRUD    -2.488300        0.4000           0   0.00000   0.00000
     19671 MEOH     537      MEOH     HO1      HDP1A    0.360000        1.0080           0   0.00000   0.00000
     19672 MEOH     537      MEOH     HO2      DUMH     0.000000        1.0080           0   0.00000   0.00000
     19673 MEOH     537      MEOH     H1A      HDA3B    0.080000        1.0080           0   0.00000   0.00000
     19674 MEOH     537      MEOH     H1B      HDA3B    0.080000        1.0080           0   0.00000   0.00000
     19675 MEOH     537      MEOH     H1C      HDA3B    0.080000        1.0080           0   0.00000   0.00000
     19676 MEOH     537      MEOH     LP1A     LPD     -0.230000        0.0000           -1   0.00000   0.00000
     19677 MEOH     537      MEOH     LP1B     LPD     -0.230000        0.0000           -1   0.00000   0.00000
     19678 MEOH     538      MEOH     C1       CD33B    2.314100       11.6110           0   -1.00000   1.30000
     19679 MEOH     538      MEOH     DC1      DRUD    -2.454100        0.4000           0   0.00000   0.00000
     19680 MEOH     538      MEOH     O1       OD31H    2.488300       15.5990           0   -1.02800   1.30000
     19681 MEOH     538      MEOH     DO1      DRUD    -2.488300        0.4000           0   0.00000   0.00000
     19682 MEOH     538      MEOH     HO1      HDP1A    0.360000        1.0080           0   0.00000   0.00000
     19683 MEOH     538      MEOH     HO2      DUMH     0.000000        1.0080           0   0.00000   0.00000
     19684 MEOH     538      MEOH     H1A      HDA3B    0.080000        1.0080           0   0.00000   0.00000
     19685 MEOH     538      MEOH     H1B      HDA3B    0.080000        1.0080           0   0.00000   0.00000
     19686 MEOH     538      MEOH     H1C      HDA3B    0.080000        1.0080           0   0.00000   0.00000
     19687 MEOH     538      MEOH     LP1A     LPD     -0.230000        0.0000           -1   0.00000   0.00000
     19688 MEOH     538      MEOH     LP1B     LPD     -0.230000        0.0000           -1   0.00000   0.00000
     19689 MEOH     539      MEOH     C1       CD33B    2.314100       11.6110           0   -1.00000   1.30000
     19690 MEOH     539      MEOH     DC1      DRUD    -2.454100        0.4000           0   0.00000   0.00000
     19691 MEOH     539      MEOH     O1       OD31H    2.488300       15.5990           0   -1.02800   1.30000
     19692 MEOH     539      MEOH     DO1      DRUD    -2.488300        0.4000           0   0.00000   0.00000
     19693 MEOH     539      MEOH     HO1      HDP1A    0.360000        1.0080           0   0.00000   0.00000
     19694 MEOH     539      MEOH     HO2      DUMH     0.000000        1.0080           0   0.00000   0.00000
     19695 MEOH     539      MEOH     H1A      HDA3B    0.080000        1.0080           0   0.00000   0.00000
     19696 MEOH     539      MEOH     H1B      HDA3B    0.080000        1.0080           0   0.00000   0.00000
     19697 MEOH     539      MEOH     H1C      HDA3B    0.080000        1.0080           0   0.00000   0.00000
     19698 MEOH     539      MEOH     LP1A     LPD     -0.230000        0.0000           -1   0.00000   0.00000
     19699 MEOH     539      MEOH     LP1B     LPD     -0.230000        0.0000           -1   0.00000   0.00000
     19700 MEOH     540      MEOH     C1       CD33B    2.314100       11.6110           0   -1.00000   1.30000
     19701 MEOH     540      MEOH     DC1      DRUD    -2.454100        0.4000           0   0.00000   0.00000
     19702 MEOH     540      MEOH     O1       OD31H    2.488300       15.5990           0   -1.02800   1.30000
     19703 MEOH     540      MEOH     DO1      DRUD    -2.488300        0.4000           0   0.00000   0.00000
     19704 MEOH     540      MEOH     HO1      HDP1A    0.360000        1.0080           0   0.00000   0.00000
     19705 MEOH     540      MEOH     HO2      DUMH     0.000000        1.0080           0   0.00000   0.00000
     19706 MEOH     540      MEOH     H1A      HDA3B    0.080000        1.0080           0   0.00000   0.00000
     19707 MEOH     540      MEOH     H1B      HDA3B    0.080000        1.0080           0   0.00000   0.00000
     19708 MEOH     540      MEOH     H1C      HDA3B    0.080000        1.0080           0   0.00000   0.00000
     19709 MEOH     540      MEOH     LP1A     LPD     -0.230000        0.0000           -1   0.00000   0.00000
     19710 MEOH     540      MEOH     LP1B     LPD     -0.230000        0.0000           -1   0.00000   0.00000
     19711 MEOH     541      MEOH     C1       CD33B    2.314100       11.6110           0   -1.00000   1.30000
     19712 MEOH     541      MEOH     DC1      DRUD    -2.454100        0.4000           0   0.00000   0.00000
     19713 MEOH     541      MEOH     O1       OD31H    2.488300       15.5990           0   -1.02800   1.30000
     19714 MEOH     541      MEOH     DO1      DRUD    -2.488300        0.4000           0   0.00000   0.00000
     19715 MEOH     541      MEOH     HO1      HDP1A    0.360000        1.0080           0   0.00000   0.00000
     19716 MEOH     541      MEOH     HO2      DUMH     0.000000        1.0080           0   0.00000   0.00000
     19717 MEOH     541      MEOH     H1A      HDA3B    0.080000        1.0080           0   0.00000   0.00000
     19718 MEOH     541      MEOH     H1B      HDA3B    0.080000        1.0080           0   0.00000   0.00000
     19719 MEOH     541      MEOH     H1C      HDA3B    0.080000        1.0080           0   0.00000   0.00000
     19720 MEOH     541      MEOH     LP1A     LPD     -0.230000        0.0000           -1   0.00000   0.00000
     19721 MEOH     541      MEOH     LP1B     LPD     -0.230000        0.0000           -1   0.00000   0.00000
     19722 MEOH     542      MEOH     C1       CD33B    2.314100       11.6110           0   -1.00000   1.30000
     19723 MEOH     542      MEOH     DC1      DRUD    -2.454100        0.4000           0   0.00000   0.00000
     19724 MEOH     542      MEOH     O1       OD31H    2.488300       15.5990           0   -1.02800   1.30000
     19725 MEOH     542      MEOH     DO1      DRUD    -2.488300        0.4000           0   0.00000   0.00000
     19726 MEOH     542      MEOH     HO1      HDP1A    0.360000        1.0080           0   0.00000   0.00000
     19727 MEOH     542      MEOH     HO2      DUMH     0.000000        1.0080           0   0.00000   0.00000
     19728 MEOH     542      MEOH     H1A      HDA3B    0.080000        1.0080           0   0.00000   0.00000
     19729 MEOH     542      MEOH     H1B      HDA3B    0.080000        1.0080           0   0.00000   0.00000
     19730 MEOH     542      MEOH     H1C      HDA3B    0.080000        1.0080           0   0.00000   0.00000
     19731 MEOH     542      MEOH     LP1A     LPD     -0.230000        0.0000           -1   0.00000   0.00000
     19732 MEOH     542      MEOH     LP1B     LPD     -0.230000        0.0000           -1   0.00000   0.00000
     19733 MEOH     543      MEOH     C1       CD33B    2.314100       11.6110           0   -1.00000   1.30000
     19734 MEOH     543      MEOH     DC1      DRUD    -2.454100        0.4000           0   0.00000   0.00000
     19735 MEOH     543      MEOH     O1       OD31H    2.488300       15.5990           0   -1.02800   1.30000
     19736 MEOH     543      MEOH     DO1      DRUD    -2.488300        0.4000           0   0.00000   0.00000
     19737 MEOH     543      MEOH     HO1      HDP1A    0.360000        1.0080           0   0.00000   0.00000
     19738 MEOH     543      MEOH     HO2      DUMH     0.000000        1.0080           0   0.00000   0.00000
     19739 MEOH     543      MEOH     H1A      HDA3B    0.080000        1.0080           0   0.00000   0.00000
     19740 MEOH     543      MEOH     H1B      HDA3B    0.080000        1.0080           0   0.00000   0.00000
     19741 MEOH     543      MEOH     H1C      HDA3B    0.080000        1.0080           0   0.00000   0.00000
     19742 MEOH     543      MEOH     LP1A     LPD     -0.230000        0.0000           -1   0.00000   0.00000
     19743 MEOH     543      MEOH     LP1B     LPD     -0.230000        0.0000           -1   0.00000   0.00000
     19744 MEOH     544      MEOH     C1       CD33B    2.314100       11.6110           0   -1.00000   1.30000
     19745 MEOH     544      MEOH     DC1      DRUD    -2.454100        0.4000           0   0.00000   0.00000
     19746 MEOH     544      MEOH     O1       OD31H    2.488300       15.5990           0   -1.02800   1.30000
     19747 MEOH     544      MEOH     DO1      DRUD    -2.488300        0.4000           0   0.00000   0.00000
     19748 MEOH     544      MEOH     HO1      HDP1A    0.360000        1.0080           0   0.00000   0.00000
     19749 MEOH     544      MEOH     HO2      DUMH     0.000000        1.0080           0   0.00000   0.00000
     19750 MEOH     544      MEOH     H1A      HDA3B    0.080000        1.0080           0   0.00000   0.00000
     19751 MEOH     544      MEOH     H1B      HDA3B    0.080000        1.0080           0   0.00000   0.00000
     19752 MEOH     544      MEOH     H1C      HDA3B    0.080000        1.0080           0   0.00000   0.00000
     19753 MEOH     544      MEOH     LP1A     LPD     -0.230000        0.0000           -1   0.00000   0.00000
     19754 MEOH     544      MEOH     LP1B     LPD     -0.230000        0.0000           -1   0.00000   0.00000
     19755 MEOH     545      MEOH     C1       CD33B    2.314100       11.6110           0   -1.00000   1.30000
     19756 MEOH     545      MEOH     DC1      DRUD    -2.454100        0.4000           0   0.00000   0.00000
     19757 MEOH     545      MEOH     O1       OD31H    2.488300       15.5990           0   -1.02800   1.30000
     19758 MEOH     545      MEOH     DO1      DRUD    -2.488300        0.4000           0   0.00000   0.00000
     19759 MEOH     545      MEOH     HO1      HDP1A    0.360000        1.0080           0   0.00000   0.00000
     19760 MEOH     545      MEOH     HO2      DUMH     0.000000        1.0080           0   0.00000   0.00000
     19761 MEOH     545      MEOH     H1A      HDA3B    0.080000        1.0080           0   0.00000   0.00000
     19762 MEOH     545      MEOH     H1B      HDA3B    0.080000        1.0080           0   0.00000   0.00000
     19763 MEOH     545      MEOH     H1C      HDA3B    0.080000        1.0080           0   0.00000   0.00000
     19764 MEOH     545      MEOH     LP1A     LPD     -0.230000        0.0000           -1   0.00000   0.00000
     19765 MEOH     545      MEOH     LP1B     LPD     -0.230000        0.0000           -1   0.00000   0.00000
     19766 MEOH     546      MEOH     C1       CD33B    2.314100       11.6110           0   -1.00000   1.30000
     19767 MEOH     546      MEOH     DC1      DRUD    -2.454100        0.4000           0   0.00000   0.00000
     19768 MEOH     546      MEOH     O1       OD31H    2.488300       15.5990           0   -1.02800   1.30000
     19769 MEOH     546      MEOH     DO1      DRUD    -2.488300        0.4000           0   0.00000   0.00000
     19770 MEOH     546      MEOH     HO1      HDP1A    0.360000        1.0080           0   0.00000   0.00000
     19771 MEOH     546      MEOH     HO2      DUMH     0.000000        1.0080           0   0.00000   0.00000
     19772 MEOH     546      MEOH     H1A      HDA3B    0.080000        1.0080           0   0.00000   0.00000
     19773 MEOH     546      MEOH     H1B      HDA3B    0.080000        1.0080           0   0.00000   0.00000
     19774 MEOH     546      MEOH     H1C      HDA3B    0.080000        1.0080           0   0.00000   0.00000
     19775 MEOH     546      MEOH     LP1A     LPD     -0.230000        0.0000           -1   0.00000   0.00000
     19776 MEOH     546      MEOH     LP1B     LPD     -0.230000        0.0000           -1   0.00000   0.00000
     19777 MEOH     547      MEOH     C1       CD33B    2.314100       11.6110           0   -1.00000   1.30000
     19778 MEOH     547      MEOH     DC1      DRUD    -2.454100        0.4000           0   0.00000   0.00000
     19779 MEOH     547      MEOH     O1       OD31H    2.488300       15.5990           0   -1.02800   1.30000
     19780 MEOH     547      MEOH     DO1      DRUD    -2.488300        0.4000           0   0.00000   0.00000
     19781 MEOH     547      MEOH     HO1      HDP1A    0.360000        1.0080           0   0.00000   0.00000
     19782 MEOH     547      MEOH     HO2      DUMH     0.000000        1.0080           0   0.00000   0.00000
     19783 MEOH     547      MEOH     H1A      HDA3B    0.080000        1.0080           0   0.00000   0.00000
     19784 MEOH     547      MEOH     H1B      HDA3B    0.080000        1.0080           0   0.00000   0.00000
     19785 MEOH     547      MEOH     H1C      HDA3B    0.080000        1.0080           0   0.00000   0.00000
     19786 MEOH     547      MEOH     LP1A     LPD     -0.230000        0.0000           -1   0.00000   0.00000
     19787 MEOH     547      MEOH     LP1B     LPD     -0.230000        0.0000           -1   0.00000   0.00000
     19788 MEOH     548      MEOH     C1       CD33B    2.314100       11.6110           0   -1.00000   1.30000
     19789 MEOH     548      MEOH     DC1      DRUD    -2.454100        0.4000           0   0.00000   0.00000
     19790 MEOH     548      MEOH     O1       OD31H    2.488300       15.5990           0   -1.02800   1.30000
     19791 MEOH     548      MEOH     DO1      DRUD    -2.488300        0.4000           0   0.00000   0.00000
     19792 MEOH     548      MEOH     HO1      HDP1A    0.360000        1.0080           0   0.00000   0.00000
     19793 MEOH     548      MEOH     HO2      DUMH     0.000000        1.0080           0   0.00000   0.00000
     19794 MEOH     548      MEOH     H1A      HDA3B    0.080000        1.0080           0   0.00000   0.00000
     19795 MEOH     548      MEOH     H1B      HDA3B    0.080000        1.0080           0   0.00000   0.00000
     19796 MEOH     548      MEOH     H1C      HDA3B    0.080000        1.0080           0   0.00000   0.00000
     19797 MEOH     548      MEOH     LP1A     LPD     -0.230000        0.0000           -1   0.00000   0.00000
     19798 MEOH     548      MEOH     LP1B     LPD     -0.230000        0.0000           -1   0.00000   0.00000
     19799 MEOH     549      MEOH     C1       CD33B    2.314100       11.6110           0   -1.00000   1.30000
     19800 MEOH     549      MEOH     DC1      DRUD    -2.454100        0.4000           0   0.00000   0.00000
     19801 MEOH     549      MEOH     O1       OD31H    2.488300       15.5990           0   -1.02800   1.30000
     19802 MEOH     549      MEOH     DO1      DRUD    -2.488300        0.4000           0   0.00000   0.00000
     19803 MEOH     549      MEOH     HO1      HDP1A    0.360000        1.0080           0   0.00000   0.00000
     19804 MEOH     549      MEOH     HO2      DUMH     0.000000        1.0080           0   0.00000   0.00000
     19805 MEOH     549      MEOH     H1A      HDA3B    0.080000        1.0080           0   0.00000   0.00000
     19806 MEOH     549      MEOH     H1B      HDA3B    0.080000        1.0080           0   0.00000   0.00000
     19807 MEOH     549      MEOH     H1C      HDA3B    0.080000        1.0080           0   0.00000   0.00000
     19808 MEOH     549      MEOH     LP1A     LPD     -0.230000        0.0000           -1   0.00000   0.00000
     19809 MEOH     549      MEOH     LP1B     LPD     -0.230000        0.0000           -1   0.00000   0.00000
     19810 MEOH     550      MEOH     C1       CD33B    2.314100       11.6110           0   -1.00000   1.30000
     19811 MEOH     550      MEOH     DC1      DRUD    -2.454100        0.4000           0   0.00000   0.00000
     19812 MEOH     550      MEOH     O1       OD31H    2.488300       15.5990           0   -1.02800   1.30000
     19813 MEOH     550      MEOH     DO1      DRUD    -2.488300        0.4000           0   0.00000   0.00000
     19814 MEOH     550      MEOH     HO1      HDP1A    0.360000        1.0080           0   0.00000   0.00000
     19815 MEOH     550      MEOH     HO2      DUMH     0.000000        1.0080           0   0.00000   0.00000
     19816 MEOH     550      MEOH     H1A      HDA3B    0.080000        1.0080           0   0.00000   0.00000
     19817 MEOH     550      MEOH     H1B      HDA3B    0.080000        1.0080           0   0.00000   0.00000
     19818 MEOH     550      MEOH     H1C      HDA3B    0.080000        1.0080           0   0.00000   0.00000
     19819 MEOH     550      MEOH     LP1A     LPD     -0.230000        0.0000           -1   0.00000   0.00000
     19820 MEOH     550      MEOH     LP1B     LPD     -0.230000        0.0000           -1   0.00000   0.00000
     19821 MEOH     551      MEOH     C1       CD33B    2.314100       11.6110           0   -1.00000   1.30000
     19822 MEOH     551      MEOH     DC1      DRUD    -2.454100        0.4000           0   0.00000   0.00000
     19823 MEOH     551      MEOH     O1       OD31H    2.488300       15.5990           0   -1.02800   1.30000
     19824 MEOH     551      MEOH     DO1      DRUD    -2.488300        0.4000           0   0.00000   0.00000
     19825 MEOH     551      MEOH     HO1      HDP1A    0.360000        1.0080           0   0.00000   0.00000
     19826 MEOH     551      MEOH     HO2      DUMH     0.000000        1.0080           0   0.00000   0.00000
     19827 MEOH     551      MEOH     H1A      HDA3B    0.080000        1.0080           0   0.00000   0.00000
     19828 MEOH     551      MEOH     H1B      HDA3B    0.080000        1.0080           0   0.00000   0.00000
     19829 MEOH     551      MEOH     H1C      HDA3B    0.080000        1.0080           0   0.00000   0.00000
     19830 MEOH     551      MEOH     LP1A     LPD     -0.230000        0.0000           -1   0.00000   0.00000
     19831 MEOH     551      MEOH     LP1B     LPD     -0.230000        0.0000           -1   0.00000   0.00000
     19832 MEOH     552      MEOH     C1       CD33B    2.314100       11.6110           0   -1.00000   1.30000
     19833 MEOH     552      MEOH     DC1      DRUD    -2.454100        0.4000           0   0.00000   0.00000
     19834 MEOH     552      MEOH     O1       OD31H    2.488300       15.5990           0   -1.02800   1.30000
     19835 MEOH     552      MEOH     DO1      DRUD    -2.488300        0.4000           0   0.00000   0.00000
     19836 MEOH     552      MEOH     HO1      HDP1A    0.360000        1.0080           0   0.00000   0.00000
     19837 MEOH     552      MEOH     HO2      DUMH     0.000000        1.0080           0   0.00000   0.00000
     19838 MEOH     552      MEOH     H1A      HDA3B    0.080000        1.0080           0   0.00000   0.00000
     19839 MEOH     552      MEOH     H1B      HDA3B    0.080000        1.0080           0   0.00000   0.00000
     19840 MEOH     552      MEOH     H1C      HDA3B    0.080000        1.0080           0   0.00000   0.00000
     19841 MEOH     552      MEOH     LP1A     LPD     -0.230000        0.0000           -1   0.00000   0.00000
     19842 MEOH     552      MEOH     LP1B     LPD     -0.230000        0.0000           -1   0.00000   0.00000
     19843 MEOH     553      MEOH     C1       CD33B    2.314100       11.6110           0   -1.00000   1.30000
     19844 MEOH     553      MEOH     DC1      DRUD    -2.454100        0.4000           0   0.00000   0.00000
     19845 MEOH     553      MEOH     O1       OD31H    2.488300       15.5990           0   -1.02800   1.30000
     19846 MEOH     553      MEOH     DO1      DRUD    -2.488300        0.4000           0   0.00000   0.00000
     19847 MEOH     553      MEOH     HO1      HDP1A    0.360000        1.0080           0   0.00000   0.00000
     19848 MEOH     553      MEOH     HO2      DUMH     0.000000        1.0080           0   0.00000   0.00000
     19849 MEOH     553      MEOH     H1A      HDA3B    0.080000        1.0080           0   0.00000   0.00000
     19850 MEOH     553      MEOH     H1B      HDA3B    0.080000        1.0080           0   0.00000   0.00000
     19851 MEOH     553      MEOH     H1C      HDA3B    0.080000        1.0080           0   0.00000   0.00000
     19852 MEOH     553      MEOH     LP1A     LPD     -0.230000        0.0000           -1   0.00000   0.00000
     19853 MEOH     553      MEOH     LP1B     LPD     -0.230000        0.0000           -1   0.00000   0.00000
     19854 MEOH     554      MEOH     C1       CD33B    2.314100       11.6110           0   -1.00000   1.30000
     19855 MEOH     554      MEOH     DC1      DRUD    -2.454100        0.4000           0   0.00000   0.00000
     19856 MEOH     554      MEOH     O1       OD31H    2.488300       15.5990           0   -1.02800   1.30000
     19857 MEOH     554      MEOH     DO1      DRUD    -2.488300        0.4000           0   0.00000   0.00000
     19858 MEOH     554      MEOH     HO1      HDP1A    0.360000        1.0080           0   0.00000   0.00000
     19859 MEOH     554      MEOH     HO2      DUMH     0.000000        1.0080           0   0.00000   0.00000
     19860 MEOH     554      MEOH     H1A      HDA3B    0.080000        1.0080           0   0.00000   0.00000
     19861 MEOH     554      MEOH     H1B      HDA3B    0.080000        1.0080           0   0.00000   0.00000
     19862 MEOH     554      MEOH     H1C      HDA3B    0.080000        1.0080           0   0.00000   0.00000
     19863 MEOH     554      MEOH     LP1A     LPD     -0.230000        0.0000           -1   0.00000   0.00000
     19864 MEOH     554      MEOH     LP1B     LPD     -0.230000        0.0000           -1   0.00000   0.00000
     19865 MEOH     555      MEOH     C1       CD33B    2.314100       11.6110           0   -1.00000   1.30000
     19866 MEOH     555      MEOH     DC1      DRUD    -2.454100        0.4000           0   0.00000   0.00000
     19867 MEOH     555      MEOH     O1       OD31H    2.488300       15.5990           0   -1.02800   1.30000
     19868 MEOH     555      MEOH     DO1      DRUD    -2.488300        0.4000           0   0.00000   0.00000
     19869 MEOH     555      MEOH     HO1      HDP1A    0.360000        1.0080           0   0.00000   0.00000
     19870 MEOH     555      MEOH     HO2      DUMH     0.000000        1.0080           0   0.00000   0.00000
     19871 MEOH     555      MEOH     H1A      HDA3B    0.080000        1.0080           0   0.00000   0.00000
     19872 MEOH     555      MEOH     H1B      HDA3B    0.080000        1.0080           0   0.00000   0.00000
     19873 MEOH     555      MEOH     H1C      HDA3B    0.080000        1.0080           0   0.00000   0.00000
     19874 MEOH     555      MEOH     LP1A     LPD     -0.230000        0.0000           -1   0.00000   0.00000
     19875 MEOH     555      MEOH     LP1B     LPD     -0.230000        0.0000           -1   0.00000   0.00000
     19876 MEOH     556      MEOH     C1       CD33B    2.314100       11.6110           0   -1.00000   1.30000
     19877 MEOH     556      MEOH     DC1      DRUD    -2.454100        0.4000           0   0.00000   0.00000
     19878 MEOH     556      MEOH     O1       OD31H    2.488300       15.5990           0   -1.02800   1.30000
     19879 MEOH     556      MEOH     DO1      DRUD    -2.488300        0.4000           0   0.00000   0.00000
     19880 MEOH     556      MEOH     HO1      HDP1A    0.360000        1.0080           0   0.00000   0.00000
     19881 MEOH     556      MEOH     HO2      DUMH     0.000000        1.0080           0   0.00000   0.00000
     19882 MEOH     556      MEOH     H1A      HDA3B    0.080000        1.0080           0   0.00000   0.00000
     19883 MEOH     556      MEOH     H1B      HDA3B    0.080000        1.0080           0   0.00000   0.00000
     19884 MEOH     556      MEOH     H1C      HDA3B    0.080000        1.0080           0   0.00000   0.00000
     19885 MEOH     556      MEOH     LP1A     LPD     -0.230000        0.0000           -1   0.00000   0.00000
     19886 MEOH     556      MEOH     LP1B     LPD     -0.230000        0.0000           -1   0.00000   0.00000
     19887 MEOH     557      MEOH     C1       CD33B    2.314100       11.6110           0   -1.00000   1.30000
     19888 MEOH     557      MEOH     DC1      DRUD    -2.454100        0.4000           0   0.00000   0.00000
     19889 MEOH     557      MEOH     O1       OD31H    2.488300       15.5990           0   -1.02800   1.30000
     19890 MEOH     557      MEOH     DO1      DRUD    -2.488300        0.4000           0   0.00000   0.00000
     19891 MEOH     557      MEOH     HO1      HDP1A    0.360000        1.0080           0   0.00000   0.00000
     19892 MEOH     557      MEOH     HO2      DUMH     0.000000        1.0080           0   0.00000   0.00000
     19893 MEOH     557      MEOH     H1A      HDA3B    0.080000        1.0080           0   0.00000   0.00000
     19894 MEOH     557      MEOH     H1B      HDA3B    0.080000        1.0080           0   0.00000   0.00000
     19895 MEOH     557      MEOH     H1C      HDA3B    0.080000        1.0080           0   0.00000   0.00000
     19896 MEOH     557      MEOH     LP1A     LPD     -0.230000        0.0000           -1   0.00000   0.00000
     19897 MEOH     557      MEOH     LP1B     LPD     -0.230000        0.0000           -1   0.00000   0.00000
     19898 MEOH     558      MEOH     C1       CD33B    2.314100       11.6110           0   -1.00000   1.30000
     19899 MEOH     558      MEOH     DC1      DRUD    -2.454100        0.4000           0   0.00000   0.00000
     19900 MEOH     558      MEOH     O1       OD31H    2.488300       15.5990           0   -1.02800   1.30000
     19901 MEOH     558      MEOH     DO1      DRUD    -2.488300        0.4000           0   0.00000   0.00000
     19902 MEOH     558      MEOH     HO1      HDP1A    0.360000        1.0080           0   0.00000   0.00000
     19903 MEOH     558      MEOH     HO2      DUMH     0.000000        1.0080           0   0.00000   0.00000
     19904 MEOH     558      MEOH     H1A      HDA3B    0.080000        1.0080           0   0.00000   0.00000
     19905 MEOH     558      MEOH     H1B      HDA3B    0.080000        1.0080           0   0.00000   0.00000
     19906 MEOH     558      MEOH     H1C      HDA3B    0.080000        1.0080           0   0.00000   0.00000
     19907 MEOH     558      MEOH     LP1A     LPD     -0.230000        0.0000           -1   0.00000   0.00000
     19908 MEOH     558      MEOH     LP1B     LPD     -0.230000        0.0000           -1   0.00000   0.00000
     19909 MEOH     559      MEOH     C1       CD33B    2.314100       11.6110           0   -1.00000   1.30000
     19910 MEOH     559      MEOH     DC1      DRUD    -2.454100        0.4000           0   0.00000   0.00000
     19911 MEOH     559      MEOH     O1       OD31H    2.488300       15.5990           0   -1.02800   1.30000
     19912 MEOH     559      MEOH     DO1      DRUD    -2.488300        0.4000           0   0.00000   0.00000
     19913 MEOH     559      MEOH     HO1      HDP1A    0.360000        1.0080           0   0.00000   0.00000
     19914 MEOH     559      MEOH     HO2      DUMH     0.000000        1.0080           0   0.00000   0.00000
     19915 MEOH     559      MEOH     H1A      HDA3B    0.080000        1.0080           0   0.00000   0.00000
     19916 MEOH     559      MEOH     H1B      HDA3B    0.080000        1.0080           0   0.00000   0.00000
     19917 MEOH     559      MEOH     H1C      HDA3B    0.080000        1.0080           0   0.00000   0.00000
     19918 MEOH     559      MEOH     LP1A     LPD     -0.230000        0.0000           -1   0.00000   0.00000
     19919 MEOH     559      MEOH     LP1B     LPD     -0.230000        0.0000           -1   0.00000   0.00000
     19920 MEOH     560      MEOH     C1       CD33B    2.314100       11.6110           0   -1.00000   1.30000
     19921 MEOH     560      MEOH     DC1      DRUD    -2.454100        0.4000           0   0.00000   0.00000
     19922 MEOH     560      MEOH     O1       OD31H    2.488300       15.5990           0   -1.02800   1.30000
     19923 MEOH     560      MEOH     DO1      DRUD    -2.488300        0.4000           0   0.00000   0.00000
     19924 MEOH     560      MEOH     HO1      HDP1A    0.360000        1.0080           0   0.00000   0.00000
     19925 MEOH     560      MEOH     HO2      DUMH     0.000000        1.0080           0   0.00000   0.00000
     19926 MEOH     560      MEOH     H1A      HDA3B    0.080000        1.0080           0   0.00000   0.00000
     19927 MEOH     560      MEOH     H1B      HDA3B    0.080000        1.0080           0   0.00000   0.00000
     19928 MEOH     560      MEOH     H1C      HDA3B    0.080000        1.0080           0   0.00000   0.00000
     19929 MEOH     560      MEOH     LP1A     LPD     -0.230000        0.0000           -1   0.00000   0.00000
     19930 MEOH     560      MEOH     LP1B     LPD     -0.230000        0.0000           -1   0.00000   0.00000
     19931 MEOH     561      MEOH     C1       CD33B    2.314100       11.6110           0   -1.00000   1.30000
     19932 MEOH     561      MEOH     DC1      DRUD    -2.454100        0.4000           0   0.00000   0.00000
     19933 MEOH     561      MEOH     O1       OD31H    2.488300       15.5990           0   -1.02800   1.30000
     19934 MEOH     561      MEOH     DO1      DRUD    -2.488300        0.4000           0   0.00000   0.00000
     19935 MEOH     561      MEOH     HO1      HDP1A    0.360000        1.0080           0   0.00000   0.00000
     19936 MEOH     561      MEOH     HO2      DUMH     0.000000        1.0080           0   0.00000   0.00000
     19937 MEOH     561      MEOH     H1A      HDA3B    0.080000        1.0080           0   0.00000   0.00000
     19938 MEOH     561      MEOH     H1B      HDA3B    0.080000        1.0080           0   0.00000   0.00000
     19939 MEOH     561      MEOH     H1C      HDA3B    0.080000        1.0080           0   0.00000   0.00000
     19940 MEOH     561      MEOH     LP1A     LPD     -0.230000        0.0000           -1   0.00000   0.00000
     19941 MEOH     561      MEOH     LP1B     LPD     -0.230000        0.0000           -1   0.00000   0.00000
     19942 MEOH     562      MEOH     C1       CD33B    2.314100       11.6110           0   -1.00000   1.30000
     19943 MEOH     562      MEOH     DC1      DRUD    -2.454100        0.4000           0   0.00000   0.00000
     19944 MEOH     562      MEOH     O1       OD31H    2.488300       15.5990           0   -1.02800   1.30000
     19945 MEOH     562      MEOH     DO1      DRUD    -2.488300        0.4000           0   0.00000   0.00000
     19946 MEOH     562      MEOH     HO1      HDP1A    0.360000        1.0080           0   0.00000   0.00000
     19947 MEOH     562      MEOH     HO2      DUMH     0.000000        1.0080           0   0.00000   0.00000
     19948 MEOH     562      MEOH     H1A      HDA3B    0.080000        1.0080           0   0.00000   0.00000
     19949 MEOH     562      MEOH     H1B      HDA3B    0.080000        1.0080           0   0.00000   0.00000
     19950 MEOH     562      MEOH     H1C      HDA3B    0.080000        1.0080           0   0.00000   0.00000
     19951 MEOH     562      MEOH     LP1A     LPD     -0.230000        0.0000           -1   0.00000   0.00000
     19952 MEOH     562      MEOH     LP1B     LPD     -0.230000        0.0000           -1   0.00000   0.00000
     19953 MEOH     563      MEOH     C1       CD33B    2.314100       11.6110           0   -1.00000   1.30000
     19954 MEOH     563      MEOH     DC1      DRUD    -2.454100        0.4000           0   0.00000   0.00000
     19955 MEOH     563      MEOH     O1       OD31H    2.488300       15.5990           0   -1.02800   1.30000
     19956 MEOH     563      MEOH     DO1      DRUD    -2.488300        0.4000           0   0.00000   0.00000
     19957 MEOH     563      MEOH     HO1      HDP1A    0.360000        1.0080           0   0.00000   0.00000
     19958 MEOH     563      MEOH     HO2      DUMH     0.000000        1.0080           0   0.00000   0.00000
     19959 MEOH     563      MEOH     H1A      HDA3B    0.080000        1.0080           0   0.00000   0.00000
     19960 MEOH     563      MEOH     H1B      HDA3B    0.080000        1.0080           0   0.00000   0.00000
     19961 MEOH     563      MEOH     H1C      HDA3B    0.080000        1.0080           0   0.00000   0.00000
     19962 MEOH     563      MEOH     LP1A     LPD     -0.230000        0.0000           -1   0.00000   0.00000
     19963 MEOH     563      MEOH     LP1B     LPD     -0.230000        0.0000           -1   0.00000   0.00000
     19964 MEOH     564      MEOH     C1       CD33B    2.314100       11.6110           0   -1.00000   1.30000
     19965 MEOH     564      MEOH     DC1      DRUD    -2.454100        0.4000           0   0.00000   0.00000
     19966 MEOH     564      MEOH     O1       OD31H    2.488300       15.5990           0   -1.02800   1.30000
     19967 MEOH     564      MEOH     DO1      DRUD    -2.488300        0.4000           0   0.00000   0.00000
     19968 MEOH     564      MEOH     HO1      HDP1A    0.360000        1.0080           0   0.00000   0.00000
     19969 MEOH     564      MEOH     HO2      DUMH     0.000000        1.0080           0   0.00000   0.00000
     19970 MEOH     564      MEOH     H1A      HDA3B    0.080000        1.0080           0   0.00000   0.00000
     19971 MEOH     564      MEOH     H1B      HDA3B    0.080000        1.0080           0   0.00000   0.00000
     19972 MEOH     564      MEOH     H1C      HDA3B    0.080000        1.0080           0   0.00000   0.00000
     19973 MEOH     564      MEOH     LP1A     LPD     -0.230000        0.0000           -1   0.00000   0.00000
     19974 MEOH     564      MEOH     LP1B     LPD     -0.230000        0.0000           -1   0.00000   0.00000
     19975 MEOH     565      MEOH     C1       CD33B    2.314100       11.6110           0   -1.00000   1.30000
     19976 MEOH     565      MEOH     DC1      DRUD    -2.454100        0.4000           0   0.00000   0.00000
     19977 MEOH     565      MEOH     O1       OD31H    2.488300       15.5990           0   -1.02800   1.30000
     19978 MEOH     565      MEOH     DO1      DRUD    -2.488300        0.4000           0   0.00000   0.00000
     19979 MEOH     565      MEOH     HO1      HDP1A    0.360000        1.0080           0   0.00000   0.00000
     19980 MEOH     565      MEOH     HO2      DUMH     0.000000        1.0080           0   0.00000   0.00000
     19981 MEOH     565      MEOH     H1A      HDA3B    0.080000        1.0080           0   0.00000   0.00000
     19982 MEOH     565      MEOH     H1B      HDA3B    0.080000        1.0080           0   0.00000   0.00000
     19983 MEOH     565      MEOH     H1C      HDA3B    0.080000        1.0080           0   0.00000   0.00000
     19984 MEOH     565      MEOH     LP1A     LPD     -0.230000        0.0000           -1   0.00000   0.00000
     19985 MEOH     565      MEOH     LP1B     LPD     -0.230000        0.0000           -1   0.00000   0.00000
     19986 MEOH     566      MEOH     C1       CD33B    2.314100       11.6110           0   -1.00000   1.30000
     19987 MEOH     566      MEOH     DC1      DRUD    -2.454100        0.4000           0   0.00000   0.00000
     19988 MEOH     566      MEOH     O1       OD31H    2.488300       15.5990           0   -1.02800   1.30000
     19989 MEOH     566      MEOH     DO1      DRUD    -2.488300        0.4000           0   0.00000   0.00000
     19990 MEOH     566      MEOH     HO1      HDP1A    0.360000        1.0080           0   0.00000   0.00000
     19991 MEOH     566      MEOH     HO2      DUMH     0.000000        1.0080           0   0.00000   0.00000
     19992 MEOH     566      MEOH     H1A      HDA3B    0.080000        1.0080           0   0.00000   0.00000
     19993 MEOH     566      MEOH     H1B      HDA3B    0.080000        1.0080           0   0.00000   0.00000
     19994 MEOH     566      MEOH     H1C      HDA3B    0.080000        1.0080           0   0.00000   0.00000
     19995 MEOH     566      MEOH     LP1A     LPD     -0.230000        0.0000           -1   0.00000   0.00000
     19996 MEOH     566      MEOH     LP1B     LPD     -0.230000        0.0000           -1   0.00000   0.00000
     19997 MEOH     567      MEOH     C1       CD33B    2.314100       11.6110           0   -1.00000   1.30000
     19998 MEOH     567      MEOH     DC1      DRUD    -2.454100        0.4000           0   0.00000   0.00000
     19999 MEOH     567      MEOH     O1       OD31H    2.488300       15.5990           0   -1.02800   1.30000
     20000 MEOH     567      MEOH     DO1      DRUD    -2.488300        0.4000           0   0.00000   0.00000
     20001 MEOH     567      MEOH     HO1      HDP1A    0.360000        1.0080           0   0.00000   0.00000
     20002 MEOH     567      MEOH     HO2      DUMH     0.000000        1.0080           0   0.00000   0.00000
     20003 MEOH     567      MEOH     H1A      HDA3B    0.080000        1.0080           0   0.00000   0.00000
     20004 MEOH     567      MEOH     H1B      HDA3B    0.080000        1.0080           0   0.00000   0.00000
     20005 MEOH     567      MEOH     H1C      HDA3B    0.080000        1.0080           0   0.00000   0.00000
     20006 MEOH     567      MEOH     LP1A     LPD     -0.230000        0.0000           -1   0.00000   0.00000
     20007 MEOH     567      MEOH     LP1B     LPD     -0.230000        0.0000           -1   0.00000   0.00000
     20008 MEOH     568      MEOH     C1       CD33B    2.314100       11.6110           0   -1.00000   1.30000
     20009 MEOH     568      MEOH     DC1      DRUD    -2.454100        0.4000           0   0.00000   0.00000
     20010 MEOH     568      MEOH     O1       OD31H    2.488300       15.5990           0   -1.02800   1.30000
     20011 MEOH     568      MEOH     DO1      DRUD    -2.488300        0.4000           0   0.00000   0.00000
     20012 MEOH     568      MEOH     HO1      HDP1A    0.360000        1.0080           0   0.00000   0.00000
     20013 MEOH     568      MEOH     HO2      DUMH     0.000000        1.0080           0   0.00000   0.00000
     20014 MEOH     568      MEOH     H1A      HDA3B    0.080000        1.0080           0   0.00000   0.00000
     20015 MEOH     568      MEOH     H1B      HDA3B    0.080000        1.0080           0   0.00000   0.00000
     20016 MEOH     568      MEOH     H1C      HDA3B    0.080000        1.0080           0   0.00000   0.00000
     20017 MEOH     568      MEOH     LP1A     LPD     -0.230000        0.0000           -1   0.00000   0.00000
     20018 MEOH     568      MEOH     LP1B     LPD     -0.230000        0.0000           -1   0.00000   0.00000
     20019 MEOH     569      MEOH     C1       CD33B    2.314100       11.6110           0   -1.00000   1.30000
     20020 MEOH     569      MEOH     DC1      DRUD    -2.454100        0.4000           0   0.00000   0.00000
     20021 MEOH     569      MEOH     O1       OD31H    2.488300       15.5990           0   -1.02800   1.30000
     20022 MEOH     569      MEOH     DO1      DRUD    -2.488300        0.4000           0   0.00000   0.00000
     20023 MEOH     569      MEOH     HO1      HDP1A    0.360000        1.0080           0   0.00000   0.00000
     20024 MEOH     569      MEOH     HO2      DUMH     0.000000        1.0080           0   0.00000   0.00000
     20025 MEOH     569      MEOH     H1A      HDA3B    0.080000        1.0080           0   0.00000   0.00000
     20026 MEOH     569      MEOH     H1B      HDA3B    0.080000        1.0080           0   0.00000   0.00000
     20027 MEOH     569      MEOH     H1C      HDA3B    0.080000        1.0080           0   0.00000   0.00000
     20028 MEOH     569      MEOH     LP1A     LPD     -0.230000        0.0000           -1   0.00000   0.00000
     20029 MEOH     569      MEOH     LP1B     LPD     -0.230000        0.0000           -1   0.00000   0.00000
     20030 MEOH     570      MEOH     C1       CD33B    2.314100       11.6110           0   -1.00000   1.30000
     20031 MEOH     570      MEOH     DC1      DRUD    -2.454100        0.4000           0   0.00000   0.00000
     20032 MEOH     570      MEOH     O1       OD31H    2.488300       15.5990           0   -1.02800   1.30000
     20033 MEOH     570      MEOH     DO1      DRUD    -2.488300        0.4000           0   0.00000   0.00000
     20034 MEOH     570      MEOH     HO1      HDP1A    0.360000        1.0080           0   0.00000   0.00000
     20035 MEOH     570      MEOH     HO2      DUMH     0.000000        1.0080           0   0.00000   0.00000
     20036 MEOH     570      MEOH     H1A      HDA3B    0.080000        1.0080           0   0.00000   0.00000
     20037 MEOH     570      MEOH     H1B      HDA3B    0.080000        1.0080           0   0.00000   0.00000
     20038 MEOH     570      MEOH     H1C      HDA3B    0.080000        1.0080           0   0.00000   0.00000
     20039 MEOH     570      MEOH     LP1A     LPD     -0.230000        0.0000           -1   0.00000   0.00000
     20040 MEOH     570      MEOH     LP1B     LPD     -0.230000        0.0000           -1   0.00000   0.00000
     20041 MEOH     571      MEOH     C1       CD33B    2.314100       11.6110           0   -1.00000   1.30000
     20042 MEOH     571      MEOH     DC1      DRUD    -2.454100        0.4000           0   0.00000   0.00000
     20043 MEOH     571      MEOH     O1       OD31H    2.488300       15.5990           0   -1.02800   1.30000
     20044 MEOH     571      MEOH     DO1      DRUD    -2.488300        0.4000           0   0.00000   0.00000
     20045 MEOH     571      MEOH     HO1      HDP1A    0.360000        1.0080           0   0.00000   0.00000
     20046 MEOH     571      MEOH     HO2      DUMH     0.000000        1.0080           0   0.00000   0.00000
     20047 MEOH     571      MEOH     H1A      HDA3B    0.080000        1.0080           0   0.00000   0.00000
     20048 MEOH     571      MEOH     H1B      HDA3B    0.080000        1.0080           0   0.00000   0.00000
     20049 MEOH     571      MEOH     H1C      HDA3B    0.080000        1.0080           0   0.00000   0.00000
     20050 MEOH     571      MEOH     LP1A     LPD     -0.230000        0.0000           -1   0.00000   0.00000
     20051 MEOH     571      MEOH     LP1B     LPD     -0.230000        0.0000           -1   0.00000   0.00000
     20052 MEOH     572      MEOH     C1       CD33B    2.314100       11.6110           0   -1.00000   1.30000
     20053 MEOH     572      MEOH     DC1      DRUD    -2.454100        0.4000           0   0.00000   0.00000
     20054 MEOH     572      MEOH     O1       OD31H    2.488300       15.5990           0   -1.02800   1.30000
     20055 MEOH     572      MEOH     DO1      DRUD    -2.488300        0.4000           0   0.00000   0.00000
     20056 MEOH     572      MEOH     HO1      HDP1A    0.360000        1.0080           0   0.00000   0.00000
     20057 MEOH     572      MEOH     HO2      DUMH     0.000000        1.0080           0   0.00000   0.00000
     20058 MEOH     572      MEOH     H1A      HDA3B    0.080000        1.0080           0   0.00000   0.00000
     20059 MEOH     572      MEOH     H1B      HDA3B    0.080000        1.0080           0   0.00000   0.00000
     20060 MEOH     572      MEOH     H1C      HDA3B    0.080000        1.0080           0   0.00000   0.00000
     20061 MEOH     572      MEOH     LP1A     LPD     -0.230000        0.0000           -1   0.00000   0.00000
     20062 MEOH     572      MEOH     LP1B     LPD     -0.230000        0.0000           -1   0.00000   0.00000
     20063 MEOH     573      MEOH     C1       CD33B    2.314100       11.6110           0   -1.00000   1.30000
     20064 MEOH     573      MEOH     DC1      DRUD    -2.454100        0.4000           0   0.00000   0.00000
     20065 MEOH     573      MEOH     O1       OD31H    2.488300       15.5990           0   -1.02800   1.30000
     20066 MEOH     573      MEOH     DO1      DRUD    -2.488300        0.4000           0   0.00000   0.00000
     20067 MEOH     573      MEOH     HO1      HDP1A    0.360000        1.0080           0   0.00000   0.00000
     20068 MEOH     573      MEOH     HO2      DUMH     0.000000        1.0080           0   0.00000   0.00000
     20069 MEOH     573      MEOH     H1A      HDA3B    0.080000        1.0080           0   0.00000   0.00000
     20070 MEOH     573      MEOH     H1B      HDA3B    0.080000        1.0080           0   0.00000   0.00000
     20071 MEOH     573      MEOH     H1C      HDA3B    0.080000        1.0080           0   0.00000   0.00000
     20072 MEOH     573      MEOH     LP1A     LPD     -0.230000        0.0000           -1   0.00000   0.00000
     20073 MEOH     573      MEOH     LP1B     LPD     -0.230000        0.0000           -1   0.00000   0.00000
     20074 MEOH     574      MEOH     C1       CD33B    2.314100       11.6110           0   -1.00000   1.30000
     20075 MEOH     574      MEOH     DC1      DRUD    -2.454100        0.4000           0   0.00000   0.00000
     20076 MEOH     574      MEOH     O1       OD31H    2.488300       15.5990           0   -1.02800   1.30000
     20077 MEOH     574      MEOH     DO1      DRUD    -2.488300        0.4000           0   0.00000   0.00000
     20078 MEOH     574      MEOH     HO1      HDP1A    0.360000        1.0080           0   0.00000   0.00000
     20079 MEOH     574      MEOH     HO2      DUMH     0.000000        1.0080           0   0.00000   0.00000
     20080 MEOH     574      MEOH     H1A      HDA3B    0.080000        1.0080           0   0.00000   0.00000
     20081 MEOH     574      MEOH     H1B      HDA3B    0.080000        1.0080           0   0.00000   0.00000
     20082 MEOH     574      MEOH     H1C      HDA3B    0.080000        1.0080           0   0.00000   0.00000
     20083 MEOH     574      MEOH     LP1A     LPD     -0.230000        0.0000           -1   0.00000   0.00000
     20084 MEOH     574      MEOH     LP1B     LPD     -0.230000        0.0000           -1   0.00000   0.00000
     20085 MEOH     575      MEOH     C1       CD33B    2.314100       11.6110           0   -1.00000   1.30000
     20086 MEOH     575      MEOH     DC1      DRUD    -2.454100        0.4000           0   0.00000   0.00000
     20087 MEOH     575      MEOH     O1       OD31H    2.488300       15.5990           0   -1.02800   1.30000
     20088 MEOH     575      MEOH     DO1      DRUD    -2.488300        0.4000           0   0.00000   0.00000
     20089 MEOH     575      MEOH     HO1      HDP1A    0.360000        1.0080           0   0.00000   0.00000
     20090 MEOH     575      MEOH     HO2      DUMH     0.000000        1.0080           0   0.00000   0.00000
     20091 MEOH     575      MEOH     H1A      HDA3B    0.080000        1.0080           0   0.00000   0.00000
     20092 MEOH     575      MEOH     H1B      HDA3B    0.080000        1.0080           0   0.00000   0.00000
     20093 MEOH     575      MEOH     H1C      HDA3B    0.080000        1.0080           0   0.00000   0.00000
     20094 MEOH     575      MEOH     LP1A     LPD     -0.230000        0.0000           -1   0.00000   0.00000
     20095 MEOH     575      MEOH     LP1B     LPD     -0.230000        0.0000           -1   0.00000   0.00000
     20096 MEOH     576      MEOH     C1       CD33B    2.314100       11.6110           0   -1.00000   1.30000
     20097 MEOH     576      MEOH     DC1      DRUD    -2.454100        0.4000           0   0.00000   0.00000
     20098 MEOH     576      MEOH     O1       OD31H    2.488300       15.5990           0   -1.02800   1.30000
     20099 MEOH     576      MEOH     DO1      DRUD    -2.488300        0.4000           0   0.00000   0.00000
     20100 MEOH     576      MEOH     HO1      HDP1A    0.360000        1.0080           0   0.00000   0.00000
     20101 MEOH     576      MEOH     HO2      DUMH     0.000000        1.0080           0   0.00000   0.00000
     20102 MEOH     576      MEOH     H1A      HDA3B    0.080000        1.0080           0   0.00000   0.00000
     20103 MEOH     576      MEOH     H1B      HDA3B    0.080000        1.0080           0   0.00000   0.00000
     20104 MEOH     576      MEOH     H1C      HDA3B    0.080000        1.0080           0   0.00000   0.00000
     20105 MEOH     576      MEOH     LP1A     LPD     -0.230000        0.0000           -1   0.00000   0.00000
     20106 MEOH     576      MEOH     LP1B     LPD     -0.230000        0.0000           -1   0.00000   0.00000
     20107 MEOH     577      MEOH     C1       CD33B    2.314100       11.6110           0   -1.00000   1.30000
     20108 MEOH     577      MEOH     DC1      DRUD    -2.454100        0.4000           0   0.00000   0.00000
     20109 MEOH     577      MEOH     O1       OD31H    2.488300       15.5990           0   -1.02800   1.30000
     20110 MEOH     577      MEOH     DO1      DRUD    -2.488300        0.4000           0   0.00000   0.00000
     20111 MEOH     577      MEOH     HO1      HDP1A    0.360000        1.0080           0   0.00000   0.00000
     20112 MEOH     577      MEOH     HO2      DUMH     0.000000        1.0080           0   0.00000   0.00000
     20113 MEOH     577      MEOH     H1A      HDA3B    0.080000        1.0080           0   0.00000   0.00000
     20114 MEOH     577      MEOH     H1B      HDA3B    0.080000        1.0080           0   0.00000   0.00000
     20115 MEOH     577      MEOH     H1C      HDA3B    0.080000        1.0080           0   0.00000   0.00000
     20116 MEOH     577      MEOH     LP1A     LPD     -0.230000        0.0000           -1   0.00000   0.00000
     20117 MEOH     577      MEOH     LP1B     LPD     -0.230000        0.0000           -1   0.00000   0.00000
     20118 MEOH     578      MEOH     C1       CD33B    2.314100       11.6110           0   -1.00000   1.30000
     20119 MEOH     578      MEOH     DC1      DRUD    -2.454100        0.4000           0   0.00000   0.00000
     20120 MEOH     578      MEOH     O1       OD31H    2.488300       15.5990           0   -1.02800   1.30000
     20121 MEOH     578      MEOH     DO1      DRUD    -2.488300        0.4000           0   0.00000   0.00000
     20122 MEOH     578      MEOH     HO1      HDP1A    0.360000        1.0080           0   0.00000   0.00000
     20123 MEOH     578      MEOH     HO2      DUMH     0.000000        1.0080           0   0.00000   0.00000
     20124 MEOH     578      MEOH     H1A      HDA3B    0.080000        1.0080           0   0.00000   0.00000
     20125 MEOH     578      MEOH     H1B      HDA3B    0.080000        1.0080           0   0.00000   0.00000
     20126 MEOH     578      MEOH     H1C      HDA3B    0.080000        1.0080           0   0.00000   0.00000
     20127 MEOH     578      MEOH     LP1A     LPD     -0.230000        0.0000           -1   0.00000   0.00000
     20128 MEOH     578      MEOH     LP1B     LPD     -0.230000        0.0000           -1   0.00000   0.00000
     20129 MEOH     579      MEOH     C1       CD33B    2.314100       11.6110           0   -1.00000   1.30000
     20130 MEOH     579      MEOH     DC1      DRUD    -2.454100        0.4000           0   0.00000   0.00000
     20131 MEOH     579      MEOH     O1       OD31H    2.488300       15.5990           0   -1.02800   1.30000
     20132 MEOH     579      MEOH     DO1      DRUD    -2.488300        0.4000           0   0.00000   0.00000
     20133 MEOH     579      MEOH     HO1      HDP1A    0.360000        1.0080           0   0.00000   0.00000
     20134 MEOH     579      MEOH     HO2      DUMH     0.000000        1.0080           0   0.00000   0.00000
     20135 MEOH     579      MEOH     H1A      HDA3B    0.080000        1.0080           0   0.00000   0.00000
     20136 MEOH     579      MEOH     H1B      HDA3B    0.080000        1.0080           0   0.00000   0.00000
     20137 MEOH     579      MEOH     H1C      HDA3B    0.080000        1.0080           0   0.00000   0.00000
     20138 MEOH     579      MEOH     LP1A     LPD     -0.230000        0.0000           -1   0.00000   0.00000
     20139 MEOH     579      MEOH     LP1B     LPD     -0.230000        0.0000           -1   0.00000   0.00000
     20140 MEOH     580      MEOH     C1       CD33B    2.314100       11.6110           0   -1.00000   1.30000
     20141 MEOH     580      MEOH     DC1      DRUD    -2.454100        0.4000           0   0.00000   0.00000
     20142 MEOH     580      MEOH     O1       OD31H    2.488300       15.5990           0   -1.02800   1.30000
     20143 MEOH     580      MEOH     DO1      DRUD    -2.488300        0.4000           0   0.00000   0.00000
     20144 MEOH     580      MEOH     HO1      HDP1A    0.360000        1.0080           0   0.00000   0.00000
     20145 MEOH     580      MEOH     HO2      DUMH     0.000000        1.0080           0   0.00000   0.00000
     20146 MEOH     580      MEOH     H1A      HDA3B    0.080000        1.0080           0   0.00000   0.00000
     20147 MEOH     580      MEOH     H1B      HDA3B    0.080000        1.0080           0   0.00000   0.00000
     20148 MEOH     580      MEOH     H1C      HDA3B    0.080000        1.0080           0   0.00000   0.00000
     20149 MEOH     580      MEOH     LP1A     LPD     -0.230000        0.0000           -1   0.00000   0.00000
     20150 MEOH     580      MEOH     LP1B     LPD     -0.230000        0.0000           -1   0.00000   0.00000
     20151 MEOH     581      MEOH     C1       CD33B    2.314100       11.6110           0   -1.00000   1.30000
     20152 MEOH     581      MEOH     DC1      DRUD    -2.454100        0.4000           0   0.00000   0.00000
     20153 MEOH     581      MEOH     O1       OD31H    2.488300       15.5990           0   -1.02800   1.30000
     20154 MEOH     581      MEOH     DO1      DRUD    -2.488300        0.4000           0   0.00000   0.00000
     20155 MEOH     581      MEOH     HO1      HDP1A    0.360000        1.0080           0   0.00000   0.00000
     20156 MEOH     581      MEOH     HO2      DUMH     0.000000        1.0080           0   0.00000   0.00000
     20157 MEOH     581      MEOH     H1A      HDA3B    0.080000        1.0080           0   0.00000   0.00000
     20158 MEOH     581      MEOH     H1B      HDA3B    0.080000        1.0080           0   0.00000   0.00000
     20159 MEOH     581      MEOH     H1C      HDA3B    0.080000        1.0080           0   0.00000   0.00000
     20160 MEOH     581      MEOH     LP1A     LPD     -0.230000        0.0000           -1   0.00000   0.00000
     20161 MEOH     581      MEOH     LP1B     LPD     -0.230000        0.0000           -1   0.00000   0.00000
     20162 MEOH     582      MEOH     C1       CD33B    2.314100       11.6110           0   -1.00000   1.30000
     20163 MEOH     582      MEOH     DC1      DRUD    -2.454100        0.4000           0   0.00000   0.00000
     20164 MEOH     582      MEOH     O1       OD31H    2.488300       15.5990           0   -1.02800   1.30000
     20165 MEOH     582      MEOH     DO1      DRUD    -2.488300        0.4000           0   0.00000   0.00000
     20166 MEOH     582      MEOH     HO1      HDP1A    0.360000        1.0080           0   0.00000   0.00000
     20167 MEOH     582      MEOH     HO2      DUMH     0.000000        1.0080           0   0.00000   0.00000
     20168 MEOH     582      MEOH     H1A      HDA3B    0.080000        1.0080           0   0.00000   0.00000
     20169 MEOH     582      MEOH     H1B      HDA3B    0.080000        1.0080           0   0.00000   0.00000
     20170 MEOH     582      MEOH     H1C      HDA3B    0.080000        1.0080           0   0.00000   0.00000
     20171 MEOH     582      MEOH     LP1A     LPD     -0.230000        0.0000           -1   0.00000   0.00000
     20172 MEOH     582      MEOH     LP1B     LPD     -0.230000        0.0000           -1   0.00000   0.00000
     20173 MEOH     583      MEOH     C1       CD33B    2.314100       11.6110           0   -1.00000   1.30000
     20174 MEOH     583      MEOH     DC1      DRUD    -2.454100        0.4000           0   0.00000   0.00000
     20175 MEOH     583      MEOH     O1       OD31H    2.488300       15.5990           0   -1.02800   1.30000
     20176 MEOH     583      MEOH     DO1      DRUD    -2.488300        0.4000           0   0.00000   0.00000
     20177 MEOH     583      MEOH     HO1      HDP1A    0.360000        1.0080           0   0.00000   0.00000
     20178 MEOH     583      MEOH     HO2      DUMH     0.000000        1.0080           0   0.00000   0.00000
     20179 MEOH     583      MEOH     H1A      HDA3B    0.080000        1.0080           0   0.00000   0.00000
     20180 MEOH     583      MEOH     H1B      HDA3B    0.080000        1.0080           0   0.00000   0.00000
     20181 MEOH     583      MEOH     H1C      HDA3B    0.080000        1.0080           0   0.00000   0.00000
     20182 MEOH     583      MEOH     LP1A     LPD     -0.230000        0.0000           -1   0.00000   0.00000
     20183 MEOH     583      MEOH     LP1B     LPD     -0.230000        0.0000           -1   0.00000   0.00000
     20184 MEOH     584      MEOH     C1       CD33B    2.314100       11.6110           0   -1.00000   1.30000
     20185 MEOH     584      MEOH     DC1      DRUD    -2.454100        0.4000           0   0.00000   0.00000
     20186 MEOH     584      MEOH     O1       OD31H    2.488300       15.5990           0   -1.02800   1.30000
     20187 MEOH     584      MEOH     DO1      DRUD    -2.488300        0.4000           0   0.00000   0.00000
     20188 MEOH     584      MEOH     HO1      HDP1A    0.360000        1.0080           0   0.00000   0.00000
     20189 MEOH     584      MEOH     HO2      DUMH     0.000000        1.0080           0   0.00000   0.00000
     20190 MEOH     584      MEOH     H1A      HDA3B    0.080000        1.0080           0   0.00000   0.00000
     20191 MEOH     584      MEOH     H1B      HDA3B    0.080000        1.0080           0   0.00000   0.00000
     20192 MEOH     584      MEOH     H1C      HDA3B    0.080000        1.0080           0   0.00000   0.00000
     20193 MEOH     584      MEOH     LP1A     LPD     -0.230000        0.0000           -1   0.00000   0.00000
     20194 MEOH     584      MEOH     LP1B     LPD     -0.230000        0.0000           -1   0.00000   0.00000
     20195 MEOH     585      MEOH     C1       CD33B    2.314100       11.6110           0   -1.00000   1.30000
     20196 MEOH     585      MEOH     DC1      DRUD    -2.454100        0.4000           0   0.00000   0.00000
     20197 MEOH     585      MEOH     O1       OD31H    2.488300       15.5990           0   -1.02800   1.30000
     20198 MEOH     585      MEOH     DO1      DRUD    -2.488300        0.4000           0   0.00000   0.00000
     20199 MEOH     585      MEOH     HO1      HDP1A    0.360000        1.0080           0   0.00000   0.00000
     20200 MEOH     585      MEOH     HO2      DUMH     0.000000        1.0080           0   0.00000   0.00000
     20201 MEOH     585      MEOH     H1A      HDA3B    0.080000        1.0080           0   0.00000   0.00000
     20202 MEOH     585      MEOH     H1B      HDA3B    0.080000        1.0080           0   0.00000   0.00000
     20203 MEOH     585      MEOH     H1C      HDA3B    0.080000        1.0080           0   0.00000   0.00000
     20204 MEOH     585      MEOH     LP1A     LPD     -0.230000        0.0000           -1   0.00000   0.00000
     20205 MEOH     585      MEOH     LP1B     LPD     -0.230000        0.0000           -1   0.00000   0.00000
     20206 MEOH     586      MEOH     C1       CD33B    2.314100       11.6110           0   -1.00000   1.30000
     20207 MEOH     586      MEOH     DC1      DRUD    -2.454100        0.4000           0   0.00000   0.00000
     20208 MEOH     586      MEOH     O1       OD31H    2.488300       15.5990           0   -1.02800   1.30000
     20209 MEOH     586      MEOH     DO1      DRUD    -2.488300        0.4000           0   0.00000   0.00000
     20210 MEOH     586      MEOH     HO1      HDP1A    0.360000        1.0080           0   0.00000   0.00000
     20211 MEOH     586      MEOH     HO2      DUMH     0.000000        1.0080           0   0.00000   0.00000
     20212 MEOH     586      MEOH     H1A      HDA3B    0.080000        1.0080           0   0.00000   0.00000
     20213 MEOH     586      MEOH     H1B      HDA3B    0.080000        1.0080           0   0.00000   0.00000
     20214 MEOH     586      MEOH     H1C      HDA3B    0.080000        1.0080           0   0.00000   0.00000
     20215 MEOH     586      MEOH     LP1A     LPD     -0.230000        0.0000           -1   0.00000   0.00000
     20216 MEOH     586      MEOH     LP1B     LPD     -0.230000        0.0000           -1   0.00000   0.00000
     20217 MEOH     587      MEOH     C1       CD33B    2.314100       11.6110           0   -1.00000   1.30000
     20218 MEOH     587      MEOH     DC1      DRUD    -2.454100        0.4000           0   0.00000   0.00000
     20219 MEOH     587      MEOH     O1       OD31H    2.488300       15.5990           0   -1.02800   1.30000
     20220 MEOH     587      MEOH     DO1      DRUD    -2.488300        0.4000           0   0.00000   0.00000
     20221 MEOH     587      MEOH     HO1      HDP1A    0.360000        1.0080           0   0.00000   0.00000
     20222 MEOH     587      MEOH     HO2      DUMH     0.000000        1.0080           0   0.00000   0.00000
     20223 MEOH     587      MEOH     H1A      HDA3B    0.080000        1.0080           0   0.00000   0.00000
     20224 MEOH     587      MEOH     H1B      HDA3B    0.080000        1.0080           0   0.00000   0.00000
     20225 MEOH     587      MEOH     H1C      HDA3B    0.080000        1.0080           0   0.00000   0.00000
     20226 MEOH     587      MEOH     LP1A     LPD     -0.230000        0.0000           -1   0.00000   0.00000
     20227 MEOH     587      MEOH     LP1B     LPD     -0.230000        0.0000           -1   0.00000   0.00000
     20228 MEOH     588      MEOH     C1       CD33B    2.314100       11.6110           0   -1.00000   1.30000
     20229 MEOH     588      MEOH     DC1      DRUD    -2.454100        0.4000           0   0.00000   0.00000
     20230 MEOH     588      MEOH     O1       OD31H    2.488300       15.5990           0   -1.02800   1.30000
     20231 MEOH     588      MEOH     DO1      DRUD    -2.488300        0.4000           0   0.00000   0.00000
     20232 MEOH     588      MEOH     HO1      HDP1A    0.360000        1.0080           0   0.00000   0.00000
     20233 MEOH     588      MEOH     HO2      DUMH     0.000000        1.0080           0   0.00000   0.00000
     20234 MEOH     588      MEOH     H1A      HDA3B    0.080000        1.0080           0   0.00000   0.00000
     20235 MEOH     588      MEOH     H1B      HDA3B    0.080000        1.0080           0   0.00000   0.00000
     20236 MEOH     588      MEOH     H1C      HDA3B    0.080000        1.0080           0   0.00000   0.00000
     20237 MEOH     588      MEOH     LP1A     LPD     -0.230000        0.0000           -1   0.00000   0.00000
     20238 MEOH     588      MEOH     LP1B     LPD     -0.230000        0.0000           -1   0.00000   0.00000
     20239 MEOH     589      MEOH     C1       CD33B    2.314100       11.6110           0   -1.00000   1.30000
     20240 MEOH     589      MEOH     DC1      DRUD    -2.454100        0.4000           0   0.00000   0.00000
     20241 MEOH     589      MEOH     O1       OD31H    2.488300       15.5990           0   -1.02800   1.30000
     20242 MEOH     589      MEOH     DO1      DRUD    -2.488300        0.4000           0   0.00000   0.00000
     20243 MEOH     589      MEOH     HO1      HDP1A    0.360000        1.0080           0   0.00000   0.00000
     20244 MEOH     589      MEOH     HO2      DUMH     0.000000        1.0080           0   0.00000   0.00000
     20245 MEOH     589      MEOH     H1A      HDA3B    0.080000        1.0080           0   0.00000   0.00000
     20246 MEOH     589      MEOH     H1B      HDA3B    0.080000        1.0080           0   0.00000   0.00000
     20247 MEOH     589      MEOH     H1C      HDA3B    0.080000        1.0080           0   0.00000   0.00000
     20248 MEOH     589      MEOH     LP1A     LPD     -0.230000        0.0000           -1   0.00000   0.00000
     20249 MEOH     589      MEOH     LP1B     LPD     -0.230000        0.0000           -1   0.00000   0.00000
     20250 MEOH     590      MEOH     C1       CD33B    2.314100       11.6110           0   -1.00000   1.30000
     20251 MEOH     590      MEOH     DC1      DRUD    -2.454100        0.4000           0   0.00000   0.00000
     20252 MEOH     590      MEOH     O1       OD31H    2.488300       15.5990           0   -1.02800   1.30000
     20253 MEOH     590      MEOH     DO1      DRUD    -2.488300        0.4000           0   0.00000   0.00000
     20254 MEOH     590      MEOH     HO1      HDP1A    0.360000        1.0080           0   0.00000   0.00000
     20255 MEOH     590      MEOH     HO2      DUMH     0.000000        1.0080           0   0.00000   0.00000
     20256 MEOH     590      MEOH     H1A      HDA3B    0.080000        1.0080           0   0.00000   0.00000
     20257 MEOH     590      MEOH     H1B      HDA3B    0.080000        1.0080           0   0.00000   0.00000
     20258 MEOH     590      MEOH     H1C      HDA3B    0.080000        1.0080           0   0.00000   0.00000
     20259 MEOH     590      MEOH     LP1A     LPD     -0.230000        0.0000           -1   0.00000   0.00000
     20260 MEOH     590      MEOH     LP1B     LPD     -0.230000        0.0000           -1   0.00000   0.00000
     20261 MEOH     591      MEOH     C1       CD33B    2.314100       11.6110           0   -1.00000   1.30000
     20262 MEOH     591      MEOH     DC1      DRUD    -2.454100        0.4000           0   0.00000   0.00000
     20263 MEOH     591      MEOH     O1       OD31H    2.488300       15.5990           0   -1.02800   1.30000
     20264 MEOH     591      MEOH     DO1      DRUD    -2.488300        0.4000           0   0.00000   0.00000
     20265 MEOH     591      MEOH     HO1      HDP1A    0.360000        1.0080           0   0.00000   0.00000
     20266 MEOH     591      MEOH     HO2      DUMH     0.000000        1.0080           0   0.00000   0.00000
     20267 MEOH     591      MEOH     H1A      HDA3B    0.080000        1.0080           0   0.00000   0.00000
     20268 MEOH     591      MEOH     H1B      HDA3B    0.080000        1.0080           0   0.00000   0.00000
     20269 MEOH     591      MEOH     H1C      HDA3B    0.080000        1.0080           0   0.00000   0.00000
     20270 MEOH     591      MEOH     LP1A     LPD     -0.230000        0.0000           -1   0.00000   0.00000
     20271 MEOH     591      MEOH     LP1B     LPD     -0.230000        0.0000           -1   0.00000   0.00000
     20272 MEOH     592      MEOH     C1       CD33B    2.314100       11.6110           0   -1.00000   1.30000
     20273 MEOH     592      MEOH     DC1      DRUD    -2.454100        0.4000           0   0.00000   0.00000
     20274 MEOH     592      MEOH     O1       OD31H    2.488300       15.5990           0   -1.02800   1.30000
     20275 MEOH     592      MEOH     DO1      DRUD    -2.488300        0.4000           0   0.00000   0.00000
     20276 MEOH     592      MEOH     HO1      HDP1A    0.360000        1.0080           0   0.00000   0.00000
     20277 MEOH     592      MEOH     HO2      DUMH     0.000000        1.0080           0   0.00000   0.00000
     20278 MEOH     592      MEOH     H1A      HDA3B    0.080000        1.0080           0   0.00000   0.00000
     20279 MEOH     592      MEOH     H1B      HDA3B    0.080000        1.0080           0   0.00000   0.00000
     20280 MEOH     592      MEOH     H1C      HDA3B    0.080000        1.0080           0   0.00000   0.00000
     20281 MEOH     592      MEOH     LP1A     LPD     -0.230000        0.0000           -1   0.00000   0.00000
     20282 MEOH     592      MEOH     LP1B     LPD     -0.230000        0.0000           -1   0.00000   0.00000
     20283 MEOH     593      MEOH     C1       CD33B    2.314100       11.6110           0   -1.00000   1.30000
     20284 MEOH     593      MEOH     DC1      DRUD    -2.454100        0.4000           0   0.00000   0.00000
     20285 MEOH     593      MEOH     O1       OD31H    2.488300       15.5990           0   -1.02800   1.30000
     20286 MEOH     593      MEOH     DO1      DRUD    -2.488300        0.4000           0   0.00000   0.00000
     20287 MEOH     593      MEOH     HO1      HDP1A    0.360000        1.0080           0   0.00000   0.00000
     20288 MEOH     593      MEOH     HO2      DUMH     0.000000        1.0080           0   0.00000   0.00000
     20289 MEOH     593      MEOH     H1A      HDA3B    0.080000        1.0080           0   0.00000   0.00000
     20290 MEOH     593      MEOH     H1B      HDA3B    0.080000        1.0080           0   0.00000   0.00000
     20291 MEOH     593      MEOH     H1C      HDA3B    0.080000        1.0080           0   0.00000   0.00000
     20292 MEOH     593      MEOH     LP1A     LPD     -0.230000        0.0000           -1   0.00000   0.00000
     20293 MEOH     593      MEOH     LP1B     LPD     -0.230000        0.0000           -1   0.00000   0.00000
     20294 MEOH     594      MEOH     C1       CD33B    2.314100       11.6110           0   -1.00000   1.30000
     20295 MEOH     594      MEOH     DC1      DRUD    -2.454100        0.4000           0   0.00000   0.00000
     20296 MEOH     594      MEOH     O1       OD31H    2.488300       15.5990           0   -1.02800   1.30000
     20297 MEOH     594      MEOH     DO1      DRUD    -2.488300        0.4000           0   0.00000   0.00000
     20298 MEOH     594      MEOH     HO1      HDP1A    0.360000        1.0080           0   0.00000   0.00000
     20299 MEOH     594      MEOH     HO2      DUMH     0.000000        1.0080           0   0.00000   0.00000
     20300 MEOH     594      MEOH     H1A      HDA3B    0.080000        1.0080           0   0.00000   0.00000
     20301 MEOH     594      MEOH     H1B      HDA3B    0.080000        1.0080           0   0.00000   0.00000
     20302 MEOH     594      MEOH     H1C      HDA3B    0.080000        1.0080           0   0.00000   0.00000
     20303 MEOH     594      MEOH     LP1A     LPD     -0.230000        0.0000           -1   0.00000   0.00000
     20304 MEOH     594      MEOH     LP1B     LPD     -0.230000        0.0000           -1   0.00000   0.00000
     20305 MEOH     595      MEOH     C1       CD33B    2.314100       11.6110           0   -1.00000   1.30000
     20306 MEOH     595      MEOH     DC1      DRUD    -2.454100        0.4000           0   0.00000   0.00000
     20307 MEOH     595      MEOH     O1       OD31H    2.488300       15.5990           0   -1.02800   1.30000
     20308 MEOH     595      MEOH     DO1      DRUD    -2.488300        0.4000           0   0.00000   0.00000
     20309 MEOH     595      MEOH     HO1      HDP1A    0.360000        1.0080           0   0.00000   0.00000
     20310 MEOH     595      MEOH     HO2      DUMH     0.000000        1.0080           0   0.00000   0.00000
     20311 MEOH     595      MEOH     H1A      HDA3B    0.080000        1.0080           0   0.00000   0.00000
     20312 MEOH     595      MEOH     H1B      HDA3B    0.080000        1.0080           0   0.00000   0.00000
     20313 MEOH     595      MEOH     H1C      HDA3B    0.080000        1.0080           0   0.00000   0.00000
     20314 MEOH     595      MEOH     LP1A     LPD     -0.230000        0.0000           -1   0.00000   0.00000
     20315 MEOH     595      MEOH     LP1B     LPD     -0.230000        0.0000           -1   0.00000   0.00000
     20316 MEOH     596      MEOH     C1       CD33B    2.314100       11.6110           0   -1.00000   1.30000
     20317 MEOH     596      MEOH     DC1      DRUD    -2.454100        0.4000           0   0.00000   0.00000
     20318 MEOH     596      MEOH     O1       OD31H    2.488300       15.5990           0   -1.02800   1.30000
     20319 MEOH     596      MEOH     DO1      DRUD    -2.488300        0.4000           0   0.00000   0.00000
     20320 MEOH     596      MEOH     HO1      HDP1A    0.360000        1.0080           0   0.00000   0.00000
     20321 MEOH     596      MEOH     HO2      DUMH     0.000000        1.0080           0   0.00000   0.00000
     20322 MEOH     596      MEOH     H1A      HDA3B    0.080000        1.0080           0   0.00000   0.00000
     20323 MEOH     596      MEOH     H1B      HDA3B    0.080000        1.0080           0   0.00000   0.00000
     20324 MEOH     596      MEOH     H1C      HDA3B    0.080000        1.0080           0   0.00000   0.00000
     20325 MEOH     596      MEOH     LP1A     LPD     -0.230000        0.0000           -1   0.00000   0.00000
     20326 MEOH     596      MEOH     LP1B     LPD     -0.230000        0.0000           -1   0.00000   0.00000
     20327 MEOH     597      MEOH     C1       CD33B    2.314100       11.6110           0   -1.00000   1.30000
     20328 MEOH     597      MEOH     DC1      DRUD    -2.454100        0.4000           0   0.00000   0.00000
     20329 MEOH     597      MEOH     O1       OD31H    2.488300       15.5990           0   -1.02800   1.30000
     20330 MEOH     597      MEOH     DO1      DRUD    -2.488300        0.4000           0   0.00000   0.00000
     20331 MEOH     597      MEOH     HO1      HDP1A    0.360000        1.0080           0   0.00000   0.00000
     20332 MEOH     597      MEOH     HO2      DUMH     0.000000        1.0080           0   0.00000   0.00000
     20333 MEOH     597      MEOH     H1A      HDA3B    0.080000        1.0080           0   0.00000   0.00000
     20334 MEOH     597      MEOH     H1B      HDA3B    0.080000        1.0080           0   0.00000   0.00000
     20335 MEOH     597      MEOH     H1C      HDA3B    0.080000        1.0080           0   0.00000   0.00000
     20336 MEOH     597      MEOH     LP1A     LPD     -0.230000        0.0000           -1   0.00000   0.00000
     20337 MEOH     597      MEOH     LP1B     LPD     -0.230000        0.0000           -1   0.00000   0.00000
     20338 MEOH     598      MEOH     C1       CD33B    2.314100       11.6110           0   -1.00000   1.30000
     20339 MEOH     598      MEOH     DC1      DRUD    -2.454100        0.4000           0   0.00000   0.00000
     20340 MEOH     598      MEOH     O1       OD31H    2.488300       15.5990           0   -1.02800   1.30000
     20341 MEOH     598      MEOH     DO1      DRUD    -2.488300        0.4000           0   0.00000   0.00000
     20342 MEOH     598      MEOH     HO1      HDP1A    0.360000        1.0080           0   0.00000   0.00000
     20343 MEOH     598      MEOH     HO2      DUMH     0.000000        1.0080           0   0.00000   0.00000
     20344 MEOH     598      MEOH     H1A      HDA3B    0.080000        1.0080           0   0.00000   0.00000
     20345 MEOH     598      MEOH     H1B      HDA3B    0.080000        1.0080           0   0.00000   0.00000
     20346 MEOH     598      MEOH     H1C      HDA3B    0.080000        1.0080           0   0.00000   0.00000
     20347 MEOH     598      MEOH     LP1A     LPD     -0.230000        0.0000           -1   0.00000   0.00000
     20348 MEOH     598      MEOH     LP1B     LPD     -0.230000        0.0000           -1   0.00000   0.00000
     20349 MEOH     599      MEOH     C1       CD33B    2.314100       11.6110           0   -1.00000   1.30000
     20350 MEOH     599      MEOH     DC1      DRUD    -2.454100        0.4000           0   0.00000   0.00000
     20351 MEOH     599      MEOH     O1       OD31H    2.488300       15.5990           0   -1.02800   1.30000
     20352 MEOH     599      MEOH     DO1      DRUD    -2.488300        0.4000           0   0.00000   0.00000
     20353 MEOH     599      MEOH     HO1      HDP1A    0.360000        1.0080           0   0.00000   0.00000
     20354 MEOH     599      MEOH     HO2      DUMH     0.000000        1.0080           0   0.00000   0.00000
     20355 MEOH     599      MEOH     H1A      HDA3B    0.080000        1.0080           0   0.00000   0.00000
     20356 MEOH     599      MEOH     H1B      HDA3B    0.080000        1.0080           0   0.00000   0.00000
     20357 MEOH     599      MEOH     H1C      HDA3B    0.080000        1.0080           0   0.00000   0.00000
     20358 MEOH     599      MEOH     LP1A     LPD     -0.230000        0.0000           -1   0.00000   0.00000
     20359 MEOH     599      MEOH     LP1B     LPD     -0.230000        0.0000           -1   0.00000   0.00000
     20360 MEOH     600      MEOH     C1       CD33B    2.314100       11.6110           0   -1.00000   1.30000
     20361 MEOH     600      MEOH     DC1      DRUD    -2.454100        0.4000           0   0.00000   0.00000
     20362 MEOH     600      MEOH     O1       OD31H    2.488300       15.5990           0   -1.02800   1.30000
     20363 MEOH     600      MEOH     DO1      DRUD    -2.488300        0.4000           0   0.00000   0.00000
     20364 MEOH     600      MEOH     HO1      HDP1A    0.360000        1.0080           0   0.00000   0.00000
     20365 MEOH     600      MEOH     HO2      DUMH     0.000000        1.0080           0   0.00000   0.00000
     20366 MEOH     600      MEOH     H1A      HDA3B    0.080000        1.0080           0   0.00000   0.00000
     20367 MEOH     600      MEOH     H1B      HDA3B    0.080000        1.0080           0   0.00000   0.00000
     20368 MEOH     600      MEOH     H1C      HDA3B    0.080000        1.0080           0   0.00000   0.00000
     20369 MEOH     600      MEOH     LP1A     LPD     -0.230000        0.0000           -1   0.00000   0.00000
     20370 MEOH     600      MEOH     LP1B     LPD     -0.230000        0.0000           -1   0.00000   0.00000
     20371 MEOH     601      MEOH     C1       CD33B    2.314100       11.6110           0   -1.00000   1.30000
     20372 MEOH     601      MEOH     DC1      DRUD    -2.454100        0.4000           0   0.00000   0.00000
     20373 MEOH     601      MEOH     O1       OD31H    2.488300       15.5990           0   -1.02800   1.30000
     20374 MEOH     601      MEOH     DO1      DRUD    -2.488300        0.4000           0   0.00000   0.00000
     20375 MEOH     601      MEOH     HO1      HDP1A    0.360000        1.0080           0   0.00000   0.00000
     20376 MEOH     601      MEOH     HO2      DUMH     0.000000        1.0080           0   0.00000   0.00000
     20377 MEOH     601      MEOH     H1A      HDA3B    0.080000        1.0080           0   0.00000   0.00000
     20378 MEOH     601      MEOH     H1B      HDA3B    0.080000        1.0080           0   0.00000   0.00000
     20379 MEOH     601      MEOH     H1C      HDA3B    0.080000        1.0080           0   0.00000   0.00000
     20380 MEOH     601      MEOH     LP1A     LPD     -0.230000        0.0000           -1   0.00000   0.00000
     20381 MEOH     601      MEOH     LP1B     LPD     -0.230000        0.0000           -1   0.00000   0.00000
     20382 MEOH     602      MEOH     C1       CD33B    2.314100       11.6110           0   -1.00000   1.30000
     20383 MEOH     602      MEOH     DC1      DRUD    -2.454100        0.4000           0   0.00000   0.00000
     20384 MEOH     602      MEOH     O1       OD31H    2.488300       15.5990           0   -1.02800   1.30000
     20385 MEOH     602      MEOH     DO1      DRUD    -2.488300        0.4000           0   0.00000   0.00000
     20386 MEOH     602      MEOH     HO1      HDP1A    0.360000        1.0080           0   0.00000   0.00000
     20387 MEOH     602      MEOH     HO2      DUMH     0.000000        1.0080           0   0.00000   0.00000
     20388 MEOH     602      MEOH     H1A      HDA3B    0.080000        1.0080           0   0.00000   0.00000
     20389 MEOH     602      MEOH     H1B      HDA3B    0.080000        1.0080           0   0.00000   0.00000
     20390 MEOH     602      MEOH     H1C      HDA3B    0.080000        1.0080           0   0.00000   0.00000
     20391 MEOH     602      MEOH     LP1A     LPD     -0.230000        0.0000           -1   0.00000   0.00000
     20392 MEOH     602      MEOH     LP1B     LPD     -0.230000        0.0000           -1   0.00000   0.00000
     20393 MEOH     603      MEOH     C1       CD33B    2.314100       11.6110           0   -1.00000   1.30000
     20394 MEOH     603      MEOH     DC1      DRUD    -2.454100        0.4000           0   0.00000   0.00000
     20395 MEOH     603      MEOH     O1       OD31H    2.488300       15.5990           0   -1.02800   1.30000
     20396 MEOH     603      MEOH     DO1      DRUD    -2.488300        0.4000           0   0.00000   0.00000
     20397 MEOH     603      MEOH     HO1      HDP1A    0.360000        1.0080           0   0.00000   0.00000
     20398 MEOH     603      MEOH     HO2      DUMH     0.000000        1.0080           0   0.00000   0.00000
     20399 MEOH     603      MEOH     H1A      HDA3B    0.080000        1.0080           0   0.00000   0.00000
     20400 MEOH     603      MEOH     H1B      HDA3B    0.080000        1.0080           0   0.00000   0.00000
     20401 MEOH     603      MEOH     H1C      HDA3B    0.080000        1.0080           0   0.00000   0.00000
     20402 MEOH     603      MEOH     LP1A     LPD     -0.230000        0.0000           -1   0.00000   0.00000
     20403 MEOH     603      MEOH     LP1B     LPD     -0.230000        0.0000           -1   0.00000   0.00000
     20404 MEOH     604      MEOH     C1       CD33B    2.314100       11.6110           0   -1.00000   1.30000
     20405 MEOH     604      MEOH     DC1      DRUD    -2.454100        0.4000           0   0.00000   0.00000
     20406 MEOH     604      MEOH     O1       OD31H    2.488300       15.5990           0   -1.02800   1.30000
     20407 MEOH     604      MEOH     DO1      DRUD    -2.488300        0.4000           0   0.00000   0.00000
     20408 MEOH     604      MEOH     HO1      HDP1A    0.360000        1.0080           0   0.00000   0.00000
     20409 MEOH     604      MEOH     HO2      DUMH     0.000000        1.0080           0   0.00000   0.00000
     20410 MEOH     604      MEOH     H1A      HDA3B    0.080000        1.0080           0   0.00000   0.00000
     20411 MEOH     604      MEOH     H1B      HDA3B    0.080000        1.0080           0   0.00000   0.00000
     20412 MEOH     604      MEOH     H1C      HDA3B    0.080000        1.0080           0   0.00000   0.00000
     20413 MEOH     604      MEOH     LP1A     LPD     -0.230000        0.0000           -1   0.00000   0.00000
     20414 MEOH     604      MEOH     LP1B     LPD     -0.230000        0.0000           -1   0.00000   0.00000
     20415 MEOH     605      MEOH     C1       CD33B    2.314100       11.6110           0   -1.00000   1.30000
     20416 MEOH     605      MEOH     DC1      DRUD    -2.454100        0.4000           0   0.00000   0.00000
     20417 MEOH     605      MEOH     O1       OD31H    2.488300       15.5990           0   -1.02800   1.30000
     20418 MEOH     605      MEOH     DO1      DRUD    -2.488300        0.4000           0   0.00000   0.00000
     20419 MEOH     605      MEOH     HO1      HDP1A    0.360000        1.0080           0   0.00000   0.00000
     20420 MEOH     605      MEOH     HO2      DUMH     0.000000        1.0080           0   0.00000   0.00000
     20421 MEOH     605      MEOH     H1A      HDA3B    0.080000        1.0080           0   0.00000   0.00000
     20422 MEOH     605      MEOH     H1B      HDA3B    0.080000        1.0080           0   0.00000   0.00000
     20423 MEOH     605      MEOH     H1C      HDA3B    0.080000        1.0080           0   0.00000   0.00000
     20424 MEOH     605      MEOH     LP1A     LPD     -0.230000        0.0000           -1   0.00000   0.00000
     20425 MEOH     605      MEOH     LP1B     LPD     -0.230000        0.0000           -1   0.00000   0.00000
     20426 MEOH     606      MEOH     C1       CD33B    2.314100       11.6110           0   -1.00000   1.30000
     20427 MEOH     606      MEOH     DC1      DRUD    -2.454100        0.4000           0   0.00000   0.00000
     20428 MEOH     606      MEOH     O1       OD31H    2.488300       15.5990           0   -1.02800   1.30000
     20429 MEOH     606      MEOH     DO1      DRUD    -2.488300        0.4000           0   0.00000   0.00000
     20430 MEOH     606      MEOH     HO1      HDP1A    0.360000        1.0080           0   0.00000   0.00000
     20431 MEOH     606      MEOH     HO2      DUMH     0.000000        1.0080           0   0.00000   0.00000
     20432 MEOH     606      MEOH     H1A      HDA3B    0.080000        1.0080           0   0.00000   0.00000
     20433 MEOH     606      MEOH     H1B      HDA3B    0.080000        1.0080           0   0.00000   0.00000
     20434 MEOH     606      MEOH     H1C      HDA3B    0.080000        1.0080           0   0.00000   0.00000
     20435 MEOH     606      MEOH     LP1A     LPD     -0.230000        0.0000           -1   0.00000   0.00000
     20436 MEOH     606      MEOH     LP1B     LPD     -0.230000        0.0000           -1   0.00000   0.00000
     20437 MEOH     607      MEOH     C1       CD33B    2.314100       11.6110           0   -1.00000   1.30000
     20438 MEOH     607      MEOH     DC1      DRUD    -2.454100        0.4000           0   0.00000   0.00000
     20439 MEOH     607      MEOH     O1       OD31H    2.488300       15.5990           0   -1.02800   1.30000
     20440 MEOH     607      MEOH     DO1      DRUD    -2.488300        0.4000           0   0.00000   0.00000
     20441 MEOH     607      MEOH     HO1      HDP1A    0.360000        1.0080           0   0.00000   0.00000
     20442 MEOH     607      MEOH     HO2      DUMH     0.000000        1.0080           0   0.00000   0.00000
     20443 MEOH     607      MEOH     H1A      HDA3B    0.080000        1.0080           0   0.00000   0.00000
     20444 MEOH     607      MEOH     H1B      HDA3B    0.080000        1.0080           0   0.00000   0.00000
     20445 MEOH     607      MEOH     H1C      HDA3B    0.080000        1.0080           0   0.00000   0.00000
     20446 MEOH     607      MEOH     LP1A     LPD     -0.230000        0.0000           -1   0.00000   0.00000
     20447 MEOH     607      MEOH     LP1B     LPD     -0.230000        0.0000           -1   0.00000   0.00000
     20448 MEOH     608      MEOH     C1       CD33B    2.314100       11.6110           0   -1.00000   1.30000
     20449 MEOH     608      MEOH     DC1      DRUD    -2.454100        0.4000           0   0.00000   0.00000
     20450 MEOH     608      MEOH     O1       OD31H    2.488300       15.5990           0   -1.02800   1.30000
     20451 MEOH     608      MEOH     DO1      DRUD    -2.488300        0.4000           0   0.00000   0.00000
     20452 MEOH     608      MEOH     HO1      HDP1A    0.360000        1.0080           0   0.00000   0.00000
     20453 MEOH     608      MEOH     HO2      DUMH     0.000000        1.0080           0   0.00000   0.00000
     20454 MEOH     608      MEOH     H1A      HDA3B    0.080000        1.0080           0   0.00000   0.00000
     20455 MEOH     608      MEOH     H1B      HDA3B    0.080000        1.0080           0   0.00000   0.00000
     20456 MEOH     608      MEOH     H1C      HDA3B    0.080000        1.0080           0   0.00000   0.00000
     20457 MEOH     608      MEOH     LP1A     LPD     -0.230000        0.0000           -1   0.00000   0.00000
     20458 MEOH     608      MEOH     LP1B     LPD     -0.230000        0.0000           -1   0.00000   0.00000
     20459 MEOH     609      MEOH     C1       CD33B    2.314100       11.6110           0   -1.00000   1.30000
     20460 MEOH     609      MEOH     DC1      DRUD    -2.454100        0.4000           0   0.00000   0.00000
     20461 MEOH     609      MEOH     O1       OD31H    2.488300       15.5990           0   -1.02800   1.30000
     20462 MEOH     609      MEOH     DO1      DRUD    -2.488300        0.4000           0   0.00000   0.00000
     20463 MEOH     609      MEOH     HO1      HDP1A    0.360000        1.0080           0   0.00000   0.00000
     20464 MEOH     609      MEOH     HO2      DUMH     0.000000        1.0080           0   0.00000   0.00000
     20465 MEOH     609      MEOH     H1A      HDA3B    0.080000        1.0080           0   0.00000   0.00000
     20466 MEOH     609      MEOH     H1B      HDA3B    0.080000        1.0080           0   0.00000   0.00000
     20467 MEOH     609      MEOH     H1C      HDA3B    0.080000        1.0080           0   0.00000   0.00000
     20468 MEOH     609      MEOH     LP1A     LPD     -0.230000        0.0000           -1   0.00000   0.00000
     20469 MEOH     609      MEOH     LP1B     LPD     -0.230000        0.0000           -1   0.00000   0.00000
     20470 MEOH     610      MEOH     C1       CD33B    2.314100       11.6110           0   -1.00000   1.30000
     20471 MEOH     610      MEOH     DC1      DRUD    -2.454100        0.4000           0   0.00000   0.00000
     20472 MEOH     610      MEOH     O1       OD31H    2.488300       15.5990           0   -1.02800   1.30000
     20473 MEOH     610      MEOH     DO1      DRUD    -2.488300        0.4000           0   0.00000   0.00000
     20474 MEOH     610      MEOH     HO1      HDP1A    0.360000        1.0080           0   0.00000   0.00000
     20475 MEOH     610      MEOH     HO2      DUMH     0.000000        1.0080           0   0.00000   0.00000
     20476 MEOH     610      MEOH     H1A      HDA3B    0.080000        1.0080           0   0.00000   0.00000
     20477 MEOH     610      MEOH     H1B      HDA3B    0.080000        1.0080           0   0.00000   0.00000
     20478 MEOH     610      MEOH     H1C      HDA3B    0.080000        1.0080           0   0.00000   0.00000
     20479 MEOH     610      MEOH     LP1A     LPD     -0.230000        0.0000           -1   0.00000   0.00000
     20480 MEOH     610      MEOH     LP1B     LPD     -0.230000        0.0000           -1   0.00000   0.00000
     20481 MEOH     611      MEOH     C1       CD33B    2.314100       11.6110           0   -1.00000   1.30000
     20482 MEOH     611      MEOH     DC1      DRUD    -2.454100        0.4000           0   0.00000   0.00000
     20483 MEOH     611      MEOH     O1       OD31H    2.488300       15.5990           0   -1.02800   1.30000
     20484 MEOH     611      MEOH     DO1      DRUD    -2.488300        0.4000           0   0.00000   0.00000
     20485 MEOH     611      MEOH     HO1      HDP1A    0.360000        1.0080           0   0.00000   0.00000
     20486 MEOH     611      MEOH     HO2      DUMH     0.000000        1.0080           0   0.00000   0.00000
     20487 MEOH     611      MEOH     H1A      HDA3B    0.080000        1.0080           0   0.00000   0.00000
     20488 MEOH     611      MEOH     H1B      HDA3B    0.080000        1.0080           0   0.00000   0.00000
     20489 MEOH     611      MEOH     H1C      HDA3B    0.080000        1.0080           0   0.00000   0.00000
     20490 MEOH     611      MEOH     LP1A     LPD     -0.230000        0.0000           -1   0.00000   0.00000
     20491 MEOH     611      MEOH     LP1B     LPD     -0.230000        0.0000           -1   0.00000   0.00000
     20492 MEOH     612      MEOH     C1       CD33B    2.314100       11.6110           0   -1.00000   1.30000
     20493 MEOH     612      MEOH     DC1      DRUD    -2.454100        0.4000           0   0.00000   0.00000
     20494 MEOH     612      MEOH     O1       OD31H    2.488300       15.5990           0   -1.02800   1.30000
     20495 MEOH     612      MEOH     DO1      DRUD    -2.488300        0.4000           0   0.00000   0.00000
     20496 MEOH     612      MEOH     HO1      HDP1A    0.360000        1.0080           0   0.00000   0.00000
     20497 MEOH     612      MEOH     HO2      DUMH     0.000000        1.0080           0   0.00000   0.00000
     20498 MEOH     612      MEOH     H1A      HDA3B    0.080000        1.0080           0   0.00000   0.00000
     20499 MEOH     612      MEOH     H1B      HDA3B    0.080000        1.0080           0   0.00000   0.00000
     20500 MEOH     612      MEOH     H1C      HDA3B    0.080000        1.0080           0   0.00000   0.00000
     20501 MEOH     612      MEOH     LP1A     LPD     -0.230000        0.0000           -1   0.00000   0.00000
     20502 MEOH     612      MEOH     LP1B     LPD     -0.230000        0.0000           -1   0.00000   0.00000
     20503 MEOH     613      MEOH     C1       CD33B    2.314100       11.6110           0   -1.00000   1.30000
     20504 MEOH     613      MEOH     DC1      DRUD    -2.454100        0.4000           0   0.00000   0.00000
     20505 MEOH     613      MEOH     O1       OD31H    2.488300       15.5990           0   -1.02800   1.30000
     20506 MEOH     613      MEOH     DO1      DRUD    -2.488300        0.4000           0   0.00000   0.00000
     20507 MEOH     613      MEOH     HO1      HDP1A    0.360000        1.0080           0   0.00000   0.00000
     20508 MEOH     613      MEOH     HO2      DUMH     0.000000        1.0080           0   0.00000   0.00000
     20509 MEOH     613      MEOH     H1A      HDA3B    0.080000        1.0080           0   0.00000   0.00000
     20510 MEOH     613      MEOH     H1B      HDA3B    0.080000        1.0080           0   0.00000   0.00000
     20511 MEOH     613      MEOH     H1C      HDA3B    0.080000        1.0080           0   0.00000   0.00000
     20512 MEOH     613      MEOH     LP1A     LPD     -0.230000        0.0000           -1   0.00000   0.00000
     20513 MEOH     613      MEOH     LP1B     LPD     -0.230000        0.0000           -1   0.00000   0.00000
     20514 MEOH     614      MEOH     C1       CD33B    2.314100       11.6110           0   -1.00000   1.30000
     20515 MEOH     614      MEOH     DC1      DRUD    -2.454100        0.4000           0   0.00000   0.00000
     20516 MEOH     614      MEOH     O1       OD31H    2.488300       15.5990           0   -1.02800   1.30000
     20517 MEOH     614      MEOH     DO1      DRUD    -2.488300        0.4000           0   0.00000   0.00000
     20518 MEOH     614      MEOH     HO1      HDP1A    0.360000        1.0080           0   0.00000   0.00000
     20519 MEOH     614      MEOH     HO2      DUMH     0.000000        1.0080           0   0.00000   0.00000
     20520 MEOH     614      MEOH     H1A      HDA3B    0.080000        1.0080           0   0.00000   0.00000
     20521 MEOH     614      MEOH     H1B      HDA3B    0.080000        1.0080           0   0.00000   0.00000
     20522 MEOH     614      MEOH     H1C      HDA3B    0.080000        1.0080           0   0.00000   0.00000
     20523 MEOH     614      MEOH     LP1A     LPD     -0.230000        0.0000           -1   0.00000   0.00000
     20524 MEOH     614      MEOH     LP1B     LPD     -0.230000        0.0000           -1   0.00000   0.00000
     20525 MEOH     615      MEOH     C1       CD33B    2.314100       11.6110           0   -1.00000   1.30000
     20526 MEOH     615      MEOH     DC1      DRUD    -2.454100        0.4000           0   0.00000   0.00000
     20527 MEOH     615      MEOH     O1       OD31H    2.488300       15.5990           0   -1.02800   1.30000
     20528 MEOH     615      MEOH     DO1      DRUD    -2.488300        0.4000           0   0.00000   0.00000
     20529 MEOH     615      MEOH     HO1      HDP1A    0.360000        1.0080           0   0.00000   0.00000
     20530 MEOH     615      MEOH     HO2      DUMH     0.000000        1.0080           0   0.00000   0.00000
     20531 MEOH     615      MEOH     H1A      HDA3B    0.080000        1.0080           0   0.00000   0.00000
     20532 MEOH     615      MEOH     H1B      HDA3B    0.080000        1.0080           0   0.00000   0.00000
     20533 MEOH     615      MEOH     H1C      HDA3B    0.080000        1.0080           0   0.00000   0.00000
     20534 MEOH     615      MEOH     LP1A     LPD     -0.230000        0.0000           -1   0.00000   0.00000
     20535 MEOH     615      MEOH     LP1B     LPD     -0.230000        0.0000           -1   0.00000   0.00000
     20536 MEOH     616      MEOH     C1       CD33B    2.314100       11.6110           0   -1.00000   1.30000
     20537 MEOH     616      MEOH     DC1      DRUD    -2.454100        0.4000           0   0.00000   0.00000
     20538 MEOH     616      MEOH     O1       OD31H    2.488300       15.5990           0   -1.02800   1.30000
     20539 MEOH     616      MEOH     DO1      DRUD    -2.488300        0.4000           0   0.00000   0.00000
     20540 MEOH     616      MEOH     HO1      HDP1A    0.360000        1.0080           0   0.00000   0.00000
     20541 MEOH     616      MEOH     HO2      DUMH     0.000000        1.0080           0   0.00000   0.00000
     20542 MEOH     616      MEOH     H1A      HDA3B    0.080000        1.0080           0   0.00000   0.00000
     20543 MEOH     616      MEOH     H1B      HDA3B    0.080000        1.0080           0   0.00000   0.00000
     20544 MEOH     616      MEOH     H1C      HDA3B    0.080000        1.0080           0   0.00000   0.00000
     20545 MEOH     616      MEOH     LP1A     LPD     -0.230000        0.0000           -1   0.00000   0.00000
     20546 MEOH     616      MEOH     LP1B     LPD     -0.230000        0.0000           -1   0.00000   0.00000
     20547 MEOH     617      MEOH     C1       CD33B    2.314100       11.6110           0   -1.00000   1.30000
     20548 MEOH     617      MEOH     DC1      DRUD    -2.454100        0.4000           0   0.00000   0.00000
     20549 MEOH     617      MEOH     O1       OD31H    2.488300       15.5990           0   -1.02800   1.30000
     20550 MEOH     617      MEOH     DO1      DRUD    -2.488300        0.4000           0   0.00000   0.00000
     20551 MEOH     617      MEOH     HO1      HDP1A    0.360000        1.0080           0   0.00000   0.00000
     20552 MEOH     617      MEOH     HO2      DUMH     0.000000        1.0080           0   0.00000   0.00000
     20553 MEOH     617      MEOH     H1A      HDA3B    0.080000        1.0080           0   0.00000   0.00000
     20554 MEOH     617      MEOH     H1B      HDA3B    0.080000        1.0080           0   0.00000   0.00000
     20555 MEOH     617      MEOH     H1C      HDA3B    0.080000        1.0080           0   0.00000   0.00000
     20556 MEOH     617      MEOH     LP1A     LPD     -0.230000        0.0000           -1   0.00000   0.00000
     20557 MEOH     617      MEOH     LP1B     LPD     -0.230000        0.0000           -1   0.00000   0.00000
     20558 MEOH     618      MEOH     C1       CD33B    2.314100       11.6110           0   -1.00000   1.30000
     20559 MEOH     618      MEOH     DC1      DRUD    -2.454100        0.4000           0   0.00000   0.00000
     20560 MEOH     618      MEOH     O1       OD31H    2.488300       15.5990           0   -1.02800   1.30000
     20561 MEOH     618      MEOH     DO1      DRUD    -2.488300        0.4000           0   0.00000   0.00000
     20562 MEOH     618      MEOH     HO1      HDP1A    0.360000        1.0080           0   0.00000   0.00000
     20563 MEOH     618      MEOH     HO2      DUMH     0.000000        1.0080           0   0.00000   0.00000
     20564 MEOH     618      MEOH     H1A      HDA3B    0.080000        1.0080           0   0.00000   0.00000
     20565 MEOH     618      MEOH     H1B      HDA3B    0.080000        1.0080           0   0.00000   0.00000
     20566 MEOH     618      MEOH     H1C      HDA3B    0.080000        1.0080           0   0.00000   0.00000
     20567 MEOH     618      MEOH     LP1A     LPD     -0.230000        0.0000           -1   0.00000   0.00000
     20568 MEOH     618      MEOH     LP1B     LPD     -0.230000        0.0000           -1   0.00000   0.00000
     20569 MEOH     619      MEOH     C1       CD33B    2.314100       11.6110           0   -1.00000   1.30000
     20570 MEOH     619      MEOH     DC1      DRUD    -2.454100        0.4000           0   0.00000   0.00000
     20571 MEOH     619      MEOH     O1       OD31H    2.488300       15.5990           0   -1.02800   1.30000
     20572 MEOH     619      MEOH     DO1      DRUD    -2.488300        0.4000           0   0.00000   0.00000
     20573 MEOH     619      MEOH     HO1      HDP1A    0.360000        1.0080           0   0.00000   0.00000
     20574 MEOH     619      MEOH     HO2      DUMH     0.000000        1.0080           0   0.00000   0.00000
     20575 MEOH     619      MEOH     H1A      HDA3B    0.080000        1.0080           0   0.00000   0.00000
     20576 MEOH     619      MEOH     H1B      HDA3B    0.080000        1.0080           0   0.00000   0.00000
     20577 MEOH     619      MEOH     H1C      HDA3B    0.080000        1.0080           0   0.00000   0.00000
     20578 MEOH     619      MEOH     LP1A     LPD     -0.230000        0.0000           -1   0.00000   0.00000
     20579 MEOH     619      MEOH     LP1B     LPD     -0.230000        0.0000           -1   0.00000   0.00000
     20580 MEOH     620      MEOH     C1       CD33B    2.314100       11.6110           0   -1.00000   1.30000
     20581 MEOH     620      MEOH     DC1      DRUD    -2.454100        0.4000           0   0.00000   0.00000
     20582 MEOH     620      MEOH     O1       OD31H    2.488300       15.5990           0   -1.02800   1.30000
     20583 MEOH     620      MEOH     DO1      DRUD    -2.488300        0.4000           0   0.00000   0.00000
     20584 MEOH     620      MEOH     HO1      HDP1A    0.360000        1.0080           0   0.00000   0.00000
     20585 MEOH     620      MEOH     HO2      DUMH     0.000000        1.0080           0   0.00000   0.00000
     20586 MEOH     620      MEOH     H1A      HDA3B    0.080000        1.0080           0   0.00000   0.00000
     20587 MEOH     620      MEOH     H1B      HDA3B    0.080000        1.0080           0   0.00000   0.00000
     20588 MEOH     620      MEOH     H1C      HDA3B    0.080000        1.0080           0   0.00000   0.00000
     20589 MEOH     620      MEOH     LP1A     LPD     -0.230000        0.0000           -1   0.00000   0.00000
     20590 MEOH     620      MEOH     LP1B     LPD     -0.230000        0.0000           -1   0.00000   0.00000
     20591 MEOH     621      MEOH     C1       CD33B    2.314100       11.6110           0   -1.00000   1.30000
     20592 MEOH     621      MEOH     DC1      DRUD    -2.454100        0.4000           0   0.00000   0.00000
     20593 MEOH     621      MEOH     O1       OD31H    2.488300       15.5990           0   -1.02800   1.30000
     20594 MEOH     621      MEOH     DO1      DRUD    -2.488300        0.4000           0   0.00000   0.00000
     20595 MEOH     621      MEOH     HO1      HDP1A    0.360000        1.0080           0   0.00000   0.00000
     20596 MEOH     621      MEOH     HO2      DUMH     0.000000        1.0080           0   0.00000   0.00000
     20597 MEOH     621      MEOH     H1A      HDA3B    0.080000        1.0080           0   0.00000   0.00000
     20598 MEOH     621      MEOH     H1B      HDA3B    0.080000        1.0080           0   0.00000   0.00000
     20599 MEOH     621      MEOH     H1C      HDA3B    0.080000        1.0080           0   0.00000   0.00000
     20600 MEOH     621      MEOH     LP1A     LPD     -0.230000        0.0000           -1   0.00000   0.00000
     20601 MEOH     621      MEOH     LP1B     LPD     -0.230000        0.0000           -1   0.00000   0.00000
     20602 MEOH     622      MEOH     C1       CD33B    2.314100       11.6110           0   -1.00000   1.30000
     20603 MEOH     622      MEOH     DC1      DRUD    -2.454100        0.4000           0   0.00000   0.00000
     20604 MEOH     622      MEOH     O1       OD31H    2.488300       15.5990           0   -1.02800   1.30000
     20605 MEOH     622      MEOH     DO1      DRUD    -2.488300        0.4000           0   0.00000   0.00000
     20606 MEOH     622      MEOH     HO1      HDP1A    0.360000        1.0080           0   0.00000   0.00000
     20607 MEOH     622      MEOH     HO2      DUMH     0.000000        1.0080           0   0.00000   0.00000
     20608 MEOH     622      MEOH     H1A      HDA3B    0.080000        1.0080           0   0.00000   0.00000
     20609 MEOH     622      MEOH     H1B      HDA3B    0.080000        1.0080           0   0.00000   0.00000
     20610 MEOH     622      MEOH     H1C      HDA3B    0.080000        1.0080           0   0.00000   0.00000
     20611 MEOH     622      MEOH     LP1A     LPD     -0.230000        0.0000           -1   0.00000   0.00000
     20612 MEOH     622      MEOH     LP1B     LPD     -0.230000        0.0000           -1   0.00000   0.00000
     20613 MEOH     623      MEOH     C1       CD33B    2.314100       11.6110           0   -1.00000   1.30000
     20614 MEOH     623      MEOH     DC1      DRUD    -2.454100        0.4000           0   0.00000   0.00000
     20615 MEOH     623      MEOH     O1       OD31H    2.488300       15.5990           0   -1.02800   1.30000
     20616 MEOH     623      MEOH     DO1      DRUD    -2.488300        0.4000           0   0.00000   0.00000
     20617 MEOH     623      MEOH     HO1      HDP1A    0.360000        1.0080           0   0.00000   0.00000
     20618 MEOH     623      MEOH     HO2      DUMH     0.000000        1.0080           0   0.00000   0.00000
     20619 MEOH     623      MEOH     H1A      HDA3B    0.080000        1.0080           0   0.00000   0.00000
     20620 MEOH     623      MEOH     H1B      HDA3B    0.080000        1.0080           0   0.00000   0.00000
     20621 MEOH     623      MEOH     H1C      HDA3B    0.080000        1.0080           0   0.00000   0.00000
     20622 MEOH     623      MEOH     LP1A     LPD     -0.230000        0.0000           -1   0.00000   0.00000
     20623 MEOH     623      MEOH     LP1B     LPD     -0.230000        0.0000           -1   0.00000   0.00000
     20624 MEOH     624      MEOH     C1       CD33B    2.314100       11.6110           0   -1.00000   1.30000
     20625 MEOH     624      MEOH     DC1      DRUD    -2.454100        0.4000           0   0.00000   0.00000
     20626 MEOH     624      MEOH     O1       OD31H    2.488300       15.5990           0   -1.02800   1.30000
     20627 MEOH     624      MEOH     DO1      DRUD    -2.488300        0.4000           0   0.00000   0.00000
     20628 MEOH     624      MEOH     HO1      HDP1A    0.360000        1.0080           0   0.00000   0.00000
     20629 MEOH     624      MEOH     HO2      DUMH     0.000000        1.0080           0   0.00000   0.00000
     20630 MEOH     624      MEOH     H1A      HDA3B    0.080000        1.0080           0   0.00000   0.00000
     20631 MEOH     624      MEOH     H1B      HDA3B    0.080000        1.0080           0   0.00000   0.00000
     20632 MEOH     624      MEOH     H1C      HDA3B    0.080000        1.0080           0   0.00000   0.00000
     20633 MEOH     624      MEOH     LP1A     LPD     -0.230000        0.0000           -1   0.00000   0.00000
     20634 MEOH     624      MEOH     LP1B     LPD     -0.230000        0.0000           -1   0.00000   0.00000
     20635 MEOH     625      MEOH     C1       CD33B    2.314100       11.6110           0   -1.00000   1.30000
     20636 MEOH     625      MEOH     DC1      DRUD    -2.454100        0.4000           0   0.00000   0.00000
     20637 MEOH     625      MEOH     O1       OD31H    2.488300       15.5990           0   -1.02800   1.30000
     20638 MEOH     625      MEOH     DO1      DRUD    -2.488300        0.4000           0   0.00000   0.00000
     20639 MEOH     625      MEOH     HO1      HDP1A    0.360000        1.0080           0   0.00000   0.00000
     20640 MEOH     625      MEOH     HO2      DUMH     0.000000        1.0080           0   0.00000   0.00000
     20641 MEOH     625      MEOH     H1A      HDA3B    0.080000        1.0080           0   0.00000   0.00000
     20642 MEOH     625      MEOH     H1B      HDA3B    0.080000        1.0080           0   0.00000   0.00000
     20643 MEOH     625      MEOH     H1C      HDA3B    0.080000        1.0080           0   0.00000   0.00000
     20644 MEOH     625      MEOH     LP1A     LPD     -0.230000        0.0000           -1   0.00000   0.00000
     20645 MEOH     625      MEOH     LP1B     LPD     -0.230000        0.0000           -1   0.00000   0.00000
     20646 MEOH     626      MEOH     C1       CD33B    2.314100       11.6110           0   -1.00000   1.30000
     20647 MEOH     626      MEOH     DC1      DRUD    -2.454100        0.4000           0   0.00000   0.00000
     20648 MEOH     626      MEOH     O1       OD31H    2.488300       15.5990           0   -1.02800   1.30000
     20649 MEOH     626      MEOH     DO1      DRUD    -2.488300        0.4000           0   0.00000   0.00000
     20650 MEOH     626      MEOH     HO1      HDP1A    0.360000        1.0080           0   0.00000   0.00000
     20651 MEOH     626      MEOH     HO2      DUMH     0.000000        1.0080           0   0.00000   0.00000
     20652 MEOH     626      MEOH     H1A      HDA3B    0.080000        1.0080           0   0.00000   0.00000
     20653 MEOH     626      MEOH     H1B      HDA3B    0.080000        1.0080           0   0.00000   0.00000
     20654 MEOH     626      MEOH     H1C      HDA3B    0.080000        1.0080           0   0.00000   0.00000
     20655 MEOH     626      MEOH     LP1A     LPD     -0.230000        0.0000           -1   0.00000   0.00000
     20656 MEOH     626      MEOH     LP1B     LPD     -0.230000        0.0000           -1   0.00000   0.00000
     20657 MEOH     627      MEOH     C1       CD33B    2.314100       11.6110           0   -1.00000   1.30000
     20658 MEOH     627      MEOH     DC1      DRUD    -2.454100        0.4000           0   0.00000   0.00000
     20659 MEOH     627      MEOH     O1       OD31H    2.488300       15.5990           0   -1.02800   1.30000
     20660 MEOH     627      MEOH     DO1      DRUD    -2.488300        0.4000           0   0.00000   0.00000
     20661 MEOH     627      MEOH     HO1      HDP1A    0.360000        1.0080           0   0.00000   0.00000
     20662 MEOH     627      MEOH     HO2      DUMH     0.000000        1.0080           0   0.00000   0.00000
     20663 MEOH     627      MEOH     H1A      HDA3B    0.080000        1.0080           0   0.00000   0.00000
     20664 MEOH     627      MEOH     H1B      HDA3B    0.080000        1.0080           0   0.00000   0.00000
     20665 MEOH     627      MEOH     H1C      HDA3B    0.080000        1.0080           0   0.00000   0.00000
     20666 MEOH     627      MEOH     LP1A     LPD     -0.230000        0.0000           -1   0.00000   0.00000
     20667 MEOH     627      MEOH     LP1B     LPD     -0.230000        0.0000           -1   0.00000   0.00000
     20668 MEOH     628      MEOH     C1       CD33B    2.314100       11.6110           0   -1.00000   1.30000
     20669 MEOH     628      MEOH     DC1      DRUD    -2.454100        0.4000           0   0.00000   0.00000
     20670 MEOH     628      MEOH     O1       OD31H    2.488300       15.5990           0   -1.02800   1.30000
     20671 MEOH     628      MEOH     DO1      DRUD    -2.488300        0.4000           0   0.00000   0.00000
     20672 MEOH     628      MEOH     HO1      HDP1A    0.360000        1.0080           0   0.00000   0.00000
     20673 MEOH     628      MEOH     HO2      DUMH     0.000000        1.0080           0   0.00000   0.00000
     20674 MEOH     628      MEOH     H1A      HDA3B    0.080000        1.0080           0   0.00000   0.00000
     20675 MEOH     628      MEOH     H1B      HDA3B    0.080000        1.0080           0   0.00000   0.00000
     20676 MEOH     628      MEOH     H1C      HDA3B    0.080000        1.0080           0   0.00000   0.00000
     20677 MEOH     628      MEOH     LP1A     LPD     -0.230000        0.0000           -1   0.00000   0.00000
     20678 MEOH     628      MEOH     LP1B     LPD     -0.230000        0.0000           -1   0.00000   0.00000
     20679 MEOH     629      MEOH     C1       CD33B    2.314100       11.6110           0   -1.00000   1.30000
     20680 MEOH     629      MEOH     DC1      DRUD    -2.454100        0.4000           0   0.00000   0.00000
     20681 MEOH     629      MEOH     O1       OD31H    2.488300       15.5990           0   -1.02800   1.30000
     20682 MEOH     629      MEOH     DO1      DRUD    -2.488300        0.4000           0   0.00000   0.00000
     20683 MEOH     629      MEOH     HO1      HDP1A    0.360000        1.0080           0   0.00000   0.00000
     20684 MEOH     629      MEOH     HO2      DUMH     0.000000        1.0080           0   0.00000   0.00000
     20685 MEOH     629      MEOH     H1A      HDA3B    0.080000        1.0080           0   0.00000   0.00000
     20686 MEOH     629      MEOH     H1B      HDA3B    0.080000        1.0080           0   0.00000   0.00000
     20687 MEOH     629      MEOH     H1C      HDA3B    0.080000        1.0080           0   0.00000   0.00000
     20688 MEOH     629      MEOH     LP1A     LPD     -0.230000        0.0000           -1   0.00000   0.00000
     20689 MEOH     629      MEOH     LP1B     LPD     -0.230000        0.0000           -1   0.00000   0.00000
     20690 MEOH     630      MEOH     C1       CD33B    2.314100       11.6110           0   -1.00000   1.30000
     20691 MEOH     630      MEOH     DC1      DRUD    -2.454100        0.4000           0   0.00000   0.00000
     20692 MEOH     630      MEOH     O1       OD31H    2.488300       15.5990           0   -1.02800   1.30000
     20693 MEOH     630      MEOH     DO1      DRUD    -2.488300        0.4000           0   0.00000   0.00000
     20694 MEOH     630      MEOH     HO1      HDP1A    0.360000        1.0080           0   0.00000   0.00000
     20695 MEOH     630      MEOH     HO2      DUMH     0.000000        1.0080           0   0.00000   0.00000
     20696 MEOH     630      MEOH     H1A      HDA3B    0.080000        1.0080           0   0.00000   0.00000
     20697 MEOH     630      MEOH     H1B      HDA3B    0.080000        1.0080           0   0.00000   0.00000
     20698 MEOH     630      MEOH     H1C      HDA3B    0.080000        1.0080           0   0.00000   0.00000
     20699 MEOH     630      MEOH     LP1A     LPD     -0.230000        0.0000           -1   0.00000   0.00000
     20700 MEOH     630      MEOH     LP1B     LPD     -0.230000        0.0000           -1   0.00000   0.00000
     20701 MEOH     631      MEOH     C1       CD33B    2.314100       11.6110           0   -1.00000   1.30000
     20702 MEOH     631      MEOH     DC1      DRUD    -2.454100        0.4000           0   0.00000   0.00000
     20703 MEOH     631      MEOH     O1       OD31H    2.488300       15.5990           0   -1.02800   1.30000
     20704 MEOH     631      MEOH     DO1      DRUD    -2.488300        0.4000           0   0.00000   0.00000
     20705 MEOH     631      MEOH     HO1      HDP1A    0.360000        1.0080           0   0.00000   0.00000
     20706 MEOH     631      MEOH     HO2      DUMH     0.000000        1.0080           0   0.00000   0.00000
     20707 MEOH     631      MEOH     H1A      HDA3B    0.080000        1.0080           0   0.00000   0.00000
     20708 MEOH     631      MEOH     H1B      HDA3B    0.080000        1.0080           0   0.00000   0.00000
     20709 MEOH     631      MEOH     H1C      HDA3B    0.080000        1.0080           0   0.00000   0.00000
     20710 MEOH     631      MEOH     LP1A     LPD     -0.230000        0.0000           -1   0.00000   0.00000
     20711 MEOH     631      MEOH     LP1B     LPD     -0.230000        0.0000           -1   0.00000   0.00000
     20712 MEOH     632      MEOH     C1       CD33B    2.314100       11.6110           0   -1.00000   1.30000
     20713 MEOH     632      MEOH     DC1      DRUD    -2.454100        0.4000           0   0.00000   0.00000
     20714 MEOH     632      MEOH     O1       OD31H    2.488300       15.5990           0   -1.02800   1.30000
     20715 MEOH     632      MEOH     DO1      DRUD    -2.488300        0.4000           0   0.00000   0.00000
     20716 MEOH     632      MEOH     HO1      HDP1A    0.360000        1.0080           0   0.00000   0.00000
     20717 MEOH     632      MEOH     HO2      DUMH     0.000000        1.0080           0   0.00000   0.00000
     20718 MEOH     632      MEOH     H1A      HDA3B    0.080000        1.0080           0   0.00000   0.00000
     20719 MEOH     632      MEOH     H1B      HDA3B    0.080000        1.0080           0   0.00000   0.00000
     20720 MEOH     632      MEOH     H1C      HDA3B    0.080000        1.0080           0   0.00000   0.00000
     20721 MEOH     632      MEOH     LP1A     LPD     -0.230000        0.0000           -1   0.00000   0.00000
     20722 MEOH     632      MEOH     LP1B     LPD     -0.230000        0.0000           -1   0.00000   0.00000
     20723 MEOH     633      MEOH     C1       CD33B    2.314100       11.6110           0   -1.00000   1.30000
     20724 MEOH     633      MEOH     DC1      DRUD    -2.454100        0.4000           0   0.00000   0.00000
     20725 MEOH     633      MEOH     O1       OD31H    2.488300       15.5990           0   -1.02800   1.30000
     20726 MEOH     633      MEOH     DO1      DRUD    -2.488300        0.4000           0   0.00000   0.00000
     20727 MEOH     633      MEOH     HO1      HDP1A    0.360000        1.0080           0   0.00000   0.00000
     20728 MEOH     633      MEOH     HO2      DUMH     0.000000        1.0080           0   0.00000   0.00000
     20729 MEOH     633      MEOH     H1A      HDA3B    0.080000        1.0080           0   0.00000   0.00000
     20730 MEOH     633      MEOH     H1B      HDA3B    0.080000        1.0080           0   0.00000   0.00000
     20731 MEOH     633      MEOH     H1C      HDA3B    0.080000        1.0080           0   0.00000   0.00000
     20732 MEOH     633      MEOH     LP1A     LPD     -0.230000        0.0000           -1   0.00000   0.00000
     20733 MEOH     633      MEOH     LP1B     LPD     -0.230000        0.0000           -1   0.00000   0.00000
     20734 MEOH     634      MEOH     C1       CD33B    2.314100       11.6110           0   -1.00000   1.30000
     20735 MEOH     634      MEOH     DC1      DRUD    -2.454100        0.4000           0   0.00000   0.00000
     20736 MEOH     634      MEOH     O1       OD31H    2.488300       15.5990           0   -1.02800   1.30000
     20737 MEOH     634      MEOH     DO1      DRUD    -2.488300        0.4000           0   0.00000   0.00000
     20738 MEOH     634      MEOH     HO1      HDP1A    0.360000        1.0080           0   0.00000   0.00000
     20739 MEOH     634      MEOH     HO2      DUMH     0.000000        1.0080           0   0.00000   0.00000
     20740 MEOH     634      MEOH     H1A      HDA3B    0.080000        1.0080           0   0.00000   0.00000
     20741 MEOH     634      MEOH     H1B      HDA3B    0.080000        1.0080           0   0.00000   0.00000
     20742 MEOH     634      MEOH     H1C      HDA3B    0.080000        1.0080           0   0.00000   0.00000
     20743 MEOH     634      MEOH     LP1A     LPD     -0.230000        0.0000           -1   0.00000   0.00000
     20744 MEOH     634      MEOH     LP1B     LPD     -0.230000        0.0000           -1   0.00000   0.00000
     20745 MEOH     635      MEOH     C1       CD33B    2.314100       11.6110           0   -1.00000   1.30000
     20746 MEOH     635      MEOH     DC1      DRUD    -2.454100        0.4000           0   0.00000   0.00000
     20747 MEOH     635      MEOH     O1       OD31H    2.488300       15.5990           0   -1.02800   1.30000
     20748 MEOH     635      MEOH     DO1      DRUD    -2.488300        0.4000           0   0.00000   0.00000
     20749 MEOH     635      MEOH     HO1      HDP1A    0.360000        1.0080           0   0.00000   0.00000
     20750 MEOH     635      MEOH     HO2      DUMH     0.000000        1.0080           0   0.00000   0.00000
     20751 MEOH     635      MEOH     H1A      HDA3B    0.080000        1.0080           0   0.00000   0.00000
     20752 MEOH     635      MEOH     H1B      HDA3B    0.080000        1.0080           0   0.00000   0.00000
     20753 MEOH     635      MEOH     H1C      HDA3B    0.080000        1.0080           0   0.00000   0.00000
     20754 MEOH     635      MEOH     LP1A     LPD     -0.230000        0.0000           -1   0.00000   0.00000
     20755 MEOH     635      MEOH     LP1B     LPD     -0.230000        0.0000           -1   0.00000   0.00000
     20756 MEOH     636      MEOH     C1       CD33B    2.314100       11.6110           0   -1.00000   1.30000
     20757 MEOH     636      MEOH     DC1      DRUD    -2.454100        0.4000           0   0.00000   0.00000
     20758 MEOH     636      MEOH     O1       OD31H    2.488300       15.5990           0   -1.02800   1.30000
     20759 MEOH     636      MEOH     DO1      DRUD    -2.488300        0.4000           0   0.00000   0.00000
     20760 MEOH     636      MEOH     HO1      HDP1A    0.360000        1.0080           0   0.00000   0.00000
     20761 MEOH     636      MEOH     HO2      DUMH     0.000000        1.0080           0   0.00000   0.00000
     20762 MEOH     636      MEOH     H1A      HDA3B    0.080000        1.0080           0   0.00000   0.00000
     20763 MEOH     636      MEOH     H1B      HDA3B    0.080000        1.0080           0   0.00000   0.00000
     20764 MEOH     636      MEOH     H1C      HDA3B    0.080000        1.0080           0   0.00000   0.00000
     20765 MEOH     636      MEOH     LP1A     LPD     -0.230000        0.0000           -1   0.00000   0.00000
     20766 MEOH     636      MEOH     LP1B     LPD     -0.230000        0.0000           -1   0.00000   0.00000
     20767 MEOH     637      MEOH     C1       CD33B    2.314100       11.6110           0   -1.00000   1.30000
     20768 MEOH     637      MEOH     DC1      DRUD    -2.454100        0.4000           0   0.00000   0.00000
     20769 MEOH     637      MEOH     O1       OD31H    2.488300       15.5990           0   -1.02800   1.30000
     20770 MEOH     637      MEOH     DO1      DRUD    -2.488300        0.4000           0   0.00000   0.00000
     20771 MEOH     637      MEOH     HO1      HDP1A    0.360000        1.0080           0   0.00000   0.00000
     20772 MEOH     637      MEOH     HO2      DUMH     0.000000        1.0080           0   0.00000   0.00000
     20773 MEOH     637      MEOH     H1A      HDA3B    0.080000        1.0080           0   0.00000   0.00000
     20774 MEOH     637      MEOH     H1B      HDA3B    0.080000        1.0080           0   0.00000   0.00000
     20775 MEOH     637      MEOH     H1C      HDA3B    0.080000        1.0080           0   0.00000   0.00000
     20776 MEOH     637      MEOH     LP1A     LPD     -0.230000        0.0000           -1   0.00000   0.00000
     20777 MEOH     637      MEOH     LP1B     LPD     -0.230000        0.0000           -1   0.00000   0.00000
     20778 MEOH     638      MEOH     C1       CD33B    2.314100       11.6110           0   -1.00000   1.30000
     20779 MEOH     638      MEOH     DC1      DRUD    -2.454100        0.4000           0   0.00000   0.00000
     20780 MEOH     638      MEOH     O1       OD31H    2.488300       15.5990           0   -1.02800   1.30000
     20781 MEOH     638      MEOH     DO1      DRUD    -2.488300        0.4000           0   0.00000   0.00000
     20782 MEOH     638      MEOH     HO1      HDP1A    0.360000        1.0080           0   0.00000   0.00000
     20783 MEOH     638      MEOH     HO2      DUMH     0.000000        1.0080           0   0.00000   0.00000
     20784 MEOH     638      MEOH     H1A      HDA3B    0.080000        1.0080           0   0.00000   0.00000
     20785 MEOH     638      MEOH     H1B      HDA3B    0.080000        1.0080           0   0.00000   0.00000
     20786 MEOH     638      MEOH     H1C      HDA3B    0.080000        1.0080           0   0.00000   0.00000
     20787 MEOH     638      MEOH     LP1A     LPD     -0.230000        0.0000           -1   0.00000   0.00000
     20788 MEOH     638      MEOH     LP1B     LPD     -0.230000        0.0000           -1   0.00000   0.00000
     20789 MEOH     639      MEOH     C1       CD33B    2.314100       11.6110           0   -1.00000   1.30000
     20790 MEOH     639      MEOH     DC1      DRUD    -2.454100        0.4000           0   0.00000   0.00000
     20791 MEOH     639      MEOH     O1       OD31H    2.488300       15.5990           0   -1.02800   1.30000
     20792 MEOH     639      MEOH     DO1      DRUD    -2.488300        0.4000           0   0.00000   0.00000
     20793 MEOH     639      MEOH     HO1      HDP1A    0.360000        1.0080           0   0.00000   0.00000
     20794 MEOH     639      MEOH     HO2      DUMH     0.000000        1.0080           0   0.00000   0.00000
     20795 MEOH     639      MEOH     H1A      HDA3B    0.080000        1.0080           0   0.00000   0.00000
     20796 MEOH     639      MEOH     H1B      HDA3B    0.080000        1.0080           0   0.00000   0.00000
     20797 MEOH     639      MEOH     H1C      HDA3B    0.080000        1.0080           0   0.00000   0.00000
     20798 MEOH     639      MEOH     LP1A     LPD     -0.230000        0.0000           -1   0.00000   0.00000
     20799 MEOH     639      MEOH     LP1B     LPD     -0.230000        0.0000           -1   0.00000   0.00000
     20800 MEOH     640      MEOH     C1       CD33B    2.314100       11.6110           0   -1.00000   1.30000
     20801 MEOH     640      MEOH     DC1      DRUD    -2.454100        0.4000           0   0.00000   0.00000
     20802 MEOH     640      MEOH     O1       OD31H    2.488300       15.5990           0   -1.02800   1.30000
     20803 MEOH     640      MEOH     DO1      DRUD    -2.488300        0.4000           0   0.00000   0.00000
     20804 MEOH     640      MEOH     HO1      HDP1A    0.360000        1.0080           0   0.00000   0.00000
     20805 MEOH     640      MEOH     HO2      DUMH     0.000000        1.0080           0   0.00000   0.00000
     20806 MEOH     640      MEOH     H1A      HDA3B    0.080000        1.0080           0   0.00000   0.00000
     20807 MEOH     640      MEOH     H1B      HDA3B    0.080000        1.0080           0   0.00000   0.00000
     20808 MEOH     640      MEOH     H1C      HDA3B    0.080000        1.0080           0   0.00000   0.00000
     20809 MEOH     640      MEOH     LP1A     LPD     -0.230000        0.0000           -1   0.00000   0.00000
     20810 MEOH     640      MEOH     LP1B     LPD     -0.230000        0.0000           -1   0.00000   0.00000
     20811 MEOH     641      MEOH     C1       CD33B    2.314100       11.6110           0   -1.00000   1.30000
     20812 MEOH     641      MEOH     DC1      DRUD    -2.454100        0.4000           0   0.00000   0.00000
     20813 MEOH     641      MEOH     O1       OD31H    2.488300       15.5990           0   -1.02800   1.30000
     20814 MEOH     641      MEOH     DO1      DRUD    -2.488300        0.4000           0   0.00000   0.00000
     20815 MEOH     641      MEOH     HO1      HDP1A    0.360000        1.0080           0   0.00000   0.00000
     20816 MEOH     641      MEOH     HO2      DUMH     0.000000        1.0080           0   0.00000   0.00000
     20817 MEOH     641      MEOH     H1A      HDA3B    0.080000        1.0080           0   0.00000   0.00000
     20818 MEOH     641      MEOH     H1B      HDA3B    0.080000        1.0080           0   0.00000   0.00000
     20819 MEOH     641      MEOH     H1C      HDA3B    0.080000        1.0080           0   0.00000   0.00000
     20820 MEOH     641      MEOH     LP1A     LPD     -0.230000        0.0000           -1   0.00000   0.00000
     20821 MEOH     641      MEOH     LP1B     LPD     -0.230000        0.0000           -1   0.00000   0.00000
     20822 MEOH     642      MEOH     C1       CD33B    2.314100       11.6110           0   -1.00000   1.30000
     20823 MEOH     642      MEOH     DC1      DRUD    -2.454100        0.4000           0   0.00000   0.00000
     20824 MEOH     642      MEOH     O1       OD31H    2.488300       15.5990           0   -1.02800   1.30000
     20825 MEOH     642      MEOH     DO1      DRUD    -2.488300        0.4000           0   0.00000   0.00000
     20826 MEOH     642      MEOH     HO1      HDP1A    0.360000        1.0080           0   0.00000   0.00000
     20827 MEOH     642      MEOH     HO2      DUMH     0.000000        1.0080           0   0.00000   0.00000
     20828 MEOH     642      MEOH     H1A      HDA3B    0.080000        1.0080           0   0.00000   0.00000
     20829 MEOH     642      MEOH     H1B      HDA3B    0.080000        1.0080           0   0.00000   0.00000
     20830 MEOH     642      MEOH     H1C      HDA3B    0.080000        1.0080           0   0.00000   0.00000
     20831 MEOH     642      MEOH     LP1A     LPD     -0.230000        0.0000           -1   0.00000   0.00000
     20832 MEOH     642      MEOH     LP1B     LPD     -0.230000        0.0000           -1   0.00000   0.00000
     20833 MEOH     643      MEOH     C1       CD33B    2.314100       11.6110           0   -1.00000   1.30000
     20834 MEOH     643      MEOH     DC1      DRUD    -2.454100        0.4000           0   0.00000   0.00000
     20835 MEOH     643      MEOH     O1       OD31H    2.488300       15.5990           0   -1.02800   1.30000
     20836 MEOH     643      MEOH     DO1      DRUD    -2.488300        0.4000           0   0.00000   0.00000
     20837 MEOH     643      MEOH     HO1      HDP1A    0.360000        1.0080           0   0.00000   0.00000
     20838 MEOH     643      MEOH     HO2      DUMH     0.000000        1.0080           0   0.00000   0.00000
     20839 MEOH     643      MEOH     H1A      HDA3B    0.080000        1.0080           0   0.00000   0.00000
     20840 MEOH     643      MEOH     H1B      HDA3B    0.080000        1.0080           0   0.00000   0.00000
     20841 MEOH     643      MEOH     H1C      HDA3B    0.080000        1.0080           0   0.00000   0.00000
     20842 MEOH     643      MEOH     LP1A     LPD     -0.230000        0.0000           -1   0.00000   0.00000
     20843 MEOH     643      MEOH     LP1B     LPD     -0.230000        0.0000           -1   0.00000   0.00000
     20844 MEOH     644      MEOH     C1       CD33B    2.314100       11.6110           0   -1.00000   1.30000
     20845 MEOH     644      MEOH     DC1      DRUD    -2.454100        0.4000           0   0.00000   0.00000
     20846 MEOH     644      MEOH     O1       OD31H    2.488300       15.5990           0   -1.02800   1.30000
     20847 MEOH     644      MEOH     DO1      DRUD    -2.488300        0.4000           0   0.00000   0.00000
     20848 MEOH     644      MEOH     HO1      HDP1A    0.360000        1.0080           0   0.00000   0.00000
     20849 MEOH     644      MEOH     HO2      DUMH     0.000000        1.0080           0   0.00000   0.00000
     20850 MEOH     644      MEOH     H1A      HDA3B    0.080000        1.0080           0   0.00000   0.00000
     20851 MEOH     644      MEOH     H1B      HDA3B    0.080000        1.0080           0   0.00000   0.00000
     20852 MEOH     644      MEOH     H1C      HDA3B    0.080000        1.0080           0   0.00000   0.00000
     20853 MEOH     644      MEOH     LP1A     LPD     -0.230000        0.0000           -1   0.00000   0.00000
     20854 MEOH     644      MEOH     LP1B     LPD     -0.230000        0.0000           -1   0.00000   0.00000
     20855 MEOH     645      MEOH     C1       CD33B    2.314100       11.6110           0   -1.00000   1.30000
     20856 MEOH     645      MEOH     DC1      DRUD    -2.454100        0.4000           0   0.00000   0.00000
     20857 MEOH     645      MEOH     O1       OD31H    2.488300       15.5990           0   -1.02800   1.30000
     20858 MEOH     645      MEOH     DO1      DRUD    -2.488300        0.4000           0   0.00000   0.00000
     20859 MEOH     645      MEOH     HO1      HDP1A    0.360000        1.0080           0   0.00000   0.00000
     20860 MEOH     645      MEOH     HO2      DUMH     0.000000        1.0080           0   0.00000   0.00000
     20861 MEOH     645      MEOH     H1A      HDA3B    0.080000        1.0080           0   0.00000   0.00000
     20862 MEOH     645      MEOH     H1B      HDA3B    0.080000        1.0080           0   0.00000   0.00000
     20863 MEOH     645      MEOH     H1C      HDA3B    0.080000        1.0080           0   0.00000   0.00000
     20864 MEOH     645      MEOH     LP1A     LPD     -0.230000        0.0000           -1   0.00000   0.00000
     20865 MEOH     645      MEOH     LP1B     LPD     -0.230000        0.0000           -1   0.00000   0.00000
     20866 MEOH     646      MEOH     C1       CD33B    2.314100       11.6110           0   -1.00000   1.30000
     20867 MEOH     646      MEOH     DC1      DRUD    -2.454100        0.4000           0   0.00000   0.00000
     20868 MEOH     646      MEOH     O1       OD31H    2.488300       15.5990           0   -1.02800   1.30000
     20869 MEOH     646      MEOH     DO1      DRUD    -2.488300        0.4000           0   0.00000   0.00000
     20870 MEOH     646      MEOH     HO1      HDP1A    0.360000        1.0080           0   0.00000   0.00000
     20871 MEOH     646      MEOH     HO2      DUMH     0.000000        1.0080           0   0.00000   0.00000
     20872 MEOH     646      MEOH     H1A      HDA3B    0.080000        1.0080           0   0.00000   0.00000
     20873 MEOH     646      MEOH     H1B      HDA3B    0.080000        1.0080           0   0.00000   0.00000
     20874 MEOH     646      MEOH     H1C      HDA3B    0.080000        1.0080           0   0.00000   0.00000
     20875 MEOH     646      MEOH     LP1A     LPD     -0.230000        0.0000           -1   0.00000   0.00000
     20876 MEOH     646      MEOH     LP1B     LPD     -0.230000        0.0000           -1   0.00000   0.00000
     20877 MEOH     647      MEOH     C1       CD33B    2.314100       11.6110           0   -1.00000   1.30000
     20878 MEOH     647      MEOH     DC1      DRUD    -2.454100        0.4000           0   0.00000   0.00000
     20879 MEOH     647      MEOH     O1       OD31H    2.488300       15.5990           0   -1.02800   1.30000
     20880 MEOH     647      MEOH     DO1      DRUD    -2.488300        0.4000           0   0.00000   0.00000
     20881 MEOH     647      MEOH     HO1      HDP1A    0.360000        1.0080           0   0.00000   0.00000
     20882 MEOH     647      MEOH     HO2      DUMH     0.000000        1.0080           0   0.00000   0.00000
     20883 MEOH     647      MEOH     H1A      HDA3B    0.080000        1.0080           0   0.00000   0.00000
     20884 MEOH     647      MEOH     H1B      HDA3B    0.080000        1.0080           0   0.00000   0.00000
     20885 MEOH     647      MEOH     H1C      HDA3B    0.080000        1.0080           0   0.00000   0.00000
     20886 MEOH     647      MEOH     LP1A     LPD     -0.230000        0.0000           -1   0.00000   0.00000
     20887 MEOH     647      MEOH     LP1B     LPD     -0.230000        0.0000           -1   0.00000   0.00000
     20888 MEOH     648      MEOH     C1       CD33B    2.314100       11.6110           0   -1.00000   1.30000
     20889 MEOH     648      MEOH     DC1      DRUD    -2.454100        0.4000           0   0.00000   0.00000
     20890 MEOH     648      MEOH     O1       OD31H    2.488300       15.5990           0   -1.02800   1.30000
     20891 MEOH     648      MEOH     DO1      DRUD    -2.488300        0.4000           0   0.00000   0.00000
     20892 MEOH     648      MEOH     HO1      HDP1A    0.360000        1.0080           0   0.00000   0.00000
     20893 MEOH     648      MEOH     HO2      DUMH     0.000000        1.0080           0   0.00000   0.00000
     20894 MEOH     648      MEOH     H1A      HDA3B    0.080000        1.0080           0   0.00000   0.00000
     20895 MEOH     648      MEOH     H1B      HDA3B    0.080000        1.0080           0   0.00000   0.00000
     20896 MEOH     648      MEOH     H1C      HDA3B    0.080000        1.0080           0   0.00000   0.00000
     20897 MEOH     648      MEOH     LP1A     LPD     -0.230000        0.0000           -1   0.00000   0.00000
     20898 MEOH     648      MEOH     LP1B     LPD     -0.230000        0.0000           -1   0.00000   0.00000
     20899 MEOH     649      MEOH     C1       CD33B    2.314100       11.6110           0   -1.00000   1.30000
     20900 MEOH     649      MEOH     DC1      DRUD    -2.454100        0.4000           0   0.00000   0.00000
     20901 MEOH     649      MEOH     O1       OD31H    2.488300       15.5990           0   -1.02800   1.30000
     20902 MEOH     649      MEOH     DO1      DRUD    -2.488300        0.4000           0   0.00000   0.00000
     20903 MEOH     649      MEOH     HO1      HDP1A    0.360000        1.0080           0   0.00000   0.00000
     20904 MEOH     649      MEOH     HO2      DUMH     0.000000        1.0080           0   0.00000   0.00000
     20905 MEOH     649      MEOH     H1A      HDA3B    0.080000        1.0080           0   0.00000   0.00000
     20906 MEOH     649      MEOH     H1B      HDA3B    0.080000        1.0080           0   0.00000   0.00000
     20907 MEOH     649      MEOH     H1C      HDA3B    0.080000        1.0080           0   0.00000   0.00000
     20908 MEOH     649      MEOH     LP1A     LPD     -0.230000        0.0000           -1   0.00000   0.00000
     20909 MEOH     649      MEOH     LP1B     LPD     -0.230000        0.0000           -1   0.00000   0.00000
     20910 MEOH     650      MEOH     C1       CD33B    2.314100       11.6110           0   -1.00000   1.30000
     20911 MEOH     650      MEOH     DC1      DRUD    -2.454100        0.4000           0   0.00000   0.00000
     20912 MEOH     650      MEOH     O1       OD31H    2.488300       15.5990           0   -1.02800   1.30000
     20913 MEOH     650      MEOH     DO1      DRUD    -2.488300        0.4000           0   0.00000   0.00000
     20914 MEOH     650      MEOH     HO1      HDP1A    0.360000        1.0080           0   0.00000   0.00000
     20915 MEOH     650      MEOH     HO2      DUMH     0.000000        1.0080           0   0.00000   0.00000
     20916 MEOH     650      MEOH     H1A      HDA3B    0.080000        1.0080           0   0.00000   0.00000
     20917 MEOH     650      MEOH     H1B      HDA3B    0.080000        1.0080           0   0.00000   0.00000
     20918 MEOH     650      MEOH     H1C      HDA3B    0.080000        1.0080           0   0.00000   0.00000
     20919 MEOH     650      MEOH     LP1A     LPD     -0.230000        0.0000           -1   0.00000   0.00000
     20920 MEOH     650      MEOH     LP1B     LPD     -0.230000        0.0000           -1   0.00000   0.00000
     20921 MEOH     651      MEOH     C1       CD33B    2.314100       11.6110           0   -1.00000   1.30000
     20922 MEOH     651      MEOH     DC1      DRUD    -2.454100        0.4000           0   0.00000   0.00000
     20923 MEOH     651      MEOH     O1       OD31H    2.488300       15.5990           0   -1.02800   1.30000
     20924 MEOH     651      MEOH     DO1      DRUD    -2.488300        0.4000           0   0.00000   0.00000
     20925 MEOH     651      MEOH     HO1      HDP1A    0.360000        1.0080           0   0.00000   0.00000
     20926 MEOH     651      MEOH     HO2      DUMH     0.000000        1.0080           0   0.00000   0.00000
     20927 MEOH     651      MEOH     H1A      HDA3B    0.080000        1.0080           0   0.00000   0.00000
     20928 MEOH     651      MEOH     H1B      HDA3B    0.080000        1.0080           0   0.00000   0.00000
     20929 MEOH     651      MEOH     H1C      HDA3B    0.080000        1.0080           0   0.00000   0.00000
     20930 MEOH     651      MEOH     LP1A     LPD     -0.230000        0.0000           -1   0.00000   0.00000
     20931 MEOH     651      MEOH     LP1B     LPD     -0.230000        0.0000           -1   0.00000   0.00000
     20932 MEOH     652      MEOH     C1       CD33B    2.314100       11.6110           0   -1.00000   1.30000
     20933 MEOH     652      MEOH     DC1      DRUD    -2.454100        0.4000           0   0.00000   0.00000
     20934 MEOH     652      MEOH     O1       OD31H    2.488300       15.5990           0   -1.02800   1.30000
     20935 MEOH     652      MEOH     DO1      DRUD    -2.488300        0.4000           0   0.00000   0.00000
     20936 MEOH     652      MEOH     HO1      HDP1A    0.360000        1.0080           0   0.00000   0.00000
     20937 MEOH     652      MEOH     HO2      DUMH     0.000000        1.0080           0   0.00000   0.00000
     20938 MEOH     652      MEOH     H1A      HDA3B    0.080000        1.0080           0   0.00000   0.00000
     20939 MEOH     652      MEOH     H1B      HDA3B    0.080000        1.0080           0   0.00000   0.00000
     20940 MEOH     652      MEOH     H1C      HDA3B    0.080000        1.0080           0   0.00000   0.00000
     20941 MEOH     652      MEOH     LP1A     LPD     -0.230000        0.0000           -1   0.00000   0.00000
     20942 MEOH     652      MEOH     LP1B     LPD     -0.230000        0.0000           -1   0.00000   0.00000
     20943 MEOH     653      MEOH     C1       CD33B    2.314100       11.6110           0   -1.00000   1.30000
     20944 MEOH     653      MEOH     DC1      DRUD    -2.454100        0.4000           0   0.00000   0.00000
     20945 MEOH     653      MEOH     O1       OD31H    2.488300       15.5990           0   -1.02800   1.30000
     20946 MEOH     653      MEOH     DO1      DRUD    -2.488300        0.4000           0   0.00000   0.00000
     20947 MEOH     653      MEOH     HO1      HDP1A    0.360000        1.0080           0   0.00000   0.00000
     20948 MEOH     653      MEOH     HO2      DUMH     0.000000        1.0080           0   0.00000   0.00000
     20949 MEOH     653      MEOH     H1A      HDA3B    0.080000        1.0080           0   0.00000   0.00000
     20950 MEOH     653      MEOH     H1B      HDA3B    0.080000        1.0080           0   0.00000   0.00000
     20951 MEOH     653      MEOH     H1C      HDA3B    0.080000        1.0080           0   0.00000   0.00000
     20952 MEOH     653      MEOH     LP1A     LPD     -0.230000        0.0000           -1   0.00000   0.00000
     20953 MEOH     653      MEOH     LP1B     LPD     -0.230000        0.0000           -1   0.00000   0.00000
     20954 MEOH     654      MEOH     C1       CD33B    2.314100       11.6110           0   -1.00000   1.30000
     20955 MEOH     654      MEOH     DC1      DRUD    -2.454100        0.4000           0   0.00000   0.00000
     20956 MEOH     654      MEOH     O1       OD31H    2.488300       15.5990           0   -1.02800   1.30000
     20957 MEOH     654      MEOH     DO1      DRUD    -2.488300        0.4000           0   0.00000   0.00000
     20958 MEOH     654      MEOH     HO1      HDP1A    0.360000        1.0080           0   0.00000   0.00000
     20959 MEOH     654      MEOH     HO2      DUMH     0.000000        1.0080           0   0.00000   0.00000
     20960 MEOH     654      MEOH     H1A      HDA3B    0.080000        1.0080           0   0.00000   0.00000
     20961 MEOH     654      MEOH     H1B      HDA3B    0.080000        1.0080           0   0.00000   0.00000
     20962 MEOH     654      MEOH     H1C      HDA3B    0.080000        1.0080           0   0.00000   0.00000
     20963 MEOH     654      MEOH     LP1A     LPD     -0.230000        0.0000           -1   0.00000   0.00000
     20964 MEOH     654      MEOH     LP1B     LPD     -0.230000        0.0000           -1   0.00000   0.00000
     20965 MEOH     655      MEOH     C1       CD33B    2.314100       11.6110           0   -1.00000   1.30000
     20966 MEOH     655      MEOH     DC1      DRUD    -2.454100        0.4000           0   0.00000   0.00000
     20967 MEOH     655      MEOH     O1       OD31H    2.488300       15.5990           0   -1.02800   1.30000
     20968 MEOH     655      MEOH     DO1      DRUD    -2.488300        0.4000           0   0.00000   0.00000
     20969 MEOH     655      MEOH     HO1      HDP1A    0.360000        1.0080           0   0.00000   0.00000
     20970 MEOH     655      MEOH     HO2      DUMH     0.000000        1.0080           0   0.00000   0.00000
     20971 MEOH     655      MEOH     H1A      HDA3B    0.080000        1.0080           0   0.00000   0.00000
     20972 MEOH     655      MEOH     H1B      HDA3B    0.080000        1.0080           0   0.00000   0.00000
     20973 MEOH     655      MEOH     H1C      HDA3B    0.080000        1.0080           0   0.00000   0.00000
     20974 MEOH     655      MEOH     LP1A     LPD     -0.230000        0.0000           -1   0.00000   0.00000
     20975 MEOH     655      MEOH     LP1B     LPD     -0.230000        0.0000           -1   0.00000   0.00000
     20976 MEOH     656      MEOH     C1       CD33B    2.314100       11.6110           0   -1.00000   1.30000
     20977 MEOH     656      MEOH     DC1      DRUD    -2.454100        0.4000           0   0.00000   0.00000
     20978 MEOH     656      MEOH     O1       OD31H    2.488300       15.5990           0   -1.02800   1.30000
     20979 MEOH     656      MEOH     DO1      DRUD    -2.488300        0.4000           0   0.00000   0.00000
     20980 MEOH     656      MEOH     HO1      HDP1A    0.360000        1.0080           0   0.00000   0.00000
     20981 MEOH     656      MEOH     HO2      DUMH     0.000000        1.0080           0   0.00000   0.00000
     20982 MEOH     656      MEOH     H1A      HDA3B    0.080000        1.0080           0   0.00000   0.00000
     20983 MEOH     656      MEOH     H1B      HDA3B    0.080000        1.0080           0   0.00000   0.00000
     20984 MEOH     656      MEOH     H1C      HDA3B    0.080000        1.0080           0   0.00000   0.00000
     20985 MEOH     656      MEOH     LP1A     LPD     -0.230000        0.0000           -1   0.00000   0.00000
     20986 MEOH     656      MEOH     LP1B     LPD     -0.230000        0.0000           -1   0.00000   0.00000
     20987 MEOH     657      MEOH     C1       CD33B    2.314100       11.6110           0   -1.00000   1.30000
     20988 MEOH     657      MEOH     DC1      DRUD    -2.454100        0.4000           0   0.00000   0.00000
     20989 MEOH     657      MEOH     O1       OD31H    2.488300       15.5990           0   -1.02800   1.30000
     20990 MEOH     657      MEOH     DO1      DRUD    -2.488300        0.4000           0   0.00000   0.00000
     20991 MEOH     657      MEOH     HO1      HDP1A    0.360000        1.0080           0   0.00000   0.00000
     20992 MEOH     657      MEOH     HO2      DUMH     0.000000        1.0080           0   0.00000   0.00000
     20993 MEOH     657      MEOH     H1A      HDA3B    0.080000        1.0080           0   0.00000   0.00000
     20994 MEOH     657      MEOH     H1B      HDA3B    0.080000        1.0080           0   0.00000   0.00000
     20995 MEOH     657      MEOH     H1C      HDA3B    0.080000        1.0080           0   0.00000   0.00000
     20996 MEOH     657      MEOH     LP1A     LPD     -0.230000        0.0000           -1   0.00000   0.00000
     20997 MEOH     657      MEOH     LP1B     LPD     -0.230000        0.0000           -1   0.00000   0.00000
     20998 MEOH     658      MEOH     C1       CD33B    2.314100       11.6110           0   -1.00000   1.30000
     20999 MEOH     658      MEOH     DC1      DRUD    -2.454100        0.4000           0   0.00000   0.00000
     21000 MEOH     658      MEOH     O1       OD31H    2.488300       15.5990           0   -1.02800   1.30000
     21001 MEOH     658      MEOH     DO1      DRUD    -2.488300        0.4000           0   0.00000   0.00000
     21002 MEOH     658      MEOH     HO1      HDP1A    0.360000        1.0080           0   0.00000   0.00000
     21003 MEOH     658      MEOH     HO2      DUMH     0.000000        1.0080           0   0.00000   0.00000
     21004 MEOH     658      MEOH     H1A      HDA3B    0.080000        1.0080           0   0.00000   0.00000
     21005 MEOH     658      MEOH     H1B      HDA3B    0.080000        1.0080           0   0.00000   0.00000
     21006 MEOH     658      MEOH     H1C      HDA3B    0.080000        1.0080           0   0.00000   0.00000
     21007 MEOH     658      MEOH     LP1A     LPD     -0.230000        0.0000           -1   0.00000   0.00000
     21008 MEOH     658      MEOH     LP1B     LPD     -0.230000        0.0000           -1   0.00000   0.00000
     21009 MEOH     659      MEOH     C1       CD33B    2.314100       11.6110           0   -1.00000   1.30000
     21010 MEOH     659      MEOH     DC1      DRUD    -2.454100        0.4000           0   0.00000   0.00000
     21011 MEOH     659      MEOH     O1       OD31H    2.488300       15.5990           0   -1.02800   1.30000
     21012 MEOH     659      MEOH     DO1      DRUD    -2.488300        0.4000           0   0.00000   0.00000
     21013 MEOH     659      MEOH     HO1      HDP1A    0.360000        1.0080           0   0.00000   0.00000
     21014 MEOH     659      MEOH     HO2      DUMH     0.000000        1.0080           0   0.00000   0.00000
     21015 MEOH     659      MEOH     H1A      HDA3B    0.080000        1.0080           0   0.00000   0.00000
     21016 MEOH     659      MEOH     H1B      HDA3B    0.080000        1.0080           0   0.00000   0.00000
     21017 MEOH     659      MEOH     H1C      HDA3B    0.080000        1.0080           0   0.00000   0.00000
     21018 MEOH     659      MEOH     LP1A     LPD     -0.230000        0.0000           -1   0.00000   0.00000
     21019 MEOH     659      MEOH     LP1B     LPD     -0.230000        0.0000           -1   0.00000   0.00000
     21020 MEOH     660      MEOH     C1       CD33B    2.314100       11.6110           0   -1.00000   1.30000
     21021 MEOH     660      MEOH     DC1      DRUD    -2.454100        0.4000           0   0.00000   0.00000
     21022 MEOH     660      MEOH     O1       OD31H    2.488300       15.5990           0   -1.02800   1.30000
     21023 MEOH     660      MEOH     DO1      DRUD    -2.488300        0.4000           0   0.00000   0.00000
     21024 MEOH     660      MEOH     HO1      HDP1A    0.360000        1.0080           0   0.00000   0.00000
     21025 MEOH     660      MEOH     HO2      DUMH     0.000000        1.0080           0   0.00000   0.00000
     21026 MEOH     660      MEOH     H1A      HDA3B    0.080000        1.0080           0   0.00000   0.00000
     21027 MEOH     660      MEOH     H1B      HDA3B    0.080000        1.0080           0   0.00000   0.00000
     21028 MEOH     660      MEOH     H1C      HDA3B    0.080000        1.0080           0   0.00000   0.00000
     21029 MEOH     660      MEOH     LP1A     LPD     -0.230000        0.0000           -1   0.00000   0.00000
     21030 MEOH     660      MEOH     LP1B     LPD     -0.230000        0.0000           -1   0.00000   0.00000
     21031 MEOH     661      MEOH     C1       CD33B    2.314100       11.6110           0   -1.00000   1.30000
     21032 MEOH     661      MEOH     DC1      DRUD    -2.454100        0.4000           0   0.00000   0.00000
     21033 MEOH     661      MEOH     O1       OD31H    2.488300       15.5990           0   -1.02800   1.30000
     21034 MEOH     661      MEOH     DO1      DRUD    -2.488300        0.4000           0   0.00000   0.00000
     21035 MEOH     661      MEOH     HO1      HDP1A    0.360000        1.0080           0   0.00000   0.00000
     21036 MEOH     661      MEOH     HO2      DUMH     0.000000        1.0080           0   0.00000   0.00000
     21037 MEOH     661      MEOH     H1A      HDA3B    0.080000        1.0080           0   0.00000   0.00000
     21038 MEOH     661      MEOH     H1B      HDA3B    0.080000        1.0080           0   0.00000   0.00000
     21039 MEOH     661      MEOH     H1C      HDA3B    0.080000        1.0080           0   0.00000   0.00000
     21040 MEOH     661      MEOH     LP1A     LPD     -0.230000        0.0000           -1   0.00000   0.00000
     21041 MEOH     661      MEOH     LP1B     LPD     -0.230000        0.0000           -1   0.00000   0.00000
     21042 MEOH     662      MEOH     C1       CD33B    2.314100       11.6110           0   -1.00000   1.30000
     21043 MEOH     662      MEOH     DC1      DRUD    -2.454100        0.4000           0   0.00000   0.00000
     21044 MEOH     662      MEOH     O1       OD31H    2.488300       15.5990           0   -1.02800   1.30000
     21045 MEOH     662      MEOH     DO1      DRUD    -2.488300        0.4000           0   0.00000   0.00000
     21046 MEOH     662      MEOH     HO1      HDP1A    0.360000        1.0080           0   0.00000   0.00000
     21047 MEOH     662      MEOH     HO2      DUMH     0.000000        1.0080           0   0.00000   0.00000
     21048 MEOH     662      MEOH     H1A      HDA3B    0.080000        1.0080           0   0.00000   0.00000
     21049 MEOH     662      MEOH     H1B      HDA3B    0.080000        1.0080           0   0.00000   0.00000
     21050 MEOH     662      MEOH     H1C      HDA3B    0.080000        1.0080           0   0.00000   0.00000
     21051 MEOH     662      MEOH     LP1A     LPD     -0.230000        0.0000           -1   0.00000   0.00000
     21052 MEOH     662      MEOH     LP1B     LPD     -0.230000        0.0000           -1   0.00000   0.00000
     21053 MEOH     663      MEOH     C1       CD33B    2.314100       11.6110           0   -1.00000   1.30000
     21054 MEOH     663      MEOH     DC1      DRUD    -2.454100        0.4000           0   0.00000   0.00000
     21055 MEOH     663      MEOH     O1       OD31H    2.488300       15.5990           0   -1.02800   1.30000
     21056 MEOH     663      MEOH     DO1      DRUD    -2.488300        0.4000           0   0.00000   0.00000
     21057 MEOH     663      MEOH     HO1      HDP1A    0.360000        1.0080           0   0.00000   0.00000
     21058 MEOH     663      MEOH     HO2      DUMH     0.000000        1.0080           0   0.00000   0.00000
     21059 MEOH     663      MEOH     H1A      HDA3B    0.080000        1.0080           0   0.00000   0.00000
     21060 MEOH     663      MEOH     H1B      HDA3B    0.080000        1.0080           0   0.00000   0.00000
     21061 MEOH     663      MEOH     H1C      HDA3B    0.080000        1.0080           0   0.00000   0.00000
     21062 MEOH     663      MEOH     LP1A     LPD     -0.230000        0.0000           -1   0.00000   0.00000
     21063 MEOH     663      MEOH     LP1B     LPD     -0.230000        0.0000           -1   0.00000   0.00000
     21064 MEOH     664      MEOH     C1       CD33B    2.314100       11.6110           0   -1.00000   1.30000
     21065 MEOH     664      MEOH     DC1      DRUD    -2.454100        0.4000           0   0.00000   0.00000
     21066 MEOH     664      MEOH     O1       OD31H    2.488300       15.5990           0   -1.02800   1.30000
     21067 MEOH     664      MEOH     DO1      DRUD    -2.488300        0.4000           0   0.00000   0.00000
     21068 MEOH     664      MEOH     HO1      HDP1A    0.360000        1.0080           0   0.00000   0.00000
     21069 MEOH     664      MEOH     HO2      DUMH     0.000000        1.0080           0   0.00000   0.00000
     21070 MEOH     664      MEOH     H1A      HDA3B    0.080000        1.0080           0   0.00000   0.00000
     21071 MEOH     664      MEOH     H1B      HDA3B    0.080000        1.0080           0   0.00000   0.00000
     21072 MEOH     664      MEOH     H1C      HDA3B    0.080000        1.0080           0   0.00000   0.00000
     21073 MEOH     664      MEOH     LP1A     LPD     -0.230000        0.0000           -1   0.00000   0.00000
     21074 MEOH     664      MEOH     LP1B     LPD     -0.230000        0.0000           -1   0.00000   0.00000
     21075 MEOH     665      MEOH     C1       CD33B    2.314100       11.6110           0   -1.00000   1.30000
     21076 MEOH     665      MEOH     DC1      DRUD    -2.454100        0.4000           0   0.00000   0.00000
     21077 MEOH     665      MEOH     O1       OD31H    2.488300       15.5990           0   -1.02800   1.30000
     21078 MEOH     665      MEOH     DO1      DRUD    -2.488300        0.4000           0   0.00000   0.00000
     21079 MEOH     665      MEOH     HO1      HDP1A    0.360000        1.0080           0   0.00000   0.00000
     21080 MEOH     665      MEOH     HO2      DUMH     0.000000        1.0080           0   0.00000   0.00000
     21081 MEOH     665      MEOH     H1A      HDA3B    0.080000        1.0080           0   0.00000   0.00000
     21082 MEOH     665      MEOH     H1B      HDA3B    0.080000        1.0080           0   0.00000   0.00000
     21083 MEOH     665      MEOH     H1C      HDA3B    0.080000        1.0080           0   0.00000   0.00000
     21084 MEOH     665      MEOH     LP1A     LPD     -0.230000        0.0000           -1   0.00000   0.00000
     21085 MEOH     665      MEOH     LP1B     LPD     -0.230000        0.0000           -1   0.00000   0.00000
     21086 MEOH     666      MEOH     C1       CD33B    2.314100       11.6110           0   -1.00000   1.30000
     21087 MEOH     666      MEOH     DC1      DRUD    -2.454100        0.4000           0   0.00000   0.00000
     21088 MEOH     666      MEOH     O1       OD31H    2.488300       15.5990           0   -1.02800   1.30000
     21089 MEOH     666      MEOH     DO1      DRUD    -2.488300        0.4000           0   0.00000   0.00000
     21090 MEOH     666      MEOH     HO1      HDP1A    0.360000        1.0080           0   0.00000   0.00000
     21091 MEOH     666      MEOH     HO2      DUMH     0.000000        1.0080           0   0.00000   0.00000
     21092 MEOH     666      MEOH     H1A      HDA3B    0.080000        1.0080           0   0.00000   0.00000
     21093 MEOH     666      MEOH     H1B      HDA3B    0.080000        1.0080           0   0.00000   0.00000
     21094 MEOH     666      MEOH     H1C      HDA3B    0.080000        1.0080           0   0.00000   0.00000
     21095 MEOH     666      MEOH     LP1A     LPD     -0.230000        0.0000           -1   0.00000   0.00000
     21096 MEOH     666      MEOH     LP1B     LPD     -0.230000        0.0000           -1   0.00000   0.00000
     21097 MEOH     667      MEOH     C1       CD33B    2.314100       11.6110           0   -1.00000   1.30000
     21098 MEOH     667      MEOH     DC1      DRUD    -2.454100        0.4000           0   0.00000   0.00000
     21099 MEOH     667      MEOH     O1       OD31H    2.488300       15.5990           0   -1.02800   1.30000
     21100 MEOH     667      MEOH     DO1      DRUD    -2.488300        0.4000           0   0.00000   0.00000
     21101 MEOH     667      MEOH     HO1      HDP1A    0.360000        1.0080           0   0.00000   0.00000
     21102 MEOH     667      MEOH     HO2      DUMH     0.000000        1.0080           0   0.00000   0.00000
     21103 MEOH     667      MEOH     H1A      HDA3B    0.080000        1.0080           0   0.00000   0.00000
     21104 MEOH     667      MEOH     H1B      HDA3B    0.080000        1.0080           0   0.00000   0.00000
     21105 MEOH     667      MEOH     H1C      HDA3B    0.080000        1.0080           0   0.00000   0.00000
     21106 MEOH     667      MEOH     LP1A     LPD     -0.230000        0.0000           -1   0.00000   0.00000
     21107 MEOH     667      MEOH     LP1B     LPD     -0.230000        0.0000           -1   0.00000   0.00000
     21108 MEOH     668      MEOH     C1       CD33B    2.314100       11.6110           0   -1.00000   1.30000
     21109 MEOH     668      MEOH     DC1      DRUD    -2.454100        0.4000           0   0.00000   0.00000
     21110 MEOH     668      MEOH     O1       OD31H    2.488300       15.5990           0   -1.02800   1.30000
     21111 MEOH     668      MEOH     DO1      DRUD    -2.488300        0.4000           0   0.00000   0.00000
     21112 MEOH     668      MEOH     HO1      HDP1A    0.360000        1.0080           0   0.00000   0.00000
     21113 MEOH     668      MEOH     HO2      DUMH     0.000000        1.0080           0   0.00000   0.00000
     21114 MEOH     668      MEOH     H1A      HDA3B    0.080000        1.0080           0   0.00000   0.00000
     21115 MEOH     668      MEOH     H1B      HDA3B    0.080000        1.0080           0   0.00000   0.00000
     21116 MEOH     668      MEOH     H1C      HDA3B    0.080000        1.0080           0   0.00000   0.00000
     21117 MEOH     668      MEOH     LP1A     LPD     -0.230000        0.0000           -1   0.00000   0.00000
     21118 MEOH     668      MEOH     LP1B     LPD     -0.230000        0.0000           -1   0.00000   0.00000
     21119 MEOH     669      MEOH     C1       CD33B    2.314100       11.6110           0   -1.00000   1.30000
     21120 MEOH     669      MEOH     DC1      DRUD    -2.454100        0.4000           0   0.00000   0.00000
     21121 MEOH     669      MEOH     O1       OD31H    2.488300       15.5990           0   -1.02800   1.30000
     21122 MEOH     669      MEOH     DO1      DRUD    -2.488300        0.4000           0   0.00000   0.00000
     21123 MEOH     669      MEOH     HO1      HDP1A    0.360000        1.0080           0   0.00000   0.00000
     21124 MEOH     669      MEOH     HO2      DUMH     0.000000        1.0080           0   0.00000   0.00000
     21125 MEOH     669      MEOH     H1A      HDA3B    0.080000        1.0080           0   0.00000   0.00000
     21126 MEOH     669      MEOH     H1B      HDA3B    0.080000        1.0080           0   0.00000   0.00000
     21127 MEOH     669      MEOH     H1C      HDA3B    0.080000        1.0080           0   0.00000   0.00000
     21128 MEOH     669      MEOH     LP1A     LPD     -0.230000        0.0000           -1   0.00000   0.00000
     21129 MEOH     669      MEOH     LP1B     LPD     -0.230000        0.0000           -1   0.00000   0.00000
     21130 MEOH     670      MEOH     C1       CD33B    2.314100       11.6110           0   -1.00000   1.30000
     21131 MEOH     670      MEOH     DC1      DRUD    -2.454100        0.4000           0   0.00000   0.00000
     21132 MEOH     670      MEOH     O1       OD31H    2.488300       15.5990           0   -1.02800   1.30000
     21133 MEOH     670      MEOH     DO1      DRUD    -2.488300        0.4000           0   0.00000   0.00000
     21134 MEOH     670      MEOH     HO1      HDP1A    0.360000        1.0080           0   0.00000   0.00000
     21135 MEOH     670      MEOH     HO2      DUMH     0.000000        1.0080           0   0.00000   0.00000
     21136 MEOH     670      MEOH     H1A      HDA3B    0.080000        1.0080           0   0.00000   0.00000
     21137 MEOH     670      MEOH     H1B      HDA3B    0.080000        1.0080           0   0.00000   0.00000
     21138 MEOH     670      MEOH     H1C      HDA3B    0.080000        1.0080           0   0.00000   0.00000
     21139 MEOH     670      MEOH     LP1A     LPD     -0.230000        0.0000           -1   0.00000   0.00000
     21140 MEOH     670      MEOH     LP1B     LPD     -0.230000        0.0000           -1   0.00000   0.00000
     21141 MEOH     671      MEOH     C1       CD33B    2.314100       11.6110           0   -1.00000   1.30000
     21142 MEOH     671      MEOH     DC1      DRUD    -2.454100        0.4000           0   0.00000   0.00000
     21143 MEOH     671      MEOH     O1       OD31H    2.488300       15.5990           0   -1.02800   1.30000
     21144 MEOH     671      MEOH     DO1      DRUD    -2.488300        0.4000           0   0.00000   0.00000
     21145 MEOH     671      MEOH     HO1      HDP1A    0.360000        1.0080           0   0.00000   0.00000
     21146 MEOH     671      MEOH     HO2      DUMH     0.000000        1.0080           0   0.00000   0.00000
     21147 MEOH     671      MEOH     H1A      HDA3B    0.080000        1.0080           0   0.00000   0.00000
     21148 MEOH     671      MEOH     H1B      HDA3B    0.080000        1.0080           0   0.00000   0.00000
     21149 MEOH     671      MEOH     H1C      HDA3B    0.080000        1.0080           0   0.00000   0.00000
     21150 MEOH     671      MEOH     LP1A     LPD     -0.230000        0.0000           -1   0.00000   0.00000
     21151 MEOH     671      MEOH     LP1B     LPD     -0.230000        0.0000           -1   0.00000   0.00000
     21152 MEOH     672      MEOH     C1       CD33B    2.314100       11.6110           0   -1.00000   1.30000
     21153 MEOH     672      MEOH     DC1      DRUD    -2.454100        0.4000           0   0.00000   0.00000
     21154 MEOH     672      MEOH     O1       OD31H    2.488300       15.5990           0   -1.02800   1.30000
     21155 MEOH     672      MEOH     DO1      DRUD    -2.488300        0.4000           0   0.00000   0.00000
     21156 MEOH     672      MEOH     HO1      HDP1A    0.360000        1.0080           0   0.00000   0.00000
     21157 MEOH     672      MEOH     HO2      DUMH     0.000000        1.0080           0   0.00000   0.00000
     21158 MEOH     672      MEOH     H1A      HDA3B    0.080000        1.0080           0   0.00000   0.00000
     21159 MEOH     672      MEOH     H1B      HDA3B    0.080000        1.0080           0   0.00000   0.00000
     21160 MEOH     672      MEOH     H1C      HDA3B    0.080000        1.0080           0   0.00000   0.00000
     21161 MEOH     672      MEOH     LP1A     LPD     -0.230000        0.0000           -1   0.00000   0.00000
     21162 MEOH     672      MEOH     LP1B     LPD     -0.230000        0.0000           -1   0.00000   0.00000
     21163 MEOH     673      MEOH     C1       CD33B    2.314100       11.6110           0   -1.00000   1.30000
     21164 MEOH     673      MEOH     DC1      DRUD    -2.454100        0.4000           0   0.00000   0.00000
     21165 MEOH     673      MEOH     O1       OD31H    2.488300       15.5990           0   -1.02800   1.30000
     21166 MEOH     673      MEOH     DO1      DRUD    -2.488300        0.4000           0   0.00000   0.00000
     21167 MEOH     673      MEOH     HO1      HDP1A    0.360000        1.0080           0   0.00000   0.00000
     21168 MEOH     673      MEOH     HO2      DUMH     0.000000        1.0080           0   0.00000   0.00000
     21169 MEOH     673      MEOH     H1A      HDA3B    0.080000        1.0080           0   0.00000   0.00000
     21170 MEOH     673      MEOH     H1B      HDA3B    0.080000        1.0080           0   0.00000   0.00000
     21171 MEOH     673      MEOH     H1C      HDA3B    0.080000        1.0080           0   0.00000   0.00000
     21172 MEOH     673      MEOH     LP1A     LPD     -0.230000        0.0000           -1   0.00000   0.00000
     21173 MEOH     673      MEOH     LP1B     LPD     -0.230000        0.0000           -1   0.00000   0.00000
     21174 MEOH     674      MEOH     C1       CD33B    2.314100       11.6110           0   -1.00000   1.30000
     21175 MEOH     674      MEOH     DC1      DRUD    -2.454100        0.4000           0   0.00000   0.00000
     21176 MEOH     674      MEOH     O1       OD31H    2.488300       15.5990           0   -1.02800   1.30000
     21177 MEOH     674      MEOH     DO1      DRUD    -2.488300        0.4000           0   0.00000   0.00000
     21178 MEOH     674      MEOH     HO1      HDP1A    0.360000        1.0080           0   0.00000   0.00000
     21179 MEOH     674      MEOH     HO2      DUMH     0.000000        1.0080           0   0.00000   0.00000
     21180 MEOH     674      MEOH     H1A      HDA3B    0.080000        1.0080           0   0.00000   0.00000
     21181 MEOH     674      MEOH     H1B      HDA3B    0.080000        1.0080           0   0.00000   0.00000
     21182 MEOH     674      MEOH     H1C      HDA3B    0.080000        1.0080           0   0.00000   0.00000
     21183 MEOH     674      MEOH     LP1A     LPD     -0.230000        0.0000           -1   0.00000   0.00000
     21184 MEOH     674      MEOH     LP1B     LPD     -0.230000        0.0000           -1   0.00000   0.00000
     21185 MEOH     675      MEOH     C1       CD33B    2.314100       11.6110           0   -1.00000   1.30000
     21186 MEOH     675      MEOH     DC1      DRUD    -2.454100        0.4000           0   0.00000   0.00000
     21187 MEOH     675      MEOH     O1       OD31H    2.488300       15.5990           0   -1.02800   1.30000
     21188 MEOH     675      MEOH     DO1      DRUD    -2.488300        0.4000           0   0.00000   0.00000
     21189 MEOH     675      MEOH     HO1      HDP1A    0.360000        1.0080           0   0.00000   0.00000
     21190 MEOH     675      MEOH     HO2      DUMH     0.000000        1.0080           0   0.00000   0.00000
     21191 MEOH     675      MEOH     H1A      HDA3B    0.080000        1.0080           0   0.00000   0.00000
     21192 MEOH     675      MEOH     H1B      HDA3B    0.080000        1.0080           0   0.00000   0.00000
     21193 MEOH     675      MEOH     H1C      HDA3B    0.080000        1.0080           0   0.00000   0.00000
     21194 MEOH     675      MEOH     LP1A     LPD     -0.230000        0.0000           -1   0.00000   0.00000
     21195 MEOH     675      MEOH     LP1B     LPD     -0.230000        0.0000           -1   0.00000   0.00000
     21196 MEOH     676      MEOH     C1       CD33B    2.314100       11.6110           0   -1.00000   1.30000
     21197 MEOH     676      MEOH     DC1      DRUD    -2.454100        0.4000           0   0.00000   0.00000
     21198 MEOH     676      MEOH     O1       OD31H    2.488300       15.5990           0   -1.02800   1.30000
     21199 MEOH     676      MEOH     DO1      DRUD    -2.488300        0.4000           0   0.00000   0.00000
     21200 MEOH     676      MEOH     HO1      HDP1A    0.360000        1.0080           0   0.00000   0.00000
     21201 MEOH     676      MEOH     HO2      DUMH     0.000000        1.0080           0   0.00000   0.00000
     21202 MEOH     676      MEOH     H1A      HDA3B    0.080000        1.0080           0   0.00000   0.00000
     21203 MEOH     676      MEOH     H1B      HDA3B    0.080000        1.0080           0   0.00000   0.00000
     21204 MEOH     676      MEOH     H1C      HDA3B    0.080000        1.0080           0   0.00000   0.00000
     21205 MEOH     676      MEOH     LP1A     LPD     -0.230000        0.0000           -1   0.00000   0.00000
     21206 MEOH     676      MEOH     LP1B     LPD     -0.230000        0.0000           -1   0.00000   0.00000
     21207 MEOH     677      MEOH     C1       CD33B    2.314100       11.6110           0   -1.00000   1.30000
     21208 MEOH     677      MEOH     DC1      DRUD    -2.454100        0.4000           0   0.00000   0.00000
     21209 MEOH     677      MEOH     O1       OD31H    2.488300       15.5990           0   -1.02800   1.30000
     21210 MEOH     677      MEOH     DO1      DRUD    -2.488300        0.4000           0   0.00000   0.00000
     21211 MEOH     677      MEOH     HO1      HDP1A    0.360000        1.0080           0   0.00000   0.00000
     21212 MEOH     677      MEOH     HO2      DUMH     0.000000        1.0080           0   0.00000   0.00000
     21213 MEOH     677      MEOH     H1A      HDA3B    0.080000        1.0080           0   0.00000   0.00000
     21214 MEOH     677      MEOH     H1B      HDA3B    0.080000        1.0080           0   0.00000   0.00000
     21215 MEOH     677      MEOH     H1C      HDA3B    0.080000        1.0080           0   0.00000   0.00000
     21216 MEOH     677      MEOH     LP1A     LPD     -0.230000        0.0000           -1   0.00000   0.00000
     21217 MEOH     677      MEOH     LP1B     LPD     -0.230000        0.0000           -1   0.00000   0.00000
     21218 MEOH     678      MEOH     C1       CD33B    2.314100       11.6110           0   -1.00000   1.30000
     21219 MEOH     678      MEOH     DC1      DRUD    -2.454100        0.4000           0   0.00000   0.00000
     21220 MEOH     678      MEOH     O1       OD31H    2.488300       15.5990           0   -1.02800   1.30000
     21221 MEOH     678      MEOH     DO1      DRUD    -2.488300        0.4000           0   0.00000   0.00000
     21222 MEOH     678      MEOH     HO1      HDP1A    0.360000        1.0080           0   0.00000   0.00000
     21223 MEOH     678      MEOH     HO2      DUMH     0.000000        1.0080           0   0.00000   0.00000
     21224 MEOH     678      MEOH     H1A      HDA3B    0.080000        1.0080           0   0.00000   0.00000
     21225 MEOH     678      MEOH     H1B      HDA3B    0.080000        1.0080           0   0.00000   0.00000
     21226 MEOH     678      MEOH     H1C      HDA3B    0.080000        1.0080           0   0.00000   0.00000
     21227 MEOH     678      MEOH     LP1A     LPD     -0.230000        0.0000           -1   0.00000   0.00000
     21228 MEOH     678      MEOH     LP1B     LPD     -0.230000        0.0000           -1   0.00000   0.00000
     21229 MEOH     679      MEOH     C1       CD33B    2.314100       11.6110           0   -1.00000   1.30000
     21230 MEOH     679      MEOH     DC1      DRUD    -2.454100        0.4000           0   0.00000   0.00000
     21231 MEOH     679      MEOH     O1       OD31H    2.488300       15.5990           0   -1.02800   1.30000
     21232 MEOH     679      MEOH     DO1      DRUD    -2.488300        0.4000           0   0.00000   0.00000
     21233 MEOH     679      MEOH     HO1      HDP1A    0.360000        1.0080           0   0.00000   0.00000
     21234 MEOH     679      MEOH     HO2      DUMH     0.000000        1.0080           0   0.00000   0.00000
     21235 MEOH     679      MEOH     H1A      HDA3B    0.080000        1.0080           0   0.00000   0.00000
     21236 MEOH     679      MEOH     H1B      HDA3B    0.080000        1.0080           0   0.00000   0.00000
     21237 MEOH     679      MEOH     H1C      HDA3B    0.080000        1.0080           0   0.00000   0.00000
     21238 MEOH     679      MEOH     LP1A     LPD     -0.230000        0.0000           -1   0.00000   0.00000
     21239 MEOH     679      MEOH     LP1B     LPD     -0.230000        0.0000           -1   0.00000   0.00000
     21240 MEOH     680      MEOH     C1       CD33B    2.314100       11.6110           0   -1.00000   1.30000
     21241 MEOH     680      MEOH     DC1      DRUD    -2.454100        0.4000           0   0.00000   0.00000
     21242 MEOH     680      MEOH     O1       OD31H    2.488300       15.5990           0   -1.02800   1.30000
     21243 MEOH     680      MEOH     DO1      DRUD    -2.488300        0.4000           0   0.00000   0.00000
     21244 MEOH     680      MEOH     HO1      HDP1A    0.360000        1.0080           0   0.00000   0.00000
     21245 MEOH     680      MEOH     HO2      DUMH     0.000000        1.0080           0   0.00000   0.00000
     21246 MEOH     680      MEOH     H1A      HDA3B    0.080000        1.0080           0   0.00000   0.00000
     21247 MEOH     680      MEOH     H1B      HDA3B    0.080000        1.0080           0   0.00000   0.00000
     21248 MEOH     680      MEOH     H1C      HDA3B    0.080000        1.0080           0   0.00000   0.00000
     21249 MEOH     680      MEOH     LP1A     LPD     -0.230000        0.0000           -1   0.00000   0.00000
     21250 MEOH     680      MEOH     LP1B     LPD     -0.230000        0.0000           -1   0.00000   0.00000
     21251 MEOH     681      MEOH     C1       CD33B    2.314100       11.6110           0   -1.00000   1.30000
     21252 MEOH     681      MEOH     DC1      DRUD    -2.454100        0.4000           0   0.00000   0.00000
     21253 MEOH     681      MEOH     O1       OD31H    2.488300       15.5990           0   -1.02800   1.30000
     21254 MEOH     681      MEOH     DO1      DRUD    -2.488300        0.4000           0   0.00000   0.00000
     21255 MEOH     681      MEOH     HO1      HDP1A    0.360000        1.0080           0   0.00000   0.00000
     21256 MEOH     681      MEOH     HO2      DUMH     0.000000        1.0080           0   0.00000   0.00000
     21257 MEOH     681      MEOH     H1A      HDA3B    0.080000        1.0080           0   0.00000   0.00000
     21258 MEOH     681      MEOH     H1B      HDA3B    0.080000        1.0080           0   0.00000   0.00000
     21259 MEOH     681      MEOH     H1C      HDA3B    0.080000        1.0080           0   0.00000   0.00000
     21260 MEOH     681      MEOH     LP1A     LPD     -0.230000        0.0000           -1   0.00000   0.00000
     21261 MEOH     681      MEOH     LP1B     LPD     -0.230000        0.0000           -1   0.00000   0.00000
     21262 MEOH     682      MEOH     C1       CD33B    2.314100       11.6110           0   -1.00000   1.30000
     21263 MEOH     682      MEOH     DC1      DRUD    -2.454100        0.4000           0   0.00000   0.00000
     21264 MEOH     682      MEOH     O1       OD31H    2.488300       15.5990           0   -1.02800   1.30000
     21265 MEOH     682      MEOH     DO1      DRUD    -2.488300        0.4000           0   0.00000   0.00000
     21266 MEOH     682      MEOH     HO1      HDP1A    0.360000        1.0080           0   0.00000   0.00000
     21267 MEOH     682      MEOH     HO2      DUMH     0.000000        1.0080           0   0.00000   0.00000
     21268 MEOH     682      MEOH     H1A      HDA3B    0.080000        1.0080           0   0.00000   0.00000
     21269 MEOH     682      MEOH     H1B      HDA3B    0.080000        1.0080           0   0.00000   0.00000
     21270 MEOH     682      MEOH     H1C      HDA3B    0.080000        1.0080           0   0.00000   0.00000
     21271 MEOH     682      MEOH     LP1A     LPD     -0.230000        0.0000           -1   0.00000   0.00000
     21272 MEOH     682      MEOH     LP1B     LPD     -0.230000        0.0000           -1   0.00000   0.00000
     21273 MEOH     683      MEOH     C1       CD33B    2.314100       11.6110           0   -1.00000   1.30000
     21274 MEOH     683      MEOH     DC1      DRUD    -2.454100        0.4000           0   0.00000   0.00000
     21275 MEOH     683      MEOH     O1       OD31H    2.488300       15.5990           0   -1.02800   1.30000
     21276 MEOH     683      MEOH     DO1      DRUD    -2.488300        0.4000           0   0.00000   0.00000
     21277 MEOH     683      MEOH     HO1      HDP1A    0.360000        1.0080           0   0.00000   0.00000
     21278 MEOH     683      MEOH     HO2      DUMH     0.000000        1.0080           0   0.00000   0.00000
     21279 MEOH     683      MEOH     H1A      HDA3B    0.080000        1.0080           0   0.00000   0.00000
     21280 MEOH     683      MEOH     H1B      HDA3B    0.080000        1.0080           0   0.00000   0.00000
     21281 MEOH     683      MEOH     H1C      HDA3B    0.080000        1.0080           0   0.00000   0.00000
     21282 MEOH     683      MEOH     LP1A     LPD     -0.230000        0.0000           -1   0.00000   0.00000
     21283 MEOH     683      MEOH     LP1B     LPD     -0.230000        0.0000           -1   0.00000   0.00000
     21284 MEOH     684      MEOH     C1       CD33B    2.314100       11.6110           0   -1.00000   1.30000
     21285 MEOH     684      MEOH     DC1      DRUD    -2.454100        0.4000           0   0.00000   0.00000
     21286 MEOH     684      MEOH     O1       OD31H    2.488300       15.5990           0   -1.02800   1.30000
     21287 MEOH     684      MEOH     DO1      DRUD    -2.488300        0.4000           0   0.00000   0.00000
     21288 MEOH     684      MEOH     HO1      HDP1A    0.360000        1.0080           0   0.00000   0.00000
     21289 MEOH     684      MEOH     HO2      DUMH     0.000000        1.0080           0   0.00000   0.00000
     21290 MEOH     684      MEOH     H1A      HDA3B    0.080000        1.0080           0   0.00000   0.00000
     21291 MEOH     684      MEOH     H1B      HDA3B    0.080000        1.0080           0   0.00000   0.00000
     21292 MEOH     684      MEOH     H1C      HDA3B    0.080000        1.0080           0   0.00000   0.00000
     21293 MEOH     684      MEOH     LP1A     LPD     -0.230000        0.0000           -1   0.00000   0.00000
     21294 MEOH     684      MEOH     LP1B     LPD     -0.230000        0.0000           -1   0.00000   0.00000
     21295 MEOH     685      MEOH     C1       CD33B    2.314100       11.6110           0   -1.00000   1.30000
     21296 MEOH     685      MEOH     DC1      DRUD    -2.454100        0.4000           0   0.00000   0.00000
     21297 MEOH     685      MEOH     O1       OD31H    2.488300       15.5990           0   -1.02800   1.30000
     21298 MEOH     685      MEOH     DO1      DRUD    -2.488300        0.4000           0   0.00000   0.00000
     21299 MEOH     685      MEOH     HO1      HDP1A    0.360000        1.0080           0   0.00000   0.00000
     21300 MEOH     685      MEOH     HO2      DUMH     0.000000        1.0080           0   0.00000   0.00000
     21301 MEOH     685      MEOH     H1A      HDA3B    0.080000        1.0080           0   0.00000   0.00000
     21302 MEOH     685      MEOH     H1B      HDA3B    0.080000        1.0080           0   0.00000   0.00000
     21303 MEOH     685      MEOH     H1C      HDA3B    0.080000        1.0080           0   0.00000   0.00000
     21304 MEOH     685      MEOH     LP1A     LPD     -0.230000        0.0000           -1   0.00000   0.00000
     21305 MEOH     685      MEOH     LP1B     LPD     -0.230000        0.0000           -1   0.00000   0.00000
     21306 MEOH     686      MEOH     C1       CD33B    2.314100       11.6110           0   -1.00000   1.30000
     21307 MEOH     686      MEOH     DC1      DRUD    -2.454100        0.4000           0   0.00000   0.00000
     21308 MEOH     686      MEOH     O1       OD31H    2.488300       15.5990           0   -1.02800   1.30000
     21309 MEOH     686      MEOH     DO1      DRUD    -2.488300        0.4000           0   0.00000   0.00000
     21310 MEOH     686      MEOH     HO1      HDP1A    0.360000        1.0080           0   0.00000   0.00000
     21311 MEOH     686      MEOH     HO2      DUMH     0.000000        1.0080           0   0.00000   0.00000
     21312 MEOH     686      MEOH     H1A      HDA3B    0.080000        1.0080           0   0.00000   0.00000
     21313 MEOH     686      MEOH     H1B      HDA3B    0.080000        1.0080           0   0.00000   0.00000
     21314 MEOH     686      MEOH     H1C      HDA3B    0.080000        1.0080           0   0.00000   0.00000
     21315 MEOH     686      MEOH     LP1A     LPD     -0.230000        0.0000           -1   0.00000   0.00000
     21316 MEOH     686      MEOH     LP1B     LPD     -0.230000        0.0000           -1   0.00000   0.00000
     21317 MEOH     687      MEOH     C1       CD33B    2.314100       11.6110           0   -1.00000   1.30000
     21318 MEOH     687      MEOH     DC1      DRUD    -2.454100        0.4000           0   0.00000   0.00000
     21319 MEOH     687      MEOH     O1       OD31H    2.488300       15.5990           0   -1.02800   1.30000
     21320 MEOH     687      MEOH     DO1      DRUD    -2.488300        0.4000           0   0.00000   0.00000
     21321 MEOH     687      MEOH     HO1      HDP1A    0.360000        1.0080           0   0.00000   0.00000
     21322 MEOH     687      MEOH     HO2      DUMH     0.000000        1.0080           0   0.00000   0.00000
     21323 MEOH     687      MEOH     H1A      HDA3B    0.080000        1.0080           0   0.00000   0.00000
     21324 MEOH     687      MEOH     H1B      HDA3B    0.080000        1.0080           0   0.00000   0.00000
     21325 MEOH     687      MEOH     H1C      HDA3B    0.080000        1.0080           0   0.00000   0.00000
     21326 MEOH     687      MEOH     LP1A     LPD     -0.230000        0.0000           -1   0.00000   0.00000
     21327 MEOH     687      MEOH     LP1B     LPD     -0.230000        0.0000           -1   0.00000   0.00000
     21328 MEOH     688      MEOH     C1       CD33B    2.314100       11.6110           0   -1.00000   1.30000
     21329 MEOH     688      MEOH     DC1      DRUD    -2.454100        0.4000           0   0.00000   0.00000
     21330 MEOH     688      MEOH     O1       OD31H    2.488300       15.5990           0   -1.02800   1.30000
     21331 MEOH     688      MEOH     DO1      DRUD    -2.488300        0.4000           0   0.00000   0.00000
     21332 MEOH     688      MEOH     HO1      HDP1A    0.360000        1.0080           0   0.00000   0.00000
     21333 MEOH     688      MEOH     HO2      DUMH     0.000000        1.0080           0   0.00000   0.00000
     21334 MEOH     688      MEOH     H1A      HDA3B    0.080000        1.0080           0   0.00000   0.00000
     21335 MEOH     688      MEOH     H1B      HDA3B    0.080000        1.0080           0   0.00000   0.00000
     21336 MEOH     688      MEOH     H1C      HDA3B    0.080000        1.0080           0   0.00000   0.00000
     21337 MEOH     688      MEOH     LP1A     LPD     -0.230000        0.0000           -1   0.00000   0.00000
     21338 MEOH     688      MEOH     LP1B     LPD     -0.230000        0.0000           -1   0.00000   0.00000
     21339 MEOH     689      MEOH     C1       CD33B    2.314100       11.6110           0   -1.00000   1.30000
     21340 MEOH     689      MEOH     DC1      DRUD    -2.454100        0.4000           0   0.00000   0.00000
     21341 MEOH     689      MEOH     O1       OD31H    2.488300       15.5990           0   -1.02800   1.30000
     21342 MEOH     689      MEOH     DO1      DRUD    -2.488300        0.4000           0   0.00000   0.00000
     21343 MEOH     689      MEOH     HO1      HDP1A    0.360000        1.0080           0   0.00000   0.00000
     21344 MEOH     689      MEOH     HO2      DUMH     0.000000        1.0080           0   0.00000   0.00000
     21345 MEOH     689      MEOH     H1A      HDA3B    0.080000        1.0080           0   0.00000   0.00000
     21346 MEOH     689      MEOH     H1B      HDA3B    0.080000        1.0080           0   0.00000   0.00000
     21347 MEOH     689      MEOH     H1C      HDA3B    0.080000        1.0080           0   0.00000   0.00000
     21348 MEOH     689      MEOH     LP1A     LPD     -0.230000        0.0000           -1   0.00000   0.00000
     21349 MEOH     689      MEOH     LP1B     LPD     -0.230000        0.0000           -1   0.00000   0.00000
     21350 MEOH     690      MEOH     C1       CD33B    2.314100       11.6110           0   -1.00000   1.30000
     21351 MEOH     690      MEOH     DC1      DRUD    -2.454100        0.4000           0   0.00000   0.00000
     21352 MEOH     690      MEOH     O1       OD31H    2.488300       15.5990           0   -1.02800   1.30000
     21353 MEOH     690      MEOH     DO1      DRUD    -2.488300        0.4000           0   0.00000   0.00000
     21354 MEOH     690      MEOH     HO1      HDP1A    0.360000        1.0080           0   0.00000   0.00000
     21355 MEOH     690      MEOH     HO2      DUMH     0.000000        1.0080           0   0.00000   0.00000
     21356 MEOH     690      MEOH     H1A      HDA3B    0.080000        1.0080           0   0.00000   0.00000
     21357 MEOH     690      MEOH     H1B      HDA3B    0.080000        1.0080           0   0.00000   0.00000
     21358 MEOH     690      MEOH     H1C      HDA3B    0.080000        1.0080           0   0.00000   0.00000
     21359 MEOH     690      MEOH     LP1A     LPD     -0.230000        0.0000           -1   0.00000   0.00000
     21360 MEOH     690      MEOH     LP1B     LPD     -0.230000        0.0000           -1   0.00000   0.00000
     21361 MEOH     691      MEOH     C1       CD33B    2.314100       11.6110           0   -1.00000   1.30000
     21362 MEOH     691      MEOH     DC1      DRUD    -2.454100        0.4000           0   0.00000   0.00000
     21363 MEOH     691      MEOH     O1       OD31H    2.488300       15.5990           0   -1.02800   1.30000
     21364 MEOH     691      MEOH     DO1      DRUD    -2.488300        0.4000           0   0.00000   0.00000
     21365 MEOH     691      MEOH     HO1      HDP1A    0.360000        1.0080           0   0.00000   0.00000
     21366 MEOH     691      MEOH     HO2      DUMH     0.000000        1.0080           0   0.00000   0.00000
     21367 MEOH     691      MEOH     H1A      HDA3B    0.080000        1.0080           0   0.00000   0.00000
     21368 MEOH     691      MEOH     H1B      HDA3B    0.080000        1.0080           0   0.00000   0.00000
     21369 MEOH     691      MEOH     H1C      HDA3B    0.080000        1.0080           0   0.00000   0.00000
     21370 MEOH     691      MEOH     LP1A     LPD     -0.230000        0.0000           -1   0.00000   0.00000
     21371 MEOH     691      MEOH     LP1B     LPD     -0.230000        0.0000           -1   0.00000   0.00000
     21372 MEOH     692      MEOH     C1       CD33B    2.314100       11.6110           0   -1.00000   1.30000
     21373 MEOH     692      MEOH     DC1      DRUD    -2.454100        0.4000           0   0.00000   0.00000
     21374 MEOH     692      MEOH     O1       OD31H    2.488300       15.5990           0   -1.02800   1.30000
     21375 MEOH     692      MEOH     DO1      DRUD    -2.488300        0.4000           0   0.00000   0.00000
     21376 MEOH     692      MEOH     HO1      HDP1A    0.360000        1.0080           0   0.00000   0.00000
     21377 MEOH     692      MEOH     HO2      DUMH     0.000000        1.0080           0   0.00000   0.00000
     21378 MEOH     692      MEOH     H1A      HDA3B    0.080000        1.0080           0   0.00000   0.00000
     21379 MEOH     692      MEOH     H1B      HDA3B    0.080000        1.0080           0   0.00000   0.00000
     21380 MEOH     692      MEOH     H1C      HDA3B    0.080000        1.0080           0   0.00000   0.00000
     21381 MEOH     692      MEOH     LP1A     LPD     -0.230000        0.0000           -1   0.00000   0.00000
     21382 MEOH     692      MEOH     LP1B     LPD     -0.230000        0.0000           -1   0.00000   0.00000
     21383 MEOH     693      MEOH     C1       CD33B    2.314100       11.6110           0   -1.00000   1.30000
     21384 MEOH     693      MEOH     DC1      DRUD    -2.454100        0.4000           0   0.00000   0.00000
     21385 MEOH     693      MEOH     O1       OD31H    2.488300       15.5990           0   -1.02800   1.30000
     21386 MEOH     693      MEOH     DO1      DRUD    -2.488300        0.4000           0   0.00000   0.00000
     21387 MEOH     693      MEOH     HO1      HDP1A    0.360000        1.0080           0   0.00000   0.00000
     21388 MEOH     693      MEOH     HO2      DUMH     0.000000        1.0080           0   0.00000   0.00000
     21389 MEOH     693      MEOH     H1A      HDA3B    0.080000        1.0080           0   0.00000   0.00000
     21390 MEOH     693      MEOH     H1B      HDA3B    0.080000        1.0080           0   0.00000   0.00000
     21391 MEOH     693      MEOH     H1C      HDA3B    0.080000        1.0080           0   0.00000   0.00000
     21392 MEOH     693      MEOH     LP1A     LPD     -0.230000        0.0000           -1   0.00000   0.00000
     21393 MEOH     693      MEOH     LP1B     LPD     -0.230000        0.0000           -1   0.00000   0.00000
     21394 MEOH     694      MEOH     C1       CD33B    2.314100       11.6110           0   -1.00000   1.30000
     21395 MEOH     694      MEOH     DC1      DRUD    -2.454100        0.4000           0   0.00000   0.00000
     21396 MEOH     694      MEOH     O1       OD31H    2.488300       15.5990           0   -1.02800   1.30000
     21397 MEOH     694      MEOH     DO1      DRUD    -2.488300        0.4000           0   0.00000   0.00000
     21398 MEOH     694      MEOH     HO1      HDP1A    0.360000        1.0080           0   0.00000   0.00000
     21399 MEOH     694      MEOH     HO2      DUMH     0.000000        1.0080           0   0.00000   0.00000
     21400 MEOH     694      MEOH     H1A      HDA3B    0.080000        1.0080           0   0.00000   0.00000
     21401 MEOH     694      MEOH     H1B      HDA3B    0.080000        1.0080           0   0.00000   0.00000
     21402 MEOH     694      MEOH     H1C      HDA3B    0.080000        1.0080           0   0.00000   0.00000
     21403 MEOH     694      MEOH     LP1A     LPD     -0.230000        0.0000           -1   0.00000   0.00000
     21404 MEOH     694      MEOH     LP1B     LPD     -0.230000        0.0000           -1   0.00000   0.00000
     21405 MEOH     695      MEOH     C1       CD33B    2.314100       11.6110           0   -1.00000   1.30000
     21406 MEOH     695      MEOH     DC1      DRUD    -2.454100        0.4000           0   0.00000   0.00000
     21407 MEOH     695      MEOH     O1       OD31H    2.488300       15.5990           0   -1.02800   1.30000
     21408 MEOH     695      MEOH     DO1      DRUD    -2.488300        0.4000           0   0.00000   0.00000
     21409 MEOH     695      MEOH     HO1      HDP1A    0.360000        1.0080           0   0.00000   0.00000
     21410 MEOH     695      MEOH     HO2      DUMH     0.000000        1.0080           0   0.00000   0.00000
     21411 MEOH     695      MEOH     H1A      HDA3B    0.080000        1.0080           0   0.00000   0.00000
     21412 MEOH     695      MEOH     H1B      HDA3B    0.080000        1.0080           0   0.00000   0.00000
     21413 MEOH     695      MEOH     H1C      HDA3B    0.080000        1.0080           0   0.00000   0.00000
     21414 MEOH     695      MEOH     LP1A     LPD     -0.230000        0.0000           -1   0.00000   0.00000
     21415 MEOH     695      MEOH     LP1B     LPD     -0.230000        0.0000           -1   0.00000   0.00000
     21416 MEOH     696      MEOH     C1       CD33B    2.314100       11.6110           0   -1.00000   1.30000
     21417 MEOH     696      MEOH     DC1      DRUD    -2.454100        0.4000           0   0.00000   0.00000
     21418 MEOH     696      MEOH     O1       OD31H    2.488300       15.5990           0   -1.02800   1.30000
     21419 MEOH     696      MEOH     DO1      DRUD    -2.488300        0.4000           0   0.00000   0.00000
     21420 MEOH     696      MEOH     HO1      HDP1A    0.360000        1.0080           0   0.00000   0.00000
     21421 MEOH     696      MEOH     HO2      DUMH     0.000000        1.0080           0   0.00000   0.00000
     21422 MEOH     696      MEOH     H1A      HDA3B    0.080000        1.0080           0   0.00000   0.00000
     21423 MEOH     696      MEOH     H1B      HDA3B    0.080000        1.0080           0   0.00000   0.00000
     21424 MEOH     696      MEOH     H1C      HDA3B    0.080000        1.0080           0   0.00000   0.00000
     21425 MEOH     696      MEOH     LP1A     LPD     -0.230000        0.0000           -1   0.00000   0.00000
     21426 MEOH     696      MEOH     LP1B     LPD     -0.230000        0.0000           -1   0.00000   0.00000
     21427 MEOH     697      MEOH     C1       CD33B    2.314100       11.6110           0   -1.00000   1.30000
     21428 MEOH     697      MEOH     DC1      DRUD    -2.454100        0.4000           0   0.00000   0.00000
     21429 MEOH     697      MEOH     O1       OD31H    2.488300       15.5990           0   -1.02800   1.30000
     21430 MEOH     697      MEOH     DO1      DRUD    -2.488300        0.4000           0   0.00000   0.00000
     21431 MEOH     697      MEOH     HO1      HDP1A    0.360000        1.0080           0   0.00000   0.00000
     21432 MEOH     697      MEOH     HO2      DUMH     0.000000        1.0080           0   0.00000   0.00000
     21433 MEOH     697      MEOH     H1A      HDA3B    0.080000        1.0080           0   0.00000   0.00000
     21434 MEOH     697      MEOH     H1B      HDA3B    0.080000        1.0080           0   0.00000   0.00000
     21435 MEOH     697      MEOH     H1C      HDA3B    0.080000        1.0080           0   0.00000   0.00000
     21436 MEOH     697      MEOH     LP1A     LPD     -0.230000        0.0000           -1   0.00000   0.00000
     21437 MEOH     697      MEOH     LP1B     LPD     -0.230000        0.0000           -1   0.00000   0.00000
     21438 MEOH     698      MEOH     C1       CD33B    2.314100       11.6110           0   -1.00000   1.30000
     21439 MEOH     698      MEOH     DC1      DRUD    -2.454100        0.4000           0   0.00000   0.00000
     21440 MEOH     698      MEOH     O1       OD31H    2.488300       15.5990           0   -1.02800   1.30000
     21441 MEOH     698      MEOH     DO1      DRUD    -2.488300        0.4000           0   0.00000   0.00000
     21442 MEOH     698      MEOH     HO1      HDP1A    0.360000        1.0080           0   0.00000   0.00000
     21443 MEOH     698      MEOH     HO2      DUMH     0.000000        1.0080           0   0.00000   0.00000
     21444 MEOH     698      MEOH     H1A      HDA3B    0.080000        1.0080           0   0.00000   0.00000
     21445 MEOH     698      MEOH     H1B      HDA3B    0.080000        1.0080           0   0.00000   0.00000
     21446 MEOH     698      MEOH     H1C      HDA3B    0.080000        1.0080           0   0.00000   0.00000
     21447 MEOH     698      MEOH     LP1A     LPD     -0.230000        0.0000           -1   0.00000   0.00000
     21448 MEOH     698      MEOH     LP1B     LPD     -0.230000        0.0000           -1   0.00000   0.00000
     21449 MEOH     699      MEOH     C1       CD33B    2.314100       11.6110           0   -1.00000   1.30000
     21450 MEOH     699      MEOH     DC1      DRUD    -2.454100        0.4000           0   0.00000   0.00000
     21451 MEOH     699      MEOH     O1       OD31H    2.488300       15.5990           0   -1.02800   1.30000
     21452 MEOH     699      MEOH     DO1      DRUD    -2.488300        0.4000           0   0.00000   0.00000
     21453 MEOH     699      MEOH     HO1      HDP1A    0.360000        1.0080           0   0.00000   0.00000
     21454 MEOH     699      MEOH     HO2      DUMH     0.000000        1.0080           0   0.00000   0.00000
     21455 MEOH     699      MEOH     H1A      HDA3B    0.080000        1.0080           0   0.00000   0.00000
     21456 MEOH     699      MEOH     H1B      HDA3B    0.080000        1.0080           0   0.00000   0.00000
     21457 MEOH     699      MEOH     H1C      HDA3B    0.080000        1.0080           0   0.00000   0.00000
     21458 MEOH     699      MEOH     LP1A     LPD     -0.230000        0.0000           -1   0.00000   0.00000
     21459 MEOH     699      MEOH     LP1B     LPD     -0.230000        0.0000           -1   0.00000   0.00000
     21460 MEOH     700      MEOH     C1       CD33B    2.314100       11.6110           0   -1.00000   1.30000
     21461 MEOH     700      MEOH     DC1      DRUD    -2.454100        0.4000           0   0.00000   0.00000
     21462 MEOH     700      MEOH     O1       OD31H    2.488300       15.5990           0   -1.02800   1.30000
     21463 MEOH     700      MEOH     DO1      DRUD    -2.488300        0.4000           0   0.00000   0.00000
     21464 MEOH     700      MEOH     HO1      HDP1A    0.360000        1.0080           0   0.00000   0.00000
     21465 MEOH     700      MEOH     HO2      DUMH     0.000000        1.0080           0   0.00000   0.00000
     21466 MEOH     700      MEOH     H1A      HDA3B    0.080000        1.0080           0   0.00000   0.00000
     21467 MEOH     700      MEOH     H1B      HDA3B    0.080000        1.0080           0   0.00000   0.00000
     21468 MEOH     700      MEOH     H1C      HDA3B    0.080000        1.0080           0   0.00000   0.00000
     21469 MEOH     700      MEOH     LP1A     LPD     -0.230000        0.0000           -1   0.00000   0.00000
     21470 MEOH     700      MEOH     LP1B     LPD     -0.230000        0.0000           -1   0.00000   0.00000
     21471 MEOH     701      MEOH     C1       CD33B    2.314100       11.6110           0   -1.00000   1.30000
     21472 MEOH     701      MEOH     DC1      DRUD    -2.454100        0.4000           0   0.00000   0.00000
     21473 MEOH     701      MEOH     O1       OD31H    2.488300       15.5990           0   -1.02800   1.30000
     21474 MEOH     701      MEOH     DO1      DRUD    -2.488300        0.4000           0   0.00000   0.00000
     21475 MEOH     701      MEOH     HO1      HDP1A    0.360000        1.0080           0   0.00000   0.00000
     21476 MEOH     701      MEOH     HO2      DUMH     0.000000        1.0080           0   0.00000   0.00000
     21477 MEOH     701      MEOH     H1A      HDA3B    0.080000        1.0080           0   0.00000   0.00000
     21478 MEOH     701      MEOH     H1B      HDA3B    0.080000        1.0080           0   0.00000   0.00000
     21479 MEOH     701      MEOH     H1C      HDA3B    0.080000        1.0080           0   0.00000   0.00000
     21480 MEOH     701      MEOH     LP1A     LPD     -0.230000        0.0000           -1   0.00000   0.00000
     21481 MEOH     701      MEOH     LP1B     LPD     -0.230000        0.0000           -1   0.00000   0.00000
     21482 MEOH     702      MEOH     C1       CD33B    2.314100       11.6110           0   -1.00000   1.30000
     21483 MEOH     702      MEOH     DC1      DRUD    -2.454100        0.4000           0   0.00000   0.00000
     21484 MEOH     702      MEOH     O1       OD31H    2.488300       15.5990           0   -1.02800   1.30000
     21485 MEOH     702      MEOH     DO1      DRUD    -2.488300        0.4000           0   0.00000   0.00000
     21486 MEOH     702      MEOH     HO1      HDP1A    0.360000        1.0080           0   0.00000   0.00000
     21487 MEOH     702      MEOH     HO2      DUMH     0.000000        1.0080           0   0.00000   0.00000
     21488 MEOH     702      MEOH     H1A      HDA3B    0.080000        1.0080           0   0.00000   0.00000
     21489 MEOH     702      MEOH     H1B      HDA3B    0.080000        1.0080           0   0.00000   0.00000
     21490 MEOH     702      MEOH     H1C      HDA3B    0.080000        1.0080           0   0.00000   0.00000
     21491 MEOH     702      MEOH     LP1A     LPD     -0.230000        0.0000           -1   0.00000   0.00000
     21492 MEOH     702      MEOH     LP1B     LPD     -0.230000        0.0000           -1   0.00000   0.00000
     21493 MEOH     703      MEOH     C1       CD33B    2.314100       11.6110           0   -1.00000   1.30000
     21494 MEOH     703      MEOH     DC1      DRUD    -2.454100        0.4000           0   0.00000   0.00000
     21495 MEOH     703      MEOH     O1       OD31H    2.488300       15.5990           0   -1.02800   1.30000
     21496 MEOH     703      MEOH     DO1      DRUD    -2.488300        0.4000           0   0.00000   0.00000
     21497 MEOH     703      MEOH     HO1      HDP1A    0.360000        1.0080           0   0.00000   0.00000
     21498 MEOH     703      MEOH     HO2      DUMH     0.000000        1.0080           0   0.00000   0.00000
     21499 MEOH     703      MEOH     H1A      HDA3B    0.080000        1.0080           0   0.00000   0.00000
     21500 MEOH     703      MEOH     H1B      HDA3B    0.080000        1.0080           0   0.00000   0.00000
     21501 MEOH     703      MEOH     H1C      HDA3B    0.080000        1.0080           0   0.00000   0.00000
     21502 MEOH     703      MEOH     LP1A     LPD     -0.230000        0.0000           -1   0.00000   0.00000
     21503 MEOH     703      MEOH     LP1B     LPD     -0.230000        0.0000           -1   0.00000   0.00000
     21504 MEOH     704      MEOH     C1       CD33B    2.314100       11.6110           0   -1.00000   1.30000
     21505 MEOH     704      MEOH     DC1      DRUD    -2.454100        0.4000           0   0.00000   0.00000
     21506 MEOH     704      MEOH     O1       OD31H    2.488300       15.5990           0   -1.02800   1.30000
     21507 MEOH     704      MEOH     DO1      DRUD    -2.488300        0.4000           0   0.00000   0.00000
     21508 MEOH     704      MEOH     HO1      HDP1A    0.360000        1.0080           0   0.00000   0.00000
     21509 MEOH     704      MEOH     HO2      DUMH     0.000000        1.0080           0   0.00000   0.00000
     21510 MEOH     704      MEOH     H1A      HDA3B    0.080000        1.0080           0   0.00000   0.00000
     21511 MEOH     704      MEOH     H1B      HDA3B    0.080000        1.0080           0   0.00000   0.00000
     21512 MEOH     704      MEOH     H1C      HDA3B    0.080000        1.0080           0   0.00000   0.00000
     21513 MEOH     704      MEOH     LP1A     LPD     -0.230000        0.0000           -1   0.00000   0.00000
     21514 MEOH     704      MEOH     LP1B     LPD     -0.230000        0.0000           -1   0.00000   0.00000
     21515 MEOH     705      MEOH     C1       CD33B    2.314100       11.6110           0   -1.00000   1.30000
     21516 MEOH     705      MEOH     DC1      DRUD    -2.454100        0.4000           0   0.00000   0.00000
     21517 MEOH     705      MEOH     O1       OD31H    2.488300       15.5990           0   -1.02800   1.30000
     21518 MEOH     705      MEOH     DO1      DRUD    -2.488300        0.4000           0   0.00000   0.00000
     21519 MEOH     705      MEOH     HO1      HDP1A    0.360000        1.0080           0   0.00000   0.00000
     21520 MEOH     705      MEOH     HO2      DUMH     0.000000        1.0080           0   0.00000   0.00000
     21521 MEOH     705      MEOH     H1A      HDA3B    0.080000        1.0080           0   0.00000   0.00000
     21522 MEOH     705      MEOH     H1B      HDA3B    0.080000        1.0080           0   0.00000   0.00000
     21523 MEOH     705      MEOH     H1C      HDA3B    0.080000        1.0080           0   0.00000   0.00000
     21524 MEOH     705      MEOH     LP1A     LPD     -0.230000        0.0000           -1   0.00000   0.00000
     21525 MEOH     705      MEOH     LP1B     LPD     -0.230000        0.0000           -1   0.00000   0.00000
     21526 MEOH     706      MEOH     C1       CD33B    2.314100       11.6110           0   -1.00000   1.30000
     21527 MEOH     706      MEOH     DC1      DRUD    -2.454100        0.4000           0   0.00000   0.00000
     21528 MEOH     706      MEOH     O1       OD31H    2.488300       15.5990           0   -1.02800   1.30000
     21529 MEOH     706      MEOH     DO1      DRUD    -2.488300        0.4000           0   0.00000   0.00000
     21530 MEOH     706      MEOH     HO1      HDP1A    0.360000        1.0080           0   0.00000   0.00000
     21531 MEOH     706      MEOH     HO2      DUMH     0.000000        1.0080           0   0.00000   0.00000
     21532 MEOH     706      MEOH     H1A      HDA3B    0.080000        1.0080           0   0.00000   0.00000
     21533 MEOH     706      MEOH     H1B      HDA3B    0.080000        1.0080           0   0.00000   0.00000
     21534 MEOH     706      MEOH     H1C      HDA3B    0.080000        1.0080           0   0.00000   0.00000
     21535 MEOH     706      MEOH     LP1A     LPD     -0.230000        0.0000           -1   0.00000   0.00000
     21536 MEOH     706      MEOH     LP1B     LPD     -0.230000        0.0000           -1   0.00000   0.00000
     21537 MEOH     707      MEOH     C1       CD33B    2.314100       11.6110           0   -1.00000   1.30000
     21538 MEOH     707      MEOH     DC1      DRUD    -2.454100        0.4000           0   0.00000   0.00000
     21539 MEOH     707      MEOH     O1       OD31H    2.488300       15.5990           0   -1.02800   1.30000
     21540 MEOH     707      MEOH     DO1      DRUD    -2.488300        0.4000           0   0.00000   0.00000
     21541 MEOH     707      MEOH     HO1      HDP1A    0.360000        1.0080           0   0.00000   0.00000
     21542 MEOH     707      MEOH     HO2      DUMH     0.000000        1.0080           0   0.00000   0.00000
     21543 MEOH     707      MEOH     H1A      HDA3B    0.080000        1.0080           0   0.00000   0.00000
     21544 MEOH     707      MEOH     H1B      HDA3B    0.080000        1.0080           0   0.00000   0.00000
     21545 MEOH     707      MEOH     H1C      HDA3B    0.080000        1.0080           0   0.00000   0.00000
     21546 MEOH     707      MEOH     LP1A     LPD     -0.230000        0.0000           -1   0.00000   0.00000
     21547 MEOH     707      MEOH     LP1B     LPD     -0.230000        0.0000           -1   0.00000   0.00000
     21548 MEOH     708      MEOH     C1       CD33B    2.314100       11.6110           0   -1.00000   1.30000
     21549 MEOH     708      MEOH     DC1      DRUD    -2.454100        0.4000           0   0.00000   0.00000
     21550 MEOH     708      MEOH     O1       OD31H    2.488300       15.5990           0   -1.02800   1.30000
     21551 MEOH     708      MEOH     DO1      DRUD    -2.488300        0.4000           0   0.00000   0.00000
     21552 MEOH     708      MEOH     HO1      HDP1A    0.360000        1.0080           0   0.00000   0.00000
     21553 MEOH     708      MEOH     HO2      DUMH     0.000000        1.0080           0   0.00000   0.00000
     21554 MEOH     708      MEOH     H1A      HDA3B    0.080000        1.0080           0   0.00000   0.00000
     21555 MEOH     708      MEOH     H1B      HDA3B    0.080000        1.0080           0   0.00000   0.00000
     21556 MEOH     708      MEOH     H1C      HDA3B    0.080000        1.0080           0   0.00000   0.00000
     21557 MEOH     708      MEOH     LP1A     LPD     -0.230000        0.0000           -1   0.00000   0.00000
     21558 MEOH     708      MEOH     LP1B     LPD     -0.230000        0.0000           -1   0.00000   0.00000
     21559 MEOH     709      MEOH     C1       CD33B    2.314100       11.6110           0   -1.00000   1.30000
     21560 MEOH     709      MEOH     DC1      DRUD    -2.454100        0.4000           0   0.00000   0.00000
     21561 MEOH     709      MEOH     O1       OD31H    2.488300       15.5990           0   -1.02800   1.30000
     21562 MEOH     709      MEOH     DO1      DRUD    -2.488300        0.4000           0   0.00000   0.00000
     21563 MEOH     709      MEOH     HO1      HDP1A    0.360000        1.0080           0   0.00000   0.00000
     21564 MEOH     709      MEOH     HO2      DUMH     0.000000        1.0080           0   0.00000   0.00000
     21565 MEOH     709      MEOH     H1A      HDA3B    0.080000        1.0080           0   0.00000   0.00000
     21566 MEOH     709      MEOH     H1B      HDA3B    0.080000        1.0080           0   0.00000   0.00000
     21567 MEOH     709      MEOH     H1C      HDA3B    0.080000        1.0080           0   0.00000   0.00000
     21568 MEOH     709      MEOH     LP1A     LPD     -0.230000        0.0000           -1   0.00000   0.00000
     21569 MEOH     709      MEOH     LP1B     LPD     -0.230000        0.0000           -1   0.00000   0.00000
     21570 MEOH     710      MEOH     C1       CD33B    2.314100       11.6110           0   -1.00000   1.30000
     21571 MEOH     710      MEOH     DC1      DRUD    -2.454100        0.4000           0   0.00000   0.00000
     21572 MEOH     710      MEOH     O1       OD31H    2.488300       15.5990           0   -1.02800   1.30000
     21573 MEOH     710      MEOH     DO1      DRUD    -2.488300        0.4000           0   0.00000   0.00000
     21574 MEOH     710      MEOH     HO1      HDP1A    0.360000        1.0080           0   0.00000   0.00000
     21575 MEOH     710      MEOH     HO2      DUMH     0.000000        1.0080           0   0.00000   0.00000
     21576 MEOH     710      MEOH     H1A      HDA3B    0.080000        1.0080           0   0.00000   0.00000
     21577 MEOH     710      MEOH     H1B      HDA3B    0.080000        1.0080           0   0.00000   0.00000
     21578 MEOH     710      MEOH     H1C      HDA3B    0.080000        1.0080           0   0.00000   0.00000
     21579 MEOH     710      MEOH     LP1A     LPD     -0.230000        0.0000           -1   0.00000   0.00000
     21580 MEOH     710      MEOH     LP1B     LPD     -0.230000        0.0000           -1   0.00000   0.00000
     21581 MEOH     711      MEOH     C1       CD33B    2.314100       11.6110           0   -1.00000   1.30000
     21582 MEOH     711      MEOH     DC1      DRUD    -2.454100        0.4000           0   0.00000   0.00000
     21583 MEOH     711      MEOH     O1       OD31H    2.488300       15.5990           0   -1.02800   1.30000
     21584 MEOH     711      MEOH     DO1      DRUD    -2.488300        0.4000           0   0.00000   0.00000
     21585 MEOH     711      MEOH     HO1      HDP1A    0.360000        1.0080           0   0.00000   0.00000
     21586 MEOH     711      MEOH     HO2      DUMH     0.000000        1.0080           0   0.00000   0.00000
     21587 MEOH     711      MEOH     H1A      HDA3B    0.080000        1.0080           0   0.00000   0.00000
     21588 MEOH     711      MEOH     H1B      HDA3B    0.080000        1.0080           0   0.00000   0.00000
     21589 MEOH     711      MEOH     H1C      HDA3B    0.080000        1.0080           0   0.00000   0.00000
     21590 MEOH     711      MEOH     LP1A     LPD     -0.230000        0.0000           -1   0.00000   0.00000
     21591 MEOH     711      MEOH     LP1B     LPD     -0.230000        0.0000           -1   0.00000   0.00000
     21592 MEOH     712      MEOH     C1       CD33B    2.314100       11.6110           0   -1.00000   1.30000
     21593 MEOH     712      MEOH     DC1      DRUD    -2.454100        0.4000           0   0.00000   0.00000
     21594 MEOH     712      MEOH     O1       OD31H    2.488300       15.5990           0   -1.02800   1.30000
     21595 MEOH     712      MEOH     DO1      DRUD    -2.488300        0.4000           0   0.00000   0.00000
     21596 MEOH     712      MEOH     HO1      HDP1A    0.360000        1.0080           0   0.00000   0.00000
     21597 MEOH     712      MEOH     HO2      DUMH     0.000000        1.0080           0   0.00000   0.00000
     21598 MEOH     712      MEOH     H1A      HDA3B    0.080000        1.0080           0   0.00000   0.00000
     21599 MEOH     712      MEOH     H1B      HDA3B    0.080000        1.0080           0   0.00000   0.00000
     21600 MEOH     712      MEOH     H1C      HDA3B    0.080000        1.0080           0   0.00000   0.00000
     21601 MEOH     712      MEOH     LP1A     LPD     -0.230000        0.0000           -1   0.00000   0.00000
     21602 MEOH     712      MEOH     LP1B     LPD     -0.230000        0.0000           -1   0.00000   0.00000
     21603 MEOH     713      MEOH     C1       CD33B    2.314100       11.6110           0   -1.00000   1.30000
     21604 MEOH     713      MEOH     DC1      DRUD    -2.454100        0.4000           0   0.00000   0.00000
     21605 MEOH     713      MEOH     O1       OD31H    2.488300       15.5990           0   -1.02800   1.30000
     21606 MEOH     713      MEOH     DO1      DRUD    -2.488300        0.4000           0   0.00000   0.00000
     21607 MEOH     713      MEOH     HO1      HDP1A    0.360000        1.0080           0   0.00000   0.00000
     21608 MEOH     713      MEOH     HO2      DUMH     0.000000        1.0080           0   0.00000   0.00000
     21609 MEOH     713      MEOH     H1A      HDA3B    0.080000        1.0080           0   0.00000   0.00000
     21610 MEOH     713      MEOH     H1B      HDA3B    0.080000        1.0080           0   0.00000   0.00000
     21611 MEOH     713      MEOH     H1C      HDA3B    0.080000        1.0080           0   0.00000   0.00000
     21612 MEOH     713      MEOH     LP1A     LPD     -0.230000        0.0000           -1   0.00000   0.00000
     21613 MEOH     713      MEOH     LP1B     LPD     -0.230000        0.0000           -1   0.00000   0.00000
     21614 MEOH     714      MEOH     C1       CD33B    2.314100       11.6110           0   -1.00000   1.30000
     21615 MEOH     714      MEOH     DC1      DRUD    -2.454100        0.4000           0   0.00000   0.00000
     21616 MEOH     714      MEOH     O1       OD31H    2.488300       15.5990           0   -1.02800   1.30000
     21617 MEOH     714      MEOH     DO1      DRUD    -2.488300        0.4000           0   0.00000   0.00000
     21618 MEOH     714      MEOH     HO1      HDP1A    0.360000        1.0080           0   0.00000   0.00000
     21619 MEOH     714      MEOH     HO2      DUMH     0.000000        1.0080           0   0.00000   0.00000
     21620 MEOH     714      MEOH     H1A      HDA3B    0.080000        1.0080           0   0.00000   0.00000
     21621 MEOH     714      MEOH     H1B      HDA3B    0.080000        1.0080           0   0.00000   0.00000
     21622 MEOH     714      MEOH     H1C      HDA3B    0.080000        1.0080           0   0.00000   0.00000
     21623 MEOH     714      MEOH     LP1A     LPD     -0.230000        0.0000           -1   0.00000   0.00000
     21624 MEOH     714      MEOH     LP1B     LPD     -0.230000        0.0000           -1   0.00000   0.00000
     21625 MEOH     715      MEOH     C1       CD33B    2.314100       11.6110           0   -1.00000   1.30000
     21626 MEOH     715      MEOH     DC1      DRUD    -2.454100        0.4000           0   0.00000   0.00000
     21627 MEOH     715      MEOH     O1       OD31H    2.488300       15.5990           0   -1.02800   1.30000
     21628 MEOH     715      MEOH     DO1      DRUD    -2.488300        0.4000           0   0.00000   0.00000
     21629 MEOH     715      MEOH     HO1      HDP1A    0.360000        1.0080           0   0.00000   0.00000
     21630 MEOH     715      MEOH     HO2      DUMH     0.000000        1.0080           0   0.00000   0.00000
     21631 MEOH     715      MEOH     H1A      HDA3B    0.080000        1.0080           0   0.00000   0.00000
     21632 MEOH     715      MEOH     H1B      HDA3B    0.080000        1.0080           0   0.00000   0.00000
     21633 MEOH     715      MEOH     H1C      HDA3B    0.080000        1.0080           0   0.00000   0.00000
     21634 MEOH     715      MEOH     LP1A     LPD     -0.230000        0.0000           -1   0.00000   0.00000
     21635 MEOH     715      MEOH     LP1B     LPD     -0.230000        0.0000           -1   0.00000   0.00000
     21636 MEOH     716      MEOH     C1       CD33B    2.314100       11.6110           0   -1.00000   1.30000
     21637 MEOH     716      MEOH     DC1      DRUD    -2.454100        0.4000           0   0.00000   0.00000
     21638 MEOH     716      MEOH     O1       OD31H    2.488300       15.5990           0   -1.02800   1.30000
     21639 MEOH     716      MEOH     DO1      DRUD    -2.488300        0.4000           0   0.00000   0.00000
     21640 MEOH     716      MEOH     HO1      HDP1A    0.360000        1.0080           0   0.00000   0.00000
     21641 MEOH     716      MEOH     HO2      DUMH     0.000000        1.0080           0   0.00000   0.00000
     21642 MEOH     716      MEOH     H1A      HDA3B    0.080000        1.0080           0   0.00000   0.00000
     21643 MEOH     716      MEOH     H1B      HDA3B    0.080000        1.0080           0   0.00000   0.00000
     21644 MEOH     716      MEOH     H1C      HDA3B    0.080000        1.0080           0   0.00000   0.00000
     21645 MEOH     716      MEOH     LP1A     LPD     -0.230000        0.0000           -1   0.00000   0.00000
     21646 MEOH     716      MEOH     LP1B     LPD     -0.230000        0.0000           -1   0.00000   0.00000
     21647 MEOH     717      MEOH     C1       CD33B    2.314100       11.6110           0   -1.00000   1.30000
     21648 MEOH     717      MEOH     DC1      DRUD    -2.454100        0.4000           0   0.00000   0.00000
     21649 MEOH     717      MEOH     O1       OD31H    2.488300       15.5990           0   -1.02800   1.30000
     21650 MEOH     717      MEOH     DO1      DRUD    -2.488300        0.4000           0   0.00000   0.00000
     21651 MEOH     717      MEOH     HO1      HDP1A    0.360000        1.0080           0   0.00000   0.00000
     21652 MEOH     717      MEOH     HO2      DUMH     0.000000        1.0080           0   0.00000   0.00000
     21653 MEOH     717      MEOH     H1A      HDA3B    0.080000        1.0080           0   0.00000   0.00000
     21654 MEOH     717      MEOH     H1B      HDA3B    0.080000        1.0080           0   0.00000   0.00000
     21655 MEOH     717      MEOH     H1C      HDA3B    0.080000        1.0080           0   0.00000   0.00000
     21656 MEOH     717      MEOH     LP1A     LPD     -0.230000        0.0000           -1   0.00000   0.00000
     21657 MEOH     717      MEOH     LP1B     LPD     -0.230000        0.0000           -1   0.00000   0.00000
     21658 MEOH     718      MEOH     C1       CD33B    2.314100       11.6110           0   -1.00000   1.30000
     21659 MEOH     718      MEOH     DC1      DRUD    -2.454100        0.4000           0   0.00000   0.00000
     21660 MEOH     718      MEOH     O1       OD31H    2.488300       15.5990           0   -1.02800   1.30000
     21661 MEOH     718      MEOH     DO1      DRUD    -2.488300        0.4000           0   0.00000   0.00000
     21662 MEOH     718      MEOH     HO1      HDP1A    0.360000        1.0080           0   0.00000   0.00000
     21663 MEOH     718      MEOH     HO2      DUMH     0.000000        1.0080           0   0.00000   0.00000
     21664 MEOH     718      MEOH     H1A      HDA3B    0.080000        1.0080           0   0.00000   0.00000
     21665 MEOH     718      MEOH     H1B      HDA3B    0.080000        1.0080           0   0.00000   0.00000
     21666 MEOH     718      MEOH     H1C      HDA3B    0.080000        1.0080           0   0.00000   0.00000
     21667 MEOH     718      MEOH     LP1A     LPD     -0.230000        0.0000           -1   0.00000   0.00000
     21668 MEOH     718      MEOH     LP1B     LPD     -0.230000        0.0000           -1   0.00000   0.00000
     21669 MEOH     719      MEOH     C1       CD33B    2.314100       11.6110           0   -1.00000   1.30000
     21670 MEOH     719      MEOH     DC1      DRUD    -2.454100        0.4000           0   0.00000   0.00000
     21671 MEOH     719      MEOH     O1       OD31H    2.488300       15.5990           0   -1.02800   1.30000
     21672 MEOH     719      MEOH     DO1      DRUD    -2.488300        0.4000           0   0.00000   0.00000
     21673 MEOH     719      MEOH     HO1      HDP1A    0.360000        1.0080           0   0.00000   0.00000
     21674 MEOH     719      MEOH     HO2      DUMH     0.000000        1.0080           0   0.00000   0.00000
     21675 MEOH     719      MEOH     H1A      HDA3B    0.080000        1.0080           0   0.00000   0.00000
     21676 MEOH     719      MEOH     H1B      HDA3B    0.080000        1.0080           0   0.00000   0.00000
     21677 MEOH     719      MEOH     H1C      HDA3B    0.080000        1.0080           0   0.00000   0.00000
     21678 MEOH     719      MEOH     LP1A     LPD     -0.230000        0.0000           -1   0.00000   0.00000
     21679 MEOH     719      MEOH     LP1B     LPD     -0.230000        0.0000           -1   0.00000   0.00000
     21680 MEOH     720      MEOH     C1       CD33B    2.314100       11.6110           0   -1.00000   1.30000
     21681 MEOH     720      MEOH     DC1      DRUD    -2.454100        0.4000           0   0.00000   0.00000
     21682 MEOH     720      MEOH     O1       OD31H    2.488300       15.5990           0   -1.02800   1.30000
     21683 MEOH     720      MEOH     DO1      DRUD    -2.488300        0.4000           0   0.00000   0.00000
     21684 MEOH     720      MEOH     HO1      HDP1A    0.360000        1.0080           0   0.00000   0.00000
     21685 MEOH     720      MEOH     HO2      DUMH     0.000000        1.0080           0   0.00000   0.00000
     21686 MEOH     720      MEOH     H1A      HDA3B    0.080000        1.0080           0   0.00000   0.00000
     21687 MEOH     720      MEOH     H1B      HDA3B    0.080000        1.0080           0   0.00000   0.00000
     21688 MEOH     720      MEOH     H1C      HDA3B    0.080000        1.0080           0   0.00000   0.00000
     21689 MEOH     720      MEOH     LP1A     LPD     -0.230000        0.0000           -1   0.00000   0.00000
     21690 MEOH     720      MEOH     LP1B     LPD     -0.230000        0.0000           -1   0.00000   0.00000
     21691 MEOH     721      MEOH     C1       CD33B    2.314100       11.6110           0   -1.00000   1.30000
     21692 MEOH     721      MEOH     DC1      DRUD    -2.454100        0.4000           0   0.00000   0.00000
     21693 MEOH     721      MEOH     O1       OD31H    2.488300       15.5990           0   -1.02800   1.30000
     21694 MEOH     721      MEOH     DO1      DRUD    -2.488300        0.4000           0   0.00000   0.00000
     21695 MEOH     721      MEOH     HO1      HDP1A    0.360000        1.0080           0   0.00000   0.00000
     21696 MEOH     721      MEOH     HO2      DUMH     0.000000        1.0080           0   0.00000   0.00000
     21697 MEOH     721      MEOH     H1A      HDA3B    0.080000        1.0080           0   0.00000   0.00000
     21698 MEOH     721      MEOH     H1B      HDA3B    0.080000        1.0080           0   0.00000   0.00000
     21699 MEOH     721      MEOH     H1C      HDA3B    0.080000        1.0080           0   0.00000   0.00000
     21700 MEOH     721      MEOH     LP1A     LPD     -0.230000        0.0000           -1   0.00000   0.00000
     21701 MEOH     721      MEOH     LP1B     LPD     -0.230000        0.0000           -1   0.00000   0.00000
     21702 MEOH     722      MEOH     C1       CD33B    2.314100       11.6110           0   -1.00000   1.30000
     21703 MEOH     722      MEOH     DC1      DRUD    -2.454100        0.4000           0   0.00000   0.00000
     21704 MEOH     722      MEOH     O1       OD31H    2.488300       15.5990           0   -1.02800   1.30000
     21705 MEOH     722      MEOH     DO1      DRUD    -2.488300        0.4000           0   0.00000   0.00000
     21706 MEOH     722      MEOH     HO1      HDP1A    0.360000        1.0080           0   0.00000   0.00000
     21707 MEOH     722      MEOH     HO2      DUMH     0.000000        1.0080           0   0.00000   0.00000
     21708 MEOH     722      MEOH     H1A      HDA3B    0.080000        1.0080           0   0.00000   0.00000
     21709 MEOH     722      MEOH     H1B      HDA3B    0.080000        1.0080           0   0.00000   0.00000
     21710 MEOH     722      MEOH     H1C      HDA3B    0.080000        1.0080           0   0.00000   0.00000
     21711 MEOH     722      MEOH     LP1A     LPD     -0.230000        0.0000           -1   0.00000   0.00000
     21712 MEOH     722      MEOH     LP1B     LPD     -0.230000        0.0000           -1   0.00000   0.00000
     21713 MEOH     723      MEOH     C1       CD33B    2.314100       11.6110           0   -1.00000   1.30000
     21714 MEOH     723      MEOH     DC1      DRUD    -2.454100        0.4000           0   0.00000   0.00000
     21715 MEOH     723      MEOH     O1       OD31H    2.488300       15.5990           0   -1.02800   1.30000
     21716 MEOH     723      MEOH     DO1      DRUD    -2.488300        0.4000           0   0.00000   0.00000
     21717 MEOH     723      MEOH     HO1      HDP1A    0.360000        1.0080           0   0.00000   0.00000
     21718 MEOH     723      MEOH     HO2      DUMH     0.000000        1.0080           0   0.00000   0.00000
     21719 MEOH     723      MEOH     H1A      HDA3B    0.080000        1.0080           0   0.00000   0.00000
     21720 MEOH     723      MEOH     H1B      HDA3B    0.080000        1.0080           0   0.00000   0.00000
     21721 MEOH     723      MEOH     H1C      HDA3B    0.080000        1.0080           0   0.00000   0.00000
     21722 MEOH     723      MEOH     LP1A     LPD     -0.230000        0.0000           -1   0.00000   0.00000
     21723 MEOH     723      MEOH     LP1B     LPD     -0.230000        0.0000           -1   0.00000   0.00000
     21724 MEOH     724      MEOH     C1       CD33B    2.314100       11.6110           0   -1.00000   1.30000
     21725 MEOH     724      MEOH     DC1      DRUD    -2.454100        0.4000           0   0.00000   0.00000
     21726 MEOH     724      MEOH     O1       OD31H    2.488300       15.5990           0   -1.02800   1.30000
     21727 MEOH     724      MEOH     DO1      DRUD    -2.488300        0.4000           0   0.00000   0.00000
     21728 MEOH     724      MEOH     HO1      HDP1A    0.360000        1.0080           0   0.00000   0.00000
     21729 MEOH     724      MEOH     HO2      DUMH     0.000000        1.0080           0   0.00000   0.00000
     21730 MEOH     724      MEOH     H1A      HDA3B    0.080000        1.0080           0   0.00000   0.00000
     21731 MEOH     724      MEOH     H1B      HDA3B    0.080000        1.0080           0   0.00000   0.00000
     21732 MEOH     724      MEOH     H1C      HDA3B    0.080000        1.0080           0   0.00000   0.00000
     21733 MEOH     724      MEOH     LP1A     LPD     -0.230000        0.0000           -1   0.00000   0.00000
     21734 MEOH     724      MEOH     LP1B     LPD     -0.230000        0.0000           -1   0.00000   0.00000
     21735 MEOH     725      MEOH     C1       CD33B    2.314100       11.6110           0   -1.00000   1.30000
     21736 MEOH     725      MEOH     DC1      DRUD    -2.454100        0.4000           0   0.00000   0.00000
     21737 MEOH     725      MEOH     O1       OD31H    2.488300       15.5990           0   -1.02800   1.30000
     21738 MEOH     725      MEOH     DO1      DRUD    -2.488300        0.4000           0   0.00000   0.00000
     21739 MEOH     725      MEOH     HO1      HDP1A    0.360000        1.0080           0   0.00000   0.00000
     21740 MEOH     725      MEOH     HO2      DUMH     0.000000        1.0080           0   0.00000   0.00000
     21741 MEOH     725      MEOH     H1A      HDA3B    0.080000        1.0080           0   0.00000   0.00000
     21742 MEOH     725      MEOH     H1B      HDA3B    0.080000        1.0080           0   0.00000   0.00000
     21743 MEOH     725      MEOH     H1C      HDA3B    0.080000        1.0080           0   0.00000   0.00000
     21744 MEOH     725      MEOH     LP1A     LPD     -0.230000        0.0000           -1   0.00000   0.00000
     21745 MEOH     725      MEOH     LP1B     LPD     -0.230000        0.0000           -1   0.00000   0.00000
     21746 MEOH     726      MEOH     C1       CD33B    2.314100       11.6110           0   -1.00000   1.30000
     21747 MEOH     726      MEOH     DC1      DRUD    -2.454100        0.4000           0   0.00000   0.00000
     21748 MEOH     726      MEOH     O1       OD31H    2.488300       15.5990           0   -1.02800   1.30000
     21749 MEOH     726      MEOH     DO1      DRUD    -2.488300        0.4000           0   0.00000   0.00000
     21750 MEOH     726      MEOH     HO1      HDP1A    0.360000        1.0080           0   0.00000   0.00000
     21751 MEOH     726      MEOH     HO2      DUMH     0.000000        1.0080           0   0.00000   0.00000
     21752 MEOH     726      MEOH     H1A      HDA3B    0.080000        1.0080           0   0.00000   0.00000
     21753 MEOH     726      MEOH     H1B      HDA3B    0.080000        1.0080           0   0.00000   0.00000
     21754 MEOH     726      MEOH     H1C      HDA3B    0.080000        1.0080           0   0.00000   0.00000
     21755 MEOH     726      MEOH     LP1A     LPD     -0.230000        0.0000           -1   0.00000   0.00000
     21756 MEOH     726      MEOH     LP1B     LPD     -0.230000        0.0000           -1   0.00000   0.00000
     21757 MEOH     727      MEOH     C1       CD33B    2.314100       11.6110           0   -1.00000   1.30000
     21758 MEOH     727      MEOH     DC1      DRUD    -2.454100        0.4000           0   0.00000   0.00000
     21759 MEOH     727      MEOH     O1       OD31H    2.488300       15.5990           0   -1.02800   1.30000
     21760 MEOH     727      MEOH     DO1      DRUD    -2.488300        0.4000           0   0.00000   0.00000
     21761 MEOH     727      MEOH     HO1      HDP1A    0.360000        1.0080           0   0.00000   0.00000
     21762 MEOH     727      MEOH     HO2      DUMH     0.000000        1.0080           0   0.00000   0.00000
     21763 MEOH     727      MEOH     H1A      HDA3B    0.080000        1.0080           0   0.00000   0.00000
     21764 MEOH     727      MEOH     H1B      HDA3B    0.080000        1.0080           0   0.00000   0.00000
     21765 MEOH     727      MEOH     H1C      HDA3B    0.080000        1.0080           0   0.00000   0.00000
     21766 MEOH     727      MEOH     LP1A     LPD     -0.230000        0.0000           -1   0.00000   0.00000
     21767 MEOH     727      MEOH     LP1B     LPD     -0.230000        0.0000           -1   0.00000   0.00000
     21768 MEOH     728      MEOH     C1       CD33B    2.314100       11.6110           0   -1.00000   1.30000
     21769 MEOH     728      MEOH     DC1      DRUD    -2.454100        0.4000           0   0.00000   0.00000
     21770 MEOH     728      MEOH     O1       OD31H    2.488300       15.5990           0   -1.02800   1.30000
     21771 MEOH     728      MEOH     DO1      DRUD    -2.488300        0.4000           0   0.00000   0.00000
     21772 MEOH     728      MEOH     HO1      HDP1A    0.360000        1.0080           0   0.00000   0.00000
     21773 MEOH     728      MEOH     HO2      DUMH     0.000000        1.0080           0   0.00000   0.00000
     21774 MEOH     728      MEOH     H1A      HDA3B    0.080000        1.0080           0   0.00000   0.00000
     21775 MEOH     728      MEOH     H1B      HDA3B    0.080000        1.0080           0   0.00000   0.00000
     21776 MEOH     728      MEOH     H1C      HDA3B    0.080000        1.0080           0   0.00000   0.00000
     21777 MEOH     728      MEOH     LP1A     LPD     -0.230000        0.0000           -1   0.00000   0.00000
     21778 MEOH     728      MEOH     LP1B     LPD     -0.230000        0.0000           -1   0.00000   0.00000
     21779 MEOH     729      MEOH     C1       CD33B    2.314100       11.6110           0   -1.00000   1.30000
     21780 MEOH     729      MEOH     DC1      DRUD    -2.454100        0.4000           0   0.00000   0.00000
     21781 MEOH     729      MEOH     O1       OD31H    2.488300       15.5990           0   -1.02800   1.30000
     21782 MEOH     729      MEOH     DO1      DRUD    -2.488300        0.4000           0   0.00000   0.00000
     21783 MEOH     729      MEOH     HO1      HDP1A    0.360000        1.0080           0   0.00000   0.00000
     21784 MEOH     729      MEOH     HO2      DUMH     0.000000        1.0080           0   0.00000   0.00000
     21785 MEOH     729      MEOH     H1A      HDA3B    0.080000        1.0080           0   0.00000   0.00000
     21786 MEOH     729      MEOH     H1B      HDA3B    0.080000        1.0080           0   0.00000   0.00000
     21787 MEOH     729      MEOH     H1C      HDA3B    0.080000        1.0080           0   0.00000   0.00000
     21788 MEOH     729      MEOH     LP1A     LPD     -0.230000        0.0000           -1   0.00000   0.00000
     21789 MEOH     729      MEOH     LP1B     LPD     -0.230000        0.0000           -1   0.00000   0.00000
     21790 MEOH     730      MEOH     C1       CD33B    2.314100       11.6110           0   -1.00000   1.30000
     21791 MEOH     730      MEOH     DC1      DRUD    -2.454100        0.4000           0   0.00000   0.00000
     21792 MEOH     730      MEOH     O1       OD31H    2.488300       15.5990           0   -1.02800   1.30000
     21793 MEOH     730      MEOH     DO1      DRUD    -2.488300        0.4000           0   0.00000   0.00000
     21794 MEOH     730      MEOH     HO1      HDP1A    0.360000        1.0080           0   0.00000   0.00000
     21795 MEOH     730      MEOH     HO2      DUMH     0.000000        1.0080           0   0.00000   0.00000
     21796 MEOH     730      MEOH     H1A      HDA3B    0.080000        1.0080           0   0.00000   0.00000
     21797 MEOH     730      MEOH     H1B      HDA3B    0.080000        1.0080           0   0.00000   0.00000
     21798 MEOH     730      MEOH     H1C      HDA3B    0.080000        1.0080           0   0.00000   0.00000
     21799 MEOH     730      MEOH     LP1A     LPD     -0.230000        0.0000           -1   0.00000   0.00000
     21800 MEOH     730      MEOH     LP1B     LPD     -0.230000        0.0000           -1   0.00000   0.00000
     21801 MEOH     731      MEOH     C1       CD33B    2.314100       11.6110           0   -1.00000   1.30000
     21802 MEOH     731      MEOH     DC1      DRUD    -2.454100        0.4000           0   0.00000   0.00000
     21803 MEOH     731      MEOH     O1       OD31H    2.488300       15.5990           0   -1.02800   1.30000
     21804 MEOH     731      MEOH     DO1      DRUD    -2.488300        0.4000           0   0.00000   0.00000
     21805 MEOH     731      MEOH     HO1      HDP1A    0.360000        1.0080           0   0.00000   0.00000
     21806 MEOH     731      MEOH     HO2      DUMH     0.000000        1.0080           0   0.00000   0.00000
     21807 MEOH     731      MEOH     H1A      HDA3B    0.080000        1.0080           0   0.00000   0.00000
     21808 MEOH     731      MEOH     H1B      HDA3B    0.080000        1.0080           0   0.00000   0.00000
     21809 MEOH     731      MEOH     H1C      HDA3B    0.080000        1.0080           0   0.00000   0.00000
     21810 MEOH     731      MEOH     LP1A     LPD     -0.230000        0.0000           -1   0.00000   0.00000
     21811 MEOH     731      MEOH     LP1B     LPD     -0.230000        0.0000           -1   0.00000   0.00000
     21812 MEOH     732      MEOH     C1       CD33B    2.314100       11.6110           0   -1.00000   1.30000
     21813 MEOH     732      MEOH     DC1      DRUD    -2.454100        0.4000           0   0.00000   0.00000
     21814 MEOH     732      MEOH     O1       OD31H    2.488300       15.5990           0   -1.02800   1.30000
     21815 MEOH     732      MEOH     DO1      DRUD    -2.488300        0.4000           0   0.00000   0.00000
     21816 MEOH     732      MEOH     HO1      HDP1A    0.360000        1.0080           0   0.00000   0.00000
     21817 MEOH     732      MEOH     HO2      DUMH     0.000000        1.0080           0   0.00000   0.00000
     21818 MEOH     732      MEOH     H1A      HDA3B    0.080000        1.0080           0   0.00000   0.00000
     21819 MEOH     732      MEOH     H1B      HDA3B    0.080000        1.0080           0   0.00000   0.00000
     21820 MEOH     732      MEOH     H1C      HDA3B    0.080000        1.0080           0   0.00000   0.00000
     21821 MEOH     732      MEOH     LP1A     LPD     -0.230000        0.0000           -1   0.00000   0.00000
     21822 MEOH     732      MEOH     LP1B     LPD     -0.230000        0.0000           -1   0.00000   0.00000
     21823 MEOH     733      MEOH     C1       CD33B    2.314100       11.6110           0   -1.00000   1.30000
     21824 MEOH     733      MEOH     DC1      DRUD    -2.454100        0.4000           0   0.00000   0.00000
     21825 MEOH     733      MEOH     O1       OD31H    2.488300       15.5990           0   -1.02800   1.30000
     21826 MEOH     733      MEOH     DO1      DRUD    -2.488300        0.4000           0   0.00000   0.00000
     21827 MEOH     733      MEOH     HO1      HDP1A    0.360000        1.0080           0   0.00000   0.00000
     21828 MEOH     733      MEOH     HO2      DUMH     0.000000        1.0080           0   0.00000   0.00000
     21829 MEOH     733      MEOH     H1A      HDA3B    0.080000        1.0080           0   0.00000   0.00000
     21830 MEOH     733      MEOH     H1B      HDA3B    0.080000        1.0080           0   0.00000   0.00000
     21831 MEOH     733      MEOH     H1C      HDA3B    0.080000        1.0080           0   0.00000   0.00000
     21832 MEOH     733      MEOH     LP1A     LPD     -0.230000        0.0000           -1   0.00000   0.00000
     21833 MEOH     733      MEOH     LP1B     LPD     -0.230000        0.0000           -1   0.00000   0.00000
     21834 MEOH     734      MEOH     C1       CD33B    2.314100       11.6110           0   -1.00000   1.30000
     21835 MEOH     734      MEOH     DC1      DRUD    -2.454100        0.4000           0   0.00000   0.00000
     21836 MEOH     734      MEOH     O1       OD31H    2.488300       15.5990           0   -1.02800   1.30000
     21837 MEOH     734      MEOH     DO1      DRUD    -2.488300        0.4000           0   0.00000   0.00000
     21838 MEOH     734      MEOH     HO1      HDP1A    0.360000        1.0080           0   0.00000   0.00000
     21839 MEOH     734      MEOH     HO2      DUMH     0.000000        1.0080           0   0.00000   0.00000
     21840 MEOH     734      MEOH     H1A      HDA3B    0.080000        1.0080           0   0.00000   0.00000
     21841 MEOH     734      MEOH     H1B      HDA3B    0.080000        1.0080           0   0.00000   0.00000
     21842 MEOH     734      MEOH     H1C      HDA3B    0.080000        1.0080           0   0.00000   0.00000
     21843 MEOH     734      MEOH     LP1A     LPD     -0.230000        0.0000           -1   0.00000   0.00000
     21844 MEOH     734      MEOH     LP1B     LPD     -0.230000        0.0000           -1   0.00000   0.00000
     21845 MEOH     735      MEOH     C1       CD33B    2.314100       11.6110           0   -1.00000   1.30000
     21846 MEOH     735      MEOH     DC1      DRUD    -2.454100        0.4000           0   0.00000   0.00000
     21847 MEOH     735      MEOH     O1       OD31H    2.488300       15.5990           0   -1.02800   1.30000
     21848 MEOH     735      MEOH     DO1      DRUD    -2.488300        0.4000           0   0.00000   0.00000
     21849 MEOH     735      MEOH     HO1      HDP1A    0.360000        1.0080           0   0.00000   0.00000
     21850 MEOH     735      MEOH     HO2      DUMH     0.000000        1.0080           0   0.00000   0.00000
     21851 MEOH     735      MEOH     H1A      HDA3B    0.080000        1.0080           0   0.00000   0.00000
     21852 MEOH     735      MEOH     H1B      HDA3B    0.080000        1.0080           0   0.00000   0.00000
     21853 MEOH     735      MEOH     H1C      HDA3B    0.080000        1.0080           0   0.00000   0.00000
     21854 MEOH     735      MEOH     LP1A     LPD     -0.230000        0.0000           -1   0.00000   0.00000
     21855 MEOH     735      MEOH     LP1B     LPD     -0.230000        0.0000           -1   0.00000   0.00000
     21856 MEOH     736      MEOH     C1       CD33B    2.314100       11.6110           0   -1.00000   1.30000
     21857 MEOH     736      MEOH     DC1      DRUD    -2.454100        0.4000           0   0.00000   0.00000
     21858 MEOH     736      MEOH     O1       OD31H    2.488300       15.5990           0   -1.02800   1.30000
     21859 MEOH     736      MEOH     DO1      DRUD    -2.488300        0.4000           0   0.00000   0.00000
     21860 MEOH     736      MEOH     HO1      HDP1A    0.360000        1.0080           0   0.00000   0.00000
     21861 MEOH     736      MEOH     HO2      DUMH     0.000000        1.0080           0   0.00000   0.00000
     21862 MEOH     736      MEOH     H1A      HDA3B    0.080000        1.0080           0   0.00000   0.00000
     21863 MEOH     736      MEOH     H1B      HDA3B    0.080000        1.0080           0   0.00000   0.00000
     21864 MEOH     736      MEOH     H1C      HDA3B    0.080000        1.0080           0   0.00000   0.00000
     21865 MEOH     736      MEOH     LP1A     LPD     -0.230000        0.0000           -1   0.00000   0.00000
     21866 MEOH     736      MEOH     LP1B     LPD     -0.230000        0.0000           -1   0.00000   0.00000
     21867 MEOH     737      MEOH     C1       CD33B    2.314100       11.6110           0   -1.00000   1.30000
     21868 MEOH     737      MEOH     DC1      DRUD    -2.454100        0.4000           0   0.00000   0.00000
     21869 MEOH     737      MEOH     O1       OD31H    2.488300       15.5990           0   -1.02800   1.30000
     21870 MEOH     737      MEOH     DO1      DRUD    -2.488300        0.4000           0   0.00000   0.00000
     21871 MEOH     737      MEOH     HO1      HDP1A    0.360000        1.0080           0   0.00000   0.00000
     21872 MEOH     737      MEOH     HO2      DUMH     0.000000        1.0080           0   0.00000   0.00000
     21873 MEOH     737      MEOH     H1A      HDA3B    0.080000        1.0080           0   0.00000   0.00000
     21874 MEOH     737      MEOH     H1B      HDA3B    0.080000        1.0080           0   0.00000   0.00000
     21875 MEOH     737      MEOH     H1C      HDA3B    0.080000        1.0080           0   0.00000   0.00000
     21876 MEOH     737      MEOH     LP1A     LPD     -0.230000        0.0000           -1   0.00000   0.00000
     21877 MEOH     737      MEOH     LP1B     LPD     -0.230000        0.0000           -1   0.00000   0.00000
     21878 MEOH     738      MEOH     C1       CD33B    2.314100       11.6110           0   -1.00000   1.30000
     21879 MEOH     738      MEOH     DC1      DRUD    -2.454100        0.4000           0   0.00000   0.00000
     21880 MEOH     738      MEOH     O1       OD31H    2.488300       15.5990           0   -1.02800   1.30000
     21881 MEOH     738      MEOH     DO1      DRUD    -2.488300        0.4000           0   0.00000   0.00000
     21882 MEOH     738      MEOH     HO1      HDP1A    0.360000        1.0080           0   0.00000   0.00000
     21883 MEOH     738      MEOH     HO2      DUMH     0.000000        1.0080           0   0.00000   0.00000
     21884 MEOH     738      MEOH     H1A      HDA3B    0.080000        1.0080           0   0.00000   0.00000
     21885 MEOH     738      MEOH     H1B      HDA3B    0.080000        1.0080           0   0.00000   0.00000
     21886 MEOH     738      MEOH     H1C      HDA3B    0.080000        1.0080           0   0.00000   0.00000
     21887 MEOH     738      MEOH     LP1A     LPD     -0.230000        0.0000           -1   0.00000   0.00000
     21888 MEOH     738      MEOH     LP1B     LPD     -0.230000        0.0000           -1   0.00000   0.00000
     21889 MEOH     739      MEOH     C1       CD33B    2.314100       11.6110           0   -1.00000   1.30000
     21890 MEOH     739      MEOH     DC1      DRUD    -2.454100        0.4000           0   0.00000   0.00000
     21891 MEOH     739      MEOH     O1       OD31H    2.488300       15.5990           0   -1.02800   1.30000
     21892 MEOH     739      MEOH     DO1      DRUD    -2.488300        0.4000           0   0.00000   0.00000
     21893 MEOH     739      MEOH     HO1      HDP1A    0.360000        1.0080           0   0.00000   0.00000
     21894 MEOH     739      MEOH     HO2      DUMH     0.000000        1.0080           0   0.00000   0.00000
     21895 MEOH     739      MEOH     H1A      HDA3B    0.080000        1.0080           0   0.00000   0.00000
     21896 MEOH     739      MEOH     H1B      HDA3B    0.080000        1.0080           0   0.00000   0.00000
     21897 MEOH     739      MEOH     H1C      HDA3B    0.080000        1.0080           0   0.00000   0.00000
     21898 MEOH     739      MEOH     LP1A     LPD     -0.230000        0.0000           -1   0.00000   0.00000
     21899 MEOH     739      MEOH     LP1B     LPD     -0.230000        0.0000           -1   0.00000   0.00000
     21900 MEOH     740      MEOH     C1       CD33B    2.314100       11.6110           0   -1.00000   1.30000
     21901 MEOH     740      MEOH     DC1      DRUD    -2.454100        0.4000           0   0.00000   0.00000
     21902 MEOH     740      MEOH     O1       OD31H    2.488300       15.5990           0   -1.02800   1.30000
     21903 MEOH     740      MEOH     DO1      DRUD    -2.488300        0.4000           0   0.00000   0.00000
     21904 MEOH     740      MEOH     HO1      HDP1A    0.360000        1.0080           0   0.00000   0.00000
     21905 MEOH     740      MEOH     HO2      DUMH     0.000000        1.0080           0   0.00000   0.00000
     21906 MEOH     740      MEOH     H1A      HDA3B    0.080000        1.0080           0   0.00000   0.00000
     21907 MEOH     740      MEOH     H1B      HDA3B    0.080000        1.0080           0   0.00000   0.00000
     21908 MEOH     740      MEOH     H1C      HDA3B    0.080000        1.0080           0   0.00000   0.00000
     21909 MEOH     740      MEOH     LP1A     LPD     -0.230000        0.0000           -1   0.00000   0.00000
     21910 MEOH     740      MEOH     LP1B     LPD     -0.230000        0.0000           -1   0.00000   0.00000
     21911 MEOH     741      MEOH     C1       CD33B    2.314100       11.6110           0   -1.00000   1.30000
     21912 MEOH     741      MEOH     DC1      DRUD    -2.454100        0.4000           0   0.00000   0.00000
     21913 MEOH     741      MEOH     O1       OD31H    2.488300       15.5990           0   -1.02800   1.30000
     21914 MEOH     741      MEOH     DO1      DRUD    -2.488300        0.4000           0   0.00000   0.00000
     21915 MEOH     741      MEOH     HO1      HDP1A    0.360000        1.0080           0   0.00000   0.00000
     21916 MEOH     741      MEOH     HO2      DUMH     0.000000        1.0080           0   0.00000   0.00000
     21917 MEOH     741      MEOH     H1A      HDA3B    0.080000        1.0080           0   0.00000   0.00000
     21918 MEOH     741      MEOH     H1B      HDA3B    0.080000        1.0080           0   0.00000   0.00000
     21919 MEOH     741      MEOH     H1C      HDA3B    0.080000        1.0080           0   0.00000   0.00000
     21920 MEOH     741      MEOH     LP1A     LPD     -0.230000        0.0000           -1   0.00000   0.00000
     21921 MEOH     741      MEOH     LP1B     LPD     -0.230000        0.0000           -1   0.00000   0.00000
     21922 MEOH     742      MEOH     C1       CD33B    2.314100       11.6110           0   -1.00000   1.30000
     21923 MEOH     742      MEOH     DC1      DRUD    -2.454100        0.4000           0   0.00000   0.00000
     21924 MEOH     742      MEOH     O1       OD31H    2.488300       15.5990           0   -1.02800   1.30000
     21925 MEOH     742      MEOH     DO1      DRUD    -2.488300        0.4000           0   0.00000   0.00000
     21926 MEOH     742      MEOH     HO1      HDP1A    0.360000        1.0080           0   0.00000   0.00000
     21927 MEOH     742      MEOH     HO2      DUMH     0.000000        1.0080           0   0.00000   0.00000
     21928 MEOH     742      MEOH     H1A      HDA3B    0.080000        1.0080           0   0.00000   0.00000
     21929 MEOH     742      MEOH     H1B      HDA3B    0.080000        1.0080           0   0.00000   0.00000
     21930 MEOH     742      MEOH     H1C      HDA3B    0.080000        1.0080           0   0.00000   0.00000
     21931 MEOH     742      MEOH     LP1A     LPD     -0.230000        0.0000           -1   0.00000   0.00000
     21932 MEOH     742      MEOH     LP1B     LPD     -0.230000        0.0000           -1   0.00000   0.00000
     21933 MEOH     743      MEOH     C1       CD33B    2.314100       11.6110           0   -1.00000   1.30000
     21934 MEOH     743      MEOH     DC1      DRUD    -2.454100        0.4000           0   0.00000   0.00000
     21935 MEOH     743      MEOH     O1       OD31H    2.488300       15.5990           0   -1.02800   1.30000
     21936 MEOH     743      MEOH     DO1      DRUD    -2.488300        0.4000           0   0.00000   0.00000
     21937 MEOH     743      MEOH     HO1      HDP1A    0.360000        1.0080           0   0.00000   0.00000
     21938 MEOH     743      MEOH     HO2      DUMH     0.000000        1.0080           0   0.00000   0.00000
     21939 MEOH     743      MEOH     H1A      HDA3B    0.080000        1.0080           0   0.00000   0.00000
     21940 MEOH     743      MEOH     H1B      HDA3B    0.080000        1.0080           0   0.00000   0.00000
     21941 MEOH     743      MEOH     H1C      HDA3B    0.080000        1.0080           0   0.00000   0.00000
     21942 MEOH     743      MEOH     LP1A     LPD     -0.230000        0.0000           -1   0.00000   0.00000
     21943 MEOH     743      MEOH     LP1B     LPD     -0.230000        0.0000           -1   0.00000   0.00000
     21944 MEOH     744      MEOH     C1       CD33B    2.314100       11.6110           0   -1.00000   1.30000
     21945 MEOH     744      MEOH     DC1      DRUD    -2.454100        0.4000           0   0.00000   0.00000
     21946 MEOH     744      MEOH     O1       OD31H    2.488300       15.5990           0   -1.02800   1.30000
     21947 MEOH     744      MEOH     DO1      DRUD    -2.488300        0.4000           0   0.00000   0.00000
     21948 MEOH     744      MEOH     HO1      HDP1A    0.360000        1.0080           0   0.00000   0.00000
     21949 MEOH     744      MEOH     HO2      DUMH     0.000000        1.0080           0   0.00000   0.00000
     21950 MEOH     744      MEOH     H1A      HDA3B    0.080000        1.0080           0   0.00000   0.00000
     21951 MEOH     744      MEOH     H1B      HDA3B    0.080000        1.0080           0   0.00000   0.00000
     21952 MEOH     744      MEOH     H1C      HDA3B    0.080000        1.0080           0   0.00000   0.00000
     21953 MEOH     744      MEOH     LP1A     LPD     -0.230000        0.0000           -1   0.00000   0.00000
     21954 MEOH     744      MEOH     LP1B     LPD     -0.230000        0.0000           -1   0.00000   0.00000
     21955 MEOH     745      MEOH     C1       CD33B    2.314100       11.6110           0   -1.00000   1.30000
     21956 MEOH     745      MEOH     DC1      DRUD    -2.454100        0.4000           0   0.00000   0.00000
     21957 MEOH     745      MEOH     O1       OD31H    2.488300       15.5990           0   -1.02800   1.30000
     21958 MEOH     745      MEOH     DO1      DRUD    -2.488300        0.4000           0   0.00000   0.00000
     21959 MEOH     745      MEOH     HO1      HDP1A    0.360000        1.0080           0   0.00000   0.00000
     21960 MEOH     745      MEOH     HO2      DUMH     0.000000        1.0080           0   0.00000   0.00000
     21961 MEOH     745      MEOH     H1A      HDA3B    0.080000        1.0080           0   0.00000   0.00000
     21962 MEOH     745      MEOH     H1B      HDA3B    0.080000        1.0080           0   0.00000   0.00000
     21963 MEOH     745      MEOH     H1C      HDA3B    0.080000        1.0080           0   0.00000   0.00000
     21964 MEOH     745      MEOH     LP1A     LPD     -0.230000        0.0000           -1   0.00000   0.00000
     21965 MEOH     745      MEOH     LP1B     LPD     -0.230000        0.0000           -1   0.00000   0.00000
     21966 MEOH     746      MEOH     C1       CD33B    2.314100       11.6110           0   -1.00000   1.30000
     21967 MEOH     746      MEOH     DC1      DRUD    -2.454100        0.4000           0   0.00000   0.00000
     21968 MEOH     746      MEOH     O1       OD31H    2.488300       15.5990           0   -1.02800   1.30000
     21969 MEOH     746      MEOH     DO1      DRUD    -2.488300        0.4000           0   0.00000   0.00000
     21970 MEOH     746      MEOH     HO1      HDP1A    0.360000        1.0080           0   0.00000   0.00000
     21971 MEOH     746      MEOH     HO2      DUMH     0.000000        1.0080           0   0.00000   0.00000
     21972 MEOH     746      MEOH     H1A      HDA3B    0.080000        1.0080           0   0.00000   0.00000
     21973 MEOH     746      MEOH     H1B      HDA3B    0.080000        1.0080           0   0.00000   0.00000
     21974 MEOH     746      MEOH     H1C      HDA3B    0.080000        1.0080           0   0.00000   0.00000
     21975 MEOH     746      MEOH     LP1A     LPD     -0.230000        0.0000           -1   0.00000   0.00000
     21976 MEOH     746      MEOH     LP1B     LPD     -0.230000        0.0000           -1   0.00000   0.00000
     21977 MEOH     747      MEOH     C1       CD33B    2.314100       11.6110           0   -1.00000   1.30000
     21978 MEOH     747      MEOH     DC1      DRUD    -2.454100        0.4000           0   0.00000   0.00000
     21979 MEOH     747      MEOH     O1       OD31H    2.488300       15.5990           0   -1.02800   1.30000
     21980 MEOH     747      MEOH     DO1      DRUD    -2.488300        0.4000           0   0.00000   0.00000
     21981 MEOH     747      MEOH     HO1      HDP1A    0.360000        1.0080           0   0.00000   0.00000
     21982 MEOH     747      MEOH     HO2      DUMH     0.000000        1.0080           0   0.00000   0.00000
     21983 MEOH     747      MEOH     H1A      HDA3B    0.080000        1.0080           0   0.00000   0.00000
     21984 MEOH     747      MEOH     H1B      HDA3B    0.080000        1.0080           0   0.00000   0.00000
     21985 MEOH     747      MEOH     H1C      HDA3B    0.080000        1.0080           0   0.00000   0.00000
     21986 MEOH     747      MEOH     LP1A     LPD     -0.230000        0.0000           -1   0.00000   0.00000
     21987 MEOH     747      MEOH     LP1B     LPD     -0.230000        0.0000           -1   0.00000   0.00000
     21988 MEOH     748      MEOH     C1       CD33B    2.314100       11.6110           0   -1.00000   1.30000
     21989 MEOH     748      MEOH     DC1      DRUD    -2.454100        0.4000           0   0.00000   0.00000
     21990 MEOH     748      MEOH     O1       OD31H    2.488300       15.5990           0   -1.02800   1.30000
     21991 MEOH     748      MEOH     DO1      DRUD    -2.488300        0.4000           0   0.00000   0.00000
     21992 MEOH     748      MEOH     HO1      HDP1A    0.360000        1.0080           0   0.00000   0.00000
     21993 MEOH     748      MEOH     HO2      DUMH     0.000000        1.0080           0   0.00000   0.00000
     21994 MEOH     748      MEOH     H1A      HDA3B    0.080000        1.0080           0   0.00000   0.00000
     21995 MEOH     748      MEOH     H1B      HDA3B    0.080000        1.0080           0   0.00000   0.00000
     21996 MEOH     748      MEOH     H1C      HDA3B    0.080000        1.0080           0   0.00000   0.00000
     21997 MEOH     748      MEOH     LP1A     LPD     -0.230000        0.0000           -1   0.00000   0.00000
     21998 MEOH     748      MEOH     LP1B     LPD     -0.230000        0.0000           -1   0.00000   0.00000
     21999 MEOH     749      MEOH     C1       CD33B    2.314100       11.6110           0   -1.00000   1.30000
     22000 MEOH     749      MEOH     DC1      DRUD    -2.454100        0.4000           0   0.00000   0.00000
     22001 MEOH     749      MEOH     O1       OD31H    2.488300       15.5990           0   -1.02800   1.30000
     22002 MEOH     749      MEOH     DO1      DRUD    -2.488300        0.4000           0   0.00000   0.00000
     22003 MEOH     749      MEOH     HO1      HDP1A    0.360000        1.0080           0   0.00000   0.00000
     22004 MEOH     749      MEOH     HO2      DUMH     0.000000        1.0080           0   0.00000   0.00000
     22005 MEOH     749      MEOH     H1A      HDA3B    0.080000        1.0080           0   0.00000   0.00000
     22006 MEOH     749      MEOH     H1B      HDA3B    0.080000        1.0080           0   0.00000   0.00000
     22007 MEOH     749      MEOH     H1C      HDA3B    0.080000        1.0080           0   0.00000   0.00000
     22008 MEOH     749      MEOH     LP1A     LPD     -0.230000        0.0000           -1   0.00000   0.00000
     22009 MEOH     749      MEOH     LP1B     LPD     -0.230000        0.0000           -1   0.00000   0.00000
     22010 MEOH     750      MEOH     C1       CD33B    2.314100       11.6110           0   -1.00000   1.30000
     22011 MEOH     750      MEOH     DC1      DRUD    -2.454100        0.4000           0   0.00000   0.00000
     22012 MEOH     750      MEOH     O1       OD31H    2.488300       15.5990           0   -1.02800   1.30000
     22013 MEOH     750      MEOH     DO1      DRUD    -2.488300        0.4000           0   0.00000   0.00000
     22014 MEOH     750      MEOH     HO1      HDP1A    0.360000        1.0080           0   0.00000   0.00000
     22015 MEOH     750      MEOH     HO2      DUMH     0.000000        1.0080           0   0.00000   0.00000
     22016 MEOH     750      MEOH     H1A      HDA3B    0.080000        1.0080           0   0.00000   0.00000
     22017 MEOH     750      MEOH     H1B      HDA3B    0.080000        1.0080           0   0.00000   0.00000
     22018 MEOH     750      MEOH     H1C      HDA3B    0.080000        1.0080           0   0.00000   0.00000
     22019 MEOH     750      MEOH     LP1A     LPD     -0.230000        0.0000           -1   0.00000   0.00000
     22020 MEOH     750      MEOH     LP1B     LPD     -0.230000        0.0000           -1   0.00000   0.00000
     22021 MEOH     751      MEOH     C1       CD33B    2.314100       11.6110           0   -1.00000   1.30000
     22022 MEOH     751      MEOH     DC1      DRUD    -2.454100        0.4000           0   0.00000   0.00000
     22023 MEOH     751      MEOH     O1       OD31H    2.488300       15.5990           0   -1.02800   1.30000
     22024 MEOH     751      MEOH     DO1      DRUD    -2.488300        0.4000           0   0.00000   0.00000
     22025 MEOH     751      MEOH     HO1      HDP1A    0.360000        1.0080           0   0.00000   0.00000
     22026 MEOH     751      MEOH     HO2      DUMH     0.000000        1.0080           0   0.00000   0.00000
     22027 MEOH     751      MEOH     H1A      HDA3B    0.080000        1.0080           0   0.00000   0.00000
     22028 MEOH     751      MEOH     H1B      HDA3B    0.080000        1.0080           0   0.00000   0.00000
     22029 MEOH     751      MEOH     H1C      HDA3B    0.080000        1.0080           0   0.00000   0.00000
     22030 MEOH     751      MEOH     LP1A     LPD     -0.230000        0.0000           -1   0.00000   0.00000
     22031 MEOH     751      MEOH     LP1B     LPD     -0.230000        0.0000           -1   0.00000   0.00000
     22032 MEOH     752      MEOH     C1       CD33B    2.314100       11.6110           0   -1.00000   1.30000
     22033 MEOH     752      MEOH     DC1      DRUD    -2.454100        0.4000           0   0.00000   0.00000
     22034 MEOH     752      MEOH     O1       OD31H    2.488300       15.5990           0   -1.02800   1.30000
     22035 MEOH     752      MEOH     DO1      DRUD    -2.488300        0.4000           0   0.00000   0.00000
     22036 MEOH     752      MEOH     HO1      HDP1A    0.360000        1.0080           0   0.00000   0.00000
     22037 MEOH     752      MEOH     HO2      DUMH     0.000000        1.0080           0   0.00000   0.00000
     22038 MEOH     752      MEOH     H1A      HDA3B    0.080000        1.0080           0   0.00000   0.00000
     22039 MEOH     752      MEOH     H1B      HDA3B    0.080000        1.0080           0   0.00000   0.00000
     22040 MEOH     752      MEOH     H1C      HDA3B    0.080000        1.0080           0   0.00000   0.00000
     22041 MEOH     752      MEOH     LP1A     LPD     -0.230000        0.0000           -1   0.00000   0.00000
     22042 MEOH     752      MEOH     LP1B     LPD     -0.230000        0.0000           -1   0.00000   0.00000
     22043 MEOH     753      MEOH     C1       CD33B    2.314100       11.6110           0   -1.00000   1.30000
     22044 MEOH     753      MEOH     DC1      DRUD    -2.454100        0.4000           0   0.00000   0.00000
     22045 MEOH     753      MEOH     O1       OD31H    2.488300       15.5990           0   -1.02800   1.30000
     22046 MEOH     753      MEOH     DO1      DRUD    -2.488300        0.4000           0   0.00000   0.00000
     22047 MEOH     753      MEOH     HO1      HDP1A    0.360000        1.0080           0   0.00000   0.00000
     22048 MEOH     753      MEOH     HO2      DUMH     0.000000        1.0080           0   0.00000   0.00000
     22049 MEOH     753      MEOH     H1A      HDA3B    0.080000        1.0080           0   0.00000   0.00000
     22050 MEOH     753      MEOH     H1B      HDA3B    0.080000        1.0080           0   0.00000   0.00000
     22051 MEOH     753      MEOH     H1C      HDA3B    0.080000        1.0080           0   0.00000   0.00000
     22052 MEOH     753      MEOH     LP1A     LPD     -0.230000        0.0000           -1   0.00000   0.00000
     22053 MEOH     753      MEOH     LP1B     LPD     -0.230000        0.0000           -1   0.00000   0.00000
     22054 MEOH     754      MEOH     C1       CD33B    2.314100       11.6110           0   -1.00000   1.30000
     22055 MEOH     754      MEOH     DC1      DRUD    -2.454100        0.4000           0   0.00000   0.00000
     22056 MEOH     754      MEOH     O1       OD31H    2.488300       15.5990           0   -1.02800   1.30000
     22057 MEOH     754      MEOH     DO1      DRUD    -2.488300        0.4000           0   0.00000   0.00000
     22058 MEOH     754      MEOH     HO1      HDP1A    0.360000        1.0080           0   0.00000   0.00000
     22059 MEOH     754      MEOH     HO2      DUMH     0.000000        1.0080           0   0.00000   0.00000
     22060 MEOH     754      MEOH     H1A      HDA3B    0.080000        1.0080           0   0.00000   0.00000
     22061 MEOH     754      MEOH     H1B      HDA3B    0.080000        1.0080           0   0.00000   0.00000
     22062 MEOH     754      MEOH     H1C      HDA3B    0.080000        1.0080           0   0.00000   0.00000
     22063 MEOH     754      MEOH     LP1A     LPD     -0.230000        0.0000           -1   0.00000   0.00000
     22064 MEOH     754      MEOH     LP1B     LPD     -0.230000        0.0000           -1   0.00000   0.00000
     22065 MEOH     755      MEOH     C1       CD33B    2.314100       11.6110           0   -1.00000   1.30000
     22066 MEOH     755      MEOH     DC1      DRUD    -2.454100        0.4000           0   0.00000   0.00000
     22067 MEOH     755      MEOH     O1       OD31H    2.488300       15.5990           0   -1.02800   1.30000
     22068 MEOH     755      MEOH     DO1      DRUD    -2.488300        0.4000           0   0.00000   0.00000
     22069 MEOH     755      MEOH     HO1      HDP1A    0.360000        1.0080           0   0.00000   0.00000
     22070 MEOH     755      MEOH     HO2      DUMH     0.000000        1.0080           0   0.00000   0.00000
     22071 MEOH     755      MEOH     H1A      HDA3B    0.080000        1.0080           0   0.00000   0.00000
     22072 MEOH     755      MEOH     H1B      HDA3B    0.080000        1.0080           0   0.00000   0.00000
     22073 MEOH     755      MEOH     H1C      HDA3B    0.080000        1.0080           0   0.00000   0.00000
     22074 MEOH     755      MEOH     LP1A     LPD     -0.230000        0.0000           -1   0.00000   0.00000
     22075 MEOH     755      MEOH     LP1B     LPD     -0.230000        0.0000           -1   0.00000   0.00000
     22076 MEOH     756      MEOH     C1       CD33B    2.314100       11.6110           0   -1.00000   1.30000
     22077 MEOH     756      MEOH     DC1      DRUD    -2.454100        0.4000           0   0.00000   0.00000
     22078 MEOH     756      MEOH     O1       OD31H    2.488300       15.5990           0   -1.02800   1.30000
     22079 MEOH     756      MEOH     DO1      DRUD    -2.488300        0.4000           0   0.00000   0.00000
     22080 MEOH     756      MEOH     HO1      HDP1A    0.360000        1.0080           0   0.00000   0.00000
     22081 MEOH     756      MEOH     HO2      DUMH     0.000000        1.0080           0   0.00000   0.00000
     22082 MEOH     756      MEOH     H1A      HDA3B    0.080000        1.0080           0   0.00000   0.00000
     22083 MEOH     756      MEOH     H1B      HDA3B    0.080000        1.0080           0   0.00000   0.00000
     22084 MEOH     756      MEOH     H1C      HDA3B    0.080000        1.0080           0   0.00000   0.00000
     22085 MEOH     756      MEOH     LP1A     LPD     -0.230000        0.0000           -1   0.00000   0.00000
     22086 MEOH     756      MEOH     LP1B     LPD     -0.230000        0.0000           -1   0.00000   0.00000
     22087 MEOH     757      MEOH     C1       CD33B    2.314100       11.6110           0   -1.00000   1.30000
     22088 MEOH     757      MEOH     DC1      DRUD    -2.454100        0.4000           0   0.00000   0.00000
     22089 MEOH     757      MEOH     O1       OD31H    2.488300       15.5990           0   -1.02800   1.30000
     22090 MEOH     757      MEOH     DO1      DRUD    -2.488300        0.4000           0   0.00000   0.00000
     22091 MEOH     757      MEOH     HO1      HDP1A    0.360000        1.0080           0   0.00000   0.00000
     22092 MEOH     757      MEOH     HO2      DUMH     0.000000        1.0080           0   0.00000   0.00000
     22093 MEOH     757      MEOH     H1A      HDA3B    0.080000        1.0080           0   0.00000   0.00000
     22094 MEOH     757      MEOH     H1B      HDA3B    0.080000        1.0080           0   0.00000   0.00000
     22095 MEOH     757      MEOH     H1C      HDA3B    0.080000        1.0080           0   0.00000   0.00000
     22096 MEOH     757      MEOH     LP1A     LPD     -0.230000        0.0000           -1   0.00000   0.00000
     22097 MEOH     757      MEOH     LP1B     LPD     -0.230000        0.0000           -1   0.00000   0.00000
     22098 MEOH     758      MEOH     C1       CD33B    2.314100       11.6110           0   -1.00000   1.30000
     22099 MEOH     758      MEOH     DC1      DRUD    -2.454100        0.4000           0   0.00000   0.00000
     22100 MEOH     758      MEOH     O1       OD31H    2.488300       15.5990           0   -1.02800   1.30000
     22101 MEOH     758      MEOH     DO1      DRUD    -2.488300        0.4000           0   0.00000   0.00000
     22102 MEOH     758      MEOH     HO1      HDP1A    0.360000        1.0080           0   0.00000   0.00000
     22103 MEOH     758      MEOH     HO2      DUMH     0.000000        1.0080           0   0.00000   0.00000
     22104 MEOH     758      MEOH     H1A      HDA3B    0.080000        1.0080           0   0.00000   0.00000
     22105 MEOH     758      MEOH     H1B      HDA3B    0.080000        1.0080           0   0.00000   0.00000
     22106 MEOH     758      MEOH     H1C      HDA3B    0.080000        1.0080           0   0.00000   0.00000
     22107 MEOH     758      MEOH     LP1A     LPD     -0.230000        0.0000           -1   0.00000   0.00000
     22108 MEOH     758      MEOH     LP1B     LPD     -0.230000        0.0000           -1   0.00000   0.00000
     22109 MEOH     759      MEOH     C1       CD33B    2.314100       11.6110           0   -1.00000   1.30000
     22110 MEOH     759      MEOH     DC1      DRUD    -2.454100        0.4000           0   0.00000   0.00000
     22111 MEOH     759      MEOH     O1       OD31H    2.488300       15.5990           0   -1.02800   1.30000
     22112 MEOH     759      MEOH     DO1      DRUD    -2.488300        0.4000           0   0.00000   0.00000
     22113 MEOH     759      MEOH     HO1      HDP1A    0.360000        1.0080           0   0.00000   0.00000
     22114 MEOH     759      MEOH     HO2      DUMH     0.000000        1.0080           0   0.00000   0.00000
     22115 MEOH     759      MEOH     H1A      HDA3B    0.080000        1.0080           0   0.00000   0.00000
     22116 MEOH     759      MEOH     H1B      HDA3B    0.080000        1.0080           0   0.00000   0.00000
     22117 MEOH     759      MEOH     H1C      HDA3B    0.080000        1.0080           0   0.00000   0.00000
     22118 MEOH     759      MEOH     LP1A     LPD     -0.230000        0.0000           -1   0.00000   0.00000
     22119 MEOH     759      MEOH     LP1B     LPD     -0.230000        0.0000           -1   0.00000   0.00000
     22120 MEOH     760      MEOH     C1       CD33B    2.314100       11.6110           0   -1.00000   1.30000
     22121 MEOH     760      MEOH     DC1      DRUD    -2.454100        0.4000           0   0.00000   0.00000
     22122 MEOH     760      MEOH     O1       OD31H    2.488300       15.5990           0   -1.02800   1.30000
     22123 MEOH     760      MEOH     DO1      DRUD    -2.488300        0.4000           0   0.00000   0.00000
     22124 MEOH     760      MEOH     HO1      HDP1A    0.360000        1.0080           0   0.00000   0.00000
     22125 MEOH     760      MEOH     HO2      DUMH     0.000000        1.0080           0   0.00000   0.00000
     22126 MEOH     760      MEOH     H1A      HDA3B    0.080000        1.0080           0   0.00000   0.00000
     22127 MEOH     760      MEOH     H1B      HDA3B    0.080000        1.0080           0   0.00000   0.00000
     22128 MEOH     760      MEOH     H1C      HDA3B    0.080000        1.0080           0   0.00000   0.00000
     22129 MEOH     760      MEOH     LP1A     LPD     -0.230000        0.0000           -1   0.00000   0.00000
     22130 MEOH     760      MEOH     LP1B     LPD     -0.230000        0.0000           -1   0.00000   0.00000
     22131 MEOH     761      MEOH     C1       CD33B    2.314100       11.6110           0   -1.00000   1.30000
     22132 MEOH     761      MEOH     DC1      DRUD    -2.454100        0.4000           0   0.00000   0.00000
     22133 MEOH     761      MEOH     O1       OD31H    2.488300       15.5990           0   -1.02800   1.30000
     22134 MEOH     761      MEOH     DO1      DRUD    -2.488300        0.4000           0   0.00000   0.00000
     22135 MEOH     761      MEOH     HO1      HDP1A    0.360000        1.0080           0   0.00000   0.00000
     22136 MEOH     761      MEOH     HO2      DUMH     0.000000        1.0080           0   0.00000   0.00000
     22137 MEOH     761      MEOH     H1A      HDA3B    0.080000        1.0080           0   0.00000   0.00000
     22138 MEOH     761      MEOH     H1B      HDA3B    0.080000        1.0080           0   0.00000   0.00000
     22139 MEOH     761      MEOH     H1C      HDA3B    0.080000        1.0080           0   0.00000   0.00000
     22140 MEOH     761      MEOH     LP1A     LPD     -0.230000        0.0000           -1   0.00000   0.00000
     22141 MEOH     761      MEOH     LP1B     LPD     -0.230000        0.0000           -1   0.00000   0.00000
     22142 MEOH     762      MEOH     C1       CD33B    2.314100       11.6110           0   -1.00000   1.30000
     22143 MEOH     762      MEOH     DC1      DRUD    -2.454100        0.4000           0   0.00000   0.00000
     22144 MEOH     762      MEOH     O1       OD31H    2.488300       15.5990           0   -1.02800   1.30000
     22145 MEOH     762      MEOH     DO1      DRUD    -2.488300        0.4000           0   0.00000   0.00000
     22146 MEOH     762      MEOH     HO1      HDP1A    0.360000        1.0080           0   0.00000   0.00000
     22147 MEOH     762      MEOH     HO2      DUMH     0.000000        1.0080           0   0.00000   0.00000
     22148 MEOH     762      MEOH     H1A      HDA3B    0.080000        1.0080           0   0.00000   0.00000
     22149 MEOH     762      MEOH     H1B      HDA3B    0.080000        1.0080           0   0.00000   0.00000
     22150 MEOH     762      MEOH     H1C      HDA3B    0.080000        1.0080           0   0.00000   0.00000
     22151 MEOH     762      MEOH     LP1A     LPD     -0.230000        0.0000           -1   0.00000   0.00000
     22152 MEOH     762      MEOH     LP1B     LPD     -0.230000        0.0000           -1   0.00000   0.00000
     22153 MEOH     763      MEOH     C1       CD33B    2.314100       11.6110           0   -1.00000   1.30000
     22154 MEOH     763      MEOH     DC1      DRUD    -2.454100        0.4000           0   0.00000   0.00000
     22155 MEOH     763      MEOH     O1       OD31H    2.488300       15.5990           0   -1.02800   1.30000
     22156 MEOH     763      MEOH     DO1      DRUD    -2.488300        0.4000           0   0.00000   0.00000
     22157 MEOH     763      MEOH     HO1      HDP1A    0.360000        1.0080           0   0.00000   0.00000
     22158 MEOH     763      MEOH     HO2      DUMH     0.000000        1.0080           0   0.00000   0.00000
     22159 MEOH     763      MEOH     H1A      HDA3B    0.080000        1.0080           0   0.00000   0.00000
     22160 MEOH     763      MEOH     H1B      HDA3B    0.080000        1.0080           0   0.00000   0.00000
     22161 MEOH     763      MEOH     H1C      HDA3B    0.080000        1.0080           0   0.00000   0.00000
     22162 MEOH     763      MEOH     LP1A     LPD     -0.230000        0.0000           -1   0.00000   0.00000
     22163 MEOH     763      MEOH     LP1B     LPD     -0.230000        0.0000           -1   0.00000   0.00000
     22164 MEOH     764      MEOH     C1       CD33B    2.314100       11.6110           0   -1.00000   1.30000
     22165 MEOH     764      MEOH     DC1      DRUD    -2.454100        0.4000           0   0.00000   0.00000
     22166 MEOH     764      MEOH     O1       OD31H    2.488300       15.5990           0   -1.02800   1.30000
     22167 MEOH     764      MEOH     DO1      DRUD    -2.488300        0.4000           0   0.00000   0.00000
     22168 MEOH     764      MEOH     HO1      HDP1A    0.360000        1.0080           0   0.00000   0.00000
     22169 MEOH     764      MEOH     HO2      DUMH     0.000000        1.0080           0   0.00000   0.00000
     22170 MEOH     764      MEOH     H1A      HDA3B    0.080000        1.0080           0   0.00000   0.00000
     22171 MEOH     764      MEOH     H1B      HDA3B    0.080000        1.0080           0   0.00000   0.00000
     22172 MEOH     764      MEOH     H1C      HDA3B    0.080000        1.0080           0   0.00000   0.00000
     22173 MEOH     764      MEOH     LP1A     LPD     -0.230000        0.0000           -1   0.00000   0.00000
     22174 MEOH     764      MEOH     LP1B     LPD     -0.230000        0.0000           -1   0.00000   0.00000
     22175 MEOH     765      MEOH     C1       CD33B    2.314100       11.6110           0   -1.00000   1.30000
     22176 MEOH     765      MEOH     DC1      DRUD    -2.454100        0.4000           0   0.00000   0.00000
     22177 MEOH     765      MEOH     O1       OD31H    2.488300       15.5990           0   -1.02800   1.30000
     22178 MEOH     765      MEOH     DO1      DRUD    -2.488300        0.4000           0   0.00000   0.00000
     22179 MEOH     765      MEOH     HO1      HDP1A    0.360000        1.0080           0   0.00000   0.00000
     22180 MEOH     765      MEOH     HO2      DUMH     0.000000        1.0080           0   0.00000   0.00000
     22181 MEOH     765      MEOH     H1A      HDA3B    0.080000        1.0080           0   0.00000   0.00000
     22182 MEOH     765      MEOH     H1B      HDA3B    0.080000        1.0080           0   0.00000   0.00000
     22183 MEOH     765      MEOH     H1C      HDA3B    0.080000        1.0080           0   0.00000   0.00000
     22184 MEOH     765      MEOH     LP1A     LPD     -0.230000        0.0000           -1   0.00000   0.00000
     22185 MEOH     765      MEOH     LP1B     LPD     -0.230000        0.0000           -1   0.00000   0.00000
     22186 MEOH     766      MEOH     C1       CD33B    2.314100       11.6110           0   -1.00000   1.30000
     22187 MEOH     766      MEOH     DC1      DRUD    -2.454100        0.4000           0   0.00000   0.00000
     22188 MEOH     766      MEOH     O1       OD31H    2.488300       15.5990           0   -1.02800   1.30000
     22189 MEOH     766      MEOH     DO1      DRUD    -2.488300        0.4000           0   0.00000   0.00000
     22190 MEOH     766      MEOH     HO1      HDP1A    0.360000        1.0080           0   0.00000   0.00000
     22191 MEOH     766      MEOH     HO2      DUMH     0.000000        1.0080           0   0.00000   0.00000
     22192 MEOH     766      MEOH     H1A      HDA3B    0.080000        1.0080           0   0.00000   0.00000
     22193 MEOH     766      MEOH     H1B      HDA3B    0.080000        1.0080           0   0.00000   0.00000
     22194 MEOH     766      MEOH     H1C      HDA3B    0.080000        1.0080           0   0.00000   0.00000
     22195 MEOH     766      MEOH     LP1A     LPD     -0.230000        0.0000           -1   0.00000   0.00000
     22196 MEOH     766      MEOH     LP1B     LPD     -0.230000        0.0000           -1   0.00000   0.00000
     22197 MEOH     767      MEOH     C1       CD33B    2.314100       11.6110           0   -1.00000   1.30000
     22198 MEOH     767      MEOH     DC1      DRUD    -2.454100        0.4000           0   0.00000   0.00000
     22199 MEOH     767      MEOH     O1       OD31H    2.488300       15.5990           0   -1.02800   1.30000
     22200 MEOH     767      MEOH     DO1      DRUD    -2.488300        0.4000           0   0.00000   0.00000
     22201 MEOH     767      MEOH     HO1      HDP1A    0.360000        1.0080           0   0.00000   0.00000
     22202 MEOH     767      MEOH     HO2      DUMH     0.000000        1.0080           0   0.00000   0.00000
     22203 MEOH     767      MEOH     H1A      HDA3B    0.080000        1.0080           0   0.00000   0.00000
     22204 MEOH     767      MEOH     H1B      HDA3B    0.080000        1.0080           0   0.00000   0.00000
     22205 MEOH     767      MEOH     H1C      HDA3B    0.080000        1.0080           0   0.00000   0.00000
     22206 MEOH     767      MEOH     LP1A     LPD     -0.230000        0.0000           -1   0.00000   0.00000
     22207 MEOH     767      MEOH     LP1B     LPD     -0.230000        0.0000           -1   0.00000   0.00000
     22208 MEOH     768      MEOH     C1       CD33B    2.314100       11.6110           0   -1.00000   1.30000
     22209 MEOH     768      MEOH     DC1      DRUD    -2.454100        0.4000           0   0.00000   0.00000
     22210 MEOH     768      MEOH     O1       OD31H    2.488300       15.5990           0   -1.02800   1.30000
     22211 MEOH     768      MEOH     DO1      DRUD    -2.488300        0.4000           0   0.00000   0.00000
     22212 MEOH     768      MEOH     HO1      HDP1A    0.360000        1.0080           0   0.00000   0.00000
     22213 MEOH     768      MEOH     HO2      DUMH     0.000000        1.0080           0   0.00000   0.00000
     22214 MEOH     768      MEOH     H1A      HDA3B    0.080000        1.0080           0   0.00000   0.00000
     22215 MEOH     768      MEOH     H1B      HDA3B    0.080000        1.0080           0   0.00000   0.00000
     22216 MEOH     768      MEOH     H1C      HDA3B    0.080000        1.0080           0   0.00000   0.00000
     22217 MEOH     768      MEOH     LP1A     LPD     -0.230000        0.0000           -1   0.00000   0.00000
     22218 MEOH     768      MEOH     LP1B     LPD     -0.230000        0.0000           -1   0.00000   0.00000
     22219 MEOH     769      MEOH     C1       CD33B    2.314100       11.6110           0   -1.00000   1.30000
     22220 MEOH     769      MEOH     DC1      DRUD    -2.454100        0.4000           0   0.00000   0.00000
     22221 MEOH     769      MEOH     O1       OD31H    2.488300       15.5990           0   -1.02800   1.30000
     22222 MEOH     769      MEOH     DO1      DRUD    -2.488300        0.4000           0   0.00000   0.00000
     22223 MEOH     769      MEOH     HO1      HDP1A    0.360000        1.0080           0   0.00000   0.00000
     22224 MEOH     769      MEOH     HO2      DUMH     0.000000        1.0080           0   0.00000   0.00000
     22225 MEOH     769      MEOH     H1A      HDA3B    0.080000        1.0080           0   0.00000   0.00000
     22226 MEOH     769      MEOH     H1B      HDA3B    0.080000        1.0080           0   0.00000   0.00000
     22227 MEOH     769      MEOH     H1C      HDA3B    0.080000        1.0080           0   0.00000   0.00000
     22228 MEOH     769      MEOH     LP1A     LPD     -0.230000        0.0000           -1   0.00000   0.00000
     22229 MEOH     769      MEOH     LP1B     LPD     -0.230000        0.0000           -1   0.00000   0.00000
     22230 MEOH     770      MEOH     C1       CD33B    2.314100       11.6110           0   -1.00000   1.30000
     22231 MEOH     770      MEOH     DC1      DRUD    -2.454100        0.4000           0   0.00000   0.00000
     22232 MEOH     770      MEOH     O1       OD31H    2.488300       15.5990           0   -1.02800   1.30000
     22233 MEOH     770      MEOH     DO1      DRUD    -2.488300        0.4000           0   0.00000   0.00000
     22234 MEOH     770      MEOH     HO1      HDP1A    0.360000        1.0080           0   0.00000   0.00000
     22235 MEOH     770      MEOH     HO2      DUMH     0.000000        1.0080           0   0.00000   0.00000
     22236 MEOH     770      MEOH     H1A      HDA3B    0.080000        1.0080           0   0.00000   0.00000
     22237 MEOH     770      MEOH     H1B      HDA3B    0.080000        1.0080           0   0.00000   0.00000
     22238 MEOH     770      MEOH     H1C      HDA3B    0.080000        1.0080           0   0.00000   0.00000
     22239 MEOH     770      MEOH     LP1A     LPD     -0.230000        0.0000           -1   0.00000   0.00000
     22240 MEOH     770      MEOH     LP1B     LPD     -0.230000        0.0000           -1   0.00000   0.00000
     22241 MEOH     771      MEOH     C1       CD33B    2.314100       11.6110           0   -1.00000   1.30000
     22242 MEOH     771      MEOH     DC1      DRUD    -2.454100        0.4000           0   0.00000   0.00000
     22243 MEOH     771      MEOH     O1       OD31H    2.488300       15.5990           0   -1.02800   1.30000
     22244 MEOH     771      MEOH     DO1      DRUD    -2.488300        0.4000           0   0.00000   0.00000
     22245 MEOH     771      MEOH     HO1      HDP1A    0.360000        1.0080           0   0.00000   0.00000
     22246 MEOH     771      MEOH     HO2      DUMH     0.000000        1.0080           0   0.00000   0.00000
     22247 MEOH     771      MEOH     H1A      HDA3B    0.080000        1.0080           0   0.00000   0.00000
     22248 MEOH     771      MEOH     H1B      HDA3B    0.080000        1.0080           0   0.00000   0.00000
     22249 MEOH     771      MEOH     H1C      HDA3B    0.080000        1.0080           0   0.00000   0.00000
     22250 MEOH     771      MEOH     LP1A     LPD     -0.230000        0.0000           -1   0.00000   0.00000
     22251 MEOH     771      MEOH     LP1B     LPD     -0.230000        0.0000           -1   0.00000   0.00000
     22252 MEOH     772      MEOH     C1       CD33B    2.314100       11.6110           0   -1.00000   1.30000
     22253 MEOH     772      MEOH     DC1      DRUD    -2.454100        0.4000           0   0.00000   0.00000
     22254 MEOH     772      MEOH     O1       OD31H    2.488300       15.5990           0   -1.02800   1.30000
     22255 MEOH     772      MEOH     DO1      DRUD    -2.488300        0.4000           0   0.00000   0.00000
     22256 MEOH     772      MEOH     HO1      HDP1A    0.360000        1.0080           0   0.00000   0.00000
     22257 MEOH     772      MEOH     HO2      DUMH     0.000000        1.0080           0   0.00000   0.00000
     22258 MEOH     772      MEOH     H1A      HDA3B    0.080000        1.0080           0   0.00000   0.00000
     22259 MEOH     772      MEOH     H1B      HDA3B    0.080000        1.0080           0   0.00000   0.00000
     22260 MEOH     772      MEOH     H1C      HDA3B    0.080000        1.0080           0   0.00000   0.00000
     22261 MEOH     772      MEOH     LP1A     LPD     -0.230000        0.0000           -1   0.00000   0.00000
     22262 MEOH     772      MEOH     LP1B     LPD     -0.230000        0.0000           -1   0.00000   0.00000
     22263 MEOH     773      MEOH     C1       CD33B    2.314100       11.6110           0   -1.00000   1.30000
     22264 MEOH     773      MEOH     DC1      DRUD    -2.454100        0.4000           0   0.00000   0.00000
     22265 MEOH     773      MEOH     O1       OD31H    2.488300       15.5990           0   -1.02800   1.30000
     22266 MEOH     773      MEOH     DO1      DRUD    -2.488300        0.4000           0   0.00000   0.00000
     22267 MEOH     773      MEOH     HO1      HDP1A    0.360000        1.0080           0   0.00000   0.00000
     22268 MEOH     773      MEOH     HO2      DUMH     0.000000        1.0080           0   0.00000   0.00000
     22269 MEOH     773      MEOH     H1A      HDA3B    0.080000        1.0080           0   0.00000   0.00000
     22270 MEOH     773      MEOH     H1B      HDA3B    0.080000        1.0080           0   0.00000   0.00000
     22271 MEOH     773      MEOH     H1C      HDA3B    0.080000        1.0080           0   0.00000   0.00000
     22272 MEOH     773      MEOH     LP1A     LPD     -0.230000        0.0000           -1   0.00000   0.00000
     22273 MEOH     773      MEOH     LP1B     LPD     -0.230000        0.0000           -1   0.00000   0.00000
     22274 MEOH     774      MEOH     C1       CD33B    2.314100       11.6110           0   -1.00000   1.30000
     22275 MEOH     774      MEOH     DC1      DRUD    -2.454100        0.4000           0   0.00000   0.00000
     22276 MEOH     774      MEOH     O1       OD31H    2.488300       15.5990           0   -1.02800   1.30000
     22277 MEOH     774      MEOH     DO1      DRUD    -2.488300        0.4000           0   0.00000   0.00000
     22278 MEOH     774      MEOH     HO1      HDP1A    0.360000        1.0080           0   0.00000   0.00000
     22279 MEOH     774      MEOH     HO2      DUMH     0.000000        1.0080           0   0.00000   0.00000
     22280 MEOH     774      MEOH     H1A      HDA3B    0.080000        1.0080           0   0.00000   0.00000
     22281 MEOH     774      MEOH     H1B      HDA3B    0.080000        1.0080           0   0.00000   0.00000
     22282 MEOH     774      MEOH     H1C      HDA3B    0.080000        1.0080           0   0.00000   0.00000
     22283 MEOH     774      MEOH     LP1A     LPD     -0.230000        0.0000           -1   0.00000   0.00000
     22284 MEOH     774      MEOH     LP1B     LPD     -0.230000        0.0000           -1   0.00000   0.00000
     22285 MEOH     775      MEOH     C1       CD33B    2.314100       11.6110           0   -1.00000   1.30000
     22286 MEOH     775      MEOH     DC1      DRUD    -2.454100        0.4000           0   0.00000   0.00000
     22287 MEOH     775      MEOH     O1       OD31H    2.488300       15.5990           0   -1.02800   1.30000
     22288 MEOH     775      MEOH     DO1      DRUD    -2.488300        0.4000           0   0.00000   0.00000
     22289 MEOH     775      MEOH     HO1      HDP1A    0.360000        1.0080           0   0.00000   0.00000
     22290 MEOH     775      MEOH     HO2      DUMH     0.000000        1.0080           0   0.00000   0.00000
     22291 MEOH     775      MEOH     H1A      HDA3B    0.080000        1.0080           0   0.00000   0.00000
     22292 MEOH     775      MEOH     H1B      HDA3B    0.080000        1.0080           0   0.00000   0.00000
     22293 MEOH     775      MEOH     H1C      HDA3B    0.080000        1.0080           0   0.00000   0.00000
     22294 MEOH     775      MEOH     LP1A     LPD     -0.230000        0.0000           -1   0.00000   0.00000
     22295 MEOH     775      MEOH     LP1B     LPD     -0.230000        0.0000           -1   0.00000   0.00000
     22296 MEOH     776      MEOH     C1       CD33B    2.314100       11.6110           0   -1.00000   1.30000
     22297 MEOH     776      MEOH     DC1      DRUD    -2.454100        0.4000           0   0.00000   0.00000
     22298 MEOH     776      MEOH     O1       OD31H    2.488300       15.5990           0   -1.02800   1.30000
     22299 MEOH     776      MEOH     DO1      DRUD    -2.488300        0.4000           0   0.00000   0.00000
     22300 MEOH     776      MEOH     HO1      HDP1A    0.360000        1.0080           0   0.00000   0.00000
     22301 MEOH     776      MEOH     HO2      DUMH     0.000000        1.0080           0   0.00000   0.00000
     22302 MEOH     776      MEOH     H1A      HDA3B    0.080000        1.0080           0   0.00000   0.00000
     22303 MEOH     776      MEOH     H1B      HDA3B    0.080000        1.0080           0   0.00000   0.00000
     22304 MEOH     776      MEOH     H1C      HDA3B    0.080000        1.0080           0   0.00000   0.00000
     22305 MEOH     776      MEOH     LP1A     LPD     -0.230000        0.0000           -1   0.00000   0.00000
     22306 MEOH     776      MEOH     LP1B     LPD     -0.230000        0.0000           -1   0.00000   0.00000
     22307 MEOH     777      MEOH     C1       CD33B    2.314100       11.6110           0   -1.00000   1.30000
     22308 MEOH     777      MEOH     DC1      DRUD    -2.454100        0.4000           0   0.00000   0.00000
     22309 MEOH     777      MEOH     O1       OD31H    2.488300       15.5990           0   -1.02800   1.30000
     22310 MEOH     777      MEOH     DO1      DRUD    -2.488300        0.4000           0   0.00000   0.00000
     22311 MEOH     777      MEOH     HO1      HDP1A    0.360000        1.0080           0   0.00000   0.00000
     22312 MEOH     777      MEOH     HO2      DUMH     0.000000        1.0080           0   0.00000   0.00000
     22313 MEOH     777      MEOH     H1A      HDA3B    0.080000        1.0080           0   0.00000   0.00000
     22314 MEOH     777      MEOH     H1B      HDA3B    0.080000        1.0080           0   0.00000   0.00000
     22315 MEOH     777      MEOH     H1C      HDA3B    0.080000        1.0080           0   0.00000   0.00000
     22316 MEOH     777      MEOH     LP1A     LPD     -0.230000        0.0000           -1   0.00000   0.00000
     22317 MEOH     777      MEOH     LP1B     LPD     -0.230000        0.0000           -1   0.00000   0.00000
     22318 MEOH     778      MEOH     C1       CD33B    2.314100       11.6110           0   -1.00000   1.30000
     22319 MEOH     778      MEOH     DC1      DRUD    -2.454100        0.4000           0   0.00000   0.00000
     22320 MEOH     778      MEOH     O1       OD31H    2.488300       15.5990           0   -1.02800   1.30000
     22321 MEOH     778      MEOH     DO1      DRUD    -2.488300        0.4000           0   0.00000   0.00000
     22322 MEOH     778      MEOH     HO1      HDP1A    0.360000        1.0080           0   0.00000   0.00000
     22323 MEOH     778      MEOH     HO2      DUMH     0.000000        1.0080           0   0.00000   0.00000
     22324 MEOH     778      MEOH     H1A      HDA3B    0.080000        1.0080           0   0.00000   0.00000
     22325 MEOH     778      MEOH     H1B      HDA3B    0.080000        1.0080           0   0.00000   0.00000
     22326 MEOH     778      MEOH     H1C      HDA3B    0.080000        1.0080           0   0.00000   0.00000
     22327 MEOH     778      MEOH     LP1A     LPD     -0.230000        0.0000           -1   0.00000   0.00000
     22328 MEOH     778      MEOH     LP1B     LPD     -0.230000        0.0000           -1   0.00000   0.00000
     22329 MEOH     779      MEOH     C1       CD33B    2.314100       11.6110           0   -1.00000   1.30000
     22330 MEOH     779      MEOH     DC1      DRUD    -2.454100        0.4000           0   0.00000   0.00000
     22331 MEOH     779      MEOH     O1       OD31H    2.488300       15.5990           0   -1.02800   1.30000
     22332 MEOH     779      MEOH     DO1      DRUD    -2.488300        0.4000           0   0.00000   0.00000
     22333 MEOH     779      MEOH     HO1      HDP1A    0.360000        1.0080           0   0.00000   0.00000
     22334 MEOH     779      MEOH     HO2      DUMH     0.000000        1.0080           0   0.00000   0.00000
     22335 MEOH     779      MEOH     H1A      HDA3B    0.080000        1.0080           0   0.00000   0.00000
     22336 MEOH     779      MEOH     H1B      HDA3B    0.080000        1.0080           0   0.00000   0.00000
     22337 MEOH     779      MEOH     H1C      HDA3B    0.080000        1.0080           0   0.00000   0.00000
     22338 MEOH     779      MEOH     LP1A     LPD     -0.230000        0.0000           -1   0.00000   0.00000
     22339 MEOH     779      MEOH     LP1B     LPD     -0.230000        0.0000           -1   0.00000   0.00000
     22340 MEOH     780      MEOH     C1       CD33B    2.314100       11.6110           0   -1.00000   1.30000
     22341 MEOH     780      MEOH     DC1      DRUD    -2.454100        0.4000           0   0.00000   0.00000
     22342 MEOH     780      MEOH     O1       OD31H    2.488300       15.5990           0   -1.02800   1.30000
     22343 MEOH     780      MEOH     DO1      DRUD    -2.488300        0.4000           0   0.00000   0.00000
     22344 MEOH     780      MEOH     HO1      HDP1A    0.360000        1.0080           0   0.00000   0.00000
     22345 MEOH     780      MEOH     HO2      DUMH     0.000000        1.0080           0   0.00000   0.00000
     22346 MEOH     780      MEOH     H1A      HDA3B    0.080000        1.0080           0   0.00000   0.00000
     22347 MEOH     780      MEOH     H1B      HDA3B    0.080000        1.0080           0   0.00000   0.00000
     22348 MEOH     780      MEOH     H1C      HDA3B    0.080000        1.0080           0   0.00000   0.00000
     22349 MEOH     780      MEOH     LP1A     LPD     -0.230000        0.0000           -1   0.00000   0.00000
     22350 MEOH     780      MEOH     LP1B     LPD     -0.230000        0.0000           -1   0.00000   0.00000
     22351 MEOH     781      MEOH     C1       CD33B    2.314100       11.6110           0   -1.00000   1.30000
     22352 MEOH     781      MEOH     DC1      DRUD    -2.454100        0.4000           0   0.00000   0.00000
     22353 MEOH     781      MEOH     O1       OD31H    2.488300       15.5990           0   -1.02800   1.30000
     22354 MEOH     781      MEOH     DO1      DRUD    -2.488300        0.4000           0   0.00000   0.00000
     22355 MEOH     781      MEOH     HO1      HDP1A    0.360000        1.0080           0   0.00000   0.00000
     22356 MEOH     781      MEOH     HO2      DUMH     0.000000        1.0080           0   0.00000   0.00000
     22357 MEOH     781      MEOH     H1A      HDA3B    0.080000        1.0080           0   0.00000   0.00000
     22358 MEOH     781      MEOH     H1B      HDA3B    0.080000        1.0080           0   0.00000   0.00000
     22359 MEOH     781      MEOH     H1C      HDA3B    0.080000        1.0080           0   0.00000   0.00000
     22360 MEOH     781      MEOH     LP1A     LPD     -0.230000        0.0000           -1   0.00000   0.00000
     22361 MEOH     781      MEOH     LP1B     LPD     -0.230000        0.0000           -1   0.00000   0.00000
     22362 MEOH     782      MEOH     C1       CD33B    2.314100       11.6110           0   -1.00000   1.30000
     22363 MEOH     782      MEOH     DC1      DRUD    -2.454100        0.4000           0   0.00000   0.00000
     22364 MEOH     782      MEOH     O1       OD31H    2.488300       15.5990           0   -1.02800   1.30000
     22365 MEOH     782      MEOH     DO1      DRUD    -2.488300        0.4000           0   0.00000   0.00000
     22366 MEOH     782      MEOH     HO1      HDP1A    0.360000        1.0080           0   0.00000   0.00000
     22367 MEOH     782      MEOH     HO2      DUMH     0.000000        1.0080           0   0.00000   0.00000
     22368 MEOH     782      MEOH     H1A      HDA3B    0.080000        1.0080           0   0.00000   0.00000
     22369 MEOH     782      MEOH     H1B      HDA3B    0.080000        1.0080           0   0.00000   0.00000
     22370 MEOH     782      MEOH     H1C      HDA3B    0.080000        1.0080           0   0.00000   0.00000
     22371 MEOH     782      MEOH     LP1A     LPD     -0.230000        0.0000           -1   0.00000   0.00000
     22372 MEOH     782      MEOH     LP1B     LPD     -0.230000        0.0000           -1   0.00000   0.00000
     22373 MEOH     783      MEOH     C1       CD33B    2.314100       11.6110           0   -1.00000   1.30000
     22374 MEOH     783      MEOH     DC1      DRUD    -2.454100        0.4000           0   0.00000   0.00000
     22375 MEOH     783      MEOH     O1       OD31H    2.488300       15.5990           0   -1.02800   1.30000
     22376 MEOH     783      MEOH     DO1      DRUD    -2.488300        0.4000           0   0.00000   0.00000
     22377 MEOH     783      MEOH     HO1      HDP1A    0.360000        1.0080           0   0.00000   0.00000
     22378 MEOH     783      MEOH     HO2      DUMH     0.000000        1.0080           0   0.00000   0.00000
     22379 MEOH     783      MEOH     H1A      HDA3B    0.080000        1.0080           0   0.00000   0.00000
     22380 MEOH     783      MEOH     H1B      HDA3B    0.080000        1.0080           0   0.00000   0.00000
     22381 MEOH     783      MEOH     H1C      HDA3B    0.080000        1.0080           0   0.00000   0.00000
     22382 MEOH     783      MEOH     LP1A     LPD     -0.230000        0.0000           -1   0.00000   0.00000
     22383 MEOH     783      MEOH     LP1B     LPD     -0.230000        0.0000           -1   0.00000   0.00000
     22384 MEOH     784      MEOH     C1       CD33B    2.314100       11.6110           0   -1.00000   1.30000
     22385 MEOH     784      MEOH     DC1      DRUD    -2.454100        0.4000           0   0.00000   0.00000
     22386 MEOH     784      MEOH     O1       OD31H    2.488300       15.5990           0   -1.02800   1.30000
     22387 MEOH     784      MEOH     DO1      DRUD    -2.488300        0.4000           0   0.00000   0.00000
     22388 MEOH     784      MEOH     HO1      HDP1A    0.360000        1.0080           0   0.00000   0.00000
     22389 MEOH     784      MEOH     HO2      DUMH     0.000000        1.0080           0   0.00000   0.00000
     22390 MEOH     784      MEOH     H1A      HDA3B    0.080000        1.0080           0   0.00000   0.00000
     22391 MEOH     784      MEOH     H1B      HDA3B    0.080000        1.0080           0   0.00000   0.00000
     22392 MEOH     784      MEOH     H1C      HDA3B    0.080000        1.0080           0   0.00000   0.00000
     22393 MEOH     784      MEOH     LP1A     LPD     -0.230000        0.0000           -1   0.00000   0.00000
     22394 MEOH     784      MEOH     LP1B     LPD     -0.230000        0.0000           -1   0.00000   0.00000
     22395 MEOH     785      MEOH     C1       CD33B    2.314100       11.6110           0   -1.00000   1.30000
     22396 MEOH     785      MEOH     DC1      DRUD    -2.454100        0.4000           0   0.00000   0.00000
     22397 MEOH     785      MEOH     O1       OD31H    2.488300       15.5990           0   -1.02800   1.30000
     22398 MEOH     785      MEOH     DO1      DRUD    -2.488300        0.4000           0   0.00000   0.00000
     22399 MEOH     785      MEOH     HO1      HDP1A    0.360000        1.0080           0   0.00000   0.00000
     22400 MEOH     785      MEOH     HO2      DUMH     0.000000        1.0080           0   0.00000   0.00000
     22401 MEOH     785      MEOH     H1A      HDA3B    0.080000        1.0080           0   0.00000   0.00000
     22402 MEOH     785      MEOH     H1B      HDA3B    0.080000        1.0080           0   0.00000   0.00000
     22403 MEOH     785      MEOH     H1C      HDA3B    0.080000        1.0080           0   0.00000   0.00000
     22404 MEOH     785      MEOH     LP1A     LPD     -0.230000        0.0000           -1   0.00000   0.00000
     22405 MEOH     785      MEOH     LP1B     LPD     -0.230000        0.0000           -1   0.00000   0.00000
     22406 MEOH     786      MEOH     C1       CD33B    2.314100       11.6110           0   -1.00000   1.30000
     22407 MEOH     786      MEOH     DC1      DRUD    -2.454100        0.4000           0   0.00000   0.00000
     22408 MEOH     786      MEOH     O1       OD31H    2.488300       15.5990           0   -1.02800   1.30000
     22409 MEOH     786      MEOH     DO1      DRUD    -2.488300        0.4000           0   0.00000   0.00000
     22410 MEOH     786      MEOH     HO1      HDP1A    0.360000        1.0080           0   0.00000   0.00000
     22411 MEOH     786      MEOH     HO2      DUMH     0.000000        1.0080           0   0.00000   0.00000
     22412 MEOH     786      MEOH     H1A      HDA3B    0.080000        1.0080           0   0.00000   0.00000
     22413 MEOH     786      MEOH     H1B      HDA3B    0.080000        1.0080           0   0.00000   0.00000
     22414 MEOH     786      MEOH     H1C      HDA3B    0.080000        1.0080           0   0.00000   0.00000
     22415 MEOH     786      MEOH     LP1A     LPD     -0.230000        0.0000           -1   0.00000   0.00000
     22416 MEOH     786      MEOH     LP1B     LPD     -0.230000        0.0000           -1   0.00000   0.00000
     22417 MEOH     787      MEOH     C1       CD33B    2.314100       11.6110           0   -1.00000   1.30000
     22418 MEOH     787      MEOH     DC1      DRUD    -2.454100        0.4000           0   0.00000   0.00000
     22419 MEOH     787      MEOH     O1       OD31H    2.488300       15.5990           0   -1.02800   1.30000
     22420 MEOH     787      MEOH     DO1      DRUD    -2.488300        0.4000           0   0.00000   0.00000
     22421 MEOH     787      MEOH     HO1      HDP1A    0.360000        1.0080           0   0.00000   0.00000
     22422 MEOH     787      MEOH     HO2      DUMH     0.000000        1.0080           0   0.00000   0.00000
     22423 MEOH     787      MEOH     H1A      HDA3B    0.080000        1.0080           0   0.00000   0.00000
     22424 MEOH     787      MEOH     H1B      HDA3B    0.080000        1.0080           0   0.00000   0.00000
     22425 MEOH     787      MEOH     H1C      HDA3B    0.080000        1.0080           0   0.00000   0.00000
     22426 MEOH     787      MEOH     LP1A     LPD     -0.230000        0.0000           -1   0.00000   0.00000
     22427 MEOH     787      MEOH     LP1B     LPD     -0.230000        0.0000           -1   0.00000   0.00000
     22428 MEOH     788      MEOH     C1       CD33B    2.314100       11.6110           0   -1.00000   1.30000
     22429 MEOH     788      MEOH     DC1      DRUD    -2.454100        0.4000           0   0.00000   0.00000
     22430 MEOH     788      MEOH     O1       OD31H    2.488300       15.5990           0   -1.02800   1.30000
     22431 MEOH     788      MEOH     DO1      DRUD    -2.488300        0.4000           0   0.00000   0.00000
     22432 MEOH     788      MEOH     HO1      HDP1A    0.360000        1.0080           0   0.00000   0.00000
     22433 MEOH     788      MEOH     HO2      DUMH     0.000000        1.0080           0   0.00000   0.00000
     22434 MEOH     788      MEOH     H1A      HDA3B    0.080000        1.0080           0   0.00000   0.00000
     22435 MEOH     788      MEOH     H1B      HDA3B    0.080000        1.0080           0   0.00000   0.00000
     22436 MEOH     788      MEOH     H1C      HDA3B    0.080000        1.0080           0   0.00000   0.00000
     22437 MEOH     788      MEOH     LP1A     LPD     -0.230000        0.0000           -1   0.00000   0.00000
     22438 MEOH     788      MEOH     LP1B     LPD     -0.230000        0.0000           -1   0.00000   0.00000
     22439 MEOH     789      MEOH     C1       CD33B    2.314100       11.6110           0   -1.00000   1.30000
     22440 MEOH     789      MEOH     DC1      DRUD    -2.454100        0.4000           0   0.00000   0.00000
     22441 MEOH     789      MEOH     O1       OD31H    2.488300       15.5990           0   -1.02800   1.30000
     22442 MEOH     789      MEOH     DO1      DRUD    -2.488300        0.4000           0   0.00000   0.00000
     22443 MEOH     789      MEOH     HO1      HDP1A    0.360000        1.0080           0   0.00000   0.00000
     22444 MEOH     789      MEOH     HO2      DUMH     0.000000        1.0080           0   0.00000   0.00000
     22445 MEOH     789      MEOH     H1A      HDA3B    0.080000        1.0080           0   0.00000   0.00000
     22446 MEOH     789      MEOH     H1B      HDA3B    0.080000        1.0080           0   0.00000   0.00000
     22447 MEOH     789      MEOH     H1C      HDA3B    0.080000        1.0080           0   0.00000   0.00000
     22448 MEOH     789      MEOH     LP1A     LPD     -0.230000        0.0000           -1   0.00000   0.00000
     22449 MEOH     789      MEOH     LP1B     LPD     -0.230000        0.0000           -1   0.00000   0.00000
     22450 MEOH     790      MEOH     C1       CD33B    2.314100       11.6110           0   -1.00000   1.30000
     22451 MEOH     790      MEOH     DC1      DRUD    -2.454100        0.4000           0   0.00000   0.00000
     22452 MEOH     790      MEOH     O1       OD31H    2.488300       15.5990           0   -1.02800   1.30000
     22453 MEOH     790      MEOH     DO1      DRUD    -2.488300        0.4000           0   0.00000   0.00000
     22454 MEOH     790      MEOH     HO1      HDP1A    0.360000        1.0080           0   0.00000   0.00000
     22455 MEOH     790      MEOH     HO2      DUMH     0.000000        1.0080           0   0.00000   0.00000
     22456 MEOH     790      MEOH     H1A      HDA3B    0.080000        1.0080           0   0.00000   0.00000
     22457 MEOH     790      MEOH     H1B      HDA3B    0.080000        1.0080           0   0.00000   0.00000
     22458 MEOH     790      MEOH     H1C      HDA3B    0.080000        1.0080           0   0.00000   0.00000
     22459 MEOH     790      MEOH     LP1A     LPD     -0.230000        0.0000           -1   0.00000   0.00000
     22460 MEOH     790      MEOH     LP1B     LPD     -0.230000        0.0000           -1   0.00000   0.00000
     22461 MEOH     791      MEOH     C1       CD33B    2.314100       11.6110           0   -1.00000   1.30000
     22462 MEOH     791      MEOH     DC1      DRUD    -2.454100        0.4000           0   0.00000   0.00000
     22463 MEOH     791      MEOH     O1       OD31H    2.488300       15.5990           0   -1.02800   1.30000
     22464 MEOH     791      MEOH     DO1      DRUD    -2.488300        0.4000           0   0.00000   0.00000
     22465 MEOH     791      MEOH     HO1      HDP1A    0.360000        1.0080           0   0.00000   0.00000
     22466 MEOH     791      MEOH     HO2      DUMH     0.000000        1.0080           0   0.00000   0.00000
     22467 MEOH     791      MEOH     H1A      HDA3B    0.080000        1.0080           0   0.00000   0.00000
     22468 MEOH     791      MEOH     H1B      HDA3B    0.080000        1.0080           0   0.00000   0.00000
     22469 MEOH     791      MEOH     H1C      HDA3B    0.080000        1.0080           0   0.00000   0.00000
     22470 MEOH     791      MEOH     LP1A     LPD     -0.230000        0.0000           -1   0.00000   0.00000
     22471 MEOH     791      MEOH     LP1B     LPD     -0.230000        0.0000           -1   0.00000   0.00000
     22472 MEOH     792      MEOH     C1       CD33B    2.314100       11.6110           0   -1.00000   1.30000
     22473 MEOH     792      MEOH     DC1      DRUD    -2.454100        0.4000           0   0.00000   0.00000
     22474 MEOH     792      MEOH     O1       OD31H    2.488300       15.5990           0   -1.02800   1.30000
     22475 MEOH     792      MEOH     DO1      DRUD    -2.488300        0.4000           0   0.00000   0.00000
     22476 MEOH     792      MEOH     HO1      HDP1A    0.360000        1.0080           0   0.00000   0.00000
     22477 MEOH     792      MEOH     HO2      DUMH     0.000000        1.0080           0   0.00000   0.00000
     22478 MEOH     792      MEOH     H1A      HDA3B    0.080000        1.0080           0   0.00000   0.00000
     22479 MEOH     792      MEOH     H1B      HDA3B    0.080000        1.0080           0   0.00000   0.00000
     22480 MEOH     792      MEOH     H1C      HDA3B    0.080000        1.0080           0   0.00000   0.00000
     22481 MEOH     792      MEOH     LP1A     LPD     -0.230000        0.0000           -1   0.00000   0.00000
     22482 MEOH     792      MEOH     LP1B     LPD     -0.230000        0.0000           -1   0.00000   0.00000
     22483 MEOH     793      MEOH     C1       CD33B    2.314100       11.6110           0   -1.00000   1.30000
     22484 MEOH     793      MEOH     DC1      DRUD    -2.454100        0.4000           0   0.00000   0.00000
     22485 MEOH     793      MEOH     O1       OD31H    2.488300       15.5990           0   -1.02800   1.30000
     22486 MEOH     793      MEOH     DO1      DRUD    -2.488300        0.4000           0   0.00000   0.00000
     22487 MEOH     793      MEOH     HO1      HDP1A    0.360000        1.0080           0   0.00000   0.00000
     22488 MEOH     793      MEOH     HO2      DUMH     0.000000        1.0080           0   0.00000   0.00000
     22489 MEOH     793      MEOH     H1A      HDA3B    0.080000        1.0080           0   0.00000   0.00000
     22490 MEOH     793      MEOH     H1B      HDA3B    0.080000        1.0080           0   0.00000   0.00000
     22491 MEOH     793      MEOH     H1C      HDA3B    0.080000        1.0080           0   0.00000   0.00000
     22492 MEOH     793      MEOH     LP1A     LPD     -0.230000        0.0000           -1   0.00000   0.00000
     22493 MEOH     793      MEOH     LP1B     LPD     -0.230000        0.0000           -1   0.00000   0.00000
     22494 MEOH     794      MEOH     C1       CD33B    2.314100       11.6110           0   -1.00000   1.30000
     22495 MEOH     794      MEOH     DC1      DRUD    -2.454100        0.4000           0   0.00000   0.00000
     22496 MEOH     794      MEOH     O1       OD31H    2.488300       15.5990           0   -1.02800   1.30000
     22497 MEOH     794      MEOH     DO1      DRUD    -2.488300        0.4000           0   0.00000   0.00000
     22498 MEOH     794      MEOH     HO1      HDP1A    0.360000        1.0080           0   0.00000   0.00000
     22499 MEOH     794      MEOH     HO2      DUMH     0.000000        1.0080           0   0.00000   0.00000
     22500 MEOH     794      MEOH     H1A      HDA3B    0.080000        1.0080           0   0.00000   0.00000
     22501 MEOH     794      MEOH     H1B      HDA3B    0.080000        1.0080           0   0.00000   0.00000
     22502 MEOH     794      MEOH     H1C      HDA3B    0.080000        1.0080           0   0.00000   0.00000
     22503 MEOH     794      MEOH     LP1A     LPD     -0.230000        0.0000           -1   0.00000   0.00000
     22504 MEOH     794      MEOH     LP1B     LPD     -0.230000        0.0000           -1   0.00000   0.00000
     22505 MEOH     795      MEOH     C1       CD33B    2.314100       11.6110           0   -1.00000   1.30000
     22506 MEOH     795      MEOH     DC1      DRUD    -2.454100        0.4000           0   0.00000   0.00000
     22507 MEOH     795      MEOH     O1       OD31H    2.488300       15.5990           0   -1.02800   1.30000
     22508 MEOH     795      MEOH     DO1      DRUD    -2.488300        0.4000           0   0.00000   0.00000
     22509 MEOH     795      MEOH     HO1      HDP1A    0.360000        1.0080           0   0.00000   0.00000
     22510 MEOH     795      MEOH     HO2      DUMH     0.000000        1.0080           0   0.00000   0.00000
     22511 MEOH     795      MEOH     H1A      HDA3B    0.080000        1.0080           0   0.00000   0.00000
     22512 MEOH     795      MEOH     H1B      HDA3B    0.080000        1.0080           0   0.00000   0.00000
     22513 MEOH     795      MEOH     H1C      HDA3B    0.080000        1.0080           0   0.00000   0.00000
     22514 MEOH     795      MEOH     LP1A     LPD     -0.230000        0.0000           -1   0.00000   0.00000
     22515 MEOH     795      MEOH     LP1B     LPD     -0.230000        0.0000           -1   0.00000   0.00000
     22516 MEOH     796      MEOH     C1       CD33B    2.314100       11.6110           0   -1.00000   1.30000
     22517 MEOH     796      MEOH     DC1      DRUD    -2.454100        0.4000           0   0.00000   0.00000
     22518 MEOH     796      MEOH     O1       OD31H    2.488300       15.5990           0   -1.02800   1.30000
     22519 MEOH     796      MEOH     DO1      DRUD    -2.488300        0.4000           0   0.00000   0.00000
     22520 MEOH     796      MEOH     HO1      HDP1A    0.360000        1.0080           0   0.00000   0.00000
     22521 MEOH     796      MEOH     HO2      DUMH     0.000000        1.0080           0   0.00000   0.00000
     22522 MEOH     796      MEOH     H1A      HDA3B    0.080000        1.0080           0   0.00000   0.00000
     22523 MEOH     796      MEOH     H1B      HDA3B    0.080000        1.0080           0   0.00000   0.00000
     22524 MEOH     796      MEOH     H1C      HDA3B    0.080000        1.0080           0   0.00000   0.00000
     22525 MEOH     796      MEOH     LP1A     LPD     -0.230000        0.0000           -1   0.00000   0.00000
     22526 MEOH     796      MEOH     LP1B     LPD     -0.230000        0.0000           -1   0.00000   0.00000
     22527 MEOH     797      MEOH     C1       CD33B    2.314100       11.6110           0   -1.00000   1.30000
     22528 MEOH     797      MEOH     DC1      DRUD    -2.454100        0.4000           0   0.00000   0.00000
     22529 MEOH     797      MEOH     O1       OD31H    2.488300       15.5990           0   -1.02800   1.30000
     22530 MEOH     797      MEOH     DO1      DRUD    -2.488300        0.4000           0   0.00000   0.00000
     22531 MEOH     797      MEOH     HO1      HDP1A    0.360000        1.0080           0   0.00000   0.00000
     22532 MEOH     797      MEOH     HO2      DUMH     0.000000        1.0080           0   0.00000   0.00000
     22533 MEOH     797      MEOH     H1A      HDA3B    0.080000        1.0080           0   0.00000   0.00000
     22534 MEOH     797      MEOH     H1B      HDA3B    0.080000        1.0080           0   0.00000   0.00000
     22535 MEOH     797      MEOH     H1C      HDA3B    0.080000        1.0080           0   0.00000   0.00000
     22536 MEOH     797      MEOH     LP1A     LPD     -0.230000        0.0000           -1   0.00000   0.00000
     22537 MEOH     797      MEOH     LP1B     LPD     -0.230000        0.0000           -1   0.00000   0.00000
     22538 MEOH     798      MEOH     C1       CD33B    2.314100       11.6110           0   -1.00000   1.30000
     22539 MEOH     798      MEOH     DC1      DRUD    -2.454100        0.4000           0   0.00000   0.00000
     22540 MEOH     798      MEOH     O1       OD31H    2.488300       15.5990           0   -1.02800   1.30000
     22541 MEOH     798      MEOH     DO1      DRUD    -2.488300        0.4000           0   0.00000   0.00000
     22542 MEOH     798      MEOH     HO1      HDP1A    0.360000        1.0080           0   0.00000   0.00000
     22543 MEOH     798      MEOH     HO2      DUMH     0.000000        1.0080           0   0.00000   0.00000
     22544 MEOH     798      MEOH     H1A      HDA3B    0.080000        1.0080           0   0.00000   0.00000
     22545 MEOH     798      MEOH     H1B      HDA3B    0.080000        1.0080           0   0.00000   0.00000
     22546 MEOH     798      MEOH     H1C      HDA3B    0.080000        1.0080           0   0.00000   0.00000
     22547 MEOH     798      MEOH     LP1A     LPD     -0.230000        0.0000           -1   0.00000   0.00000
     22548 MEOH     798      MEOH     LP1B     LPD     -0.230000        0.0000           -1   0.00000   0.00000
     22549 MEOH     799      MEOH     C1       CD33B    2.314100       11.6110           0   -1.00000   1.30000
     22550 MEOH     799      MEOH     DC1      DRUD    -2.454100        0.4000           0   0.00000   0.00000
     22551 MEOH     799      MEOH     O1       OD31H    2.488300       15.5990           0   -1.02800   1.30000
     22552 MEOH     799      MEOH     DO1      DRUD    -2.488300        0.4000           0   0.00000   0.00000
     22553 MEOH     799      MEOH     HO1      HDP1A    0.360000        1.0080           0   0.00000   0.00000
     22554 MEOH     799      MEOH     HO2      DUMH     0.000000        1.0080           0   0.00000   0.00000
     22555 MEOH     799      MEOH     H1A      HDA3B    0.080000        1.0080           0   0.00000   0.00000
     22556 MEOH     799      MEOH     H1B      HDA3B    0.080000        1.0080           0   0.00000   0.00000
     22557 MEOH     799      MEOH     H1C      HDA3B    0.080000        1.0080           0   0.00000   0.00000
     22558 MEOH     799      MEOH     LP1A     LPD     -0.230000        0.0000           -1   0.00000   0.00000
     22559 MEOH     799      MEOH     LP1B     LPD     -0.230000        0.0000           -1   0.00000   0.00000
     22560 MEOH     800      MEOH     C1       CD33B    2.314100       11.6110           0   -1.00000   1.30000
     22561 MEOH     800      MEOH     DC1      DRUD    -2.454100        0.4000           0   0.00000   0.00000
     22562 MEOH     800      MEOH     O1       OD31H    2.488300       15.5990           0   -1.02800   1.30000
     22563 MEOH     800      MEOH     DO1      DRUD    -2.488300        0.4000           0   0.00000   0.00000
     22564 MEOH     800      MEOH     HO1      HDP1A    0.360000        1.0080           0   0.00000   0.00000
     22565 MEOH     800      MEOH     HO2      DUMH     0.000000        1.0080           0   0.00000   0.00000
     22566 MEOH     800      MEOH     H1A      HDA3B    0.080000        1.0080           0   0.00000   0.00000
     22567 MEOH     800      MEOH     H1B      HDA3B    0.080000        1.0080           0   0.00000   0.00000
     22568 MEOH     800      MEOH     H1C      HDA3B    0.080000        1.0080           0   0.00000   0.00000
     22569 MEOH     800      MEOH     LP1A     LPD     -0.230000        0.0000           -1   0.00000   0.00000
     22570 MEOH     800      MEOH     LP1B     LPD     -0.230000        0.0000           -1   0.00000   0.00000
     22571 MEOH     801      MEOH     C1       CD33B    2.314100       11.6110           0   -1.00000   1.30000
     22572 MEOH     801      MEOH     DC1      DRUD    -2.454100        0.4000           0   0.00000   0.00000
     22573 MEOH     801      MEOH     O1       OD31H    2.488300       15.5990           0   -1.02800   1.30000
     22574 MEOH     801      MEOH     DO1      DRUD    -2.488300        0.4000           0   0.00000   0.00000
     22575 MEOH     801      MEOH     HO1      HDP1A    0.360000        1.0080           0   0.00000   0.00000
     22576 MEOH     801      MEOH     HO2      DUMH     0.000000        1.0080           0   0.00000   0.00000
     22577 MEOH     801      MEOH     H1A      HDA3B    0.080000        1.0080           0   0.00000   0.00000
     22578 MEOH     801      MEOH     H1B      HDA3B    0.080000        1.0080           0   0.00000   0.00000
     22579 MEOH     801      MEOH     H1C      HDA3B    0.080000        1.0080           0   0.00000   0.00000
     22580 MEOH     801      MEOH     LP1A     LPD     -0.230000        0.0000           -1   0.00000   0.00000
     22581 MEOH     801      MEOH     LP1B     LPD     -0.230000        0.0000           -1   0.00000   0.00000
     22582 MEOH     802      MEOH     C1       CD33B    2.314100       11.6110           0   -1.00000   1.30000
     22583 MEOH     802      MEOH     DC1      DRUD    -2.454100        0.4000           0   0.00000   0.00000
     22584 MEOH     802      MEOH     O1       OD31H    2.488300       15.5990           0   -1.02800   1.30000
     22585 MEOH     802      MEOH     DO1      DRUD    -2.488300        0.4000           0   0.00000   0.00000
     22586 MEOH     802      MEOH     HO1      HDP1A    0.360000        1.0080           0   0.00000   0.00000
     22587 MEOH     802      MEOH     HO2      DUMH     0.000000        1.0080           0   0.00000   0.00000
     22588 MEOH     802      MEOH     H1A      HDA3B    0.080000        1.0080           0   0.00000   0.00000
     22589 MEOH     802      MEOH     H1B      HDA3B    0.080000        1.0080           0   0.00000   0.00000
     22590 MEOH     802      MEOH     H1C      HDA3B    0.080000        1.0080           0   0.00000   0.00000
     22591 MEOH     802      MEOH     LP1A     LPD     -0.230000        0.0000           -1   0.00000   0.00000
     22592 MEOH     802      MEOH     LP1B     LPD     -0.230000        0.0000           -1   0.00000   0.00000
     22593 MEOH     803      MEOH     C1       CD33B    2.314100       11.6110           0   -1.00000   1.30000
     22594 MEOH     803      MEOH     DC1      DRUD    -2.454100        0.4000           0   0.00000   0.00000
     22595 MEOH     803      MEOH     O1       OD31H    2.488300       15.5990           0   -1.02800   1.30000
     22596 MEOH     803      MEOH     DO1      DRUD    -2.488300        0.4000           0   0.00000   0.00000
     22597 MEOH     803      MEOH     HO1      HDP1A    0.360000        1.0080           0   0.00000   0.00000
     22598 MEOH     803      MEOH     HO2      DUMH     0.000000        1.0080           0   0.00000   0.00000
     22599 MEOH     803      MEOH     H1A      HDA3B    0.080000        1.0080           0   0.00000   0.00000
     22600 MEOH     803      MEOH     H1B      HDA3B    0.080000        1.0080           0   0.00000   0.00000
     22601 MEOH     803      MEOH     H1C      HDA3B    0.080000        1.0080           0   0.00000   0.00000
     22602 MEOH     803      MEOH     LP1A     LPD     -0.230000        0.0000           -1   0.00000   0.00000
     22603 MEOH     803      MEOH     LP1B     LPD     -0.230000        0.0000           -1   0.00000   0.00000
     22604 MEOH     804      MEOH     C1       CD33B    2.314100       11.6110           0   -1.00000   1.30000
     22605 MEOH     804      MEOH     DC1      DRUD    -2.454100        0.4000           0   0.00000   0.00000
     22606 MEOH     804      MEOH     O1       OD31H    2.488300       15.5990           0   -1.02800   1.30000
     22607 MEOH     804      MEOH     DO1      DRUD    -2.488300        0.4000           0   0.00000   0.00000
     22608 MEOH     804      MEOH     HO1      HDP1A    0.360000        1.0080           0   0.00000   0.00000
     22609 MEOH     804      MEOH     HO2      DUMH     0.000000        1.0080           0   0.00000   0.00000
     22610 MEOH     804      MEOH     H1A      HDA3B    0.080000        1.0080           0   0.00000   0.00000
     22611 MEOH     804      MEOH     H1B      HDA3B    0.080000        1.0080           0   0.00000   0.00000
     22612 MEOH     804      MEOH     H1C      HDA3B    0.080000        1.0080           0   0.00000   0.00000
     22613 MEOH     804      MEOH     LP1A     LPD     -0.230000        0.0000           -1   0.00000   0.00000
     22614 MEOH     804      MEOH     LP1B     LPD     -0.230000        0.0000           -1   0.00000   0.00000
     22615 MEOH     805      MEOH     C1       CD33B    2.314100       11.6110           0   -1.00000   1.30000
     22616 MEOH     805      MEOH     DC1      DRUD    -2.454100        0.4000           0   0.00000   0.00000
     22617 MEOH     805      MEOH     O1       OD31H    2.488300       15.5990           0   -1.02800   1.30000
     22618 MEOH     805      MEOH     DO1      DRUD    -2.488300        0.4000           0   0.00000   0.00000
     22619 MEOH     805      MEOH     HO1      HDP1A    0.360000        1.0080           0   0.00000   0.00000
     22620 MEOH     805      MEOH     HO2      DUMH     0.000000        1.0080           0   0.00000   0.00000
     22621 MEOH     805      MEOH     H1A      HDA3B    0.080000        1.0080           0   0.00000   0.00000
     22622 MEOH     805      MEOH     H1B      HDA3B    0.080000        1.0080           0   0.00000   0.00000
     22623 MEOH     805      MEOH     H1C      HDA3B    0.080000        1.0080           0   0.00000   0.00000
     22624 MEOH     805      MEOH     LP1A     LPD     -0.230000        0.0000           -1   0.00000   0.00000
     22625 MEOH     805      MEOH     LP1B     LPD     -0.230000        0.0000           -1   0.00000   0.00000
     22626 MEOH     806      MEOH     C1       CD33B    2.314100       11.6110           0   -1.00000   1.30000
     22627 MEOH     806      MEOH     DC1      DRUD    -2.454100        0.4000           0   0.00000   0.00000
     22628 MEOH     806      MEOH     O1       OD31H    2.488300       15.5990           0   -1.02800   1.30000
     22629 MEOH     806      MEOH     DO1      DRUD    -2.488300        0.4000           0   0.00000   0.00000
     22630 MEOH     806      MEOH     HO1      HDP1A    0.360000        1.0080           0   0.00000   0.00000
     22631 MEOH     806      MEOH     HO2      DUMH     0.000000        1.0080           0   0.00000   0.00000
     22632 MEOH     806      MEOH     H1A      HDA3B    0.080000        1.0080           0   0.00000   0.00000
     22633 MEOH     806      MEOH     H1B      HDA3B    0.080000        1.0080           0   0.00000   0.00000
     22634 MEOH     806      MEOH     H1C      HDA3B    0.080000        1.0080           0   0.00000   0.00000
     22635 MEOH     806      MEOH     LP1A     LPD     -0.230000        0.0000           -1   0.00000   0.00000
     22636 MEOH     806      MEOH     LP1B     LPD     -0.230000        0.0000           -1   0.00000   0.00000
     22637 MEOH     807      MEOH     C1       CD33B    2.314100       11.6110           0   -1.00000   1.30000
     22638 MEOH     807      MEOH     DC1      DRUD    -2.454100        0.4000           0   0.00000   0.00000
     22639 MEOH     807      MEOH     O1       OD31H    2.488300       15.5990           0   -1.02800   1.30000
     22640 MEOH     807      MEOH     DO1      DRUD    -2.488300        0.4000           0   0.00000   0.00000
     22641 MEOH     807      MEOH     HO1      HDP1A    0.360000        1.0080           0   0.00000   0.00000
     22642 MEOH     807      MEOH     HO2      DUMH     0.000000        1.0080           0   0.00000   0.00000
     22643 MEOH     807      MEOH     H1A      HDA3B    0.080000        1.0080           0   0.00000   0.00000
     22644 MEOH     807      MEOH     H1B      HDA3B    0.080000        1.0080           0   0.00000   0.00000
     22645 MEOH     807      MEOH     H1C      HDA3B    0.080000        1.0080           0   0.00000   0.00000
     22646 MEOH     807      MEOH     LP1A     LPD     -0.230000        0.0000           -1   0.00000   0.00000
     22647 MEOH     807      MEOH     LP1B     LPD     -0.230000        0.0000           -1   0.00000   0.00000
     22648 MEOH     808      MEOH     C1       CD33B    2.314100       11.6110           0   -1.00000   1.30000
     22649 MEOH     808      MEOH     DC1      DRUD    -2.454100        0.4000           0   0.00000   0.00000
     22650 MEOH     808      MEOH     O1       OD31H    2.488300       15.5990           0   -1.02800   1.30000
     22651 MEOH     808      MEOH     DO1      DRUD    -2.488300        0.4000           0   0.00000   0.00000
     22652 MEOH     808      MEOH     HO1      HDP1A    0.360000        1.0080           0   0.00000   0.00000
     22653 MEOH     808      MEOH     HO2      DUMH     0.000000        1.0080           0   0.00000   0.00000
     22654 MEOH     808      MEOH     H1A      HDA3B    0.080000        1.0080           0   0.00000   0.00000
     22655 MEOH     808      MEOH     H1B      HDA3B    0.080000        1.0080           0   0.00000   0.00000
     22656 MEOH     808      MEOH     H1C      HDA3B    0.080000        1.0080           0   0.00000   0.00000
     22657 MEOH     808      MEOH     LP1A     LPD     -0.230000        0.0000           -1   0.00000   0.00000
     22658 MEOH     808      MEOH     LP1B     LPD     -0.230000        0.0000           -1   0.00000   0.00000
     22659 MEOH     809      MEOH     C1       CD33B    2.314100       11.6110           0   -1.00000   1.30000
     22660 MEOH     809      MEOH     DC1      DRUD    -2.454100        0.4000           0   0.00000   0.00000
     22661 MEOH     809      MEOH     O1       OD31H    2.488300       15.5990           0   -1.02800   1.30000
     22662 MEOH     809      MEOH     DO1      DRUD    -2.488300        0.4000           0   0.00000   0.00000
     22663 MEOH     809      MEOH     HO1      HDP1A    0.360000        1.0080           0   0.00000   0.00000
     22664 MEOH     809      MEOH     HO2      DUMH     0.000000        1.0080           0   0.00000   0.00000
     22665 MEOH     809      MEOH     H1A      HDA3B    0.080000        1.0080           0   0.00000   0.00000
     22666 MEOH     809      MEOH     H1B      HDA3B    0.080000        1.0080           0   0.00000   0.00000
     22667 MEOH     809      MEOH     H1C      HDA3B    0.080000        1.0080           0   0.00000   0.00000
     22668 MEOH     809      MEOH     LP1A     LPD     -0.230000        0.0000           -1   0.00000   0.00000
     22669 MEOH     809      MEOH     LP1B     LPD     -0.230000        0.0000           -1   0.00000   0.00000
     22670 MEOH     810      MEOH     C1       CD33B    2.314100       11.6110           0   -1.00000   1.30000
     22671 MEOH     810      MEOH     DC1      DRUD    -2.454100        0.4000           0   0.00000   0.00000
     22672 MEOH     810      MEOH     O1       OD31H    2.488300       15.5990           0   -1.02800   1.30000
     22673 MEOH     810      MEOH     DO1      DRUD    -2.488300        0.4000           0   0.00000   0.00000
     22674 MEOH     810      MEOH     HO1      HDP1A    0.360000        1.0080           0   0.00000   0.00000
     22675 MEOH     810      MEOH     HO2      DUMH     0.000000        1.0080           0   0.00000   0.00000
     22676 MEOH     810      MEOH     H1A      HDA3B    0.080000        1.0080           0   0.00000   0.00000
     22677 MEOH     810      MEOH     H1B      HDA3B    0.080000        1.0080           0   0.00000   0.00000
     22678 MEOH     810      MEOH     H1C      HDA3B    0.080000        1.0080           0   0.00000   0.00000
     22679 MEOH     810      MEOH     LP1A     LPD     -0.230000        0.0000           -1   0.00000   0.00000
     22680 MEOH     810      MEOH     LP1B     LPD     -0.230000        0.0000           -1   0.00000   0.00000
     22681 MEOH     811      MEOH     C1       CD33B    2.314100       11.6110           0   -1.00000   1.30000
     22682 MEOH     811      MEOH     DC1      DRUD    -2.454100        0.4000           0   0.00000   0.00000
     22683 MEOH     811      MEOH     O1       OD31H    2.488300       15.5990           0   -1.02800   1.30000
     22684 MEOH     811      MEOH     DO1      DRUD    -2.488300        0.4000           0   0.00000   0.00000
     22685 MEOH     811      MEOH     HO1      HDP1A    0.360000        1.0080           0   0.00000   0.00000
     22686 MEOH     811      MEOH     HO2      DUMH     0.000000        1.0080           0   0.00000   0.00000
     22687 MEOH     811      MEOH     H1A      HDA3B    0.080000        1.0080           0   0.00000   0.00000
     22688 MEOH     811      MEOH     H1B      HDA3B    0.080000        1.0080           0   0.00000   0.00000
     22689 MEOH     811      MEOH     H1C      HDA3B    0.080000        1.0080           0   0.00000   0.00000
     22690 MEOH     811      MEOH     LP1A     LPD     -0.230000        0.0000           -1   0.00000   0.00000
     22691 MEOH     811      MEOH     LP1B     LPD     -0.230000        0.0000           -1   0.00000   0.00000
     22692 MEOH     812      MEOH     C1       CD33B    2.314100       11.6110           0   -1.00000   1.30000
     22693 MEOH     812      MEOH     DC1      DRUD    -2.454100        0.4000           0   0.00000   0.00000
     22694 MEOH     812      MEOH     O1       OD31H    2.488300       15.5990           0   -1.02800   1.30000
     22695 MEOH     812      MEOH     DO1      DRUD    -2.488300        0.4000           0   0.00000   0.00000
     22696 MEOH     812      MEOH     HO1      HDP1A    0.360000        1.0080           0   0.00000   0.00000
     22697 MEOH     812      MEOH     HO2      DUMH     0.000000        1.0080           0   0.00000   0.00000
     22698 MEOH     812      MEOH     H1A      HDA3B    0.080000        1.0080           0   0.00000   0.00000
     22699 MEOH     812      MEOH     H1B      HDA3B    0.080000        1.0080           0   0.00000   0.00000
     22700 MEOH     812      MEOH     H1C      HDA3B    0.080000        1.0080           0   0.00000   0.00000
     22701 MEOH     812      MEOH     LP1A     LPD     -0.230000        0.0000           -1   0.00000   0.00000
     22702 MEOH     812      MEOH     LP1B     LPD     -0.230000        0.0000           -1   0.00000   0.00000
     22703 MEOH     813      MEOH     C1       CD33B    2.314100       11.6110           0   -1.00000   1.30000
     22704 MEOH     813      MEOH     DC1      DRUD    -2.454100        0.4000           0   0.00000   0.00000
     22705 MEOH     813      MEOH     O1       OD31H    2.488300       15.5990           0   -1.02800   1.30000
     22706 MEOH     813      MEOH     DO1      DRUD    -2.488300        0.4000           0   0.00000   0.00000
     22707 MEOH     813      MEOH     HO1      HDP1A    0.360000        1.0080           0   0.00000   0.00000
     22708 MEOH     813      MEOH     HO2      DUMH     0.000000        1.0080           0   0.00000   0.00000
     22709 MEOH     813      MEOH     H1A      HDA3B    0.080000        1.0080           0   0.00000   0.00000
     22710 MEOH     813      MEOH     H1B      HDA3B    0.080000        1.0080           0   0.00000   0.00000
     22711 MEOH     813      MEOH     H1C      HDA3B    0.080000        1.0080           0   0.00000   0.00000
     22712 MEOH     813      MEOH     LP1A     LPD     -0.230000        0.0000           -1   0.00000   0.00000
     22713 MEOH     813      MEOH     LP1B     LPD     -0.230000        0.0000           -1   0.00000   0.00000
     22714 MEOH     814      MEOH     C1       CD33B    2.314100       11.6110           0   -1.00000   1.30000
     22715 MEOH     814      MEOH     DC1      DRUD    -2.454100        0.4000           0   0.00000   0.00000
     22716 MEOH     814      MEOH     O1       OD31H    2.488300       15.5990           0   -1.02800   1.30000
     22717 MEOH     814      MEOH     DO1      DRUD    -2.488300        0.4000           0   0.00000   0.00000
     22718 MEOH     814      MEOH     HO1      HDP1A    0.360000        1.0080           0   0.00000   0.00000
     22719 MEOH     814      MEOH     HO2      DUMH     0.000000        1.0080           0   0.00000   0.00000
     22720 MEOH     814      MEOH     H1A      HDA3B    0.080000        1.0080           0   0.00000   0.00000
     22721 MEOH     814      MEOH     H1B      HDA3B    0.080000        1.0080           0   0.00000   0.00000
     22722 MEOH     814      MEOH     H1C      HDA3B    0.080000        1.0080           0   0.00000   0.00000
     22723 MEOH     814      MEOH     LP1A     LPD     -0.230000        0.0000           -1   0.00000   0.00000
     22724 MEOH     814      MEOH     LP1B     LPD     -0.230000        0.0000           -1   0.00000   0.00000
     22725 MEOH     815      MEOH     C1       CD33B    2.314100       11.6110           0   -1.00000   1.30000
     22726 MEOH     815      MEOH     DC1      DRUD    -2.454100        0.4000           0   0.00000   0.00000
     22727 MEOH     815      MEOH     O1       OD31H    2.488300       15.5990           0   -1.02800   1.30000
     22728 MEOH     815      MEOH     DO1      DRUD    -2.488300        0.4000           0   0.00000   0.00000
     22729 MEOH     815      MEOH     HO1      HDP1A    0.360000        1.0080           0   0.00000   0.00000
     22730 MEOH     815      MEOH     HO2      DUMH     0.000000        1.0080           0   0.00000   0.00000
     22731 MEOH     815      MEOH     H1A      HDA3B    0.080000        1.0080           0   0.00000   0.00000
     22732 MEOH     815      MEOH     H1B      HDA3B    0.080000        1.0080           0   0.00000   0.00000
     22733 MEOH     815      MEOH     H1C      HDA3B    0.080000        1.0080           0   0.00000   0.00000
     22734 MEOH     815      MEOH     LP1A     LPD     -0.230000        0.0000           -1   0.00000   0.00000
     22735 MEOH     815      MEOH     LP1B     LPD     -0.230000        0.0000           -1   0.00000   0.00000
     22736 MEOH     816      MEOH     C1       CD33B    2.314100       11.6110           0   -1.00000   1.30000
     22737 MEOH     816      MEOH     DC1      DRUD    -2.454100        0.4000           0   0.00000   0.00000
     22738 MEOH     816      MEOH     O1       OD31H    2.488300       15.5990           0   -1.02800   1.30000
     22739 MEOH     816      MEOH     DO1      DRUD    -2.488300        0.4000           0   0.00000   0.00000
     22740 MEOH     816      MEOH     HO1      HDP1A    0.360000        1.0080           0   0.00000   0.00000
     22741 MEOH     816      MEOH     HO2      DUMH     0.000000        1.0080           0   0.00000   0.00000
     22742 MEOH     816      MEOH     H1A      HDA3B    0.080000        1.0080           0   0.00000   0.00000
     22743 MEOH     816      MEOH     H1B      HDA3B    0.080000        1.0080           0   0.00000   0.00000
     22744 MEOH     816      MEOH     H1C      HDA3B    0.080000        1.0080           0   0.00000   0.00000
     22745 MEOH     816      MEOH     LP1A     LPD     -0.230000        0.0000           -1   0.00000   0.00000
     22746 MEOH     816      MEOH     LP1B     LPD     -0.230000        0.0000           -1   0.00000   0.00000
     22747 MEOH     817      MEOH     C1       CD33B    2.314100       11.6110           0   -1.00000   1.30000
     22748 MEOH     817      MEOH     DC1      DRUD    -2.454100        0.4000           0   0.00000   0.00000
     22749 MEOH     817      MEOH     O1       OD31H    2.488300       15.5990           0   -1.02800   1.30000
     22750 MEOH     817      MEOH     DO1      DRUD    -2.488300        0.4000           0   0.00000   0.00000
     22751 MEOH     817      MEOH     HO1      HDP1A    0.360000        1.0080           0   0.00000   0.00000
     22752 MEOH     817      MEOH     HO2      DUMH     0.000000        1.0080           0   0.00000   0.00000
     22753 MEOH     817      MEOH     H1A      HDA3B    0.080000        1.0080           0   0.00000   0.00000
     22754 MEOH     817      MEOH     H1B      HDA3B    0.080000        1.0080           0   0.00000   0.00000
     22755 MEOH     817      MEOH     H1C      HDA3B    0.080000        1.0080           0   0.00000   0.00000
     22756 MEOH     817      MEOH     LP1A     LPD     -0.230000        0.0000           -1   0.00000   0.00000
     22757 MEOH     817      MEOH     LP1B     LPD     -0.230000        0.0000           -1   0.00000   0.00000
     22758 MEOH     818      MEOH     C1       CD33B    2.314100       11.6110           0   -1.00000   1.30000
     22759 MEOH     818      MEOH     DC1      DRUD    -2.454100        0.4000           0   0.00000   0.00000
     22760 MEOH     818      MEOH     O1       OD31H    2.488300       15.5990           0   -1.02800   1.30000
     22761 MEOH     818      MEOH     DO1      DRUD    -2.488300        0.4000           0   0.00000   0.00000
     22762 MEOH     818      MEOH     HO1      HDP1A    0.360000        1.0080           0   0.00000   0.00000
     22763 MEOH     818      MEOH     HO2      DUMH     0.000000        1.0080           0   0.00000   0.00000
     22764 MEOH     818      MEOH     H1A      HDA3B    0.080000        1.0080           0   0.00000   0.00000
     22765 MEOH     818      MEOH     H1B      HDA3B    0.080000        1.0080           0   0.00000   0.00000
     22766 MEOH     818      MEOH     H1C      HDA3B    0.080000        1.0080           0   0.00000   0.00000
     22767 MEOH     818      MEOH     LP1A     LPD     -0.230000        0.0000           -1   0.00000   0.00000
     22768 MEOH     818      MEOH     LP1B     LPD     -0.230000        0.0000           -1   0.00000   0.00000
     22769 MEOH     819      MEOH     C1       CD33B    2.314100       11.6110           0   -1.00000   1.30000
     22770 MEOH     819      MEOH     DC1      DRUD    -2.454100        0.4000           0   0.00000   0.00000
     22771 MEOH     819      MEOH     O1       OD31H    2.488300       15.5990           0   -1.02800   1.30000
     22772 MEOH     819      MEOH     DO1      DRUD    -2.488300        0.4000           0   0.00000   0.00000
     22773 MEOH     819      MEOH     HO1      HDP1A    0.360000        1.0080           0   0.00000   0.00000
     22774 MEOH     819      MEOH     HO2      DUMH     0.000000        1.0080           0   0.00000   0.00000
     22775 MEOH     819      MEOH     H1A      HDA3B    0.080000        1.0080           0   0.00000   0.00000
     22776 MEOH     819      MEOH     H1B      HDA3B    0.080000        1.0080           0   0.00000   0.00000
     22777 MEOH     819      MEOH     H1C      HDA3B    0.080000        1.0080           0   0.00000   0.00000
     22778 MEOH     819      MEOH     LP1A     LPD     -0.230000        0.0000           -1   0.00000   0.00000
     22779 MEOH     819      MEOH     LP1B     LPD     -0.230000        0.0000           -1   0.00000   0.00000
     22780 MEOH     820      MEOH     C1       CD33B    2.314100       11.6110           0   -1.00000   1.30000
     22781 MEOH     820      MEOH     DC1      DRUD    -2.454100        0.4000           0   0.00000   0.00000
     22782 MEOH     820      MEOH     O1       OD31H    2.488300       15.5990           0   -1.02800   1.30000
     22783 MEOH     820      MEOH     DO1      DRUD    -2.488300        0.4000           0   0.00000   0.00000
     22784 MEOH     820      MEOH     HO1      HDP1A    0.360000        1.0080           0   0.00000   0.00000
     22785 MEOH     820      MEOH     HO2      DUMH     0.000000        1.0080           0   0.00000   0.00000
     22786 MEOH     820      MEOH     H1A      HDA3B    0.080000        1.0080           0   0.00000   0.00000
     22787 MEOH     820      MEOH     H1B      HDA3B    0.080000        1.0080           0   0.00000   0.00000
     22788 MEOH     820      MEOH     H1C      HDA3B    0.080000        1.0080           0   0.00000   0.00000
     22789 MEOH     820      MEOH     LP1A     LPD     -0.230000        0.0000           -1   0.00000   0.00000
     22790 MEOH     820      MEOH     LP1B     LPD     -0.230000        0.0000           -1   0.00000   0.00000
     22791 MEOH     821      MEOH     C1       CD33B    2.314100       11.6110           0   -1.00000   1.30000
     22792 MEOH     821      MEOH     DC1      DRUD    -2.454100        0.4000           0   0.00000   0.00000
     22793 MEOH     821      MEOH     O1       OD31H    2.488300       15.5990           0   -1.02800   1.30000
     22794 MEOH     821      MEOH     DO1      DRUD    -2.488300        0.4000           0   0.00000   0.00000
     22795 MEOH     821      MEOH     HO1      HDP1A    0.360000        1.0080           0   0.00000   0.00000
     22796 MEOH     821      MEOH     HO2      DUMH     0.000000        1.0080           0   0.00000   0.00000
     22797 MEOH     821      MEOH     H1A      HDA3B    0.080000        1.0080           0   0.00000   0.00000
     22798 MEOH     821      MEOH     H1B      HDA3B    0.080000        1.0080           0   0.00000   0.00000
     22799 MEOH     821      MEOH     H1C      HDA3B    0.080000        1.0080           0   0.00000   0.00000
     22800 MEOH     821      MEOH     LP1A     LPD     -0.230000        0.0000           -1   0.00000   0.00000
     22801 MEOH     821      MEOH     LP1B     LPD     -0.230000        0.0000           -1   0.00000   0.00000
     22802 MEOH     822      MEOH     C1       CD33B    2.314100       11.6110           0   -1.00000   1.30000
     22803 MEOH     822      MEOH     DC1      DRUD    -2.454100        0.4000           0   0.00000   0.00000
     22804 MEOH     822      MEOH     O1       OD31H    2.488300       15.5990           0   -1.02800   1.30000
     22805 MEOH     822      MEOH     DO1      DRUD    -2.488300        0.4000           0   0.00000   0.00000
     22806 MEOH     822      MEOH     HO1      HDP1A    0.360000        1.0080           0   0.00000   0.00000
     22807 MEOH     822      MEOH     HO2      DUMH     0.000000        1.0080           0   0.00000   0.00000
     22808 MEOH     822      MEOH     H1A      HDA3B    0.080000        1.0080           0   0.00000   0.00000
     22809 MEOH     822      MEOH     H1B      HDA3B    0.080000        1.0080           0   0.00000   0.00000
     22810 MEOH     822      MEOH     H1C      HDA3B    0.080000        1.0080           0   0.00000   0.00000
     22811 MEOH     822      MEOH     LP1A     LPD     -0.230000        0.0000           -1   0.00000   0.00000
     22812 MEOH     822      MEOH     LP1B     LPD     -0.230000        0.0000           -1   0.00000   0.00000
     22813 MEOH     823      MEOH     C1       CD33B    2.314100       11.6110           0   -1.00000   1.30000
     22814 MEOH     823      MEOH     DC1      DRUD    -2.454100        0.4000           0   0.00000   0.00000
     22815 MEOH     823      MEOH     O1       OD31H    2.488300       15.5990           0   -1.02800   1.30000
     22816 MEOH     823      MEOH     DO1      DRUD    -2.488300        0.4000           0   0.00000   0.00000
     22817 MEOH     823      MEOH     HO1      HDP1A    0.360000        1.0080           0   0.00000   0.00000
     22818 MEOH     823      MEOH     HO2      DUMH     0.000000        1.0080           0   0.00000   0.00000
     22819 MEOH     823      MEOH     H1A      HDA3B    0.080000        1.0080           0   0.00000   0.00000
     22820 MEOH     823      MEOH     H1B      HDA3B    0.080000        1.0080           0   0.00000   0.00000
     22821 MEOH     823      MEOH     H1C      HDA3B    0.080000        1.0080           0   0.00000   0.00000
     22822 MEOH     823      MEOH     LP1A     LPD     -0.230000        0.0000           -1   0.00000   0.00000
     22823 MEOH     823      MEOH     LP1B     LPD     -0.230000        0.0000           -1   0.00000   0.00000
     22824 MEOH     824      MEOH     C1       CD33B    2.314100       11.6110           0   -1.00000   1.30000
     22825 MEOH     824      MEOH     DC1      DRUD    -2.454100        0.4000           0   0.00000   0.00000
     22826 MEOH     824      MEOH     O1       OD31H    2.488300       15.5990           0   -1.02800   1.30000
     22827 MEOH     824      MEOH     DO1      DRUD    -2.488300        0.4000           0   0.00000   0.00000
     22828 MEOH     824      MEOH     HO1      HDP1A    0.360000        1.0080           0   0.00000   0.00000
     22829 MEOH     824      MEOH     HO2      DUMH     0.000000        1.0080           0   0.00000   0.00000
     22830 MEOH     824      MEOH     H1A      HDA3B    0.080000        1.0080           0   0.00000   0.00000
     22831 MEOH     824      MEOH     H1B      HDA3B    0.080000        1.0080           0   0.00000   0.00000
     22832 MEOH     824      MEOH     H1C      HDA3B    0.080000        1.0080           0   0.00000   0.00000
     22833 MEOH     824      MEOH     LP1A     LPD     -0.230000        0.0000           -1   0.00000   0.00000
     22834 MEOH     824      MEOH     LP1B     LPD     -0.230000        0.0000           -1   0.00000   0.00000
     22835 MEOH     825      MEOH     C1       CD33B    2.314100       11.6110           0   -1.00000   1.30000
     22836 MEOH     825      MEOH     DC1      DRUD    -2.454100        0.4000           0   0.00000   0.00000
     22837 MEOH     825      MEOH     O1       OD31H    2.488300       15.5990           0   -1.02800   1.30000
     22838 MEOH     825      MEOH     DO1      DRUD    -2.488300        0.4000           0   0.00000   0.00000
     22839 MEOH     825      MEOH     HO1      HDP1A    0.360000        1.0080           0   0.00000   0.00000
     22840 MEOH     825      MEOH     HO2      DUMH     0.000000        1.0080           0   0.00000   0.00000
     22841 MEOH     825      MEOH     H1A      HDA3B    0.080000        1.0080           0   0.00000   0.00000
     22842 MEOH     825      MEOH     H1B      HDA3B    0.080000        1.0080           0   0.00000   0.00000
     22843 MEOH     825      MEOH     H1C      HDA3B    0.080000        1.0080           0   0.00000   0.00000
     22844 MEOH     825      MEOH     LP1A     LPD     -0.230000        0.0000           -1   0.00000   0.00000
     22845 MEOH     825      MEOH     LP1B     LPD     -0.230000        0.0000           -1   0.00000   0.00000
     22846 MEOH     826      MEOH     C1       CD33B    2.314100       11.6110           0   -1.00000   1.30000
     22847 MEOH     826      MEOH     DC1      DRUD    -2.454100        0.4000           0   0.00000   0.00000
     22848 MEOH     826      MEOH     O1       OD31H    2.488300       15.5990           0   -1.02800   1.30000
     22849 MEOH     826      MEOH     DO1      DRUD    -2.488300        0.4000           0   0.00000   0.00000
     22850 MEOH     826      MEOH     HO1      HDP1A    0.360000        1.0080           0   0.00000   0.00000
     22851 MEOH     826      MEOH     HO2      DUMH     0.000000        1.0080           0   0.00000   0.00000
     22852 MEOH     826      MEOH     H1A      HDA3B    0.080000        1.0080           0   0.00000   0.00000
     22853 MEOH     826      MEOH     H1B      HDA3B    0.080000        1.0080           0   0.00000   0.00000
     22854 MEOH     826      MEOH     H1C      HDA3B    0.080000        1.0080           0   0.00000   0.00000
     22855 MEOH     826      MEOH     LP1A     LPD     -0.230000        0.0000           -1   0.00000   0.00000
     22856 MEOH     826      MEOH     LP1B     LPD     -0.230000        0.0000           -1   0.00000   0.00000
     22857 MEOH     827      MEOH     C1       CD33B    2.314100       11.6110           0   -1.00000   1.30000
     22858 MEOH     827      MEOH     DC1      DRUD    -2.454100        0.4000           0   0.00000   0.00000
     22859 MEOH     827      MEOH     O1       OD31H    2.488300       15.5990           0   -1.02800   1.30000
     22860 MEOH     827      MEOH     DO1      DRUD    -2.488300        0.4000           0   0.00000   0.00000
     22861 MEOH     827      MEOH     HO1      HDP1A    0.360000        1.0080           0   0.00000   0.00000
     22862 MEOH     827      MEOH     HO2      DUMH     0.000000        1.0080           0   0.00000   0.00000
     22863 MEOH     827      MEOH     H1A      HDA3B    0.080000        1.0080           0   0.00000   0.00000
     22864 MEOH     827      MEOH     H1B      HDA3B    0.080000        1.0080           0   0.00000   0.00000
     22865 MEOH     827      MEOH     H1C      HDA3B    0.080000        1.0080           0   0.00000   0.00000
     22866 MEOH     827      MEOH     LP1A     LPD     -0.230000        0.0000           -1   0.00000   0.00000
     22867 MEOH     827      MEOH     LP1B     LPD     -0.230000        0.0000           -1   0.00000   0.00000
     22868 MEOH     828      MEOH     C1       CD33B    2.314100       11.6110           0   -1.00000   1.30000
     22869 MEOH     828      MEOH     DC1      DRUD    -2.454100        0.4000           0   0.00000   0.00000
     22870 MEOH     828      MEOH     O1       OD31H    2.488300       15.5990           0   -1.02800   1.30000
     22871 MEOH     828      MEOH     DO1      DRUD    -2.488300        0.4000           0   0.00000   0.00000
     22872 MEOH     828      MEOH     HO1      HDP1A    0.360000        1.0080           0   0.00000   0.00000
     22873 MEOH     828      MEOH     HO2      DUMH     0.000000        1.0080           0   0.00000   0.00000
     22874 MEOH     828      MEOH     H1A      HDA3B    0.080000        1.0080           0   0.00000   0.00000
     22875 MEOH     828      MEOH     H1B      HDA3B    0.080000        1.0080           0   0.00000   0.00000
     22876 MEOH     828      MEOH     H1C      HDA3B    0.080000        1.0080           0   0.00000   0.00000
     22877 MEOH     828      MEOH     LP1A     LPD     -0.230000        0.0000           -1   0.00000   0.00000
     22878 MEOH     828      MEOH     LP1B     LPD     -0.230000        0.0000           -1   0.00000   0.00000
     22879 MEOH     829      MEOH     C1       CD33B    2.314100       11.6110           0   -1.00000   1.30000
     22880 MEOH     829      MEOH     DC1      DRUD    -2.454100        0.4000           0   0.00000   0.00000
     22881 MEOH     829      MEOH     O1       OD31H    2.488300       15.5990           0   -1.02800   1.30000
     22882 MEOH     829      MEOH     DO1      DRUD    -2.488300        0.4000           0   0.00000   0.00000
     22883 MEOH     829      MEOH     HO1      HDP1A    0.360000        1.0080           0   0.00000   0.00000
     22884 MEOH     829      MEOH     HO2      DUMH     0.000000        1.0080           0   0.00000   0.00000
     22885 MEOH     829      MEOH     H1A      HDA3B    0.080000        1.0080           0   0.00000   0.00000
     22886 MEOH     829      MEOH     H1B      HDA3B    0.080000        1.0080           0   0.00000   0.00000
     22887 MEOH     829      MEOH     H1C      HDA3B    0.080000        1.0080           0   0.00000   0.00000
     22888 MEOH     829      MEOH     LP1A     LPD     -0.230000        0.0000           -1   0.00000   0.00000
     22889 MEOH     829      MEOH     LP1B     LPD     -0.230000        0.0000           -1   0.00000   0.00000
     22890 MEOH     830      MEOH     C1       CD33B    2.314100       11.6110           0   -1.00000   1.30000
     22891 MEOH     830      MEOH     DC1      DRUD    -2.454100        0.4000           0   0.00000   0.00000
     22892 MEOH     830      MEOH     O1       OD31H    2.488300       15.5990           0   -1.02800   1.30000
     22893 MEOH     830      MEOH     DO1      DRUD    -2.488300        0.4000           0   0.00000   0.00000
     22894 MEOH     830      MEOH     HO1      HDP1A    0.360000        1.0080           0   0.00000   0.00000
     22895 MEOH     830      MEOH     HO2      DUMH     0.000000        1.0080           0   0.00000   0.00000
     22896 MEOH     830      MEOH     H1A      HDA3B    0.080000        1.0080           0   0.00000   0.00000
     22897 MEOH     830      MEOH     H1B      HDA3B    0.080000        1.0080           0   0.00000   0.00000
     22898 MEOH     830      MEOH     H1C      HDA3B    0.080000        1.0080           0   0.00000   0.00000
     22899 MEOH     830      MEOH     LP1A     LPD     -0.230000        0.0000           -1   0.00000   0.00000
     22900 MEOH     830      MEOH     LP1B     LPD     -0.230000        0.0000           -1   0.00000   0.00000
     22901 MEOH     831      MEOH     C1       CD33B    2.314100       11.6110           0   -1.00000   1.30000
     22902 MEOH     831      MEOH     DC1      DRUD    -2.454100        0.4000           0   0.00000   0.00000
     22903 MEOH     831      MEOH     O1       OD31H    2.488300       15.5990           0   -1.02800   1.30000
     22904 MEOH     831      MEOH     DO1      DRUD    -2.488300        0.4000           0   0.00000   0.00000
     22905 MEOH     831      MEOH     HO1      HDP1A    0.360000        1.0080           0   0.00000   0.00000
     22906 MEOH     831      MEOH     HO2      DUMH     0.000000        1.0080           0   0.00000   0.00000
     22907 MEOH     831      MEOH     H1A      HDA3B    0.080000        1.0080           0   0.00000   0.00000
     22908 MEOH     831      MEOH     H1B      HDA3B    0.080000        1.0080           0   0.00000   0.00000
     22909 MEOH     831      MEOH     H1C      HDA3B    0.080000        1.0080           0   0.00000   0.00000
     22910 MEOH     831      MEOH     LP1A     LPD     -0.230000        0.0000           -1   0.00000   0.00000
     22911 MEOH     831      MEOH     LP1B     LPD     -0.230000        0.0000           -1   0.00000   0.00000
     22912 MEOH     832      MEOH     C1       CD33B    2.314100       11.6110           0   -1.00000   1.30000
     22913 MEOH     832      MEOH     DC1      DRUD    -2.454100        0.4000           0   0.00000   0.00000
     22914 MEOH     832      MEOH     O1       OD31H    2.488300       15.5990           0   -1.02800   1.30000
     22915 MEOH     832      MEOH     DO1      DRUD    -2.488300        0.4000           0   0.00000   0.00000
     22916 MEOH     832      MEOH     HO1      HDP1A    0.360000        1.0080           0   0.00000   0.00000
     22917 MEOH     832      MEOH     HO2      DUMH     0.000000        1.0080           0   0.00000   0.00000
     22918 MEOH     832      MEOH     H1A      HDA3B    0.080000        1.0080           0   0.00000   0.00000
     22919 MEOH     832      MEOH     H1B      HDA3B    0.080000        1.0080           0   0.00000   0.00000
     22920 MEOH     832      MEOH     H1C      HDA3B    0.080000        1.0080           0   0.00000   0.00000
     22921 MEOH     832      MEOH     LP1A     LPD     -0.230000        0.0000           -1   0.00000   0.00000
     22922 MEOH     832      MEOH     LP1B     LPD     -0.230000        0.0000           -1   0.00000   0.00000
     22923 MEOH     833      MEOH     C1       CD33B    2.314100       11.6110           0   -1.00000   1.30000
     22924 MEOH     833      MEOH     DC1      DRUD    -2.454100        0.4000           0   0.00000   0.00000
     22925 MEOH     833      MEOH     O1       OD31H    2.488300       15.5990           0   -1.02800   1.30000
     22926 MEOH     833      MEOH     DO1      DRUD    -2.488300        0.4000           0   0.00000   0.00000
     22927 MEOH     833      MEOH     HO1      HDP1A    0.360000        1.0080           0   0.00000   0.00000
     22928 MEOH     833      MEOH     HO2      DUMH     0.000000        1.0080           0   0.00000   0.00000
     22929 MEOH     833      MEOH     H1A      HDA3B    0.080000        1.0080           0   0.00000   0.00000
     22930 MEOH     833      MEOH     H1B      HDA3B    0.080000        1.0080           0   0.00000   0.00000
     22931 MEOH     833      MEOH     H1C      HDA3B    0.080000        1.0080           0   0.00000   0.00000
     22932 MEOH     833      MEOH     LP1A     LPD     -0.230000        0.0000           -1   0.00000   0.00000
     22933 MEOH     833      MEOH     LP1B     LPD     -0.230000        0.0000           -1   0.00000   0.00000
     22934 MEOH     834      MEOH     C1       CD33B    2.314100       11.6110           0   -1.00000   1.30000
     22935 MEOH     834      MEOH     DC1      DRUD    -2.454100        0.4000           0   0.00000   0.00000
     22936 MEOH     834      MEOH     O1       OD31H    2.488300       15.5990           0   -1.02800   1.30000
     22937 MEOH     834      MEOH     DO1      DRUD    -2.488300        0.4000           0   0.00000   0.00000
     22938 MEOH     834      MEOH     HO1      HDP1A    0.360000        1.0080           0   0.00000   0.00000
     22939 MEOH     834      MEOH     HO2      DUMH     0.000000        1.0080           0   0.00000   0.00000
     22940 MEOH     834      MEOH     H1A      HDA3B    0.080000        1.0080           0   0.00000   0.00000
     22941 MEOH     834      MEOH     H1B      HDA3B    0.080000        1.0080           0   0.00000   0.00000
     22942 MEOH     834      MEOH     H1C      HDA3B    0.080000        1.0080           0   0.00000   0.00000
     22943 MEOH     834      MEOH     LP1A     LPD     -0.230000        0.0000           -1   0.00000   0.00000
     22944 MEOH     834      MEOH     LP1B     LPD     -0.230000        0.0000           -1   0.00000   0.00000
     22945 MEOH     835      MEOH     C1       CD33B    2.314100       11.6110           0   -1.00000   1.30000
     22946 MEOH     835      MEOH     DC1      DRUD    -2.454100        0.4000           0   0.00000   0.00000
     22947 MEOH     835      MEOH     O1       OD31H    2.488300       15.5990           0   -1.02800   1.30000
     22948 MEOH     835      MEOH     DO1      DRUD    -2.488300        0.4000           0   0.00000   0.00000
     22949 MEOH     835      MEOH     HO1      HDP1A    0.360000        1.0080           0   0.00000   0.00000
     22950 MEOH     835      MEOH     HO2      DUMH     0.000000        1.0080           0   0.00000   0.00000
     22951 MEOH     835      MEOH     H1A      HDA3B    0.080000        1.0080           0   0.00000   0.00000
     22952 MEOH     835      MEOH     H1B      HDA3B    0.080000        1.0080           0   0.00000   0.00000
     22953 MEOH     835      MEOH     H1C      HDA3B    0.080000        1.0080           0   0.00000   0.00000
     22954 MEOH     835      MEOH     LP1A     LPD     -0.230000        0.0000           -1   0.00000   0.00000
     22955 MEOH     835      MEOH     LP1B     LPD     -0.230000        0.0000           -1   0.00000   0.00000
     22956 MEOH     836      MEOH     C1       CD33B    2.314100       11.6110           0   -1.00000   1.30000
     22957 MEOH     836      MEOH     DC1      DRUD    -2.454100        0.4000           0   0.00000   0.00000
     22958 MEOH     836      MEOH     O1       OD31H    2.488300       15.5990           0   -1.02800   1.30000
     22959 MEOH     836      MEOH     DO1      DRUD    -2.488300        0.4000           0   0.00000   0.00000
     22960 MEOH     836      MEOH     HO1      HDP1A    0.360000        1.0080           0   0.00000   0.00000
     22961 MEOH     836      MEOH     HO2      DUMH     0.000000        1.0080           0   0.00000   0.00000
     22962 MEOH     836      MEOH     H1A      HDA3B    0.080000        1.0080           0   0.00000   0.00000
     22963 MEOH     836      MEOH     H1B      HDA3B    0.080000        1.0080           0   0.00000   0.00000
     22964 MEOH     836      MEOH     H1C      HDA3B    0.080000        1.0080           0   0.00000   0.00000
     22965 MEOH     836      MEOH     LP1A     LPD     -0.230000        0.0000           -1   0.00000   0.00000
     22966 MEOH     836      MEOH     LP1B     LPD     -0.230000        0.0000           -1   0.00000   0.00000
     22967 MEOH     837      MEOH     C1       CD33B    2.314100       11.6110           0   -1.00000   1.30000
     22968 MEOH     837      MEOH     DC1      DRUD    -2.454100        0.4000           0   0.00000   0.00000
     22969 MEOH     837      MEOH     O1       OD31H    2.488300       15.5990           0   -1.02800   1.30000
     22970 MEOH     837      MEOH     DO1      DRUD    -2.488300        0.4000           0   0.00000   0.00000
     22971 MEOH     837      MEOH     HO1      HDP1A    0.360000        1.0080           0   0.00000   0.00000
     22972 MEOH     837      MEOH     HO2      DUMH     0.000000        1.0080           0   0.00000   0.00000
     22973 MEOH     837      MEOH     H1A      HDA3B    0.080000        1.0080           0   0.00000   0.00000
     22974 MEOH     837      MEOH     H1B      HDA3B    0.080000        1.0080           0   0.00000   0.00000
     22975 MEOH     837      MEOH     H1C      HDA3B    0.080000        1.0080           0   0.00000   0.00000
     22976 MEOH     837      MEOH     LP1A     LPD     -0.230000        0.0000           -1   0.00000   0.00000
     22977 MEOH     837      MEOH     LP1B     LPD     -0.230000        0.0000           -1   0.00000   0.00000
     22978 MEOH     838      MEOH     C1       CD33B    2.314100       11.6110           0   -1.00000   1.30000
     22979 MEOH     838      MEOH     DC1      DRUD    -2.454100        0.4000           0   0.00000   0.00000
     22980 MEOH     838      MEOH     O1       OD31H    2.488300       15.5990           0   -1.02800   1.30000
     22981 MEOH     838      MEOH     DO1      DRUD    -2.488300        0.4000           0   0.00000   0.00000
     22982 MEOH     838      MEOH     HO1      HDP1A    0.360000        1.0080           0   0.00000   0.00000
     22983 MEOH     838      MEOH     HO2      DUMH     0.000000        1.0080           0   0.00000   0.00000
     22984 MEOH     838      MEOH     H1A      HDA3B    0.080000        1.0080           0   0.00000   0.00000
     22985 MEOH     838      MEOH     H1B      HDA3B    0.080000        1.0080           0   0.00000   0.00000
     22986 MEOH     838      MEOH     H1C      HDA3B    0.080000        1.0080           0   0.00000   0.00000
     22987 MEOH     838      MEOH     LP1A     LPD     -0.230000        0.0000           -1   0.00000   0.00000
     22988 MEOH     838      MEOH     LP1B     LPD     -0.230000        0.0000           -1   0.00000   0.00000
     22989 MEOH     839      MEOH     C1       CD33B    2.314100       11.6110           0   -1.00000   1.30000
     22990 MEOH     839      MEOH     DC1      DRUD    -2.454100        0.4000           0   0.00000   0.00000
     22991 MEOH     839      MEOH     O1       OD31H    2.488300       15.5990           0   -1.02800   1.30000
     22992 MEOH     839      MEOH     DO1      DRUD    -2.488300        0.4000           0   0.00000   0.00000
     22993 MEOH     839      MEOH     HO1      HDP1A    0.360000        1.0080           0   0.00000   0.00000
     22994 MEOH     839      MEOH     HO2      DUMH     0.000000        1.0080           0   0.00000   0.00000
     22995 MEOH     839      MEOH     H1A      HDA3B    0.080000        1.0080           0   0.00000   0.00000
     22996 MEOH     839      MEOH     H1B      HDA3B    0.080000        1.0080           0   0.00000   0.00000
     22997 MEOH     839      MEOH     H1C      HDA3B    0.080000        1.0080           0   0.00000   0.00000
     22998 MEOH     839      MEOH     LP1A     LPD     -0.230000        0.0000           -1   0.00000   0.00000
     22999 MEOH     839      MEOH     LP1B     LPD     -0.230000        0.0000           -1   0.00000   0.00000
     23000 MEOH     840      MEOH     C1       CD33B    2.314100       11.6110           0   -1.00000   1.30000
     23001 MEOH     840      MEOH     DC1      DRUD    -2.454100        0.4000           0   0.00000   0.00000
     23002 MEOH     840      MEOH     O1       OD31H    2.488300       15.5990           0   -1.02800   1.30000
     23003 MEOH     840      MEOH     DO1      DRUD    -2.488300        0.4000           0   0.00000   0.00000
     23004 MEOH     840      MEOH     HO1      HDP1A    0.360000        1.0080           0   0.00000   0.00000
     23005 MEOH     840      MEOH     HO2      DUMH     0.000000        1.0080           0   0.00000   0.00000
     23006 MEOH     840      MEOH     H1A      HDA3B    0.080000        1.0080           0   0.00000   0.00000
     23007 MEOH     840      MEOH     H1B      HDA3B    0.080000        1.0080           0   0.00000   0.00000
     23008 MEOH     840      MEOH     H1C      HDA3B    0.080000        1.0080           0   0.00000   0.00000
     23009 MEOH     840      MEOH     LP1A     LPD     -0.230000        0.0000           -1   0.00000   0.00000
     23010 MEOH     840      MEOH     LP1B     LPD     -0.230000        0.0000           -1   0.00000   0.00000
     23011 MEOH     841      MEOH     C1       CD33B    2.314100       11.6110           0   -1.00000   1.30000
     23012 MEOH     841      MEOH     DC1      DRUD    -2.454100        0.4000           0   0.00000   0.00000
     23013 MEOH     841      MEOH     O1       OD31H    2.488300       15.5990           0   -1.02800   1.30000
     23014 MEOH     841      MEOH     DO1      DRUD    -2.488300        0.4000           0   0.00000   0.00000
     23015 MEOH     841      MEOH     HO1      HDP1A    0.360000        1.0080           0   0.00000   0.00000
     23016 MEOH     841      MEOH     HO2      DUMH     0.000000        1.0080           0   0.00000   0.00000
     23017 MEOH     841      MEOH     H1A      HDA3B    0.080000        1.0080           0   0.00000   0.00000
     23018 MEOH     841      MEOH     H1B      HDA3B    0.080000        1.0080           0   0.00000   0.00000
     23019 MEOH     841      MEOH     H1C      HDA3B    0.080000        1.0080           0   0.00000   0.00000
     23020 MEOH     841      MEOH     LP1A     LPD     -0.230000        0.0000           -1   0.00000   0.00000
     23021 MEOH     841      MEOH     LP1B     LPD     -0.230000        0.0000           -1   0.00000   0.00000
     23022 MEOH     842      MEOH     C1       CD33B    2.314100       11.6110           0   -1.00000   1.30000
     23023 MEOH     842      MEOH     DC1      DRUD    -2.454100        0.4000           0   0.00000   0.00000
     23024 MEOH     842      MEOH     O1       OD31H    2.488300       15.5990           0   -1.02800   1.30000
     23025 MEOH     842      MEOH     DO1      DRUD    -2.488300        0.4000           0   0.00000   0.00000
     23026 MEOH     842      MEOH     HO1      HDP1A    0.360000        1.0080           0   0.00000   0.00000
     23027 MEOH     842      MEOH     HO2      DUMH     0.000000        1.0080           0   0.00000   0.00000
     23028 MEOH     842      MEOH     H1A      HDA3B    0.080000        1.0080           0   0.00000   0.00000
     23029 MEOH     842      MEOH     H1B      HDA3B    0.080000        1.0080           0   0.00000   0.00000
     23030 MEOH     842      MEOH     H1C      HDA3B    0.080000        1.0080           0   0.00000   0.00000
     23031 MEOH     842      MEOH     LP1A     LPD     -0.230000        0.0000           -1   0.00000   0.00000
     23032 MEOH     842      MEOH     LP1B     LPD     -0.230000        0.0000           -1   0.00000   0.00000
     23033 MEOH     843      MEOH     C1       CD33B    2.314100       11.6110           0   -1.00000   1.30000
     23034 MEOH     843      MEOH     DC1      DRUD    -2.454100        0.4000           0   0.00000   0.00000
     23035 MEOH     843      MEOH     O1       OD31H    2.488300       15.5990           0   -1.02800   1.30000
     23036 MEOH     843      MEOH     DO1      DRUD    -2.488300        0.4000           0   0.00000   0.00000
     23037 MEOH     843      MEOH     HO1      HDP1A    0.360000        1.0080           0   0.00000   0.00000
     23038 MEOH     843      MEOH     HO2      DUMH     0.000000        1.0080           0   0.00000   0.00000
     23039 MEOH     843      MEOH     H1A      HDA3B    0.080000        1.0080           0   0.00000   0.00000
     23040 MEOH     843      MEOH     H1B      HDA3B    0.080000        1.0080           0   0.00000   0.00000
     23041 MEOH     843      MEOH     H1C      HDA3B    0.080000        1.0080           0   0.00000   0.00000
     23042 MEOH     843      MEOH     LP1A     LPD     -0.230000        0.0000           -1   0.00000   0.00000
     23043 MEOH     843      MEOH     LP1B     LPD     -0.230000        0.0000           -1   0.00000   0.00000
     23044 MEOH     844      MEOH     C1       CD33B    2.314100       11.6110           0   -1.00000   1.30000
     23045 MEOH     844      MEOH     DC1      DRUD    -2.454100        0.4000           0   0.00000   0.00000
     23046 MEOH     844      MEOH     O1       OD31H    2.488300       15.5990           0   -1.02800   1.30000
     23047 MEOH     844      MEOH     DO1      DRUD    -2.488300        0.4000           0   0.00000   0.00000
     23048 MEOH     844      MEOH     HO1      HDP1A    0.360000        1.0080           0   0.00000   0.00000
     23049 MEOH     844      MEOH     HO2      DUMH     0.000000        1.0080           0   0.00000   0.00000
     23050 MEOH     844      MEOH     H1A      HDA3B    0.080000        1.0080           0   0.00000   0.00000
     23051 MEOH     844      MEOH     H1B      HDA3B    0.080000        1.0080           0   0.00000   0.00000
     23052 MEOH     844      MEOH     H1C      HDA3B    0.080000        1.0080           0   0.00000   0.00000
     23053 MEOH     844      MEOH     LP1A     LPD     -0.230000        0.0000           -1   0.00000   0.00000
     23054 MEOH     844      MEOH     LP1B     LPD     -0.230000        0.0000           -1   0.00000   0.00000
     23055 MEOH     845      MEOH     C1       CD33B    2.314100       11.6110           0   -1.00000   1.30000
     23056 MEOH     845      MEOH     DC1      DRUD    -2.454100        0.4000           0   0.00000   0.00000
     23057 MEOH     845      MEOH     O1       OD31H    2.488300       15.5990           0   -1.02800   1.30000
     23058 MEOH     845      MEOH     DO1      DRUD    -2.488300        0.4000           0   0.00000   0.00000
     23059 MEOH     845      MEOH     HO1      HDP1A    0.360000        1.0080           0   0.00000   0.00000
     23060 MEOH     845      MEOH     HO2      DUMH     0.000000        1.0080           0   0.00000   0.00000
     23061 MEOH     845      MEOH     H1A      HDA3B    0.080000        1.0080           0   0.00000   0.00000
     23062 MEOH     845      MEOH     H1B      HDA3B    0.080000        1.0080           0   0.00000   0.00000
     23063 MEOH     845      MEOH     H1C      HDA3B    0.080000        1.0080           0   0.00000   0.00000
     23064 MEOH     845      MEOH     LP1A     LPD     -0.230000        0.0000           -1   0.00000   0.00000
     23065 MEOH     845      MEOH     LP1B     LPD     -0.230000        0.0000           -1   0.00000   0.00000
     23066 MEOH     846      MEOH     C1       CD33B    2.314100       11.6110           0   -1.00000   1.30000
     23067 MEOH     846      MEOH     DC1      DRUD    -2.454100        0.4000           0   0.00000   0.00000
     23068 MEOH     846      MEOH     O1       OD31H    2.488300       15.5990           0   -1.02800   1.30000
     23069 MEOH     846      MEOH     DO1      DRUD    -2.488300        0.4000           0   0.00000   0.00000
     23070 MEOH     846      MEOH     HO1      HDP1A    0.360000        1.0080           0   0.00000   0.00000
     23071 MEOH     846      MEOH     HO2      DUMH     0.000000        1.0080           0   0.00000   0.00000
     23072 MEOH     846      MEOH     H1A      HDA3B    0.080000        1.0080           0   0.00000   0.00000
     23073 MEOH     846      MEOH     H1B      HDA3B    0.080000        1.0080           0   0.00000   0.00000
     23074 MEOH     846      MEOH     H1C      HDA3B    0.080000        1.0080           0   0.00000   0.00000
     23075 MEOH     846      MEOH     LP1A     LPD     -0.230000        0.0000           -1   0.00000   0.00000
     23076 MEOH     846      MEOH     LP1B     LPD     -0.230000        0.0000           -1   0.00000   0.00000
     23077 MEOH     847      MEOH     C1       CD33B    2.314100       11.6110           0   -1.00000   1.30000
     23078 MEOH     847      MEOH     DC1      DRUD    -2.454100        0.4000           0   0.00000   0.00000
     23079 MEOH     847      MEOH     O1       OD31H    2.488300       15.5990           0   -1.02800   1.30000
     23080 MEOH     847      MEOH     DO1      DRUD    -2.488300        0.4000           0   0.00000   0.00000
     23081 MEOH     847      MEOH     HO1      HDP1A    0.360000        1.0080           0   0.00000   0.00000
     23082 MEOH     847      MEOH     HO2      DUMH     0.000000        1.0080           0   0.00000   0.00000
     23083 MEOH     847      MEOH     H1A      HDA3B    0.080000        1.0080           0   0.00000   0.00000
     23084 MEOH     847      MEOH     H1B      HDA3B    0.080000        1.0080           0   0.00000   0.00000
     23085 MEOH     847      MEOH     H1C      HDA3B    0.080000        1.0080           0   0.00000   0.00000
     23086 MEOH     847      MEOH     LP1A     LPD     -0.230000        0.0000           -1   0.00000   0.00000
     23087 MEOH     847      MEOH     LP1B     LPD     -0.230000        0.0000           -1   0.00000   0.00000
     23088 MEOH     848      MEOH     C1       CD33B    2.314100       11.6110           0   -1.00000   1.30000
     23089 MEOH     848      MEOH     DC1      DRUD    -2.454100        0.4000           0   0.00000   0.00000
     23090 MEOH     848      MEOH     O1       OD31H    2.488300       15.5990           0   -1.02800   1.30000
     23091 MEOH     848      MEOH     DO1      DRUD    -2.488300        0.4000           0   0.00000   0.00000
     23092 MEOH     848      MEOH     HO1      HDP1A    0.360000        1.0080           0   0.00000   0.00000
     23093 MEOH     848      MEOH     HO2      DUMH     0.000000        1.0080           0   0.00000   0.00000
     23094 MEOH     848      MEOH     H1A      HDA3B    0.080000        1.0080           0   0.00000   0.00000
     23095 MEOH     848      MEOH     H1B      HDA3B    0.080000        1.0080           0   0.00000   0.00000
     23096 MEOH     848      MEOH     H1C      HDA3B    0.080000        1.0080           0   0.00000   0.00000
     23097 MEOH     848      MEOH     LP1A     LPD     -0.230000        0.0000           -1   0.00000   0.00000
     23098 MEOH     848      MEOH     LP1B     LPD     -0.230000        0.0000           -1   0.00000   0.00000
     23099 MEOH     849      MEOH     C1       CD33B    2.314100       11.6110           0   -1.00000   1.30000
     23100 MEOH     849      MEOH     DC1      DRUD    -2.454100        0.4000           0   0.00000   0.00000
     23101 MEOH     849      MEOH     O1       OD31H    2.488300       15.5990           0   -1.02800   1.30000
     23102 MEOH     849      MEOH     DO1      DRUD    -2.488300        0.4000           0   0.00000   0.00000
     23103 MEOH     849      MEOH     HO1      HDP1A    0.360000        1.0080           0   0.00000   0.00000
     23104 MEOH     849      MEOH     HO2      DUMH     0.000000        1.0080           0   0.00000   0.00000
     23105 MEOH     849      MEOH     H1A      HDA3B    0.080000        1.0080           0   0.00000   0.00000
     23106 MEOH     849      MEOH     H1B      HDA3B    0.080000        1.0080           0   0.00000   0.00000
     23107 MEOH     849      MEOH     H1C      HDA3B    0.080000        1.0080           0   0.00000   0.00000
     23108 MEOH     849      MEOH     LP1A     LPD     -0.230000        0.0000           -1   0.00000   0.00000
     23109 MEOH     849      MEOH     LP1B     LPD     -0.230000        0.0000           -1   0.00000   0.00000
     23110 MEOH     850      MEOH     C1       CD33B    2.314100       11.6110           0   -1.00000   1.30000
     23111 MEOH     850      MEOH     DC1      DRUD    -2.454100        0.4000           0   0.00000   0.00000
     23112 MEOH     850      MEOH     O1       OD31H    2.488300       15.5990           0   -1.02800   1.30000
     23113 MEOH     850      MEOH     DO1      DRUD    -2.488300        0.4000           0   0.00000   0.00000
     23114 MEOH     850      MEOH     HO1      HDP1A    0.360000        1.0080           0   0.00000   0.00000
     23115 MEOH     850      MEOH     HO2      DUMH     0.000000        1.0080           0   0.00000   0.00000
     23116 MEOH     850      MEOH     H1A      HDA3B    0.080000        1.0080           0   0.00000   0.00000
     23117 MEOH     850      MEOH     H1B      HDA3B    0.080000        1.0080           0   0.00000   0.00000
     23118 MEOH     850      MEOH     H1C      HDA3B    0.080000        1.0080           0   0.00000   0.00000
     23119 MEOH     850      MEOH     LP1A     LPD     -0.230000        0.0000           -1   0.00000   0.00000
     23120 MEOH     850      MEOH     LP1B     LPD     -0.230000        0.0000           -1   0.00000   0.00000
     23121 MEOH     851      MEOH     C1       CD33B    2.314100       11.6110           0   -1.00000   1.30000
     23122 MEOH     851      MEOH     DC1      DRUD    -2.454100        0.4000           0   0.00000   0.00000
     23123 MEOH     851      MEOH     O1       OD31H    2.488300       15.5990           0   -1.02800   1.30000
     23124 MEOH     851      MEOH     DO1      DRUD    -2.488300        0.4000           0   0.00000   0.00000
     23125 MEOH     851      MEOH     HO1      HDP1A    0.360000        1.0080           0   0.00000   0.00000
     23126 MEOH     851      MEOH     HO2      DUMH     0.000000        1.0080           0   0.00000   0.00000
     23127 MEOH     851      MEOH     H1A      HDA3B    0.080000        1.0080           0   0.00000   0.00000
     23128 MEOH     851      MEOH     H1B      HDA3B    0.080000        1.0080           0   0.00000   0.00000
     23129 MEOH     851      MEOH     H1C      HDA3B    0.080000        1.0080           0   0.00000   0.00000
     23130 MEOH     851      MEOH     LP1A     LPD     -0.230000        0.0000           -1   0.00000   0.00000
     23131 MEOH     851      MEOH     LP1B     LPD     -0.230000        0.0000           -1   0.00000   0.00000
     23132 MEOH     852      MEOH     C1       CD33B    2.314100       11.6110           0   -1.00000   1.30000
     23133 MEOH     852      MEOH     DC1      DRUD    -2.454100        0.4000           0   0.00000   0.00000
     23134 MEOH     852      MEOH     O1       OD31H    2.488300       15.5990           0   -1.02800   1.30000
     23135 MEOH     852      MEOH     DO1      DRUD    -2.488300        0.4000           0   0.00000   0.00000
     23136 MEOH     852      MEOH     HO1      HDP1A    0.360000        1.0080           0   0.00000   0.00000
     23137 MEOH     852      MEOH     HO2      DUMH     0.000000        1.0080           0   0.00000   0.00000
     23138 MEOH     852      MEOH     H1A      HDA3B    0.080000        1.0080           0   0.00000   0.00000
     23139 MEOH     852      MEOH     H1B      HDA3B    0.080000        1.0080           0   0.00000   0.00000
     23140 MEOH     852      MEOH     H1C      HDA3B    0.080000        1.0080           0   0.00000   0.00000
     23141 MEOH     852      MEOH     LP1A     LPD     -0.230000        0.0000           -1   0.00000   0.00000
     23142 MEOH     852      MEOH     LP1B     LPD     -0.230000        0.0000           -1   0.00000   0.00000
     23143 MEOH     853      MEOH     C1       CD33B    2.314100       11.6110           0   -1.00000   1.30000
     23144 MEOH     853      MEOH     DC1      DRUD    -2.454100        0.4000           0   0.00000   0.00000
     23145 MEOH     853      MEOH     O1       OD31H    2.488300       15.5990           0   -1.02800   1.30000
     23146 MEOH     853      MEOH     DO1      DRUD    -2.488300        0.4000           0   0.00000   0.00000
     23147 MEOH     853      MEOH     HO1      HDP1A    0.360000        1.0080           0   0.00000   0.00000
     23148 MEOH     853      MEOH     HO2      DUMH     0.000000        1.0080           0   0.00000   0.00000
     23149 MEOH     853      MEOH     H1A      HDA3B    0.080000        1.0080           0   0.00000   0.00000
     23150 MEOH     853      MEOH     H1B      HDA3B    0.080000        1.0080           0   0.00000   0.00000
     23151 MEOH     853      MEOH     H1C      HDA3B    0.080000        1.0080           0   0.00000   0.00000
     23152 MEOH     853      MEOH     LP1A     LPD     -0.230000        0.0000           -1   0.00000   0.00000
     23153 MEOH     853      MEOH     LP1B     LPD     -0.230000        0.0000           -1   0.00000   0.00000
     23154 MEOH     854      MEOH     C1       CD33B    2.314100       11.6110           0   -1.00000   1.30000
     23155 MEOH     854      MEOH     DC1      DRUD    -2.454100        0.4000           0   0.00000   0.00000
     23156 MEOH     854      MEOH     O1       OD31H    2.488300       15.5990           0   -1.02800   1.30000
     23157 MEOH     854      MEOH     DO1      DRUD    -2.488300        0.4000           0   0.00000   0.00000
     23158 MEOH     854      MEOH     HO1      HDP1A    0.360000        1.0080           0   0.00000   0.00000
     23159 MEOH     854      MEOH     HO2      DUMH     0.000000        1.0080           0   0.00000   0.00000
     23160 MEOH     854      MEOH     H1A      HDA3B    0.080000        1.0080           0   0.00000   0.00000
     23161 MEOH     854      MEOH     H1B      HDA3B    0.080000        1.0080           0   0.00000   0.00000
     23162 MEOH     854      MEOH     H1C      HDA3B    0.080000        1.0080           0   0.00000   0.00000
     23163 MEOH     854      MEOH     LP1A     LPD     -0.230000        0.0000           -1   0.00000   0.00000
     23164 MEOH     854      MEOH     LP1B     LPD     -0.230000        0.0000           -1   0.00000   0.00000
     23165 MEOH     855      MEOH     C1       CD33B    2.314100       11.6110           0   -1.00000   1.30000
     23166 MEOH     855      MEOH     DC1      DRUD    -2.454100        0.4000           0   0.00000   0.00000
     23167 MEOH     855      MEOH     O1       OD31H    2.488300       15.5990           0   -1.02800   1.30000
     23168 MEOH     855      MEOH     DO1      DRUD    -2.488300        0.4000           0   0.00000   0.00000
     23169 MEOH     855      MEOH     HO1      HDP1A    0.360000        1.0080           0   0.00000   0.00000
     23170 MEOH     855      MEOH     HO2      DUMH     0.000000        1.0080           0   0.00000   0.00000
     23171 MEOH     855      MEOH     H1A      HDA3B    0.080000        1.0080           0   0.00000   0.00000
     23172 MEOH     855      MEOH     H1B      HDA3B    0.080000        1.0080           0   0.00000   0.00000
     23173 MEOH     855      MEOH     H1C      HDA3B    0.080000        1.0080           0   0.00000   0.00000
     23174 MEOH     855      MEOH     LP1A     LPD     -0.230000        0.0000           -1   0.00000   0.00000
     23175 MEOH     855      MEOH     LP1B     LPD     -0.230000        0.0000           -1   0.00000   0.00000
     23176 MEOH     856      MEOH     C1       CD33B    2.314100       11.6110           0   -1.00000   1.30000
     23177 MEOH     856      MEOH     DC1      DRUD    -2.454100        0.4000           0   0.00000   0.00000
     23178 MEOH     856      MEOH     O1       OD31H    2.488300       15.5990           0   -1.02800   1.30000
     23179 MEOH     856      MEOH     DO1      DRUD    -2.488300        0.4000           0   0.00000   0.00000
     23180 MEOH     856      MEOH     HO1      HDP1A    0.360000        1.0080           0   0.00000   0.00000
     23181 MEOH     856      MEOH     HO2      DUMH     0.000000        1.0080           0   0.00000   0.00000
     23182 MEOH     856      MEOH     H1A      HDA3B    0.080000        1.0080           0   0.00000   0.00000
     23183 MEOH     856      MEOH     H1B      HDA3B    0.080000        1.0080           0   0.00000   0.00000
     23184 MEOH     856      MEOH     H1C      HDA3B    0.080000        1.0080           0   0.00000   0.00000
     23185 MEOH     856      MEOH     LP1A     LPD     -0.230000        0.0000           -1   0.00000   0.00000
     23186 MEOH     856      MEOH     LP1B     LPD     -0.230000        0.0000           -1   0.00000   0.00000
     23187 MEOH     857      MEOH     C1       CD33B    2.314100       11.6110           0   -1.00000   1.30000
     23188 MEOH     857      MEOH     DC1      DRUD    -2.454100        0.4000           0   0.00000   0.00000
     23189 MEOH     857      MEOH     O1       OD31H    2.488300       15.5990           0   -1.02800   1.30000
     23190 MEOH     857      MEOH     DO1      DRUD    -2.488300        0.4000           0   0.00000   0.00000
     23191 MEOH     857      MEOH     HO1      HDP1A    0.360000        1.0080           0   0.00000   0.00000
     23192 MEOH     857      MEOH     HO2      DUMH     0.000000        1.0080           0   0.00000   0.00000
     23193 MEOH     857      MEOH     H1A      HDA3B    0.080000        1.0080           0   0.00000   0.00000
     23194 MEOH     857      MEOH     H1B      HDA3B    0.080000        1.0080           0   0.00000   0.00000
     23195 MEOH     857      MEOH     H1C      HDA3B    0.080000        1.0080           0   0.00000   0.00000
     23196 MEOH     857      MEOH     LP1A     LPD     -0.230000        0.0000           -1   0.00000   0.00000
     23197 MEOH     857      MEOH     LP1B     LPD     -0.230000        0.0000           -1   0.00000   0.00000
     23198 MEOH     858      MEOH     C1       CD33B    2.314100       11.6110           0   -1.00000   1.30000
     23199 MEOH     858      MEOH     DC1      DRUD    -2.454100        0.4000           0   0.00000   0.00000
     23200 MEOH     858      MEOH     O1       OD31H    2.488300       15.5990           0   -1.02800   1.30000
     23201 MEOH     858      MEOH     DO1      DRUD    -2.488300        0.4000           0   0.00000   0.00000
     23202 MEOH     858      MEOH     HO1      HDP1A    0.360000        1.0080           0   0.00000   0.00000
     23203 MEOH     858      MEOH     HO2      DUMH     0.000000        1.0080           0   0.00000   0.00000
     23204 MEOH     858      MEOH     H1A      HDA3B    0.080000        1.0080           0   0.00000   0.00000
     23205 MEOH     858      MEOH     H1B      HDA3B    0.080000        1.0080           0   0.00000   0.00000
     23206 MEOH     858      MEOH     H1C      HDA3B    0.080000        1.0080           0   0.00000   0.00000
     23207 MEOH     858      MEOH     LP1A     LPD     -0.230000        0.0000           -1   0.00000   0.00000
     23208 MEOH     858      MEOH     LP1B     LPD     -0.230000        0.0000           -1   0.00000   0.00000
     23209 MEOH     859      MEOH     C1       CD33B    2.314100       11.6110           0   -1.00000   1.30000
     23210 MEOH     859      MEOH     DC1      DRUD    -2.454100        0.4000           0   0.00000   0.00000
     23211 MEOH     859      MEOH     O1       OD31H    2.488300       15.5990           0   -1.02800   1.30000
     23212 MEOH     859      MEOH     DO1      DRUD    -2.488300        0.4000           0   0.00000   0.00000
     23213 MEOH     859      MEOH     HO1      HDP1A    0.360000        1.0080           0   0.00000   0.00000
     23214 MEOH     859      MEOH     HO2      DUMH     0.000000        1.0080           0   0.00000   0.00000
     23215 MEOH     859      MEOH     H1A      HDA3B    0.080000        1.0080           0   0.00000   0.00000
     23216 MEOH     859      MEOH     H1B      HDA3B    0.080000        1.0080           0   0.00000   0.00000
     23217 MEOH     859      MEOH     H1C      HDA3B    0.080000        1.0080           0   0.00000   0.00000
     23218 MEOH     859      MEOH     LP1A     LPD     -0.230000        0.0000           -1   0.00000   0.00000
     23219 MEOH     859      MEOH     LP1B     LPD     -0.230000        0.0000           -1   0.00000   0.00000
     23220 MEOH     860      MEOH     C1       CD33B    2.314100       11.6110           0   -1.00000   1.30000
     23221 MEOH     860      MEOH     DC1      DRUD    -2.454100        0.4000           0   0.00000   0.00000
     23222 MEOH     860      MEOH     O1       OD31H    2.488300       15.5990           0   -1.02800   1.30000
     23223 MEOH     860      MEOH     DO1      DRUD    -2.488300        0.4000           0   0.00000   0.00000
     23224 MEOH     860      MEOH     HO1      HDP1A    0.360000        1.0080           0   0.00000   0.00000
     23225 MEOH     860      MEOH     HO2      DUMH     0.000000        1.0080           0   0.00000   0.00000
     23226 MEOH     860      MEOH     H1A      HDA3B    0.080000        1.0080           0   0.00000   0.00000
     23227 MEOH     860      MEOH     H1B      HDA3B    0.080000        1.0080           0   0.00000   0.00000
     23228 MEOH     860      MEOH     H1C      HDA3B    0.080000        1.0080           0   0.00000   0.00000
     23229 MEOH     860      MEOH     LP1A     LPD     -0.230000        0.0000           -1   0.00000   0.00000
     23230 MEOH     860      MEOH     LP1B     LPD     -0.230000        0.0000           -1   0.00000   0.00000
     23231 MEOH     861      MEOH     C1       CD33B    2.314100       11.6110           0   -1.00000   1.30000
     23232 MEOH     861      MEOH     DC1      DRUD    -2.454100        0.4000           0   0.00000   0.00000
     23233 MEOH     861      MEOH     O1       OD31H    2.488300       15.5990           0   -1.02800   1.30000
     23234 MEOH     861      MEOH     DO1      DRUD    -2.488300        0.4000           0   0.00000   0.00000
     23235 MEOH     861      MEOH     HO1      HDP1A    0.360000        1.0080           0   0.00000   0.00000
     23236 MEOH     861      MEOH     HO2      DUMH     0.000000        1.0080           0   0.00000   0.00000
     23237 MEOH     861      MEOH     H1A      HDA3B    0.080000        1.0080           0   0.00000   0.00000
     23238 MEOH     861      MEOH     H1B      HDA3B    0.080000        1.0080           0   0.00000   0.00000
     23239 MEOH     861      MEOH     H1C      HDA3B    0.080000        1.0080           0   0.00000   0.00000
     23240 MEOH     861      MEOH     LP1A     LPD     -0.230000        0.0000           -1   0.00000   0.00000
     23241 MEOH     861      MEOH     LP1B     LPD     -0.230000        0.0000           -1   0.00000   0.00000
     23242 MEOH     862      MEOH     C1       CD33B    2.314100       11.6110           0   -1.00000   1.30000
     23243 MEOH     862      MEOH     DC1      DRUD    -2.454100        0.4000           0   0.00000   0.00000
     23244 MEOH     862      MEOH     O1       OD31H    2.488300       15.5990           0   -1.02800   1.30000
     23245 MEOH     862      MEOH     DO1      DRUD    -2.488300        0.4000           0   0.00000   0.00000
     23246 MEOH     862      MEOH     HO1      HDP1A    0.360000        1.0080           0   0.00000   0.00000
     23247 MEOH     862      MEOH     HO2      DUMH     0.000000        1.0080           0   0.00000   0.00000
     23248 MEOH     862      MEOH     H1A      HDA3B    0.080000        1.0080           0   0.00000   0.00000
     23249 MEOH     862      MEOH     H1B      HDA3B    0.080000        1.0080           0   0.00000   0.00000
     23250 MEOH     862      MEOH     H1C      HDA3B    0.080000        1.0080           0   0.00000   0.00000
     23251 MEOH     862      MEOH     LP1A     LPD     -0.230000        0.0000           -1   0.00000   0.00000
     23252 MEOH     862      MEOH     LP1B     LPD     -0.230000        0.0000           -1   0.00000   0.00000
     23253 MEOH     863      MEOH     C1       CD33B    2.314100       11.6110           0   -1.00000   1.30000
     23254 MEOH     863      MEOH     DC1      DRUD    -2.454100        0.4000           0   0.00000   0.00000
     23255 MEOH     863      MEOH     O1       OD31H    2.488300       15.5990           0   -1.02800   1.30000
     23256 MEOH     863      MEOH     DO1      DRUD    -2.488300        0.4000           0   0.00000   0.00000
     23257 MEOH     863      MEOH     HO1      HDP1A    0.360000        1.0080           0   0.00000   0.00000
     23258 MEOH     863      MEOH     HO2      DUMH     0.000000        1.0080           0   0.00000   0.00000
     23259 MEOH     863      MEOH     H1A      HDA3B    0.080000        1.0080           0   0.00000   0.00000
     23260 MEOH     863      MEOH     H1B      HDA3B    0.080000        1.0080           0   0.00000   0.00000
     23261 MEOH     863      MEOH     H1C      HDA3B    0.080000        1.0080           0   0.00000   0.00000
     23262 MEOH     863      MEOH     LP1A     LPD     -0.230000        0.0000           -1   0.00000   0.00000
     23263 MEOH     863      MEOH     LP1B     LPD     -0.230000        0.0000           -1   0.00000   0.00000
     23264 MEOH     864      MEOH     C1       CD33B    2.314100       11.6110           0   -1.00000   1.30000
     23265 MEOH     864      MEOH     DC1      DRUD    -2.454100        0.4000           0   0.00000   0.00000
     23266 MEOH     864      MEOH     O1       OD31H    2.488300       15.5990           0   -1.02800   1.30000
     23267 MEOH     864      MEOH     DO1      DRUD    -2.488300        0.4000           0   0.00000   0.00000
     23268 MEOH     864      MEOH     HO1      HDP1A    0.360000        1.0080           0   0.00000   0.00000
     23269 MEOH     864      MEOH     HO2      DUMH     0.000000        1.0080           0   0.00000   0.00000
     23270 MEOH     864      MEOH     H1A      HDA3B    0.080000        1.0080           0   0.00000   0.00000
     23271 MEOH     864      MEOH     H1B      HDA3B    0.080000        1.0080           0   0.00000   0.00000
     23272 MEOH     864      MEOH     H1C      HDA3B    0.080000        1.0080           0   0.00000   0.00000
     23273 MEOH     864      MEOH     LP1A     LPD     -0.230000        0.0000           -1   0.00000   0.00000
     23274 MEOH     864      MEOH     LP1B     LPD     -0.230000        0.0000           -1   0.00000   0.00000
     23275 MEOH     865      MEOH     C1       CD33B    2.314100       11.6110           0   -1.00000   1.30000
     23276 MEOH     865      MEOH     DC1      DRUD    -2.454100        0.4000           0   0.00000   0.00000
     23277 MEOH     865      MEOH     O1       OD31H    2.488300       15.5990           0   -1.02800   1.30000
     23278 MEOH     865      MEOH     DO1      DRUD    -2.488300        0.4000           0   0.00000   0.00000
     23279 MEOH     865      MEOH     HO1      HDP1A    0.360000        1.0080           0   0.00000   0.00000
     23280 MEOH     865      MEOH     HO2      DUMH     0.000000        1.0080           0   0.00000   0.00000
     23281 MEOH     865      MEOH     H1A      HDA3B    0.080000        1.0080           0   0.00000   0.00000
     23282 MEOH     865      MEOH     H1B      HDA3B    0.080000        1.0080           0   0.00000   0.00000
     23283 MEOH     865      MEOH     H1C      HDA3B    0.080000        1.0080           0   0.00000   0.00000
     23284 MEOH     865      MEOH     LP1A     LPD     -0.230000        0.0000           -1   0.00000   0.00000
     23285 MEOH     865      MEOH     LP1B     LPD     -0.230000        0.0000           -1   0.00000   0.00000
     23286 MEOH     866      MEOH     C1       CD33B    2.314100       11.6110           0   -1.00000   1.30000
     23287 MEOH     866      MEOH     DC1      DRUD    -2.454100        0.4000           0   0.00000   0.00000
     23288 MEOH     866      MEOH     O1       OD31H    2.488300       15.5990           0   -1.02800   1.30000
     23289 MEOH     866      MEOH     DO1      DRUD    -2.488300        0.4000           0   0.00000   0.00000
     23290 MEOH     866      MEOH     HO1      HDP1A    0.360000        1.0080           0   0.00000   0.00000
     23291 MEOH     866      MEOH     HO2      DUMH     0.000000        1.0080           0   0.00000   0.00000
     23292 MEOH     866      MEOH     H1A      HDA3B    0.080000        1.0080           0   0.00000   0.00000
     23293 MEOH     866      MEOH     H1B      HDA3B    0.080000        1.0080           0   0.00000   0.00000
     23294 MEOH     866      MEOH     H1C      HDA3B    0.080000        1.0080           0   0.00000   0.00000
     23295 MEOH     866      MEOH     LP1A     LPD     -0.230000        0.0000           -1   0.00000   0.00000
     23296 MEOH     866      MEOH     LP1B     LPD     -0.230000        0.0000           -1   0.00000   0.00000
     23297 MEOH     867      MEOH     C1       CD33B    2.314100       11.6110           0   -1.00000   1.30000
     23298 MEOH     867      MEOH     DC1      DRUD    -2.454100        0.4000           0   0.00000   0.00000
     23299 MEOH     867      MEOH     O1       OD31H    2.488300       15.5990           0   -1.02800   1.30000
     23300 MEOH     867      MEOH     DO1      DRUD    -2.488300        0.4000           0   0.00000   0.00000
     23301 MEOH     867      MEOH     HO1      HDP1A    0.360000        1.0080           0   0.00000   0.00000
     23302 MEOH     867      MEOH     HO2      DUMH     0.000000        1.0080           0   0.00000   0.00000
     23303 MEOH     867      MEOH     H1A      HDA3B    0.080000        1.0080           0   0.00000   0.00000
     23304 MEOH     867      MEOH     H1B      HDA3B    0.080000        1.0080           0   0.00000   0.00000
     23305 MEOH     867      MEOH     H1C      HDA3B    0.080000        1.0080           0   0.00000   0.00000
     23306 MEOH     867      MEOH     LP1A     LPD     -0.230000        0.0000           -1   0.00000   0.00000
     23307 MEOH     867      MEOH     LP1B     LPD     -0.230000        0.0000           -1   0.00000   0.00000
     23308 MEOH     868      MEOH     C1       CD33B    2.314100       11.6110           0   -1.00000   1.30000
     23309 MEOH     868      MEOH     DC1      DRUD    -2.454100        0.4000           0   0.00000   0.00000
     23310 MEOH     868      MEOH     O1       OD31H    2.488300       15.5990           0   -1.02800   1.30000
     23311 MEOH     868      MEOH     DO1      DRUD    -2.488300        0.4000           0   0.00000   0.00000
     23312 MEOH     868      MEOH     HO1      HDP1A    0.360000        1.0080           0   0.00000   0.00000
     23313 MEOH     868      MEOH     HO2      DUMH     0.000000        1.0080           0   0.00000   0.00000
     23314 MEOH     868      MEOH     H1A      HDA3B    0.080000        1.0080           0   0.00000   0.00000
     23315 MEOH     868      MEOH     H1B      HDA3B    0.080000        1.0080           0   0.00000   0.00000
     23316 MEOH     868      MEOH     H1C      HDA3B    0.080000        1.0080           0   0.00000   0.00000
     23317 MEOH     868      MEOH     LP1A     LPD     -0.230000        0.0000           -1   0.00000   0.00000
     23318 MEOH     868      MEOH     LP1B     LPD     -0.230000        0.0000           -1   0.00000   0.00000
     23319 MEOH     869      MEOH     C1       CD33B    2.314100       11.6110           0   -1.00000   1.30000
     23320 MEOH     869      MEOH     DC1      DRUD    -2.454100        0.4000           0   0.00000   0.00000
     23321 MEOH     869      MEOH     O1       OD31H    2.488300       15.5990           0   -1.02800   1.30000
     23322 MEOH     869      MEOH     DO1      DRUD    -2.488300        0.4000           0   0.00000   0.00000
     23323 MEOH     869      MEOH     HO1      HDP1A    0.360000        1.0080           0   0.00000   0.00000
     23324 MEOH     869      MEOH     HO2      DUMH     0.000000        1.0080           0   0.00000   0.00000
     23325 MEOH     869      MEOH     H1A      HDA3B    0.080000        1.0080           0   0.00000   0.00000
     23326 MEOH     869      MEOH     H1B      HDA3B    0.080000        1.0080           0   0.00000   0.00000
     23327 MEOH     869      MEOH     H1C      HDA3B    0.080000        1.0080           0   0.00000   0.00000
     23328 MEOH     869      MEOH     LP1A     LPD     -0.230000        0.0000           -1   0.00000   0.00000
     23329 MEOH     869      MEOH     LP1B     LPD     -0.230000        0.0000           -1   0.00000   0.00000
     23330 MEOH     870      MEOH     C1       CD33B    2.314100       11.6110           0   -1.00000   1.30000
     23331 MEOH     870      MEOH     DC1      DRUD    -2.454100        0.4000           0   0.00000   0.00000
     23332 MEOH     870      MEOH     O1       OD31H    2.488300       15.5990           0   -1.02800   1.30000
     23333 MEOH     870      MEOH     DO1      DRUD    -2.488300        0.4000           0   0.00000   0.00000
     23334 MEOH     870      MEOH     HO1      HDP1A    0.360000        1.0080           0   0.00000   0.00000
     23335 MEOH     870      MEOH     HO2      DUMH     0.000000        1.0080           0   0.00000   0.00000
     23336 MEOH     870      MEOH     H1A      HDA3B    0.080000        1.0080           0   0.00000   0.00000
     23337 MEOH     870      MEOH     H1B      HDA3B    0.080000        1.0080           0   0.00000   0.00000
     23338 MEOH     870      MEOH     H1C      HDA3B    0.080000        1.0080           0   0.00000   0.00000
     23339 MEOH     870      MEOH     LP1A     LPD     -0.230000        0.0000           -1   0.00000   0.00000
     23340 MEOH     870      MEOH     LP1B     LPD     -0.230000        0.0000           -1   0.00000   0.00000
     23341 MEOH     871      MEOH     C1       CD33B    2.314100       11.6110           0   -1.00000   1.30000
     23342 MEOH     871      MEOH     DC1      DRUD    -2.454100        0.4000           0   0.00000   0.00000
     23343 MEOH     871      MEOH     O1       OD31H    2.488300       15.5990           0   -1.02800   1.30000
     23344 MEOH     871      MEOH     DO1      DRUD    -2.488300        0.4000           0   0.00000   0.00000
     23345 MEOH     871      MEOH     HO1      HDP1A    0.360000        1.0080           0   0.00000   0.00000
     23346 MEOH     871      MEOH     HO2      DUMH     0.000000        1.0080           0   0.00000   0.00000
     23347 MEOH     871      MEOH     H1A      HDA3B    0.080000        1.0080           0   0.00000   0.00000
     23348 MEOH     871      MEOH     H1B      HDA3B    0.080000        1.0080           0   0.00000   0.00000
     23349 MEOH     871      MEOH     H1C      HDA3B    0.080000        1.0080           0   0.00000   0.00000
     23350 MEOH     871      MEOH     LP1A     LPD     -0.230000        0.0000           -1   0.00000   0.00000
     23351 MEOH     871      MEOH     LP1B     LPD     -0.230000        0.0000           -1   0.00000   0.00000
     23352 MEOH     872      MEOH     C1       CD33B    2.314100       11.6110           0   -1.00000   1.30000
     23353 MEOH     872      MEOH     DC1      DRUD    -2.454100        0.4000           0   0.00000   0.00000
     23354 MEOH     872      MEOH     O1       OD31H    2.488300       15.5990           0   -1.02800   1.30000
     23355 MEOH     872      MEOH     DO1      DRUD    -2.488300        0.4000           0   0.00000   0.00000
     23356 MEOH     872      MEOH     HO1      HDP1A    0.360000        1.0080           0   0.00000   0.00000
     23357 MEOH     872      MEOH     HO2      DUMH     0.000000        1.0080           0   0.00000   0.00000
     23358 MEOH     872      MEOH     H1A      HDA3B    0.080000        1.0080           0   0.00000   0.00000
     23359 MEOH     872      MEOH     H1B      HDA3B    0.080000        1.0080           0   0.00000   0.00000
     23360 MEOH     872      MEOH     H1C      HDA3B    0.080000        1.0080           0   0.00000   0.00000
     23361 MEOH     872      MEOH     LP1A     LPD     -0.230000        0.0000           -1   0.00000   0.00000
     23362 MEOH     872      MEOH     LP1B     LPD     -0.230000        0.0000           -1   0.00000   0.00000
     23363 MEOH     873      MEOH     C1       CD33B    2.314100       11.6110           0   -1.00000   1.30000
     23364 MEOH     873      MEOH     DC1      DRUD    -2.454100        0.4000           0   0.00000   0.00000
     23365 MEOH     873      MEOH     O1       OD31H    2.488300       15.5990           0   -1.02800   1.30000
     23366 MEOH     873      MEOH     DO1      DRUD    -2.488300        0.4000           0   0.00000   0.00000
     23367 MEOH     873      MEOH     HO1      HDP1A    0.360000        1.0080           0   0.00000   0.00000
     23368 MEOH     873      MEOH     HO2      DUMH     0.000000        1.0080           0   0.00000   0.00000
     23369 MEOH     873      MEOH     H1A      HDA3B    0.080000        1.0080           0   0.00000   0.00000
     23370 MEOH     873      MEOH     H1B      HDA3B    0.080000        1.0080           0   0.00000   0.00000
     23371 MEOH     873      MEOH     H1C      HDA3B    0.080000        1.0080           0   0.00000   0.00000
     23372 MEOH     873      MEOH     LP1A     LPD     -0.230000        0.0000           -1   0.00000   0.00000
     23373 MEOH     873      MEOH     LP1B     LPD     -0.230000        0.0000           -1   0.00000   0.00000
     23374 MEOH     874      MEOH     C1       CD33B    2.314100       11.6110           0   -1.00000   1.30000
     23375 MEOH     874      MEOH     DC1      DRUD    -2.454100        0.4000           0   0.00000   0.00000
     23376 MEOH     874      MEOH     O1       OD31H    2.488300       15.5990           0   -1.02800   1.30000
     23377 MEOH     874      MEOH     DO1      DRUD    -2.488300        0.4000           0   0.00000   0.00000
     23378 MEOH     874      MEOH     HO1      HDP1A    0.360000        1.0080           0   0.00000   0.00000
     23379 MEOH     874      MEOH     HO2      DUMH     0.000000        1.0080           0   0.00000   0.00000
     23380 MEOH     874      MEOH     H1A      HDA3B    0.080000        1.0080           0   0.00000   0.00000
     23381 MEOH     874      MEOH     H1B      HDA3B    0.080000        1.0080           0   0.00000   0.00000
     23382 MEOH     874      MEOH     H1C      HDA3B    0.080000        1.0080           0   0.00000   0.00000
     23383 MEOH     874      MEOH     LP1A     LPD     -0.230000        0.0000           -1   0.00000   0.00000
     23384 MEOH     874      MEOH     LP1B     LPD     -0.230000        0.0000           -1   0.00000   0.00000
     23385 MEOH     875      MEOH     C1       CD33B    2.314100       11.6110           0   -1.00000   1.30000
     23386 MEOH     875      MEOH     DC1      DRUD    -2.454100        0.4000           0   0.00000   0.00000
     23387 MEOH     875      MEOH     O1       OD31H    2.488300       15.5990           0   -1.02800   1.30000
     23388 MEOH     875      MEOH     DO1      DRUD    -2.488300        0.4000           0   0.00000   0.00000
     23389 MEOH     875      MEOH     HO1      HDP1A    0.360000        1.0080           0   0.00000   0.00000
     23390 MEOH     875      MEOH     HO2      DUMH     0.000000        1.0080           0   0.00000   0.00000
     23391 MEOH     875      MEOH     H1A      HDA3B    0.080000        1.0080           0   0.00000   0.00000
     23392 MEOH     875      MEOH     H1B      HDA3B    0.080000        1.0080           0   0.00000   0.00000
     23393 MEOH     875      MEOH     H1C      HDA3B    0.080000        1.0080           0   0.00000   0.00000
     23394 MEOH     875      MEOH     LP1A     LPD     -0.230000        0.0000           -1   0.00000   0.00000
     23395 MEOH     875      MEOH     LP1B     LPD     -0.230000        0.0000           -1   0.00000   0.00000
     23396 MEOH     876      MEOH     C1       CD33B    2.314100       11.6110           0   -1.00000   1.30000
     23397 MEOH     876      MEOH     DC1      DRUD    -2.454100        0.4000           0   0.00000   0.00000
     23398 MEOH     876      MEOH     O1       OD31H    2.488300       15.5990           0   -1.02800   1.30000
     23399 MEOH     876      MEOH     DO1      DRUD    -2.488300        0.4000           0   0.00000   0.00000
     23400 MEOH     876      MEOH     HO1      HDP1A    0.360000        1.0080           0   0.00000   0.00000
     23401 MEOH     876      MEOH     HO2      DUMH     0.000000        1.0080           0   0.00000   0.00000
     23402 MEOH     876      MEOH     H1A      HDA3B    0.080000        1.0080           0   0.00000   0.00000
     23403 MEOH     876      MEOH     H1B      HDA3B    0.080000        1.0080           0   0.00000   0.00000
     23404 MEOH     876      MEOH     H1C      HDA3B    0.080000        1.0080           0   0.00000   0.00000
     23405 MEOH     876      MEOH     LP1A     LPD     -0.230000        0.0000           -1   0.00000   0.00000
     23406 MEOH     876      MEOH     LP1B     LPD     -0.230000        0.0000           -1   0.00000   0.00000
     23407 MEOH     877      MEOH     C1       CD33B    2.314100       11.6110           0   -1.00000   1.30000
     23408 MEOH     877      MEOH     DC1      DRUD    -2.454100        0.4000           0   0.00000   0.00000
     23409 MEOH     877      MEOH     O1       OD31H    2.488300       15.5990           0   -1.02800   1.30000
     23410 MEOH     877      MEOH     DO1      DRUD    -2.488300        0.4000           0   0.00000   0.00000
     23411 MEOH     877      MEOH     HO1      HDP1A    0.360000        1.0080           0   0.00000   0.00000
     23412 MEOH     877      MEOH     HO2      DUMH     0.000000        1.0080           0   0.00000   0.00000
     23413 MEOH     877      MEOH     H1A      HDA3B    0.080000        1.0080           0   0.00000   0.00000
     23414 MEOH     877      MEOH     H1B      HDA3B    0.080000        1.0080           0   0.00000   0.00000
     23415 MEOH     877      MEOH     H1C      HDA3B    0.080000        1.0080           0   0.00000   0.00000
     23416 MEOH     877      MEOH     LP1A     LPD     -0.230000        0.0000           -1   0.00000   0.00000
     23417 MEOH     877      MEOH     LP1B     LPD     -0.230000        0.0000           -1   0.00000   0.00000
     23418 MEOH     878      MEOH     C1       CD33B    2.314100       11.6110           0   -1.00000   1.30000
     23419 MEOH     878      MEOH     DC1      DRUD    -2.454100        0.4000           0   0.00000   0.00000
     23420 MEOH     878      MEOH     O1       OD31H    2.488300       15.5990           0   -1.02800   1.30000
     23421 MEOH     878      MEOH     DO1      DRUD    -2.488300        0.4000           0   0.00000   0.00000
     23422 MEOH     878      MEOH     HO1      HDP1A    0.360000        1.0080           0   0.00000   0.00000
     23423 MEOH     878      MEOH     HO2      DUMH     0.000000        1.0080           0   0.00000   0.00000
     23424 MEOH     878      MEOH     H1A      HDA3B    0.080000        1.0080           0   0.00000   0.00000
     23425 MEOH     878      MEOH     H1B      HDA3B    0.080000        1.0080           0   0.00000   0.00000
     23426 MEOH     878      MEOH     H1C      HDA3B    0.080000        1.0080           0   0.00000   0.00000
     23427 MEOH     878      MEOH     LP1A     LPD     -0.230000        0.0000           -1   0.00000   0.00000
     23428 MEOH     878      MEOH     LP1B     LPD     -0.230000        0.0000           -1   0.00000   0.00000
     23429 MEOH     879      MEOH     C1       CD33B    2.314100       11.6110           0   -1.00000   1.30000
     23430 MEOH     879      MEOH     DC1      DRUD    -2.454100        0.4000           0   0.00000   0.00000
     23431 MEOH     879      MEOH     O1       OD31H    2.488300       15.5990           0   -1.02800   1.30000
     23432 MEOH     879      MEOH     DO1      DRUD    -2.488300        0.4000           0   0.00000   0.00000
     23433 MEOH     879      MEOH     HO1      HDP1A    0.360000        1.0080           0   0.00000   0.00000
     23434 MEOH     879      MEOH     HO2      DUMH     0.000000        1.0080           0   0.00000   0.00000
     23435 MEOH     879      MEOH     H1A      HDA3B    0.080000        1.0080           0   0.00000   0.00000
     23436 MEOH     879      MEOH     H1B      HDA3B    0.080000        1.0080           0   0.00000   0.00000
     23437 MEOH     879      MEOH     H1C      HDA3B    0.080000        1.0080           0   0.00000   0.00000
     23438 MEOH     879      MEOH     LP1A     LPD     -0.230000        0.0000           -1   0.00000   0.00000
     23439 MEOH     879      MEOH     LP1B     LPD     -0.230000        0.0000           -1   0.00000   0.00000
     23440 MEOH     880      MEOH     C1       CD33B    2.314100       11.6110           0   -1.00000   1.30000
     23441 MEOH     880      MEOH     DC1      DRUD    -2.454100        0.4000           0   0.00000   0.00000
     23442 MEOH     880      MEOH     O1       OD31H    2.488300       15.5990           0   -1.02800   1.30000
     23443 MEOH     880      MEOH     DO1      DRUD    -2.488300        0.4000           0   0.00000   0.00000
     23444 MEOH     880      MEOH     HO1      HDP1A    0.360000        1.0080           0   0.00000   0.00000
     23445 MEOH     880      MEOH     HO2      DUMH     0.000000        1.0080           0   0.00000   0.00000
     23446 MEOH     880      MEOH     H1A      HDA3B    0.080000        1.0080           0   0.00000   0.00000
     23447 MEOH     880      MEOH     H1B      HDA3B    0.080000        1.0080           0   0.00000   0.00000
     23448 MEOH     880      MEOH     H1C      HDA3B    0.080000        1.0080           0   0.00000   0.00000
     23449 MEOH     880      MEOH     LP1A     LPD     -0.230000        0.0000           -1   0.00000   0.00000
     23450 MEOH     880      MEOH     LP1B     LPD     -0.230000        0.0000           -1   0.00000   0.00000
     23451 MEOH     881      MEOH     C1       CD33B    2.314100       11.6110           0   -1.00000   1.30000
     23452 MEOH     881      MEOH     DC1      DRUD    -2.454100        0.4000           0   0.00000   0.00000
     23453 MEOH     881      MEOH     O1       OD31H    2.488300       15.5990           0   -1.02800   1.30000
     23454 MEOH     881      MEOH     DO1      DRUD    -2.488300        0.4000           0   0.00000   0.00000
     23455 MEOH     881      MEOH     HO1      HDP1A    0.360000        1.0080           0   0.00000   0.00000
     23456 MEOH     881      MEOH     HO2      DUMH     0.000000        1.0080           0   0.00000   0.00000
     23457 MEOH     881      MEOH     H1A      HDA3B    0.080000        1.0080           0   0.00000   0.00000
     23458 MEOH     881      MEOH     H1B      HDA3B    0.080000        1.0080           0   0.00000   0.00000
     23459 MEOH     881      MEOH     H1C      HDA3B    0.080000        1.0080           0   0.00000   0.00000
     23460 MEOH     881      MEOH     LP1A     LPD     -0.230000        0.0000           -1   0.00000   0.00000
     23461 MEOH     881      MEOH     LP1B     LPD     -0.230000        0.0000           -1   0.00000   0.00000
     23462 MEOH     882      MEOH     C1       CD33B    2.314100       11.6110           0   -1.00000   1.30000
     23463 MEOH     882      MEOH     DC1      DRUD    -2.454100        0.4000           0   0.00000   0.00000
     23464 MEOH     882      MEOH     O1       OD31H    2.488300       15.5990           0   -1.02800   1.30000
     23465 MEOH     882      MEOH     DO1      DRUD    -2.488300        0.4000           0   0.00000   0.00000
     23466 MEOH     882      MEOH     HO1      HDP1A    0.360000        1.0080           0   0.00000   0.00000
     23467 MEOH     882      MEOH     HO2      DUMH     0.000000        1.0080           0   0.00000   0.00000
     23468 MEOH     882      MEOH     H1A      HDA3B    0.080000        1.0080           0   0.00000   0.00000
     23469 MEOH     882      MEOH     H1B      HDA3B    0.080000        1.0080           0   0.00000   0.00000
     23470 MEOH     882      MEOH     H1C      HDA3B    0.080000        1.0080           0   0.00000   0.00000
     23471 MEOH     882      MEOH     LP1A     LPD     -0.230000        0.0000           -1   0.00000   0.00000
     23472 MEOH     882      MEOH     LP1B     LPD     -0.230000        0.0000           -1   0.00000   0.00000
     23473 MEOH     883      MEOH     C1       CD33B    2.314100       11.6110           0   -1.00000   1.30000
     23474 MEOH     883      MEOH     DC1      DRUD    -2.454100        0.4000           0   0.00000   0.00000
     23475 MEOH     883      MEOH     O1       OD31H    2.488300       15.5990           0   -1.02800   1.30000
     23476 MEOH     883      MEOH     DO1      DRUD    -2.488300        0.4000           0   0.00000   0.00000
     23477 MEOH     883      MEOH     HO1      HDP1A    0.360000        1.0080           0   0.00000   0.00000
     23478 MEOH     883      MEOH     HO2      DUMH     0.000000        1.0080           0   0.00000   0.00000
     23479 MEOH     883      MEOH     H1A      HDA3B    0.080000        1.0080           0   0.00000   0.00000
     23480 MEOH     883      MEOH     H1B      HDA3B    0.080000        1.0080           0   0.00000   0.00000
     23481 MEOH     883      MEOH     H1C      HDA3B    0.080000        1.0080           0   0.00000   0.00000
     23482 MEOH     883      MEOH     LP1A     LPD     -0.230000        0.0000           -1   0.00000   0.00000
     23483 MEOH     883      MEOH     LP1B     LPD     -0.230000        0.0000           -1   0.00000   0.00000
     23484 MEOH     884      MEOH     C1       CD33B    2.314100       11.6110           0   -1.00000   1.30000
     23485 MEOH     884      MEOH     DC1      DRUD    -2.454100        0.4000           0   0.00000   0.00000
     23486 MEOH     884      MEOH     O1       OD31H    2.488300       15.5990           0   -1.02800   1.30000
     23487 MEOH     884      MEOH     DO1      DRUD    -2.488300        0.4000           0   0.00000   0.00000
     23488 MEOH     884      MEOH     HO1      HDP1A    0.360000        1.0080           0   0.00000   0.00000
     23489 MEOH     884      MEOH     HO2      DUMH     0.000000        1.0080           0   0.00000   0.00000
     23490 MEOH     884      MEOH     H1A      HDA3B    0.080000        1.0080           0   0.00000   0.00000
     23491 MEOH     884      MEOH     H1B      HDA3B    0.080000        1.0080           0   0.00000   0.00000
     23492 MEOH     884      MEOH     H1C      HDA3B    0.080000        1.0080           0   0.00000   0.00000
     23493 MEOH     884      MEOH     LP1A     LPD     -0.230000        0.0000           -1   0.00000   0.00000
     23494 MEOH     884      MEOH     LP1B     LPD     -0.230000        0.0000           -1   0.00000   0.00000
     23495 MEOH     885      MEOH     C1       CD33B    2.314100       11.6110           0   -1.00000   1.30000
     23496 MEOH     885      MEOH     DC1      DRUD    -2.454100        0.4000           0   0.00000   0.00000
     23497 MEOH     885      MEOH     O1       OD31H    2.488300       15.5990           0   -1.02800   1.30000
     23498 MEOH     885      MEOH     DO1      DRUD    -2.488300        0.4000           0   0.00000   0.00000
     23499 MEOH     885      MEOH     HO1      HDP1A    0.360000        1.0080           0   0.00000   0.00000
     23500 MEOH     885      MEOH     HO2      DUMH     0.000000        1.0080           0   0.00000   0.00000
     23501 MEOH     885      MEOH     H1A      HDA3B    0.080000        1.0080           0   0.00000   0.00000
     23502 MEOH     885      MEOH     H1B      HDA3B    0.080000        1.0080           0   0.00000   0.00000
     23503 MEOH     885      MEOH     H1C      HDA3B    0.080000        1.0080           0   0.00000   0.00000
     23504 MEOH     885      MEOH     LP1A     LPD     -0.230000        0.0000           -1   0.00000   0.00000
     23505 MEOH     885      MEOH     LP1B     LPD     -0.230000        0.0000           -1   0.00000   0.00000
     23506 MEOH     886      MEOH     C1       CD33B    2.314100       11.6110           0   -1.00000   1.30000
     23507 MEOH     886      MEOH     DC1      DRUD    -2.454100        0.4000           0   0.00000   0.00000
     23508 MEOH     886      MEOH     O1       OD31H    2.488300       15.5990           0   -1.02800   1.30000
     23509 MEOH     886      MEOH     DO1      DRUD    -2.488300        0.4000           0   0.00000   0.00000
     23510 MEOH     886      MEOH     HO1      HDP1A    0.360000        1.0080           0   0.00000   0.00000
     23511 MEOH     886      MEOH     HO2      DUMH     0.000000        1.0080           0   0.00000   0.00000
     23512 MEOH     886      MEOH     H1A      HDA3B    0.080000        1.0080           0   0.00000   0.00000
     23513 MEOH     886      MEOH     H1B      HDA3B    0.080000        1.0080           0   0.00000   0.00000
     23514 MEOH     886      MEOH     H1C      HDA3B    0.080000        1.0080           0   0.00000   0.00000
     23515 MEOH     886      MEOH     LP1A     LPD     -0.230000        0.0000           -1   0.00000   0.00000
     23516 MEOH     886      MEOH     LP1B     LPD     -0.230000        0.0000           -1   0.00000   0.00000
     23517 MEOH     887      MEOH     C1       CD33B    2.314100       11.6110           0   -1.00000   1.30000
     23518 MEOH     887      MEOH     DC1      DRUD    -2.454100        0.4000           0   0.00000   0.00000
     23519 MEOH     887      MEOH     O1       OD31H    2.488300       15.5990           0   -1.02800   1.30000
     23520 MEOH     887      MEOH     DO1      DRUD    -2.488300        0.4000           0   0.00000   0.00000
     23521 MEOH     887      MEOH     HO1      HDP1A    0.360000        1.0080           0   0.00000   0.00000
     23522 MEOH     887      MEOH     HO2      DUMH     0.000000        1.0080           0   0.00000   0.00000
     23523 MEOH     887      MEOH     H1A      HDA3B    0.080000        1.0080           0   0.00000   0.00000
     23524 MEOH     887      MEOH     H1B      HDA3B    0.080000        1.0080           0   0.00000   0.00000
     23525 MEOH     887      MEOH     H1C      HDA3B    0.080000        1.0080           0   0.00000   0.00000
     23526 MEOH     887      MEOH     LP1A     LPD     -0.230000        0.0000           -1   0.00000   0.00000
     23527 MEOH     887      MEOH     LP1B     LPD     -0.230000        0.0000           -1   0.00000   0.00000
     23528 MEOH     888      MEOH     C1       CD33B    2.314100       11.6110           0   -1.00000   1.30000
     23529 MEOH     888      MEOH     DC1      DRUD    -2.454100        0.4000           0   0.00000   0.00000
     23530 MEOH     888      MEOH     O1       OD31H    2.488300       15.5990           0   -1.02800   1.30000
     23531 MEOH     888      MEOH     DO1      DRUD    -2.488300        0.4000           0   0.00000   0.00000
     23532 MEOH     888      MEOH     HO1      HDP1A    0.360000        1.0080           0   0.00000   0.00000
     23533 MEOH     888      MEOH     HO2      DUMH     0.000000        1.0080           0   0.00000   0.00000
     23534 MEOH     888      MEOH     H1A      HDA3B    0.080000        1.0080           0   0.00000   0.00000
     23535 MEOH     888      MEOH     H1B      HDA3B    0.080000        1.0080           0   0.00000   0.00000
     23536 MEOH     888      MEOH     H1C      HDA3B    0.080000        1.0080           0   0.00000   0.00000
     23537 MEOH     888      MEOH     LP1A     LPD     -0.230000        0.0000           -1   0.00000   0.00000
     23538 MEOH     888      MEOH     LP1B     LPD     -0.230000        0.0000           -1   0.00000   0.00000
     23539 MEOH     889      MEOH     C1       CD33B    2.314100       11.6110           0   -1.00000   1.30000
     23540 MEOH     889      MEOH     DC1      DRUD    -2.454100        0.4000           0   0.00000   0.00000
     23541 MEOH     889      MEOH     O1       OD31H    2.488300       15.5990           0   -1.02800   1.30000
     23542 MEOH     889      MEOH     DO1      DRUD    -2.488300        0.4000           0   0.00000   0.00000
     23543 MEOH     889      MEOH     HO1      HDP1A    0.360000        1.0080           0   0.00000   0.00000
     23544 MEOH     889      MEOH     HO2      DUMH     0.000000        1.0080           0   0.00000   0.00000
     23545 MEOH     889      MEOH     H1A      HDA3B    0.080000        1.0080           0   0.00000   0.00000
     23546 MEOH     889      MEOH     H1B      HDA3B    0.080000        1.0080           0   0.00000   0.00000
     23547 MEOH     889      MEOH     H1C      HDA3B    0.080000        1.0080           0   0.00000   0.00000
     23548 MEOH     889      MEOH     LP1A     LPD     -0.230000        0.0000           -1   0.00000   0.00000
     23549 MEOH     889      MEOH     LP1B     LPD     -0.230000        0.0000           -1   0.00000   0.00000
     23550 MEOH     890      MEOH     C1       CD33B    2.314100       11.6110           0   -1.00000   1.30000
     23551 MEOH     890      MEOH     DC1      DRUD    -2.454100        0.4000           0   0.00000   0.00000
     23552 MEOH     890      MEOH     O1       OD31H    2.488300       15.5990           0   -1.02800   1.30000
     23553 MEOH     890      MEOH     DO1      DRUD    -2.488300        0.4000           0   0.00000   0.00000
     23554 MEOH     890      MEOH     HO1      HDP1A    0.360000        1.0080           0   0.00000   0.00000
     23555 MEOH     890      MEOH     HO2      DUMH     0.000000        1.0080           0   0.00000   0.00000
     23556 MEOH     890      MEOH     H1A      HDA3B    0.080000        1.0080           0   0.00000   0.00000
     23557 MEOH     890      MEOH     H1B      HDA3B    0.080000        1.0080           0   0.00000   0.00000
     23558 MEOH     890      MEOH     H1C      HDA3B    0.080000        1.0080           0   0.00000   0.00000
     23559 MEOH     890      MEOH     LP1A     LPD     -0.230000        0.0000           -1   0.00000   0.00000
     23560 MEOH     890      MEOH     LP1B     LPD     -0.230000        0.0000           -1   0.00000   0.00000
     23561 MEOH     891      MEOH     C1       CD33B    2.314100       11.6110           0   -1.00000   1.30000
     23562 MEOH     891      MEOH     DC1      DRUD    -2.454100        0.4000           0   0.00000   0.00000
     23563 MEOH     891      MEOH     O1       OD31H    2.488300       15.5990           0   -1.02800   1.30000
     23564 MEOH     891      MEOH     DO1      DRUD    -2.488300        0.4000           0   0.00000   0.00000
     23565 MEOH     891      MEOH     HO1      HDP1A    0.360000        1.0080           0   0.00000   0.00000
     23566 MEOH     891      MEOH     HO2      DUMH     0.000000        1.0080           0   0.00000   0.00000
     23567 MEOH     891      MEOH     H1A      HDA3B    0.080000        1.0080           0   0.00000   0.00000
     23568 MEOH     891      MEOH     H1B      HDA3B    0.080000        1.0080           0   0.00000   0.00000
     23569 MEOH     891      MEOH     H1C      HDA3B    0.080000        1.0080           0   0.00000   0.00000
     23570 MEOH     891      MEOH     LP1A     LPD     -0.230000        0.0000           -1   0.00000   0.00000
     23571 MEOH     891      MEOH     LP1B     LPD     -0.230000        0.0000           -1   0.00000   0.00000
     23572 MEOH     892      MEOH     C1       CD33B    2.314100       11.6110           0   -1.00000   1.30000
     23573 MEOH     892      MEOH     DC1      DRUD    -2.454100        0.4000           0   0.00000   0.00000
     23574 MEOH     892      MEOH     O1       OD31H    2.488300       15.5990           0   -1.02800   1.30000
     23575 MEOH     892      MEOH     DO1      DRUD    -2.488300        0.4000           0   0.00000   0.00000
     23576 MEOH     892      MEOH     HO1      HDP1A    0.360000        1.0080           0   0.00000   0.00000
     23577 MEOH     892      MEOH     HO2      DUMH     0.000000        1.0080           0   0.00000   0.00000
     23578 MEOH     892      MEOH     H1A      HDA3B    0.080000        1.0080           0   0.00000   0.00000
     23579 MEOH     892      MEOH     H1B      HDA3B    0.080000        1.0080           0   0.00000   0.00000
     23580 MEOH     892      MEOH     H1C      HDA3B    0.080000        1.0080           0   0.00000   0.00000
     23581 MEOH     892      MEOH     LP1A     LPD     -0.230000        0.0000           -1   0.00000   0.00000
     23582 MEOH     892      MEOH     LP1B     LPD     -0.230000        0.0000           -1   0.00000   0.00000
     23583 MEOH     893      MEOH     C1       CD33B    2.314100       11.6110           0   -1.00000   1.30000
     23584 MEOH     893      MEOH     DC1      DRUD    -2.454100        0.4000           0   0.00000   0.00000
     23585 MEOH     893      MEOH     O1       OD31H    2.488300       15.5990           0   -1.02800   1.30000
     23586 MEOH     893      MEOH     DO1      DRUD    -2.488300        0.4000           0   0.00000   0.00000
     23587 MEOH     893      MEOH     HO1      HDP1A    0.360000        1.0080           0   0.00000   0.00000
     23588 MEOH     893      MEOH     HO2      DUMH     0.000000        1.0080           0   0.00000   0.00000
     23589 MEOH     893      MEOH     H1A      HDA3B    0.080000        1.0080           0   0.00000   0.00000
     23590 MEOH     893      MEOH     H1B      HDA3B    0.080000        1.0080           0   0.00000   0.00000
     23591 MEOH     893      MEOH     H1C      HDA3B    0.080000        1.0080           0   0.00000   0.00000
     23592 MEOH     893      MEOH     LP1A     LPD     -0.230000        0.0000           -1   0.00000   0.00000
     23593 MEOH     893      MEOH     LP1B     LPD     -0.230000        0.0000           -1   0.00000   0.00000
     23594 MEOH     894      MEOH     C1       CD33B    2.314100       11.6110           0   -1.00000   1.30000
     23595 MEOH     894      MEOH     DC1      DRUD    -2.454100        0.4000           0   0.00000   0.00000
     23596 MEOH     894      MEOH     O1       OD31H    2.488300       15.5990           0   -1.02800   1.30000
     23597 MEOH     894      MEOH     DO1      DRUD    -2.488300        0.4000           0   0.00000   0.00000
     23598 MEOH     894      MEOH     HO1      HDP1A    0.360000        1.0080           0   0.00000   0.00000
     23599 MEOH     894      MEOH     HO2      DUMH     0.000000        1.0080           0   0.00000   0.00000
     23600 MEOH     894      MEOH     H1A      HDA3B    0.080000        1.0080           0   0.00000   0.00000
     23601 MEOH     894      MEOH     H1B      HDA3B    0.080000        1.0080           0   0.00000   0.00000
     23602 MEOH     894      MEOH     H1C      HDA3B    0.080000        1.0080           0   0.00000   0.00000
     23603 MEOH     894      MEOH     LP1A     LPD     -0.230000        0.0000           -1   0.00000   0.00000
     23604 MEOH     894      MEOH     LP1B     LPD     -0.230000        0.0000           -1   0.00000   0.00000
     23605 MEOH     895      MEOH     C1       CD33B    2.314100       11.6110           0   -1.00000   1.30000
     23606 MEOH     895      MEOH     DC1      DRUD    -2.454100        0.4000           0   0.00000   0.00000
     23607 MEOH     895      MEOH     O1       OD31H    2.488300       15.5990           0   -1.02800   1.30000
     23608 MEOH     895      MEOH     DO1      DRUD    -2.488300        0.4000           0   0.00000   0.00000
     23609 MEOH     895      MEOH     HO1      HDP1A    0.360000        1.0080           0   0.00000   0.00000
     23610 MEOH     895      MEOH     HO2      DUMH     0.000000        1.0080           0   0.00000   0.00000
     23611 MEOH     895      MEOH     H1A      HDA3B    0.080000        1.0080           0   0.00000   0.00000
     23612 MEOH     895      MEOH     H1B      HDA3B    0.080000        1.0080           0   0.00000   0.00000
     23613 MEOH     895      MEOH     H1C      HDA3B    0.080000        1.0080           0   0.00000   0.00000
     23614 MEOH     895      MEOH     LP1A     LPD     -0.230000        0.0000           -1   0.00000   0.00000
     23615 MEOH     895      MEOH     LP1B     LPD     -0.230000        0.0000           -1   0.00000   0.00000
     23616 MEOH     896      MEOH     C1       CD33B    2.314100       11.6110           0   -1.00000   1.30000
     23617 MEOH     896      MEOH     DC1      DRUD    -2.454100        0.4000           0   0.00000   0.00000
     23618 MEOH     896      MEOH     O1       OD31H    2.488300       15.5990           0   -1.02800   1.30000
     23619 MEOH     896      MEOH     DO1      DRUD    -2.488300        0.4000           0   0.00000   0.00000
     23620 MEOH     896      MEOH     HO1      HDP1A    0.360000        1.0080           0   0.00000   0.00000
     23621 MEOH     896      MEOH     HO2      DUMH     0.000000        1.0080           0   0.00000   0.00000
     23622 MEOH     896      MEOH     H1A      HDA3B    0.080000        1.0080           0   0.00000   0.00000
     23623 MEOH     896      MEOH     H1B      HDA3B    0.080000        1.0080           0   0.00000   0.00000
     23624 MEOH     896      MEOH     H1C      HDA3B    0.080000        1.0080           0   0.00000   0.00000
     23625 MEOH     896      MEOH     LP1A     LPD     -0.230000        0.0000           -1   0.00000   0.00000
     23626 MEOH     896      MEOH     LP1B     LPD     -0.230000        0.0000           -1   0.00000   0.00000
     23627 MEOH     897      MEOH     C1       CD33B    2.314100       11.6110           0   -1.00000   1.30000
     23628 MEOH     897      MEOH     DC1      DRUD    -2.454100        0.4000           0   0.00000   0.00000
     23629 MEOH     897      MEOH     O1       OD31H    2.488300       15.5990           0   -1.02800   1.30000
     23630 MEOH     897      MEOH     DO1      DRUD    -2.488300        0.4000           0   0.00000   0.00000
     23631 MEOH     897      MEOH     HO1      HDP1A    0.360000        1.0080           0   0.00000   0.00000
     23632 MEOH     897      MEOH     HO2      DUMH     0.000000        1.0080           0   0.00000   0.00000
     23633 MEOH     897      MEOH     H1A      HDA3B    0.080000        1.0080           0   0.00000   0.00000
     23634 MEOH     897      MEOH     H1B      HDA3B    0.080000        1.0080           0   0.00000   0.00000
     23635 MEOH     897      MEOH     H1C      HDA3B    0.080000        1.0080           0   0.00000   0.00000
     23636 MEOH     897      MEOH     LP1A     LPD     -0.230000        0.0000           -1   0.00000   0.00000
     23637 MEOH     897      MEOH     LP1B     LPD     -0.230000        0.0000           -1   0.00000   0.00000
     23638 MEOH     898      MEOH     C1       CD33B    2.314100       11.6110           0   -1.00000   1.30000
     23639 MEOH     898      MEOH     DC1      DRUD    -2.454100        0.4000           0   0.00000   0.00000
     23640 MEOH     898      MEOH     O1       OD31H    2.488300       15.5990           0   -1.02800   1.30000
     23641 MEOH     898      MEOH     DO1      DRUD    -2.488300        0.4000           0   0.00000   0.00000
     23642 MEOH     898      MEOH     HO1      HDP1A    0.360000        1.0080           0   0.00000   0.00000
     23643 MEOH     898      MEOH     HO2      DUMH     0.000000        1.0080           0   0.00000   0.00000
     23644 MEOH     898      MEOH     H1A      HDA3B    0.080000        1.0080           0   0.00000   0.00000
     23645 MEOH     898      MEOH     H1B      HDA3B    0.080000        1.0080           0   0.00000   0.00000
     23646 MEOH     898      MEOH     H1C      HDA3B    0.080000        1.0080           0   0.00000   0.00000
     23647 MEOH     898      MEOH     LP1A     LPD     -0.230000        0.0000           -1   0.00000   0.00000
     23648 MEOH     898      MEOH     LP1B     LPD     -0.230000        0.0000           -1   0.00000   0.00000
     23649 MEOH     899      MEOH     C1       CD33B    2.314100       11.6110           0   -1.00000   1.30000
     23650 MEOH     899      MEOH     DC1      DRUD    -2.454100        0.4000           0   0.00000   0.00000
     23651 MEOH     899      MEOH     O1       OD31H    2.488300       15.5990           0   -1.02800   1.30000
     23652 MEOH     899      MEOH     DO1      DRUD    -2.488300        0.4000           0   0.00000   0.00000
     23653 MEOH     899      MEOH     HO1      HDP1A    0.360000        1.0080           0   0.00000   0.00000
     23654 MEOH     899      MEOH     HO2      DUMH     0.000000        1.0080           0   0.00000   0.00000
     23655 MEOH     899      MEOH     H1A      HDA3B    0.080000        1.0080           0   0.00000   0.00000
     23656 MEOH     899      MEOH     H1B      HDA3B    0.080000        1.0080           0   0.00000   0.00000
     23657 MEOH     899      MEOH     H1C      HDA3B    0.080000        1.0080           0   0.00000   0.00000
     23658 MEOH     899      MEOH     LP1A     LPD     -0.230000        0.0000           -1   0.00000   0.00000
     23659 MEOH     899      MEOH     LP1B     LPD     -0.230000        0.0000           -1   0.00000   0.00000
     23660 MEOH     900      MEOH     C1       CD33B    2.314100       11.6110           0   -1.00000   1.30000
     23661 MEOH     900      MEOH     DC1      DRUD    -2.454100        0.4000           0   0.00000   0.00000
     23662 MEOH     900      MEOH     O1       OD31H    2.488300       15.5990           0   -1.02800   1.30000
     23663 MEOH     900      MEOH     DO1      DRUD    -2.488300        0.4000           0   0.00000   0.00000
     23664 MEOH     900      MEOH     HO1      HDP1A    0.360000        1.0080           0   0.00000   0.00000
     23665 MEOH     900      MEOH     HO2      DUMH     0.000000        1.0080           0   0.00000   0.00000
     23666 MEOH     900      MEOH     H1A      HDA3B    0.080000        1.0080           0   0.00000   0.00000
     23667 MEOH     900      MEOH     H1B      HDA3B    0.080000        1.0080           0   0.00000   0.00000
     23668 MEOH     900      MEOH     H1C      HDA3B    0.080000        1.0080           0   0.00000   0.00000
     23669 MEOH     900      MEOH     LP1A     LPD     -0.230000        0.0000           -1   0.00000   0.00000
     23670 MEOH     900      MEOH     LP1B     LPD     -0.230000        0.0000           -1   0.00000   0.00000
     23671 MEOH     901      MEOH     C1       CD33B    2.314100       11.6110           0   -1.00000   1.30000
     23672 MEOH     901      MEOH     DC1      DRUD    -2.454100        0.4000           0   0.00000   0.00000
     23673 MEOH     901      MEOH     O1       OD31H    2.488300       15.5990           0   -1.02800   1.30000
     23674 MEOH     901      MEOH     DO1      DRUD    -2.488300        0.4000           0   0.00000   0.00000
     23675 MEOH     901      MEOH     HO1      HDP1A    0.360000        1.0080           0   0.00000   0.00000
     23676 MEOH     901      MEOH     HO2      DUMH     0.000000        1.0080           0   0.00000   0.00000
     23677 MEOH     901      MEOH     H1A      HDA3B    0.080000        1.0080           0   0.00000   0.00000
     23678 MEOH     901      MEOH     H1B      HDA3B    0.080000        1.0080           0   0.00000   0.00000
     23679 MEOH     901      MEOH     H1C      HDA3B    0.080000        1.0080           0   0.00000   0.00000
     23680 MEOH     901      MEOH     LP1A     LPD     -0.230000        0.0000           -1   0.00000   0.00000
     23681 MEOH     901      MEOH     LP1B     LPD     -0.230000        0.0000           -1   0.00000   0.00000
     23682 MEOH     902      MEOH     C1       CD33B    2.314100       11.6110           0   -1.00000   1.30000
     23683 MEOH     902      MEOH     DC1      DRUD    -2.454100        0.4000           0   0.00000   0.00000
     23684 MEOH     902      MEOH     O1       OD31H    2.488300       15.5990           0   -1.02800   1.30000
     23685 MEOH     902      MEOH     DO1      DRUD    -2.488300        0.4000           0   0.00000   0.00000
     23686 MEOH     902      MEOH     HO1      HDP1A    0.360000        1.0080           0   0.00000   0.00000
     23687 MEOH     902      MEOH     HO2      DUMH     0.000000        1.0080           0   0.00000   0.00000
     23688 MEOH     902      MEOH     H1A      HDA3B    0.080000        1.0080           0   0.00000   0.00000
     23689 MEOH     902      MEOH     H1B      HDA3B    0.080000        1.0080           0   0.00000   0.00000
     23690 MEOH     902      MEOH     H1C      HDA3B    0.080000        1.0080           0   0.00000   0.00000
     23691 MEOH     902      MEOH     LP1A     LPD     -0.230000        0.0000           -1   0.00000   0.00000
     23692 MEOH     902      MEOH     LP1B     LPD     -0.230000        0.0000           -1   0.00000   0.00000
     23693 MEOH     903      MEOH     C1       CD33B    2.314100       11.6110           0   -1.00000   1.30000
     23694 MEOH     903      MEOH     DC1      DRUD    -2.454100        0.4000           0   0.00000   0.00000
     23695 MEOH     903      MEOH     O1       OD31H    2.488300       15.5990           0   -1.02800   1.30000
     23696 MEOH     903      MEOH     DO1      DRUD    -2.488300        0.4000           0   0.00000   0.00000
     23697 MEOH     903      MEOH     HO1      HDP1A    0.360000        1.0080           0   0.00000   0.00000
     23698 MEOH     903      MEOH     HO2      DUMH     0.000000        1.0080           0   0.00000   0.00000
     23699 MEOH     903      MEOH     H1A      HDA3B    0.080000        1.0080           0   0.00000   0.00000
     23700 MEOH     903      MEOH     H1B      HDA3B    0.080000        1.0080           0   0.00000   0.00000
     23701 MEOH     903      MEOH     H1C      HDA3B    0.080000        1.0080           0   0.00000   0.00000
     23702 MEOH     903      MEOH     LP1A     LPD     -0.230000        0.0000           -1   0.00000   0.00000
     23703 MEOH     903      MEOH     LP1B     LPD     -0.230000        0.0000           -1   0.00000   0.00000
     23704 MEOH     904      MEOH     C1       CD33B    2.314100       11.6110           0   -1.00000   1.30000
     23705 MEOH     904      MEOH     DC1      DRUD    -2.454100        0.4000           0   0.00000   0.00000
     23706 MEOH     904      MEOH     O1       OD31H    2.488300       15.5990           0   -1.02800   1.30000
     23707 MEOH     904      MEOH     DO1      DRUD    -2.488300        0.4000           0   0.00000   0.00000
     23708 MEOH     904      MEOH     HO1      HDP1A    0.360000        1.0080           0   0.00000   0.00000
     23709 MEOH     904      MEOH     HO2      DUMH     0.000000        1.0080           0   0.00000   0.00000
     23710 MEOH     904      MEOH     H1A      HDA3B    0.080000        1.0080           0   0.00000   0.00000
     23711 MEOH     904      MEOH     H1B      HDA3B    0.080000        1.0080           0   0.00000   0.00000
     23712 MEOH     904      MEOH     H1C      HDA3B    0.080000        1.0080           0   0.00000   0.00000
     23713 MEOH     904      MEOH     LP1A     LPD     -0.230000        0.0000           -1   0.00000   0.00000
     23714 MEOH     904      MEOH     LP1B     LPD     -0.230000        0.0000           -1   0.00000   0.00000
     23715 MEOH     905      MEOH     C1       CD33B    2.314100       11.6110           0   -1.00000   1.30000
     23716 MEOH     905      MEOH     DC1      DRUD    -2.454100        0.4000           0   0.00000   0.00000
     23717 MEOH     905      MEOH     O1       OD31H    2.488300       15.5990           0   -1.02800   1.30000
     23718 MEOH     905      MEOH     DO1      DRUD    -2.488300        0.4000           0   0.00000   0.00000
     23719 MEOH     905      MEOH     HO1      HDP1A    0.360000        1.0080           0   0.00000   0.00000
     23720 MEOH     905      MEOH     HO2      DUMH     0.000000        1.0080           0   0.00000   0.00000
     23721 MEOH     905      MEOH     H1A      HDA3B    0.080000        1.0080           0   0.00000   0.00000
     23722 MEOH     905      MEOH     H1B      HDA3B    0.080000        1.0080           0   0.00000   0.00000
     23723 MEOH     905      MEOH     H1C      HDA3B    0.080000        1.0080           0   0.00000   0.00000
     23724 MEOH     905      MEOH     LP1A     LPD     -0.230000        0.0000           -1   0.00000   0.00000
     23725 MEOH     905      MEOH     LP1B     LPD     -0.230000        0.0000           -1   0.00000   0.00000
     23726 MEOH     906      MEOH     C1       CD33B    2.314100       11.6110           0   -1.00000   1.30000
     23727 MEOH     906      MEOH     DC1      DRUD    -2.454100        0.4000           0   0.00000   0.00000
     23728 MEOH     906      MEOH     O1       OD31H    2.488300       15.5990           0   -1.02800   1.30000
     23729 MEOH     906      MEOH     DO1      DRUD    -2.488300        0.4000           0   0.00000   0.00000
     23730 MEOH     906      MEOH     HO1      HDP1A    0.360000        1.0080           0   0.00000   0.00000
     23731 MEOH     906      MEOH     HO2      DUMH     0.000000        1.0080           0   0.00000   0.00000
     23732 MEOH     906      MEOH     H1A      HDA3B    0.080000        1.0080           0   0.00000   0.00000
     23733 MEOH     906      MEOH     H1B      HDA3B    0.080000        1.0080           0   0.00000   0.00000
     23734 MEOH     906      MEOH     H1C      HDA3B    0.080000        1.0080           0   0.00000   0.00000
     23735 MEOH     906      MEOH     LP1A     LPD     -0.230000        0.0000           -1   0.00000   0.00000
     23736 MEOH     906      MEOH     LP1B     LPD     -0.230000        0.0000           -1   0.00000   0.00000
     23737 MEOH     907      MEOH     C1       CD33B    2.314100       11.6110           0   -1.00000   1.30000
     23738 MEOH     907      MEOH     DC1      DRUD    -2.454100        0.4000           0   0.00000   0.00000
     23739 MEOH     907      MEOH     O1       OD31H    2.488300       15.5990           0   -1.02800   1.30000
     23740 MEOH     907      MEOH     DO1      DRUD    -2.488300        0.4000           0   0.00000   0.00000
     23741 MEOH     907      MEOH     HO1      HDP1A    0.360000        1.0080           0   0.00000   0.00000
     23742 MEOH     907      MEOH     HO2      DUMH     0.000000        1.0080           0   0.00000   0.00000
     23743 MEOH     907      MEOH     H1A      HDA3B    0.080000        1.0080           0   0.00000   0.00000
     23744 MEOH     907      MEOH     H1B      HDA3B    0.080000        1.0080           0   0.00000   0.00000
     23745 MEOH     907      MEOH     H1C      HDA3B    0.080000        1.0080           0   0.00000   0.00000
     23746 MEOH     907      MEOH     LP1A     LPD     -0.230000        0.0000           -1   0.00000   0.00000
     23747 MEOH     907      MEOH     LP1B     LPD     -0.230000        0.0000           -1   0.00000   0.00000
     23748 MEOH     908      MEOH     C1       CD33B    2.314100       11.6110           0   -1.00000   1.30000
     23749 MEOH     908      MEOH     DC1      DRUD    -2.454100        0.4000           0   0.00000   0.00000
     23750 MEOH     908      MEOH     O1       OD31H    2.488300       15.5990           0   -1.02800   1.30000
     23751 MEOH     908      MEOH     DO1      DRUD    -2.488300        0.4000           0   0.00000   0.00000
     23752 MEOH     908      MEOH     HO1      HDP1A    0.360000        1.0080           0   0.00000   0.00000
     23753 MEOH     908      MEOH     HO2      DUMH     0.000000        1.0080           0   0.00000   0.00000
     23754 MEOH     908      MEOH     H1A      HDA3B    0.080000        1.0080           0   0.00000   0.00000
     23755 MEOH     908      MEOH     H1B      HDA3B    0.080000        1.0080           0   0.00000   0.00000
     23756 MEOH     908      MEOH     H1C      HDA3B    0.080000        1.0080           0   0.00000   0.00000
     23757 MEOH     908      MEOH     LP1A     LPD     -0.230000        0.0000           -1   0.00000   0.00000
     23758 MEOH     908      MEOH     LP1B     LPD     -0.230000        0.0000           -1   0.00000   0.00000
     23759 MEOH     909      MEOH     C1       CD33B    2.314100       11.6110           0   -1.00000   1.30000
     23760 MEOH     909      MEOH     DC1      DRUD    -2.454100        0.4000           0   0.00000   0.00000
     23761 MEOH     909      MEOH     O1       OD31H    2.488300       15.5990           0   -1.02800   1.30000
     23762 MEOH     909      MEOH     DO1      DRUD    -2.488300        0.4000           0   0.00000   0.00000
     23763 MEOH     909      MEOH     HO1      HDP1A    0.360000        1.0080           0   0.00000   0.00000
     23764 MEOH     909      MEOH     HO2      DUMH     0.000000        1.0080           0   0.00000   0.00000
     23765 MEOH     909      MEOH     H1A      HDA3B    0.080000        1.0080           0   0.00000   0.00000
     23766 MEOH     909      MEOH     H1B      HDA3B    0.080000        1.0080           0   0.00000   0.00000
     23767 MEOH     909      MEOH     H1C      HDA3B    0.080000        1.0080           0   0.00000   0.00000
     23768 MEOH     909      MEOH     LP1A     LPD     -0.230000        0.0000           -1   0.00000   0.00000
     23769 MEOH     909      MEOH     LP1B     LPD     -0.230000        0.0000           -1   0.00000   0.00000
     23770 MEOH     910      MEOH     C1       CD33B    2.314100       11.6110           0   -1.00000   1.30000
     23771 MEOH     910      MEOH     DC1      DRUD    -2.454100        0.4000           0   0.00000   0.00000
     23772 MEOH     910      MEOH     O1       OD31H    2.488300       15.5990           0   -1.02800   1.30000
     23773 MEOH     910      MEOH     DO1      DRUD    -2.488300        0.4000           0   0.00000   0.00000
     23774 MEOH     910      MEOH     HO1      HDP1A    0.360000        1.0080           0   0.00000   0.00000
     23775 MEOH     910      MEOH     HO2      DUMH     0.000000        1.0080           0   0.00000   0.00000
     23776 MEOH     910      MEOH     H1A      HDA3B    0.080000        1.0080           0   0.00000   0.00000
     23777 MEOH     910      MEOH     H1B      HDA3B    0.080000        1.0080           0   0.00000   0.00000
     23778 MEOH     910      MEOH     H1C      HDA3B    0.080000        1.0080           0   0.00000   0.00000
     23779 MEOH     910      MEOH     LP1A     LPD     -0.230000        0.0000           -1   0.00000   0.00000
     23780 MEOH     910      MEOH     LP1B     LPD     -0.230000        0.0000           -1   0.00000   0.00000
     23781 MEOH     911      MEOH     C1       CD33B    2.314100       11.6110           0   -1.00000   1.30000
     23782 MEOH     911      MEOH     DC1      DRUD    -2.454100        0.4000           0   0.00000   0.00000
     23783 MEOH     911      MEOH     O1       OD31H    2.488300       15.5990           0   -1.02800   1.30000
     23784 MEOH     911      MEOH     DO1      DRUD    -2.488300        0.4000           0   0.00000   0.00000
     23785 MEOH     911      MEOH     HO1      HDP1A    0.360000        1.0080           0   0.00000   0.00000
     23786 MEOH     911      MEOH     HO2      DUMH     0.000000        1.0080           0   0.00000   0.00000
     23787 MEOH     911      MEOH     H1A      HDA3B    0.080000        1.0080           0   0.00000   0.00000
     23788 MEOH     911      MEOH     H1B      HDA3B    0.080000        1.0080           0   0.00000   0.00000
     23789 MEOH     911      MEOH     H1C      HDA3B    0.080000        1.0080           0   0.00000   0.00000
     23790 MEOH     911      MEOH     LP1A     LPD     -0.230000        0.0000           -1   0.00000   0.00000
     23791 MEOH     911      MEOH     LP1B     LPD     -0.230000        0.0000           -1   0.00000   0.00000
     23792 MEOH     912      MEOH     C1       CD33B    2.314100       11.6110           0   -1.00000   1.30000
     23793 MEOH     912      MEOH     DC1      DRUD    -2.454100        0.4000           0   0.00000   0.00000
     23794 MEOH     912      MEOH     O1       OD31H    2.488300       15.5990           0   -1.02800   1.30000
     23795 MEOH     912      MEOH     DO1      DRUD    -2.488300        0.4000           0   0.00000   0.00000
     23796 MEOH     912      MEOH     HO1      HDP1A    0.360000        1.0080           0   0.00000   0.00000
     23797 MEOH     912      MEOH     HO2      DUMH     0.000000        1.0080           0   0.00000   0.00000
     23798 MEOH     912      MEOH     H1A      HDA3B    0.080000        1.0080           0   0.00000   0.00000
     23799 MEOH     912      MEOH     H1B      HDA3B    0.080000        1.0080           0   0.00000   0.00000
     23800 MEOH     912      MEOH     H1C      HDA3B    0.080000        1.0080           0   0.00000   0.00000
     23801 MEOH     912      MEOH     LP1A     LPD     -0.230000        0.0000           -1   0.00000   0.00000
     23802 MEOH     912      MEOH     LP1B     LPD     -0.230000        0.0000           -1   0.00000   0.00000
     23803 MEOH     913      MEOH     C1       CD33B    2.314100       11.6110           0   -1.00000   1.30000
     23804 MEOH     913      MEOH     DC1      DRUD    -2.454100        0.4000           0   0.00000   0.00000
     23805 MEOH     913      MEOH     O1       OD31H    2.488300       15.5990           0   -1.02800   1.30000
     23806 MEOH     913      MEOH     DO1      DRUD    -2.488300        0.4000           0   0.00000   0.00000
     23807 MEOH     913      MEOH     HO1      HDP1A    0.360000        1.0080           0   0.00000   0.00000
     23808 MEOH     913      MEOH     HO2      DUMH     0.000000        1.0080           0   0.00000   0.00000
     23809 MEOH     913      MEOH     H1A      HDA3B    0.080000        1.0080           0   0.00000   0.00000
     23810 MEOH     913      MEOH     H1B      HDA3B    0.080000        1.0080           0   0.00000   0.00000
     23811 MEOH     913      MEOH     H1C      HDA3B    0.080000        1.0080           0   0.00000   0.00000
     23812 MEOH     913      MEOH     LP1A     LPD     -0.230000        0.0000           -1   0.00000   0.00000
     23813 MEOH     913      MEOH     LP1B     LPD     -0.230000        0.0000           -1   0.00000   0.00000
     23814 MEOH     914      MEOH     C1       CD33B    2.314100       11.6110           0   -1.00000   1.30000
     23815 MEOH     914      MEOH     DC1      DRUD    -2.454100        0.4000           0   0.00000   0.00000
     23816 MEOH     914      MEOH     O1       OD31H    2.488300       15.5990           0   -1.02800   1.30000
     23817 MEOH     914      MEOH     DO1      DRUD    -2.488300        0.4000           0   0.00000   0.00000
     23818 MEOH     914      MEOH     HO1      HDP1A    0.360000        1.0080           0   0.00000   0.00000
     23819 MEOH     914      MEOH     HO2      DUMH     0.000000        1.0080           0   0.00000   0.00000
     23820 MEOH     914      MEOH     H1A      HDA3B    0.080000        1.0080           0   0.00000   0.00000
     23821 MEOH     914      MEOH     H1B      HDA3B    0.080000        1.0080           0   0.00000   0.00000
     23822 MEOH     914      MEOH     H1C      HDA3B    0.080000        1.0080           0   0.00000   0.00000
     23823 MEOH     914      MEOH     LP1A     LPD     -0.230000        0.0000           -1   0.00000   0.00000
     23824 MEOH     914      MEOH     LP1B     LPD     -0.230000        0.0000           -1   0.00000   0.00000
     23825 MEOH     915      MEOH     C1       CD33B    2.314100       11.6110           0   -1.00000   1.30000
     23826 MEOH     915      MEOH     DC1      DRUD    -2.454100        0.4000           0   0.00000   0.00000
     23827 MEOH     915      MEOH     O1       OD31H    2.488300       15.5990           0   -1.02800   1.30000
     23828 MEOH     915      MEOH     DO1      DRUD    -2.488300        0.4000           0   0.00000   0.00000
     23829 MEOH     915      MEOH     HO1      HDP1A    0.360000        1.0080           0   0.00000   0.00000
     23830 MEOH     915      MEOH     HO2      DUMH     0.000000        1.0080           0   0.00000   0.00000
     23831 MEOH     915      MEOH     H1A      HDA3B    0.080000        1.0080           0   0.00000   0.00000
     23832 MEOH     915      MEOH     H1B      HDA3B    0.080000        1.0080           0   0.00000   0.00000
     23833 MEOH     915      MEOH     H1C      HDA3B    0.080000        1.0080           0   0.00000   0.00000
     23834 MEOH     915      MEOH     LP1A     LPD     -0.230000        0.0000           -1   0.00000   0.00000
     23835 MEOH     915      MEOH     LP1B     LPD     -0.230000        0.0000           -1   0.00000   0.00000
     23836 MEOH     916      MEOH     C1       CD33B    2.314100       11.6110           0   -1.00000   1.30000
     23837 MEOH     916      MEOH     DC1      DRUD    -2.454100        0.4000           0   0.00000   0.00000
     23838 MEOH     916      MEOH     O1       OD31H    2.488300       15.5990           0   -1.02800   1.30000
     23839 MEOH     916      MEOH     DO1      DRUD    -2.488300        0.4000           0   0.00000   0.00000
     23840 MEOH     916      MEOH     HO1      HDP1A    0.360000        1.0080           0   0.00000   0.00000
     23841 MEOH     916      MEOH     HO2      DUMH     0.000000        1.0080           0   0.00000   0.00000
     23842 MEOH     916      MEOH     H1A      HDA3B    0.080000        1.0080           0   0.00000   0.00000
     23843 MEOH     916      MEOH     H1B      HDA3B    0.080000        1.0080           0   0.00000   0.00000
     23844 MEOH     916      MEOH     H1C      HDA3B    0.080000        1.0080           0   0.00000   0.00000
     23845 MEOH     916      MEOH     LP1A     LPD     -0.230000        0.0000           -1   0.00000   0.00000
     23846 MEOH     916      MEOH     LP1B     LPD     -0.230000        0.0000           -1   0.00000   0.00000
     23847 MEOH     917      MEOH     C1       CD33B    2.314100       11.6110           0   -1.00000   1.30000
     23848 MEOH     917      MEOH     DC1      DRUD    -2.454100        0.4000           0   0.00000   0.00000
     23849 MEOH     917      MEOH     O1       OD31H    2.488300       15.5990           0   -1.02800   1.30000
     23850 MEOH     917      MEOH     DO1      DRUD    -2.488300        0.4000           0   0.00000   0.00000
     23851 MEOH     917      MEOH     HO1      HDP1A    0.360000        1.0080           0   0.00000   0.00000
     23852 MEOH     917      MEOH     HO2      DUMH     0.000000        1.0080           0   0.00000   0.00000
     23853 MEOH     917      MEOH     H1A      HDA3B    0.080000        1.0080           0   0.00000   0.00000
     23854 MEOH     917      MEOH     H1B      HDA3B    0.080000        1.0080           0   0.00000   0.00000
     23855 MEOH     917      MEOH     H1C      HDA3B    0.080000        1.0080           0   0.00000   0.00000
     23856 MEOH     917      MEOH     LP1A     LPD     -0.230000        0.0000           -1   0.00000   0.00000
     23857 MEOH     917      MEOH     LP1B     LPD     -0.230000        0.0000           -1   0.00000   0.00000
     23858 MEOH     918      MEOH     C1       CD33B    2.314100       11.6110           0   -1.00000   1.30000
     23859 MEOH     918      MEOH     DC1      DRUD    -2.454100        0.4000           0   0.00000   0.00000
     23860 MEOH     918      MEOH     O1       OD31H    2.488300       15.5990           0   -1.02800   1.30000
     23861 MEOH     918      MEOH     DO1      DRUD    -2.488300        0.4000           0   0.00000   0.00000
     23862 MEOH     918      MEOH     HO1      HDP1A    0.360000        1.0080           0   0.00000   0.00000
     23863 MEOH     918      MEOH     HO2      DUMH     0.000000        1.0080           0   0.00000   0.00000
     23864 MEOH     918      MEOH     H1A      HDA3B    0.080000        1.0080           0   0.00000   0.00000
     23865 MEOH     918      MEOH     H1B      HDA3B    0.080000        1.0080           0   0.00000   0.00000
     23866 MEOH     918      MEOH     H1C      HDA3B    0.080000        1.0080           0   0.00000   0.00000
     23867 MEOH     918      MEOH     LP1A     LPD     -0.230000        0.0000           -1   0.00000   0.00000
     23868 MEOH     918      MEOH     LP1B     LPD     -0.230000        0.0000           -1   0.00000   0.00000
     23869 MEOH     919      MEOH     C1       CD33B    2.314100       11.6110           0   -1.00000   1.30000
     23870 MEOH     919      MEOH     DC1      DRUD    -2.454100        0.4000           0   0.00000   0.00000
     23871 MEOH     919      MEOH     O1       OD31H    2.488300       15.5990           0   -1.02800   1.30000
     23872 MEOH     919      MEOH     DO1      DRUD    -2.488300        0.4000           0   0.00000   0.00000
     23873 MEOH     919      MEOH     HO1      HDP1A    0.360000        1.0080           0   0.00000   0.00000
     23874 MEOH     919      MEOH     HO2      DUMH     0.000000        1.0080           0   0.00000   0.00000
     23875 MEOH     919      MEOH     H1A      HDA3B    0.080000        1.0080           0   0.00000   0.00000
     23876 MEOH     919      MEOH     H1B      HDA3B    0.080000        1.0080           0   0.00000   0.00000
     23877 MEOH     919      MEOH     H1C      HDA3B    0.080000        1.0080           0   0.00000   0.00000
     23878 MEOH     919      MEOH     LP1A     LPD     -0.230000        0.0000           -1   0.00000   0.00000
     23879 MEOH     919      MEOH     LP1B     LPD     -0.230000        0.0000           -1   0.00000   0.00000
     23880 MEOH     920      MEOH     C1       CD33B    2.314100       11.6110           0   -1.00000   1.30000
     23881 MEOH     920      MEOH     DC1      DRUD    -2.454100        0.4000           0   0.00000   0.00000
     23882 MEOH     920      MEOH     O1       OD31H    2.488300       15.5990           0   -1.02800   1.30000
     23883 MEOH     920      MEOH     DO1      DRUD    -2.488300        0.4000           0   0.00000   0.00000
     23884 MEOH     920      MEOH     HO1      HDP1A    0.360000        1.0080           0   0.00000   0.00000
     23885 MEOH     920      MEOH     HO2      DUMH     0.000000        1.0080           0   0.00000   0.00000
     23886 MEOH     920      MEOH     H1A      HDA3B    0.080000        1.0080           0   0.00000   0.00000
     23887 MEOH     920      MEOH     H1B      HDA3B    0.080000        1.0080           0   0.00000   0.00000
     23888 MEOH     920      MEOH     H1C      HDA3B    0.080000        1.0080           0   0.00000   0.00000
     23889 MEOH     920      MEOH     LP1A     LPD     -0.230000        0.0000           -1   0.00000   0.00000
     23890 MEOH     920      MEOH     LP1B     LPD     -0.230000        0.0000           -1   0.00000   0.00000
     23891 MEOH     921      MEOH     C1       CD33B    2.314100       11.6110           0   -1.00000   1.30000
     23892 MEOH     921      MEOH     DC1      DRUD    -2.454100        0.4000           0   0.00000   0.00000
     23893 MEOH     921      MEOH     O1       OD31H    2.488300       15.5990           0   -1.02800   1.30000
     23894 MEOH     921      MEOH     DO1      DRUD    -2.488300        0.4000           0   0.00000   0.00000
     23895 MEOH     921      MEOH     HO1      HDP1A    0.360000        1.0080           0   0.00000   0.00000
     23896 MEOH     921      MEOH     HO2      DUMH     0.000000        1.0080           0   0.00000   0.00000
     23897 MEOH     921      MEOH     H1A      HDA3B    0.080000        1.0080           0   0.00000   0.00000
     23898 MEOH     921      MEOH     H1B      HDA3B    0.080000        1.0080           0   0.00000   0.00000
     23899 MEOH     921      MEOH     H1C      HDA3B    0.080000        1.0080           0   0.00000   0.00000
     23900 MEOH     921      MEOH     LP1A     LPD     -0.230000        0.0000           -1   0.00000   0.00000
     23901 MEOH     921      MEOH     LP1B     LPD     -0.230000        0.0000           -1   0.00000   0.00000
     23902 MEOH     922      MEOH     C1       CD33B    2.314100       11.6110           0   -1.00000   1.30000
     23903 MEOH     922      MEOH     DC1      DRUD    -2.454100        0.4000           0   0.00000   0.00000
     23904 MEOH     922      MEOH     O1       OD31H    2.488300       15.5990           0   -1.02800   1.30000
     23905 MEOH     922      MEOH     DO1      DRUD    -2.488300        0.4000           0   0.00000   0.00000
     23906 MEOH     922      MEOH     HO1      HDP1A    0.360000        1.0080           0   0.00000   0.00000
     23907 MEOH     922      MEOH     HO2      DUMH     0.000000        1.0080           0   0.00000   0.00000
     23908 MEOH     922      MEOH     H1A      HDA3B    0.080000        1.0080           0   0.00000   0.00000
     23909 MEOH     922      MEOH     H1B      HDA3B    0.080000        1.0080           0   0.00000   0.00000
     23910 MEOH     922      MEOH     H1C      HDA3B    0.080000        1.0080           0   0.00000   0.00000
     23911 MEOH     922      MEOH     LP1A     LPD     -0.230000        0.0000           -1   0.00000   0.00000
     23912 MEOH     922      MEOH     LP1B     LPD     -0.230000        0.0000           -1   0.00000   0.00000
     23913 MEOH     923      MEOH     C1       CD33B    2.314100       11.6110           0   -1.00000   1.30000
     23914 MEOH     923      MEOH     DC1      DRUD    -2.454100        0.4000           0   0.00000   0.00000
     23915 MEOH     923      MEOH     O1       OD31H    2.488300       15.5990           0   -1.02800   1.30000
     23916 MEOH     923      MEOH     DO1      DRUD    -2.488300        0.4000           0   0.00000   0.00000
     23917 MEOH     923      MEOH     HO1      HDP1A    0.360000        1.0080           0   0.00000   0.00000
     23918 MEOH     923      MEOH     HO2      DUMH     0.000000        1.0080           0   0.00000   0.00000
     23919 MEOH     923      MEOH     H1A      HDA3B    0.080000        1.0080           0   0.00000   0.00000
     23920 MEOH     923      MEOH     H1B      HDA3B    0.080000        1.0080           0   0.00000   0.00000
     23921 MEOH     923      MEOH     H1C      HDA3B    0.080000        1.0080           0   0.00000   0.00000
     23922 MEOH     923      MEOH     LP1A     LPD     -0.230000        0.0000           -1   0.00000   0.00000
     23923 MEOH     923      MEOH     LP1B     LPD     -0.230000        0.0000           -1   0.00000   0.00000
     23924 MEOH     924      MEOH     C1       CD33B    2.314100       11.6110           0   -1.00000   1.30000
     23925 MEOH     924      MEOH     DC1      DRUD    -2.454100        0.4000           0   0.00000   0.00000
     23926 MEOH     924      MEOH     O1       OD31H    2.488300       15.5990           0   -1.02800   1.30000
     23927 MEOH     924      MEOH     DO1      DRUD    -2.488300        0.4000           0   0.00000   0.00000
     23928 MEOH     924      MEOH     HO1      HDP1A    0.360000        1.0080           0   0.00000   0.00000
     23929 MEOH     924      MEOH     HO2      DUMH     0.000000        1.0080           0   0.00000   0.00000
     23930 MEOH     924      MEOH     H1A      HDA3B    0.080000        1.0080           0   0.00000   0.00000
     23931 MEOH     924      MEOH     H1B      HDA3B    0.080000        1.0080           0   0.00000   0.00000
     23932 MEOH     924      MEOH     H1C      HDA3B    0.080000        1.0080           0   0.00000   0.00000
     23933 MEOH     924      MEOH     LP1A     LPD     -0.230000        0.0000           -1   0.00000   0.00000
     23934 MEOH     924      MEOH     LP1B     LPD     -0.230000        0.0000           -1   0.00000   0.00000
     23935 MEOH     925      MEOH     C1       CD33B    2.314100       11.6110           0   -1.00000   1.30000
     23936 MEOH     925      MEOH     DC1      DRUD    -2.454100        0.4000           0   0.00000   0.00000
     23937 MEOH     925      MEOH     O1       OD31H    2.488300       15.5990           0   -1.02800   1.30000
     23938 MEOH     925      MEOH     DO1      DRUD    -2.488300        0.4000           0   0.00000   0.00000
     23939 MEOH     925      MEOH     HO1      HDP1A    0.360000        1.0080           0   0.00000   0.00000
     23940 MEOH     925      MEOH     HO2      DUMH     0.000000        1.0080           0   0.00000   0.00000
     23941 MEOH     925      MEOH     H1A      HDA3B    0.080000        1.0080           0   0.00000   0.00000
     23942 MEOH     925      MEOH     H1B      HDA3B    0.080000        1.0080           0   0.00000   0.00000
     23943 MEOH     925      MEOH     H1C      HDA3B    0.080000        1.0080           0   0.00000   0.00000
     23944 MEOH     925      MEOH     LP1A     LPD     -0.230000        0.0000           -1   0.00000   0.00000
     23945 MEOH     925      MEOH     LP1B     LPD     -0.230000        0.0000           -1   0.00000   0.00000
     23946 MEOH     926      MEOH     C1       CD33B    2.314100       11.6110           0   -1.00000   1.30000
     23947 MEOH     926      MEOH     DC1      DRUD    -2.454100        0.4000           0   0.00000   0.00000
     23948 MEOH     926      MEOH     O1       OD31H    2.488300       15.5990           0   -1.02800   1.30000
     23949 MEOH     926      MEOH     DO1      DRUD    -2.488300        0.4000           0   0.00000   0.00000
     23950 MEOH     926      MEOH     HO1      HDP1A    0.360000        1.0080           0   0.00000   0.00000
     23951 MEOH     926      MEOH     HO2      DUMH     0.000000        1.0080           0   0.00000   0.00000
     23952 MEOH     926      MEOH     H1A      HDA3B    0.080000        1.0080           0   0.00000   0.00000
     23953 MEOH     926      MEOH     H1B      HDA3B    0.080000        1.0080           0   0.00000   0.00000
     23954 MEOH     926      MEOH     H1C      HDA3B    0.080000        1.0080           0   0.00000   0.00000
     23955 MEOH     926      MEOH     LP1A     LPD     -0.230000        0.0000           -1   0.00000   0.00000
     23956 MEOH     926      MEOH     LP1B     LPD     -0.230000        0.0000           -1   0.00000   0.00000
     23957 MEOH     927      MEOH     C1       CD33B    2.314100       11.6110           0   -1.00000   1.30000
     23958 MEOH     927      MEOH     DC1      DRUD    -2.454100        0.4000           0   0.00000   0.00000
     23959 MEOH     927      MEOH     O1       OD31H    2.488300       15.5990           0   -1.02800   1.30000
     23960 MEOH     927      MEOH     DO1      DRUD    -2.488300        0.4000           0   0.00000   0.00000
     23961 MEOH     927      MEOH     HO1      HDP1A    0.360000        1.0080           0   0.00000   0.00000
     23962 MEOH     927      MEOH     HO2      DUMH     0.000000        1.0080           0   0.00000   0.00000
     23963 MEOH     927      MEOH     H1A      HDA3B    0.080000        1.0080           0   0.00000   0.00000
     23964 MEOH     927      MEOH     H1B      HDA3B    0.080000        1.0080           0   0.00000   0.00000
     23965 MEOH     927      MEOH     H1C      HDA3B    0.080000        1.0080           0   0.00000   0.00000
     23966 MEOH     927      MEOH     LP1A     LPD     -0.230000        0.0000           -1   0.00000   0.00000
     23967 MEOH     927      MEOH     LP1B     LPD     -0.230000        0.0000           -1   0.00000   0.00000
     23968 MEOH     928      MEOH     C1       CD33B    2.314100       11.6110           0   -1.00000   1.30000
     23969 MEOH     928      MEOH     DC1      DRUD    -2.454100        0.4000           0   0.00000   0.00000
     23970 MEOH     928      MEOH     O1       OD31H    2.488300       15.5990           0   -1.02800   1.30000
     23971 MEOH     928      MEOH     DO1      DRUD    -2.488300        0.4000           0   0.00000   0.00000
     23972 MEOH     928      MEOH     HO1      HDP1A    0.360000        1.0080           0   0.00000   0.00000
     23973 MEOH     928      MEOH     HO2      DUMH     0.000000        1.0080           0   0.00000   0.00000
     23974 MEOH     928      MEOH     H1A      HDA3B    0.080000        1.0080           0   0.00000   0.00000
     23975 MEOH     928      MEOH     H1B      HDA3B    0.080000        1.0080           0   0.00000   0.00000
     23976 MEOH     928      MEOH     H1C      HDA3B    0.080000        1.0080           0   0.00000   0.00000
     23977 MEOH     928      MEOH     LP1A     LPD     -0.230000        0.0000           -1   0.00000   0.00000
     23978 MEOH     928      MEOH     LP1B     LPD     -0.230000        0.0000           -1   0.00000   0.00000
     23979 MEOH     929      MEOH     C1       CD33B    2.314100       11.6110           0   -1.00000   1.30000
     23980 MEOH     929      MEOH     DC1      DRUD    -2.454100        0.4000           0   0.00000   0.00000
     23981 MEOH     929      MEOH     O1       OD31H    2.488300       15.5990           0   -1.02800   1.30000
     23982 MEOH     929      MEOH     DO1      DRUD    -2.488300        0.4000           0   0.00000   0.00000
     23983 MEOH     929      MEOH     HO1      HDP1A    0.360000        1.0080           0   0.00000   0.00000
     23984 MEOH     929      MEOH     HO2      DUMH     0.000000        1.0080           0   0.00000   0.00000
     23985 MEOH     929      MEOH     H1A      HDA3B    0.080000        1.0080           0   0.00000   0.00000
     23986 MEOH     929      MEOH     H1B      HDA3B    0.080000        1.0080           0   0.00000   0.00000
     23987 MEOH     929      MEOH     H1C      HDA3B    0.080000        1.0080           0   0.00000   0.00000
     23988 MEOH     929      MEOH     LP1A     LPD     -0.230000        0.0000           -1   0.00000   0.00000
     23989 MEOH     929      MEOH     LP1B     LPD     -0.230000        0.0000           -1   0.00000   0.00000
     23990 MEOH     930      MEOH     C1       CD33B    2.314100       11.6110           0   -1.00000   1.30000
     23991 MEOH     930      MEOH     DC1      DRUD    -2.454100        0.4000           0   0.00000   0.00000
     23992 MEOH     930      MEOH     O1       OD31H    2.488300       15.5990           0   -1.02800   1.30000
     23993 MEOH     930      MEOH     DO1      DRUD    -2.488300        0.4000           0   0.00000   0.00000
     23994 MEOH     930      MEOH     HO1      HDP1A    0.360000        1.0080           0   0.00000   0.00000
     23995 MEOH     930      MEOH     HO2      DUMH     0.000000        1.0080           0   0.00000   0.00000
     23996 MEOH     930      MEOH     H1A      HDA3B    0.080000        1.0080           0   0.00000   0.00000
     23997 MEOH     930      MEOH     H1B      HDA3B    0.080000        1.0080           0   0.00000   0.00000
     23998 MEOH     930      MEOH     H1C      HDA3B    0.080000        1.0080           0   0.00000   0.00000
     23999 MEOH     930      MEOH     LP1A     LPD     -0.230000        0.0000           -1   0.00000   0.00000
     24000 MEOH     930      MEOH     LP1B     LPD     -0.230000        0.0000           -1   0.00000   0.00000
     24001 MEOH     931      MEOH     C1       CD33B    2.314100       11.6110           0   -1.00000   1.30000
     24002 MEOH     931      MEOH     DC1      DRUD    -2.454100        0.4000           0   0.00000   0.00000
     24003 MEOH     931      MEOH     O1       OD31H    2.488300       15.5990           0   -1.02800   1.30000
     24004 MEOH     931      MEOH     DO1      DRUD    -2.488300        0.4000           0   0.00000   0.00000
     24005 MEOH     931      MEOH     HO1      HDP1A    0.360000        1.0080           0   0.00000   0.00000
     24006 MEOH     931      MEOH     HO2      DUMH     0.000000        1.0080           0   0.00000   0.00000
     24007 MEOH     931      MEOH     H1A      HDA3B    0.080000        1.0080           0   0.00000   0.00000
     24008 MEOH     931      MEOH     H1B      HDA3B    0.080000        1.0080           0   0.00000   0.00000
     24009 MEOH     931      MEOH     H1C      HDA3B    0.080000        1.0080           0   0.00000   0.00000
     24010 MEOH     931      MEOH     LP1A     LPD     -0.230000        0.0000           -1   0.00000   0.00000
     24011 MEOH     931      MEOH     LP1B     LPD     -0.230000        0.0000           -1   0.00000   0.00000
     24012 MEOH     932      MEOH     C1       CD33B    2.314100       11.6110           0   -1.00000   1.30000
     24013 MEOH     932      MEOH     DC1      DRUD    -2.454100        0.4000           0   0.00000   0.00000
     24014 MEOH     932      MEOH     O1       OD31H    2.488300       15.5990           0   -1.02800   1.30000
     24015 MEOH     932      MEOH     DO1      DRUD    -2.488300        0.4000           0   0.00000   0.00000
     24016 MEOH     932      MEOH     HO1      HDP1A    0.360000        1.0080           0   0.00000   0.00000
     24017 MEOH     932      MEOH     HO2      DUMH     0.000000        1.0080           0   0.00000   0.00000
     24018 MEOH     932      MEOH     H1A      HDA3B    0.080000        1.0080           0   0.00000   0.00000
     24019 MEOH     932      MEOH     H1B      HDA3B    0.080000        1.0080           0   0.00000   0.00000
     24020 MEOH     932      MEOH     H1C      HDA3B    0.080000        1.0080           0   0.00000   0.00000
     24021 MEOH     932      MEOH     LP1A     LPD     -0.230000        0.0000           -1   0.00000   0.00000
     24022 MEOH     932      MEOH     LP1B     LPD     -0.230000        0.0000           -1   0.00000   0.00000
     24023 MEOH     933      MEOH     C1       CD33B    2.314100       11.6110           0   -1.00000   1.30000
     24024 MEOH     933      MEOH     DC1      DRUD    -2.454100        0.4000           0   0.00000   0.00000
     24025 MEOH     933      MEOH     O1       OD31H    2.488300       15.5990           0   -1.02800   1.30000
     24026 MEOH     933      MEOH     DO1      DRUD    -2.488300        0.4000           0   0.00000   0.00000
     24027 MEOH     933      MEOH     HO1      HDP1A    0.360000        1.0080           0   0.00000   0.00000
     24028 MEOH     933      MEOH     HO2      DUMH     0.000000        1.0080           0   0.00000   0.00000
     24029 MEOH     933      MEOH     H1A      HDA3B    0.080000        1.0080           0   0.00000   0.00000
     24030 MEOH     933      MEOH     H1B      HDA3B    0.080000        1.0080           0   0.00000   0.00000
     24031 MEOH     933      MEOH     H1C      HDA3B    0.080000        1.0080           0   0.00000   0.00000
     24032 MEOH     933      MEOH     LP1A     LPD     -0.230000        0.0000           -1   0.00000   0.00000
     24033 MEOH     933      MEOH     LP1B     LPD     -0.230000        0.0000           -1   0.00000   0.00000
     24034 MEOH     934      MEOH     C1       CD33B    2.314100       11.6110           0   -1.00000   1.30000
     24035 MEOH     934      MEOH     DC1      DRUD    -2.454100        0.4000           0   0.00000   0.00000
     24036 MEOH     934      MEOH     O1       OD31H    2.488300       15.5990           0   -1.02800   1.30000
     24037 MEOH     934      MEOH     DO1      DRUD    -2.488300        0.4000           0   0.00000   0.00000
     24038 MEOH     934      MEOH     HO1      HDP1A    0.360000        1.0080           0   0.00000   0.00000
     24039 MEOH     934      MEOH     HO2      DUMH     0.000000        1.0080           0   0.00000   0.00000
     24040 MEOH     934      MEOH     H1A      HDA3B    0.080000        1.0080           0   0.00000   0.00000
     24041 MEOH     934      MEOH     H1B      HDA3B    0.080000        1.0080           0   0.00000   0.00000
     24042 MEOH     934      MEOH     H1C      HDA3B    0.080000        1.0080           0   0.00000   0.00000
     24043 MEOH     934      MEOH     LP1A     LPD     -0.230000        0.0000           -1   0.00000   0.00000
     24044 MEOH     934      MEOH     LP1B     LPD     -0.230000        0.0000           -1   0.00000   0.00000
     24045 MEOH     935      MEOH     C1       CD33B    2.314100       11.6110           0   -1.00000   1.30000
     24046 MEOH     935      MEOH     DC1      DRUD    -2.454100        0.4000           0   0.00000   0.00000
     24047 MEOH     935      MEOH     O1       OD31H    2.488300       15.5990           0   -1.02800   1.30000
     24048 MEOH     935      MEOH     DO1      DRUD    -2.488300        0.4000           0   0.00000   0.00000
     24049 MEOH     935      MEOH     HO1      HDP1A    0.360000        1.0080           0   0.00000   0.00000
     24050 MEOH     935      MEOH     HO2      DUMH     0.000000        1.0080           0   0.00000   0.00000
     24051 MEOH     935      MEOH     H1A      HDA3B    0.080000        1.0080           0   0.00000   0.00000
     24052 MEOH     935      MEOH     H1B      HDA3B    0.080000        1.0080           0   0.00000   0.00000
     24053 MEOH     935      MEOH     H1C      HDA3B    0.080000        1.0080           0   0.00000   0.00000
     24054 MEOH     935      MEOH     LP1A     LPD     -0.230000        0.0000           -1   0.00000   0.00000
     24055 MEOH     935      MEOH     LP1B     LPD     -0.230000        0.0000           -1   0.00000   0.00000
     24056 MEOH     936      MEOH     C1       CD33B    2.314100       11.6110           0   -1.00000   1.30000
     24057 MEOH     936      MEOH     DC1      DRUD    -2.454100        0.4000           0   0.00000   0.00000
     24058 MEOH     936      MEOH     O1       OD31H    2.488300       15.5990           0   -1.02800   1.30000
     24059 MEOH     936      MEOH     DO1      DRUD    -2.488300        0.4000           0   0.00000   0.00000
     24060 MEOH     936      MEOH     HO1      HDP1A    0.360000        1.0080           0   0.00000   0.00000
     24061 MEOH     936      MEOH     HO2      DUMH     0.000000        1.0080           0   0.00000   0.00000
     24062 MEOH     936      MEOH     H1A      HDA3B    0.080000        1.0080           0   0.00000   0.00000
     24063 MEOH     936      MEOH     H1B      HDA3B    0.080000        1.0080           0   0.00000   0.00000
     24064 MEOH     936      MEOH     H1C      HDA3B    0.080000        1.0080           0   0.00000   0.00000
     24065 MEOH     936      MEOH     LP1A     LPD     -0.230000        0.0000           -1   0.00000   0.00000
     24066 MEOH     936      MEOH     LP1B     LPD     -0.230000        0.0000           -1   0.00000   0.00000
     24067 MEOH     937      MEOH     C1       CD33B    2.314100       11.6110           0   -1.00000   1.30000
     24068 MEOH     937      MEOH     DC1      DRUD    -2.454100        0.4000           0   0.00000   0.00000
     24069 MEOH     937      MEOH     O1       OD31H    2.488300       15.5990           0   -1.02800   1.30000
     24070 MEOH     937      MEOH     DO1      DRUD    -2.488300        0.4000           0   0.00000   0.00000
     24071 MEOH     937      MEOH     HO1      HDP1A    0.360000        1.0080           0   0.00000   0.00000
     24072 MEOH     937      MEOH     HO2      DUMH     0.000000        1.0080           0   0.00000   0.00000
     24073 MEOH     937      MEOH     H1A      HDA3B    0.080000        1.0080           0   0.00000   0.00000
     24074 MEOH     937      MEOH     H1B      HDA3B    0.080000        1.0080           0   0.00000   0.00000
     24075 MEOH     937      MEOH     H1C      HDA3B    0.080000        1.0080           0   0.00000   0.00000
     24076 MEOH     937      MEOH     LP1A     LPD     -0.230000        0.0000           -1   0.00000   0.00000
     24077 MEOH     937      MEOH     LP1B     LPD     -0.230000        0.0000           -1   0.00000   0.00000
     24078 MEOH     938      MEOH     C1       CD33B    2.314100       11.6110           0   -1.00000   1.30000
     24079 MEOH     938      MEOH     DC1      DRUD    -2.454100        0.4000           0   0.00000   0.00000
     24080 MEOH     938      MEOH     O1       OD31H    2.488300       15.5990           0   -1.02800   1.30000
     24081 MEOH     938      MEOH     DO1      DRUD    -2.488300        0.4000           0   0.00000   0.00000
     24082 MEOH     938      MEOH     HO1      HDP1A    0.360000        1.0080           0   0.00000   0.00000
     24083 MEOH     938      MEOH     HO2      DUMH     0.000000        1.0080           0   0.00000   0.00000
     24084 MEOH     938      MEOH     H1A      HDA3B    0.080000        1.0080           0   0.00000   0.00000
     24085 MEOH     938      MEOH     H1B      HDA3B    0.080000        1.0080           0   0.00000   0.00000
     24086 MEOH     938      MEOH     H1C      HDA3B    0.080000        1.0080           0   0.00000   0.00000
     24087 MEOH     938      MEOH     LP1A     LPD     -0.230000        0.0000           -1   0.00000   0.00000
     24088 MEOH     938      MEOH     LP1B     LPD     -0.230000        0.0000           -1   0.00000   0.00000
     24089 MEOH     939      MEOH     C1       CD33B    2.314100       11.6110           0   -1.00000   1.30000
     24090 MEOH     939      MEOH     DC1      DRUD    -2.454100        0.4000           0   0.00000   0.00000
     24091 MEOH     939      MEOH     O1       OD31H    2.488300       15.5990           0   -1.02800   1.30000
     24092 MEOH     939      MEOH     DO1      DRUD    -2.488300        0.4000           0   0.00000   0.00000
     24093 MEOH     939      MEOH     HO1      HDP1A    0.360000        1.0080           0   0.00000   0.00000
     24094 MEOH     939      MEOH     HO2      DUMH     0.000000        1.0080           0   0.00000   0.00000
     24095 MEOH     939      MEOH     H1A      HDA3B    0.080000        1.0080           0   0.00000   0.00000
     24096 MEOH     939      MEOH     H1B      HDA3B    0.080000        1.0080           0   0.00000   0.00000
     24097 MEOH     939      MEOH     H1C      HDA3B    0.080000        1.0080           0   0.00000   0.00000
     24098 MEOH     939      MEOH     LP1A     LPD     -0.230000        0.0000           -1   0.00000   0.00000
     24099 MEOH     939      MEOH     LP1B     LPD     -0.230000        0.0000           -1   0.00000   0.00000
     24100 MEOH     940      MEOH     C1       CD33B    2.314100       11.6110           0   -1.00000   1.30000
     24101 MEOH     940      MEOH     DC1      DRUD    -2.454100        0.4000           0   0.00000   0.00000
     24102 MEOH     940      MEOH     O1       OD31H    2.488300       15.5990           0   -1.02800   1.30000
     24103 MEOH     940      MEOH     DO1      DRUD    -2.488300        0.4000           0   0.00000   0.00000
     24104 MEOH     940      MEOH     HO1      HDP1A    0.360000        1.0080           0   0.00000   0.00000
     24105 MEOH     940      MEOH     HO2      DUMH     0.000000        1.0080           0   0.00000   0.00000
     24106 MEOH     940      MEOH     H1A      HDA3B    0.080000        1.0080           0   0.00000   0.00000
     24107 MEOH     940      MEOH     H1B      HDA3B    0.080000        1.0080           0   0.00000   0.00000
     24108 MEOH     940      MEOH     H1C      HDA3B    0.080000        1.0080           0   0.00000   0.00000
     24109 MEOH     940      MEOH     LP1A     LPD     -0.230000        0.0000           -1   0.00000   0.00000
     24110 MEOH     940      MEOH     LP1B     LPD     -0.230000        0.0000           -1   0.00000   0.00000
     24111 MEOH     941      MEOH     C1       CD33B    2.314100       11.6110           0   -1.00000   1.30000
     24112 MEOH     941      MEOH     DC1      DRUD    -2.454100        0.4000           0   0.00000   0.00000
     24113 MEOH     941      MEOH     O1       OD31H    2.488300       15.5990           0   -1.02800   1.30000
     24114 MEOH     941      MEOH     DO1      DRUD    -2.488300        0.4000           0   0.00000   0.00000
     24115 MEOH     941      MEOH     HO1      HDP1A    0.360000        1.0080           0   0.00000   0.00000
     24116 MEOH     941      MEOH     HO2      DUMH     0.000000        1.0080           0   0.00000   0.00000
     24117 MEOH     941      MEOH     H1A      HDA3B    0.080000        1.0080           0   0.00000   0.00000
     24118 MEOH     941      MEOH     H1B      HDA3B    0.080000        1.0080           0   0.00000   0.00000
     24119 MEOH     941      MEOH     H1C      HDA3B    0.080000        1.0080           0   0.00000   0.00000
     24120 MEOH     941      MEOH     LP1A     LPD     -0.230000        0.0000           -1   0.00000   0.00000
     24121 MEOH     941      MEOH     LP1B     LPD     -0.230000        0.0000           -1   0.00000   0.00000
     24122 MEOH     942      MEOH     C1       CD33B    2.314100       11.6110           0   -1.00000   1.30000
     24123 MEOH     942      MEOH     DC1      DRUD    -2.454100        0.4000           0   0.00000   0.00000
     24124 MEOH     942      MEOH     O1       OD31H    2.488300       15.5990           0   -1.02800   1.30000
     24125 MEOH     942      MEOH     DO1      DRUD    -2.488300        0.4000           0   0.00000   0.00000
     24126 MEOH     942      MEOH     HO1      HDP1A    0.360000        1.0080           0   0.00000   0.00000
     24127 MEOH     942      MEOH     HO2      DUMH     0.000000        1.0080           0   0.00000   0.00000
     24128 MEOH     942      MEOH     H1A      HDA3B    0.080000        1.0080           0   0.00000   0.00000
     24129 MEOH     942      MEOH     H1B      HDA3B    0.080000        1.0080           0   0.00000   0.00000
     24130 MEOH     942      MEOH     H1C      HDA3B    0.080000        1.0080           0   0.00000   0.00000
     24131 MEOH     942      MEOH     LP1A     LPD     -0.230000        0.0000           -1   0.00000   0.00000
     24132 MEOH     942      MEOH     LP1B     LPD     -0.230000        0.0000           -1   0.00000   0.00000
     24133 MEOH     943      MEOH     C1       CD33B    2.314100       11.6110           0   -1.00000   1.30000
     24134 MEOH     943      MEOH     DC1      DRUD    -2.454100        0.4000           0   0.00000   0.00000
     24135 MEOH     943      MEOH     O1       OD31H    2.488300       15.5990           0   -1.02800   1.30000
     24136 MEOH     943      MEOH     DO1      DRUD    -2.488300        0.4000           0   0.00000   0.00000
     24137 MEOH     943      MEOH     HO1      HDP1A    0.360000        1.0080           0   0.00000   0.00000
     24138 MEOH     943      MEOH     HO2      DUMH     0.000000        1.0080           0   0.00000   0.00000
     24139 MEOH     943      MEOH     H1A      HDA3B    0.080000        1.0080           0   0.00000   0.00000
     24140 MEOH     943      MEOH     H1B      HDA3B    0.080000        1.0080           0   0.00000   0.00000
     24141 MEOH     943      MEOH     H1C      HDA3B    0.080000        1.0080           0   0.00000   0.00000
     24142 MEOH     943      MEOH     LP1A     LPD     -0.230000        0.0000           -1   0.00000   0.00000
     24143 MEOH     943      MEOH     LP1B     LPD     -0.230000        0.0000           -1   0.00000   0.00000
     24144 MEOH     944      MEOH     C1       CD33B    2.314100       11.6110           0   -1.00000   1.30000
     24145 MEOH     944      MEOH     DC1      DRUD    -2.454100        0.4000           0   0.00000   0.00000
     24146 MEOH     944      MEOH     O1       OD31H    2.488300       15.5990           0   -1.02800   1.30000
     24147 MEOH     944      MEOH     DO1      DRUD    -2.488300        0.4000           0   0.00000   0.00000
     24148 MEOH     944      MEOH     HO1      HDP1A    0.360000        1.0080           0   0.00000   0.00000
     24149 MEOH     944      MEOH     HO2      DUMH     0.000000        1.0080           0   0.00000   0.00000
     24150 MEOH     944      MEOH     H1A      HDA3B    0.080000        1.0080           0   0.00000   0.00000
     24151 MEOH     944      MEOH     H1B      HDA3B    0.080000        1.0080           0   0.00000   0.00000
     24152 MEOH     944      MEOH     H1C      HDA3B    0.080000        1.0080           0   0.00000   0.00000
     24153 MEOH     944      MEOH     LP1A     LPD     -0.230000        0.0000           -1   0.00000   0.00000
     24154 MEOH     944      MEOH     LP1B     LPD     -0.230000        0.0000           -1   0.00000   0.00000
     24155 MEOH     945      MEOH     C1       CD33B    2.314100       11.6110           0   -1.00000   1.30000
     24156 MEOH     945      MEOH     DC1      DRUD    -2.454100        0.4000           0   0.00000   0.00000
     24157 MEOH     945      MEOH     O1       OD31H    2.488300       15.5990           0   -1.02800   1.30000
     24158 MEOH     945      MEOH     DO1      DRUD    -2.488300        0.4000           0   0.00000   0.00000
     24159 MEOH     945      MEOH     HO1      HDP1A    0.360000        1.0080           0   0.00000   0.00000
     24160 MEOH     945      MEOH     HO2      DUMH     0.000000        1.0080           0   0.00000   0.00000
     24161 MEOH     945      MEOH     H1A      HDA3B    0.080000        1.0080           0   0.00000   0.00000
     24162 MEOH     945      MEOH     H1B      HDA3B    0.080000        1.0080           0   0.00000   0.00000
     24163 MEOH     945      MEOH     H1C      HDA3B    0.080000        1.0080           0   0.00000   0.00000
     24164 MEOH     945      MEOH     LP1A     LPD     -0.230000        0.0000           -1   0.00000   0.00000
     24165 MEOH     945      MEOH     LP1B     LPD     -0.230000        0.0000           -1   0.00000   0.00000
     24166 MEOH     946      MEOH     C1       CD33B    2.314100       11.6110           0   -1.00000   1.30000
     24167 MEOH     946      MEOH     DC1      DRUD    -2.454100        0.4000           0   0.00000   0.00000
     24168 MEOH     946      MEOH     O1       OD31H    2.488300       15.5990           0   -1.02800   1.30000
     24169 MEOH     946      MEOH     DO1      DRUD    -2.488300        0.4000           0   0.00000   0.00000
     24170 MEOH     946      MEOH     HO1      HDP1A    0.360000        1.0080           0   0.00000   0.00000
     24171 MEOH     946      MEOH     HO2      DUMH     0.000000        1.0080           0   0.00000   0.00000
     24172 MEOH     946      MEOH     H1A      HDA3B    0.080000        1.0080           0   0.00000   0.00000
     24173 MEOH     946      MEOH     H1B      HDA3B    0.080000        1.0080           0   0.00000   0.00000
     24174 MEOH     946      MEOH     H1C      HDA3B    0.080000        1.0080           0   0.00000   0.00000
     24175 MEOH     946      MEOH     LP1A     LPD     -0.230000        0.0000           -1   0.00000   0.00000
     24176 MEOH     946      MEOH     LP1B     LPD     -0.230000        0.0000           -1   0.00000   0.00000
     24177 MEOH     947      MEOH     C1       CD33B    2.314100       11.6110           0   -1.00000   1.30000
     24178 MEOH     947      MEOH     DC1      DRUD    -2.454100        0.4000           0   0.00000   0.00000
     24179 MEOH     947      MEOH     O1       OD31H    2.488300       15.5990           0   -1.02800   1.30000
     24180 MEOH     947      MEOH     DO1      DRUD    -2.488300        0.4000           0   0.00000   0.00000
     24181 MEOH     947      MEOH     HO1      HDP1A    0.360000        1.0080           0   0.00000   0.00000
     24182 MEOH     947      MEOH     HO2      DUMH     0.000000        1.0080           0   0.00000   0.00000
     24183 MEOH     947      MEOH     H1A      HDA3B    0.080000        1.0080           0   0.00000   0.00000
     24184 MEOH     947      MEOH     H1B      HDA3B    0.080000        1.0080           0   0.00000   0.00000
     24185 MEOH     947      MEOH     H1C      HDA3B    0.080000        1.0080           0   0.00000   0.00000
     24186 MEOH     947      MEOH     LP1A     LPD     -0.230000        0.0000           -1   0.00000   0.00000
     24187 MEOH     947      MEOH     LP1B     LPD     -0.230000        0.0000           -1   0.00000   0.00000
     24188 MEOH     948      MEOH     C1       CD33B    2.314100       11.6110           0   -1.00000   1.30000
     24189 MEOH     948      MEOH     DC1      DRUD    -2.454100        0.4000           0   0.00000   0.00000
     24190 MEOH     948      MEOH     O1       OD31H    2.488300       15.5990           0   -1.02800   1.30000
     24191 MEOH     948      MEOH     DO1      DRUD    -2.488300        0.4000           0   0.00000   0.00000
     24192 MEOH     948      MEOH     HO1      HDP1A    0.360000        1.0080           0   0.00000   0.00000
     24193 MEOH     948      MEOH     HO2      DUMH     0.000000        1.0080           0   0.00000   0.00000
     24194 MEOH     948      MEOH     H1A      HDA3B    0.080000        1.0080           0   0.00000   0.00000
     24195 MEOH     948      MEOH     H1B      HDA3B    0.080000        1.0080           0   0.00000   0.00000
     24196 MEOH     948      MEOH     H1C      HDA3B    0.080000        1.0080           0   0.00000   0.00000
     24197 MEOH     948      MEOH     LP1A     LPD     -0.230000        0.0000           -1   0.00000   0.00000
     24198 MEOH     948      MEOH     LP1B     LPD     -0.230000        0.0000           -1   0.00000   0.00000
     24199 MEOH     949      MEOH     C1       CD33B    2.314100       11.6110           0   -1.00000   1.30000
     24200 MEOH     949      MEOH     DC1      DRUD    -2.454100        0.4000           0   0.00000   0.00000
     24201 MEOH     949      MEOH     O1       OD31H    2.488300       15.5990           0   -1.02800   1.30000
     24202 MEOH     949      MEOH     DO1      DRUD    -2.488300        0.4000           0   0.00000   0.00000
     24203 MEOH     949      MEOH     HO1      HDP1A    0.360000        1.0080           0   0.00000   0.00000
     24204 MEOH     949      MEOH     HO2      DUMH     0.000000        1.0080           0   0.00000   0.00000
     24205 MEOH     949      MEOH     H1A      HDA3B    0.080000        1.0080           0   0.00000   0.00000
     24206 MEOH     949      MEOH     H1B      HDA3B    0.080000        1.0080           0   0.00000   0.00000
     24207 MEOH     949      MEOH     H1C      HDA3B    0.080000        1.0080           0   0.00000   0.00000
     24208 MEOH     949      MEOH     LP1A     LPD     -0.230000        0.0000           -1   0.00000   0.00000
     24209 MEOH     949      MEOH     LP1B     LPD     -0.230000        0.0000           -1   0.00000   0.00000
     24210 MEOH     950      MEOH     C1       CD33B    2.314100       11.6110           0   -1.00000   1.30000
     24211 MEOH     950      MEOH     DC1      DRUD    -2.454100        0.4000           0   0.00000   0.00000
     24212 MEOH     950      MEOH     O1       OD31H    2.488300       15.5990           0   -1.02800   1.30000
     24213 MEOH     950      MEOH     DO1      DRUD    -2.488300        0.4000           0   0.00000   0.00000
     24214 MEOH     950      MEOH     HO1      HDP1A    0.360000        1.0080           0   0.00000   0.00000
     24215 MEOH     950      MEOH     HO2      DUMH     0.000000        1.0080           0   0.00000   0.00000
     24216 MEOH     950      MEOH     H1A      HDA3B    0.080000        1.0080           0   0.00000   0.00000
     24217 MEOH     950      MEOH     H1B      HDA3B    0.080000        1.0080           0   0.00000   0.00000
     24218 MEOH     950      MEOH     H1C      HDA3B    0.080000        1.0080           0   0.00000   0.00000
     24219 MEOH     950      MEOH     LP1A     LPD     -0.230000        0.0000           -1   0.00000   0.00000
     24220 MEOH     950      MEOH     LP1B     LPD     -0.230000        0.0000           -1   0.00000   0.00000
     24221 MEOH     951      MEOH     C1       CD33B    2.314100       11.6110           0   -1.00000   1.30000
     24222 MEOH     951      MEOH     DC1      DRUD    -2.454100        0.4000           0   0.00000   0.00000
     24223 MEOH     951      MEOH     O1       OD31H    2.488300       15.5990           0   -1.02800   1.30000
     24224 MEOH     951      MEOH     DO1      DRUD    -2.488300        0.4000           0   0.00000   0.00000
     24225 MEOH     951      MEOH     HO1      HDP1A    0.360000        1.0080           0   0.00000   0.00000
     24226 MEOH     951      MEOH     HO2      DUMH     0.000000        1.0080           0   0.00000   0.00000
     24227 MEOH     951      MEOH     H1A      HDA3B    0.080000        1.0080           0   0.00000   0.00000
     24228 MEOH     951      MEOH     H1B      HDA3B    0.080000        1.0080           0   0.00000   0.00000
     24229 MEOH     951      MEOH     H1C      HDA3B    0.080000        1.0080           0   0.00000   0.00000
     24230 MEOH     951      MEOH     LP1A     LPD     -0.230000        0.0000           -1   0.00000   0.00000
     24231 MEOH     951      MEOH     LP1B     LPD     -0.230000        0.0000           -1   0.00000   0.00000
     24232 MEOH     952      MEOH     C1       CD33B    2.314100       11.6110           0   -1.00000   1.30000
     24233 MEOH     952      MEOH     DC1      DRUD    -2.454100        0.4000           0   0.00000   0.00000
     24234 MEOH     952      MEOH     O1       OD31H    2.488300       15.5990           0   -1.02800   1.30000
     24235 MEOH     952      MEOH     DO1      DRUD    -2.488300        0.4000           0   0.00000   0.00000
     24236 MEOH     952      MEOH     HO1      HDP1A    0.360000        1.0080           0   0.00000   0.00000
     24237 MEOH     952      MEOH     HO2      DUMH     0.000000        1.0080           0   0.00000   0.00000
     24238 MEOH     952      MEOH     H1A      HDA3B    0.080000        1.0080           0   0.00000   0.00000
     24239 MEOH     952      MEOH     H1B      HDA3B    0.080000        1.0080           0   0.00000   0.00000
     24240 MEOH     952      MEOH     H1C      HDA3B    0.080000        1.0080           0   0.00000   0.00000
     24241 MEOH     952      MEOH     LP1A     LPD     -0.230000        0.0000           -1   0.00000   0.00000
     24242 MEOH     952      MEOH     LP1B     LPD     -0.230000        0.0000           -1   0.00000   0.00000
     24243 MEOH     953      MEOH     C1       CD33B    2.314100       11.6110           0   -1.00000   1.30000
     24244 MEOH     953      MEOH     DC1      DRUD    -2.454100        0.4000           0   0.00000   0.00000
     24245 MEOH     953      MEOH     O1       OD31H    2.488300       15.5990           0   -1.02800   1.30000
     24246 MEOH     953      MEOH     DO1      DRUD    -2.488300        0.4000           0   0.00000   0.00000
     24247 MEOH     953      MEOH     HO1      HDP1A    0.360000        1.0080           0   0.00000   0.00000
     24248 MEOH     953      MEOH     HO2      DUMH     0.000000        1.0080           0   0.00000   0.00000
     24249 MEOH     953      MEOH     H1A      HDA3B    0.080000        1.0080           0   0.00000   0.00000
     24250 MEOH     953      MEOH     H1B      HDA3B    0.080000        1.0080           0   0.00000   0.00000
     24251 MEOH     953      MEOH     H1C      HDA3B    0.080000        1.0080           0   0.00000   0.00000
     24252 MEOH     953      MEOH     LP1A     LPD     -0.230000        0.0000           -1   0.00000   0.00000
     24253 MEOH     953      MEOH     LP1B     LPD     -0.230000        0.0000           -1   0.00000   0.00000
     24254 MEOH     954      MEOH     C1       CD33B    2.314100       11.6110           0   -1.00000   1.30000
     24255 MEOH     954      MEOH     DC1      DRUD    -2.454100        0.4000           0   0.00000   0.00000
     24256 MEOH     954      MEOH     O1       OD31H    2.488300       15.5990           0   -1.02800   1.30000
     24257 MEOH     954      MEOH     DO1      DRUD    -2.488300        0.4000           0   0.00000   0.00000
     24258 MEOH     954      MEOH     HO1      HDP1A    0.360000        1.0080           0   0.00000   0.00000
     24259 MEOH     954      MEOH     HO2      DUMH     0.000000        1.0080           0   0.00000   0.00000
     24260 MEOH     954      MEOH     H1A      HDA3B    0.080000        1.0080           0   0.00000   0.00000
     24261 MEOH     954      MEOH     H1B      HDA3B    0.080000        1.0080           0   0.00000   0.00000
     24262 MEOH     954      MEOH     H1C      HDA3B    0.080000        1.0080           0   0.00000   0.00000
     24263 MEOH     954      MEOH     LP1A     LPD     -0.230000        0.0000           -1   0.00000   0.00000
     24264 MEOH     954      MEOH     LP1B     LPD     -0.230000        0.0000           -1   0.00000   0.00000
     24265 MEOH     955      MEOH     C1       CD33B    2.314100       11.6110           0   -1.00000   1.30000
     24266 MEOH     955      MEOH     DC1      DRUD    -2.454100        0.4000           0   0.00000   0.00000
     24267 MEOH     955      MEOH     O1       OD31H    2.488300       15.5990           0   -1.02800   1.30000
     24268 MEOH     955      MEOH     DO1      DRUD    -2.488300        0.4000           0   0.00000   0.00000
     24269 MEOH     955      MEOH     HO1      HDP1A    0.360000        1.0080           0   0.00000   0.00000
     24270 MEOH     955      MEOH     HO2      DUMH     0.000000        1.0080           0   0.00000   0.00000
     24271 MEOH     955      MEOH     H1A      HDA3B    0.080000        1.0080           0   0.00000   0.00000
     24272 MEOH     955      MEOH     H1B      HDA3B    0.080000        1.0080           0   0.00000   0.00000
     24273 MEOH     955      MEOH     H1C      HDA3B    0.080000        1.0080           0   0.00000   0.00000
     24274 MEOH     955      MEOH     LP1A     LPD     -0.230000        0.0000           -1   0.00000   0.00000
     24275 MEOH     955      MEOH     LP1B     LPD     -0.230000        0.0000           -1   0.00000   0.00000
     24276 MEOH     956      MEOH     C1       CD33B    2.314100       11.6110           0   -1.00000   1.30000
     24277 MEOH     956      MEOH     DC1      DRUD    -2.454100        0.4000           0   0.00000   0.00000
     24278 MEOH     956      MEOH     O1       OD31H    2.488300       15.5990           0   -1.02800   1.30000
     24279 MEOH     956      MEOH     DO1      DRUD    -2.488300        0.4000           0   0.00000   0.00000
     24280 MEOH     956      MEOH     HO1      HDP1A    0.360000        1.0080           0   0.00000   0.00000
     24281 MEOH     956      MEOH     HO2      DUMH     0.000000        1.0080           0   0.00000   0.00000
     24282 MEOH     956      MEOH     H1A      HDA3B    0.080000        1.0080           0   0.00000   0.00000
     24283 MEOH     956      MEOH     H1B      HDA3B    0.080000        1.0080           0   0.00000   0.00000
     24284 MEOH     956      MEOH     H1C      HDA3B    0.080000        1.0080           0   0.00000   0.00000
     24285 MEOH     956      MEOH     LP1A     LPD     -0.230000        0.0000           -1   0.00000   0.00000
     24286 MEOH     956      MEOH     LP1B     LPD     -0.230000        0.0000           -1   0.00000   0.00000
     24287 MEOH     957      MEOH     C1       CD33B    2.314100       11.6110           0   -1.00000   1.30000
     24288 MEOH     957      MEOH     DC1      DRUD    -2.454100        0.4000           0   0.00000   0.00000
     24289 MEOH     957      MEOH     O1       OD31H    2.488300       15.5990           0   -1.02800   1.30000
     24290 MEOH     957      MEOH     DO1      DRUD    -2.488300        0.4000           0   0.00000   0.00000
     24291 MEOH     957      MEOH     HO1      HDP1A    0.360000        1.0080           0   0.00000   0.00000
     24292 MEOH     957      MEOH     HO2      DUMH     0.000000        1.0080           0   0.00000   0.00000
     24293 MEOH     957      MEOH     H1A      HDA3B    0.080000        1.0080           0   0.00000   0.00000
     24294 MEOH     957      MEOH     H1B      HDA3B    0.080000        1.0080           0   0.00000   0.00000
     24295 MEOH     957      MEOH     H1C      HDA3B    0.080000        1.0080           0   0.00000   0.00000
     24296 MEOH     957      MEOH     LP1A     LPD     -0.230000        0.0000           -1   0.00000   0.00000
     24297 MEOH     957      MEOH     LP1B     LPD     -0.230000        0.0000           -1   0.00000   0.00000
     24298 MEOH     958      MEOH     C1       CD33B    2.314100       11.6110           0   -1.00000   1.30000
     24299 MEOH     958      MEOH     DC1      DRUD    -2.454100        0.4000           0   0.00000   0.00000
     24300 MEOH     958      MEOH     O1       OD31H    2.488300       15.5990           0   -1.02800   1.30000
     24301 MEOH     958      MEOH     DO1      DRUD    -2.488300        0.4000           0   0.00000   0.00000
     24302 MEOH     958      MEOH     HO1      HDP1A    0.360000        1.0080           0   0.00000   0.00000
     24303 MEOH     958      MEOH     HO2      DUMH     0.000000        1.0080           0   0.00000   0.00000
     24304 MEOH     958      MEOH     H1A      HDA3B    0.080000        1.0080           0   0.00000   0.00000
     24305 MEOH     958      MEOH     H1B      HDA3B    0.080000        1.0080           0   0.00000   0.00000
     24306 MEOH     958      MEOH     H1C      HDA3B    0.080000        1.0080           0   0.00000   0.00000
     24307 MEOH     958      MEOH     LP1A     LPD     -0.230000        0.0000           -1   0.00000   0.00000
     24308 MEOH     958      MEOH     LP1B     LPD     -0.230000        0.0000           -1   0.00000   0.00000
     24309 MEOH     959      MEOH     C1       CD33B    2.314100       11.6110           0   -1.00000   1.30000
     24310 MEOH     959      MEOH     DC1      DRUD    -2.454100        0.4000           0   0.00000   0.00000
     24311 MEOH     959      MEOH     O1       OD31H    2.488300       15.5990           0   -1.02800   1.30000
     24312 MEOH     959      MEOH     DO1      DRUD    -2.488300        0.4000           0   0.00000   0.00000
     24313 MEOH     959      MEOH     HO1      HDP1A    0.360000        1.0080           0   0.00000   0.00000
     24314 MEOH     959      MEOH     HO2      DUMH     0.000000        1.0080           0   0.00000   0.00000
     24315 MEOH     959      MEOH     H1A      HDA3B    0.080000        1.0080           0   0.00000   0.00000
     24316 MEOH     959      MEOH     H1B      HDA3B    0.080000        1.0080           0   0.00000   0.00000
     24317 MEOH     959      MEOH     H1C      HDA3B    0.080000        1.0080           0   0.00000   0.00000
     24318 MEOH     959      MEOH     LP1A     LPD     -0.230000        0.0000           -1   0.00000   0.00000
     24319 MEOH     959      MEOH     LP1B     LPD     -0.230000        0.0000           -1   0.00000   0.00000
     24320 MEOH     960      MEOH     C1       CD33B    2.314100       11.6110           0   -1.00000   1.30000
     24321 MEOH     960      MEOH     DC1      DRUD    -2.454100        0.4000           0   0.00000   0.00000
     24322 MEOH     960      MEOH     O1       OD31H    2.488300       15.5990           0   -1.02800   1.30000
     24323 MEOH     960      MEOH     DO1      DRUD    -2.488300        0.4000           0   0.00000   0.00000
     24324 MEOH     960      MEOH     HO1      HDP1A    0.360000        1.0080           0   0.00000   0.00000
     24325 MEOH     960      MEOH     HO2      DUMH     0.000000        1.0080           0   0.00000   0.00000
     24326 MEOH     960      MEOH     H1A      HDA3B    0.080000        1.0080           0   0.00000   0.00000
     24327 MEOH     960      MEOH     H1B      HDA3B    0.080000        1.0080           0   0.00000   0.00000
     24328 MEOH     960      MEOH     H1C      HDA3B    0.080000        1.0080           0   0.00000   0.00000
     24329 MEOH     960      MEOH     LP1A     LPD     -0.230000        0.0000           -1   0.00000   0.00000
     24330 MEOH     960      MEOH     LP1B     LPD     -0.230000        0.0000           -1   0.00000   0.00000
     24331 MEOH     961      MEOH     C1       CD33B    2.314100       11.6110           0   -1.00000   1.30000
     24332 MEOH     961      MEOH     DC1      DRUD    -2.454100        0.4000           0   0.00000   0.00000
     24333 MEOH     961      MEOH     O1       OD31H    2.488300       15.5990           0   -1.02800   1.30000
     24334 MEOH     961      MEOH     DO1      DRUD    -2.488300        0.4000           0   0.00000   0.00000
     24335 MEOH     961      MEOH     HO1      HDP1A    0.360000        1.0080           0   0.00000   0.00000
     24336 MEOH     961      MEOH     HO2      DUMH     0.000000        1.0080           0   0.00000   0.00000
     24337 MEOH     961      MEOH     H1A      HDA3B    0.080000        1.0080           0   0.00000   0.00000
     24338 MEOH     961      MEOH     H1B      HDA3B    0.080000        1.0080           0   0.00000   0.00000
     24339 MEOH     961      MEOH     H1C      HDA3B    0.080000        1.0080           0   0.00000   0.00000
     24340 MEOH     961      MEOH     LP1A     LPD     -0.230000        0.0000           -1   0.00000   0.00000
     24341 MEOH     961      MEOH     LP1B     LPD     -0.230000        0.0000           -1   0.00000   0.00000
     24342 MEOH     962      MEOH     C1       CD33B    2.314100       11.6110           0   -1.00000   1.30000
     24343 MEOH     962      MEOH     DC1      DRUD    -2.454100        0.4000           0   0.00000   0.00000
     24344 MEOH     962      MEOH     O1       OD31H    2.488300       15.5990           0   -1.02800   1.30000
     24345 MEOH     962      MEOH     DO1      DRUD    -2.488300        0.4000           0   0.00000   0.00000
     24346 MEOH     962      MEOH     HO1      HDP1A    0.360000        1.0080           0   0.00000   0.00000
     24347 MEOH     962      MEOH     HO2      DUMH     0.000000        1.0080           0   0.00000   0.00000
     24348 MEOH     962      MEOH     H1A      HDA3B    0.080000        1.0080           0   0.00000   0.00000
     24349 MEOH     962      MEOH     H1B      HDA3B    0.080000        1.0080           0   0.00000   0.00000
     24350 MEOH     962      MEOH     H1C      HDA3B    0.080000        1.0080           0   0.00000   0.00000
     24351 MEOH     962      MEOH     LP1A     LPD     -0.230000        0.0000           -1   0.00000   0.00000
     24352 MEOH     962      MEOH     LP1B     LPD     -0.230000        0.0000           -1   0.00000   0.00000
     24353 MEOH     963      MEOH     C1       CD33B    2.314100       11.6110           0   -1.00000   1.30000
     24354 MEOH     963      MEOH     DC1      DRUD    -2.454100        0.4000           0   0.00000   0.00000
     24355 MEOH     963      MEOH     O1       OD31H    2.488300       15.5990           0   -1.02800   1.30000
     24356 MEOH     963      MEOH     DO1      DRUD    -2.488300        0.4000           0   0.00000   0.00000
     24357 MEOH     963      MEOH     HO1      HDP1A    0.360000        1.0080           0   0.00000   0.00000
     24358 MEOH     963      MEOH     HO2      DUMH     0.000000        1.0080           0   0.00000   0.00000
     24359 MEOH     963      MEOH     H1A      HDA3B    0.080000        1.0080           0   0.00000   0.00000
     24360 MEOH     963      MEOH     H1B      HDA3B    0.080000        1.0080           0   0.00000   0.00000
     24361 MEOH     963      MEOH     H1C      HDA3B    0.080000        1.0080           0   0.00000   0.00000
     24362 MEOH     963      MEOH     LP1A     LPD     -0.230000        0.0000           -1   0.00000   0.00000
     24363 MEOH     963      MEOH     LP1B     LPD     -0.230000        0.0000           -1   0.00000   0.00000
     24364 MEOH     964      MEOH     C1       CD33B    2.314100       11.6110           0   -1.00000   1.30000
     24365 MEOH     964      MEOH     DC1      DRUD    -2.454100        0.4000           0   0.00000   0.00000
     24366 MEOH     964      MEOH     O1       OD31H    2.488300       15.5990           0   -1.02800   1.30000
     24367 MEOH     964      MEOH     DO1      DRUD    -2.488300        0.4000           0   0.00000   0.00000
     24368 MEOH     964      MEOH     HO1      HDP1A    0.360000        1.0080           0   0.00000   0.00000
     24369 MEOH     964      MEOH     HO2      DUMH     0.000000        1.0080           0   0.00000   0.00000
     24370 MEOH     964      MEOH     H1A      HDA3B    0.080000        1.0080           0   0.00000   0.00000
     24371 MEOH     964      MEOH     H1B      HDA3B    0.080000        1.0080           0   0.00000   0.00000
     24372 MEOH     964      MEOH     H1C      HDA3B    0.080000        1.0080           0   0.00000   0.00000
     24373 MEOH     964      MEOH     LP1A     LPD     -0.230000        0.0000           -1   0.00000   0.00000
     24374 MEOH     964      MEOH     LP1B     LPD     -0.230000        0.0000           -1   0.00000   0.00000
     24375 MEOH     965      MEOH     C1       CD33B    2.314100       11.6110           0   -1.00000   1.30000
     24376 MEOH     965      MEOH     DC1      DRUD    -2.454100        0.4000           0   0.00000   0.00000
     24377 MEOH     965      MEOH     O1       OD31H    2.488300       15.5990           0   -1.02800   1.30000
     24378 MEOH     965      MEOH     DO1      DRUD    -2.488300        0.4000           0   0.00000   0.00000
     24379 MEOH     965      MEOH     HO1      HDP1A    0.360000        1.0080           0   0.00000   0.00000
     24380 MEOH     965      MEOH     HO2      DUMH     0.000000        1.0080           0   0.00000   0.00000
     24381 MEOH     965      MEOH     H1A      HDA3B    0.080000        1.0080           0   0.00000   0.00000
     24382 MEOH     965      MEOH     H1B      HDA3B    0.080000        1.0080           0   0.00000   0.00000
     24383 MEOH     965      MEOH     H1C      HDA3B    0.080000        1.0080           0   0.00000   0.00000
     24384 MEOH     965      MEOH     LP1A     LPD     -0.230000        0.0000           -1   0.00000   0.00000
     24385 MEOH     965      MEOH     LP1B     LPD     -0.230000        0.0000           -1   0.00000   0.00000
     24386 MEOH     966      MEOH     C1       CD33B    2.314100       11.6110           0   -1.00000   1.30000
     24387 MEOH     966      MEOH     DC1      DRUD    -2.454100        0.4000           0   0.00000   0.00000
     24388 MEOH     966      MEOH     O1       OD31H    2.488300       15.5990           0   -1.02800   1.30000
     24389 MEOH     966      MEOH     DO1      DRUD    -2.488300        0.4000           0   0.00000   0.00000
     24390 MEOH     966      MEOH     HO1      HDP1A    0.360000        1.0080           0   0.00000   0.00000
     24391 MEOH     966      MEOH     HO2      DUMH     0.000000        1.0080           0   0.00000   0.00000
     24392 MEOH     966      MEOH     H1A      HDA3B    0.080000        1.0080           0   0.00000   0.00000
     24393 MEOH     966      MEOH     H1B      HDA3B    0.080000        1.0080           0   0.00000   0.00000
     24394 MEOH     966      MEOH     H1C      HDA3B    0.080000        1.0080           0   0.00000   0.00000
     24395 MEOH     966      MEOH     LP1A     LPD     -0.230000        0.0000           -1   0.00000   0.00000
     24396 MEOH     966      MEOH     LP1B     LPD     -0.230000        0.0000           -1   0.00000   0.00000
     24397 MEOH     967      MEOH     C1       CD33B    2.314100       11.6110           0   -1.00000   1.30000
     24398 MEOH     967      MEOH     DC1      DRUD    -2.454100        0.4000           0   0.00000   0.00000
     24399 MEOH     967      MEOH     O1       OD31H    2.488300       15.5990           0   -1.02800   1.30000
     24400 MEOH     967      MEOH     DO1      DRUD    -2.488300        0.4000           0   0.00000   0.00000
     24401 MEOH     967      MEOH     HO1      HDP1A    0.360000        1.0080           0   0.00000   0.00000
     24402 MEOH     967      MEOH     HO2      DUMH     0.000000        1.0080           0   0.00000   0.00000
     24403 MEOH     967      MEOH     H1A      HDA3B    0.080000        1.0080           0   0.00000   0.00000
     24404 MEOH     967      MEOH     H1B      HDA3B    0.080000        1.0080           0   0.00000   0.00000
     24405 MEOH     967      MEOH     H1C      HDA3B    0.080000        1.0080           0   0.00000   0.00000
     24406 MEOH     967      MEOH     LP1A     LPD     -0.230000        0.0000           -1   0.00000   0.00000
     24407 MEOH     967      MEOH     LP1B     LPD     -0.230000        0.0000           -1   0.00000   0.00000
     24408 MEOH     968      MEOH     C1       CD33B    2.314100       11.6110           0   -1.00000   1.30000
     24409 MEOH     968      MEOH     DC1      DRUD    -2.454100        0.4000           0   0.00000   0.00000
     24410 MEOH     968      MEOH     O1       OD31H    2.488300       15.5990           0   -1.02800   1.30000
     24411 MEOH     968      MEOH     DO1      DRUD    -2.488300        0.4000           0   0.00000   0.00000
     24412 MEOH     968      MEOH     HO1      HDP1A    0.360000        1.0080           0   0.00000   0.00000
     24413 MEOH     968      MEOH     HO2      DUMH     0.000000        1.0080           0   0.00000   0.00000
     24414 MEOH     968      MEOH     H1A      HDA3B    0.080000        1.0080           0   0.00000   0.00000
     24415 MEOH     968      MEOH     H1B      HDA3B    0.080000        1.0080           0   0.00000   0.00000
     24416 MEOH     968      MEOH     H1C      HDA3B    0.080000        1.0080           0   0.00000   0.00000
     24417 MEOH     968      MEOH     LP1A     LPD     -0.230000        0.0000           -1   0.00000   0.00000
     24418 MEOH     968      MEOH     LP1B     LPD     -0.230000        0.0000           -1   0.00000   0.00000
     24419 MEOH     969      MEOH     C1       CD33B    2.314100       11.6110           0   -1.00000   1.30000
     24420 MEOH     969      MEOH     DC1      DRUD    -2.454100        0.4000           0   0.00000   0.00000
     24421 MEOH     969      MEOH     O1       OD31H    2.488300       15.5990           0   -1.02800   1.30000
     24422 MEOH     969      MEOH     DO1      DRUD    -2.488300        0.4000           0   0.00000   0.00000
     24423 MEOH     969      MEOH     HO1      HDP1A    0.360000        1.0080           0   0.00000   0.00000
     24424 MEOH     969      MEOH     HO2      DUMH     0.000000        1.0080           0   0.00000   0.00000
     24425 MEOH     969      MEOH     H1A      HDA3B    0.080000        1.0080           0   0.00000   0.00000
     24426 MEOH     969      MEOH     H1B      HDA3B    0.080000        1.0080           0   0.00000   0.00000
     24427 MEOH     969      MEOH     H1C      HDA3B    0.080000        1.0080           0   0.00000   0.00000
     24428 MEOH     969      MEOH     LP1A     LPD     -0.230000        0.0000           -1   0.00000   0.00000
     24429 MEOH     969      MEOH     LP1B     LPD     -0.230000        0.0000           -1   0.00000   0.00000
     24430 MEOH     970      MEOH     C1       CD33B    2.314100       11.6110           0   -1.00000   1.30000
     24431 MEOH     970      MEOH     DC1      DRUD    -2.454100        0.4000           0   0.00000   0.00000
     24432 MEOH     970      MEOH     O1       OD31H    2.488300       15.5990           0   -1.02800   1.30000
     24433 MEOH     970      MEOH     DO1      DRUD    -2.488300        0.4000           0   0.00000   0.00000
     24434 MEOH     970      MEOH     HO1      HDP1A    0.360000        1.0080           0   0.00000   0.00000
     24435 MEOH     970      MEOH     HO2      DUMH     0.000000        1.0080           0   0.00000   0.00000
     24436 MEOH     970      MEOH     H1A      HDA3B    0.080000        1.0080           0   0.00000   0.00000
     24437 MEOH     970      MEOH     H1B      HDA3B    0.080000        1.0080           0   0.00000   0.00000
     24438 MEOH     970      MEOH     H1C      HDA3B    0.080000        1.0080           0   0.00000   0.00000
     24439 MEOH     970      MEOH     LP1A     LPD     -0.230000        0.0000           -1   0.00000   0.00000
     24440 MEOH     970      MEOH     LP1B     LPD     -0.230000        0.0000           -1   0.00000   0.00000
     24441 MEOH     971      MEOH     C1       CD33B    2.314100       11.6110           0   -1.00000   1.30000
     24442 MEOH     971      MEOH     DC1      DRUD    -2.454100        0.4000           0   0.00000   0.00000
     24443 MEOH     971      MEOH     O1       OD31H    2.488300       15.5990           0   -1.02800   1.30000
     24444 MEOH     971      MEOH     DO1      DRUD    -2.488300        0.4000           0   0.00000   0.00000
     24445 MEOH     971      MEOH     HO1      HDP1A    0.360000        1.0080           0   0.00000   0.00000
     24446 MEOH     971      MEOH     HO2      DUMH     0.000000        1.0080           0   0.00000   0.00000
     24447 MEOH     971      MEOH     H1A      HDA3B    0.080000        1.0080           0   0.00000   0.00000
     24448 MEOH     971      MEOH     H1B      HDA3B    0.080000        1.0080           0   0.00000   0.00000
     24449 MEOH     971      MEOH     H1C      HDA3B    0.080000        1.0080           0   0.00000   0.00000
     24450 MEOH     971      MEOH     LP1A     LPD     -0.230000        0.0000           -1   0.00000   0.00000
     24451 MEOH     971      MEOH     LP1B     LPD     -0.230000        0.0000           -1   0.00000   0.00000
     24452 MEOH     972      MEOH     C1       CD33B    2.314100       11.6110           0   -1.00000   1.30000
     24453 MEOH     972      MEOH     DC1      DRUD    -2.454100        0.4000           0   0.00000   0.00000
     24454 MEOH     972      MEOH     O1       OD31H    2.488300       15.5990           0   -1.02800   1.30000
     24455 MEOH     972      MEOH     DO1      DRUD    -2.488300        0.4000           0   0.00000   0.00000
     24456 MEOH     972      MEOH     HO1      HDP1A    0.360000        1.0080           0   0.00000   0.00000
     24457 MEOH     972      MEOH     HO2      DUMH     0.000000        1.0080           0   0.00000   0.00000
     24458 MEOH     972      MEOH     H1A      HDA3B    0.080000        1.0080           0   0.00000   0.00000
     24459 MEOH     972      MEOH     H1B      HDA3B    0.080000        1.0080           0   0.00000   0.00000
     24460 MEOH     972      MEOH     H1C      HDA3B    0.080000        1.0080           0   0.00000   0.00000
     24461 MEOH     972      MEOH     LP1A     LPD     -0.230000        0.0000           -1   0.00000   0.00000
     24462 MEOH     972      MEOH     LP1B     LPD     -0.230000        0.0000           -1   0.00000   0.00000
     24463 MEOH     973      MEOH     C1       CD33B    2.314100       11.6110           0   -1.00000   1.30000
     24464 MEOH     973      MEOH     DC1      DRUD    -2.454100        0.4000           0   0.00000   0.00000
     24465 MEOH     973      MEOH     O1       OD31H    2.488300       15.5990           0   -1.02800   1.30000
     24466 MEOH     973      MEOH     DO1      DRUD    -2.488300        0.4000           0   0.00000   0.00000
     24467 MEOH     973      MEOH     HO1      HDP1A    0.360000        1.0080           0   0.00000   0.00000
     24468 MEOH     973      MEOH     HO2      DUMH     0.000000        1.0080           0   0.00000   0.00000
     24469 MEOH     973      MEOH     H1A      HDA3B    0.080000        1.0080           0   0.00000   0.00000
     24470 MEOH     973      MEOH     H1B      HDA3B    0.080000        1.0080           0   0.00000   0.00000
     24471 MEOH     973      MEOH     H1C      HDA3B    0.080000        1.0080           0   0.00000   0.00000
     24472 MEOH     973      MEOH     LP1A     LPD     -0.230000        0.0000           -1   0.00000   0.00000
     24473 MEOH     973      MEOH     LP1B     LPD     -0.230000        0.0000           -1   0.00000   0.00000
     24474 MEOH     974      MEOH     C1       CD33B    2.314100       11.6110           0   -1.00000   1.30000
     24475 MEOH     974      MEOH     DC1      DRUD    -2.454100        0.4000           0   0.00000   0.00000
     24476 MEOH     974      MEOH     O1       OD31H    2.488300       15.5990           0   -1.02800   1.30000
     24477 MEOH     974      MEOH     DO1      DRUD    -2.488300        0.4000           0   0.00000   0.00000
     24478 MEOH     974      MEOH     HO1      HDP1A    0.360000        1.0080           0   0.00000   0.00000
     24479 MEOH     974      MEOH     HO2      DUMH     0.000000        1.0080           0   0.00000   0.00000
     24480 MEOH     974      MEOH     H1A      HDA3B    0.080000        1.0080           0   0.00000   0.00000
     24481 MEOH     974      MEOH     H1B      HDA3B    0.080000        1.0080           0   0.00000   0.00000
     24482 MEOH     974      MEOH     H1C      HDA3B    0.080000        1.0080           0   0.00000   0.00000
     24483 MEOH     974      MEOH     LP1A     LPD     -0.230000        0.0000           -1   0.00000   0.00000
     24484 MEOH     974      MEOH     LP1B     LPD     -0.230000        0.0000           -1   0.00000   0.00000
     24485 MEOH     975      MEOH     C1       CD33B    2.314100       11.6110           0   -1.00000   1.30000
     24486 MEOH     975      MEOH     DC1      DRUD    -2.454100        0.4000           0   0.00000   0.00000
     24487 MEOH     975      MEOH     O1       OD31H    2.488300       15.5990           0   -1.02800   1.30000
     24488 MEOH     975      MEOH     DO1      DRUD    -2.488300        0.4000           0   0.00000   0.00000
     24489 MEOH     975      MEOH     HO1      HDP1A    0.360000        1.0080           0   0.00000   0.00000
     24490 MEOH     975      MEOH     HO2      DUMH     0.000000        1.0080           0   0.00000   0.00000
     24491 MEOH     975      MEOH     H1A      HDA3B    0.080000        1.0080           0   0.00000   0.00000
     24492 MEOH     975      MEOH     H1B      HDA3B    0.080000        1.0080           0   0.00000   0.00000
     24493 MEOH     975      MEOH     H1C      HDA3B    0.080000        1.0080           0   0.00000   0.00000
     24494 MEOH     975      MEOH     LP1A     LPD     -0.230000        0.0000           -1   0.00000   0.00000
     24495 MEOH     975      MEOH     LP1B     LPD     -0.230000        0.0000           -1   0.00000   0.00000
     24496 MEOH     976      MEOH     C1       CD33B    2.314100       11.6110           0   -1.00000   1.30000
     24497 MEOH     976      MEOH     DC1      DRUD    -2.454100        0.4000           0   0.00000   0.00000
     24498 MEOH     976      MEOH     O1       OD31H    2.488300       15.5990           0   -1.02800   1.30000
     24499 MEOH     976      MEOH     DO1      DRUD    -2.488300        0.4000           0   0.00000   0.00000
     24500 MEOH     976      MEOH     HO1      HDP1A    0.360000        1.0080           0   0.00000   0.00000
     24501 MEOH     976      MEOH     HO2      DUMH     0.000000        1.0080           0   0.00000   0.00000
     24502 MEOH     976      MEOH     H1A      HDA3B    0.080000        1.0080           0   0.00000   0.00000
     24503 MEOH     976      MEOH     H1B      HDA3B    0.080000        1.0080           0   0.00000   0.00000
     24504 MEOH     976      MEOH     H1C      HDA3B    0.080000        1.0080           0   0.00000   0.00000
     24505 MEOH     976      MEOH     LP1A     LPD     -0.230000        0.0000           -1   0.00000   0.00000
     24506 MEOH     976      MEOH     LP1B     LPD     -0.230000        0.0000           -1   0.00000   0.00000
     24507 MEOH     977      MEOH     C1       CD33B    2.314100       11.6110           0   -1.00000   1.30000
     24508 MEOH     977      MEOH     DC1      DRUD    -2.454100        0.4000           0   0.00000   0.00000
     24509 MEOH     977      MEOH     O1       OD31H    2.488300       15.5990           0   -1.02800   1.30000
     24510 MEOH     977      MEOH     DO1      DRUD    -2.488300        0.4000           0   0.00000   0.00000
     24511 MEOH     977      MEOH     HO1      HDP1A    0.360000        1.0080           0   0.00000   0.00000
     24512 MEOH     977      MEOH     HO2      DUMH     0.000000        1.0080           0   0.00000   0.00000
     24513 MEOH     977      MEOH     H1A      HDA3B    0.080000        1.0080           0   0.00000   0.00000
     24514 MEOH     977      MEOH     H1B      HDA3B    0.080000        1.0080           0   0.00000   0.00000
     24515 MEOH     977      MEOH     H1C      HDA3B    0.080000        1.0080           0   0.00000   0.00000
     24516 MEOH     977      MEOH     LP1A     LPD     -0.230000        0.0000           -1   0.00000   0.00000
     24517 MEOH     977      MEOH     LP1B     LPD     -0.230000        0.0000           -1   0.00000   0.00000
     24518 MEOH     978      MEOH     C1       CD33B    2.314100       11.6110           0   -1.00000   1.30000
     24519 MEOH     978      MEOH     DC1      DRUD    -2.454100        0.4000           0   0.00000   0.00000
     24520 MEOH     978      MEOH     O1       OD31H    2.488300       15.5990           0   -1.02800   1.30000
     24521 MEOH     978      MEOH     DO1      DRUD    -2.488300        0.4000           0   0.00000   0.00000
     24522 MEOH     978      MEOH     HO1      HDP1A    0.360000        1.0080           0   0.00000   0.00000
     24523 MEOH     978      MEOH     HO2      DUMH     0.000000        1.0080           0   0.00000   0.00000
     24524 MEOH     978      MEOH     H1A      HDA3B    0.080000        1.0080           0   0.00000   0.00000
     24525 MEOH     978      MEOH     H1B      HDA3B    0.080000        1.0080           0   0.00000   0.00000
     24526 MEOH     978      MEOH     H1C      HDA3B    0.080000        1.0080           0   0.00000   0.00000
     24527 MEOH     978      MEOH     LP1A     LPD     -0.230000        0.0000           -1   0.00000   0.00000
     24528 MEOH     978      MEOH     LP1B     LPD     -0.230000        0.0000           -1   0.00000   0.00000
     24529 MEOH     979      MEOH     C1       CD33B    2.314100       11.6110           0   -1.00000   1.30000
     24530 MEOH     979      MEOH     DC1      DRUD    -2.454100        0.4000           0   0.00000   0.00000
     24531 MEOH     979      MEOH     O1       OD31H    2.488300       15.5990           0   -1.02800   1.30000
     24532 MEOH     979      MEOH     DO1      DRUD    -2.488300        0.4000           0   0.00000   0.00000
     24533 MEOH     979      MEOH     HO1      HDP1A    0.360000        1.0080           0   0.00000   0.00000
     24534 MEOH     979      MEOH     HO2      DUMH     0.000000        1.0080           0   0.00000   0.00000
     24535 MEOH     979      MEOH     H1A      HDA3B    0.080000        1.0080           0   0.00000   0.00000
     24536 MEOH     979      MEOH     H1B      HDA3B    0.080000        1.0080           0   0.00000   0.00000
     24537 MEOH     979      MEOH     H1C      HDA3B    0.080000        1.0080           0   0.00000   0.00000
     24538 MEOH     979      MEOH     LP1A     LPD     -0.230000        0.0000           -1   0.00000   0.00000
     24539 MEOH     979      MEOH     LP1B     LPD     -0.230000        0.0000           -1   0.00000   0.00000
     24540 MEOH     980      MEOH     C1       CD33B    2.314100       11.6110           0   -1.00000   1.30000
     24541 MEOH     980      MEOH     DC1      DRUD    -2.454100        0.4000           0   0.00000   0.00000
     24542 MEOH     980      MEOH     O1       OD31H    2.488300       15.5990           0   -1.02800   1.30000
     24543 MEOH     980      MEOH     DO1      DRUD    -2.488300        0.4000           0   0.00000   0.00000
     24544 MEOH     980      MEOH     HO1      HDP1A    0.360000        1.0080           0   0.00000   0.00000
     24545 MEOH     980      MEOH     HO2      DUMH     0.000000        1.0080           0   0.00000   0.00000
     24546 MEOH     980      MEOH     H1A      HDA3B    0.080000        1.0080           0   0.00000   0.00000
     24547 MEOH     980      MEOH     H1B      HDA3B    0.080000        1.0080           0   0.00000   0.00000
     24548 MEOH     980      MEOH     H1C      HDA3B    0.080000        1.0080           0   0.00000   0.00000
     24549 MEOH     980      MEOH     LP1A     LPD     -0.230000        0.0000           -1   0.00000   0.00000
     24550 MEOH     980      MEOH     LP1B     LPD     -0.230000        0.0000           -1   0.00000   0.00000
     24551 MEOH     981      MEOH     C1       CD33B    2.314100       11.6110           0   -1.00000   1.30000
     24552 MEOH     981      MEOH     DC1      DRUD    -2.454100        0.4000           0   0.00000   0.00000
     24553 MEOH     981      MEOH     O1       OD31H    2.488300       15.5990           0   -1.02800   1.30000
     24554 MEOH     981      MEOH     DO1      DRUD    -2.488300        0.4000           0   0.00000   0.00000
     24555 MEOH     981      MEOH     HO1      HDP1A    0.360000        1.0080           0   0.00000   0.00000
     24556 MEOH     981      MEOH     HO2      DUMH     0.000000        1.0080           0   0.00000   0.00000
     24557 MEOH     981      MEOH     H1A      HDA3B    0.080000        1.0080           0   0.00000   0.00000
     24558 MEOH     981      MEOH     H1B      HDA3B    0.080000        1.0080           0   0.00000   0.00000
     24559 MEOH     981      MEOH     H1C      HDA3B    0.080000        1.0080           0   0.00000   0.00000
     24560 MEOH     981      MEOH     LP1A     LPD     -0.230000        0.0000           -1   0.00000   0.00000
     24561 MEOH     981      MEOH     LP1B     LPD     -0.230000        0.0000           -1   0.00000   0.00000
     24562 MEOH     982      MEOH     C1       CD33B    2.314100       11.6110           0   -1.00000   1.30000
     24563 MEOH     982      MEOH     DC1      DRUD    -2.454100        0.4000           0   0.00000   0.00000
     24564 MEOH     982      MEOH     O1       OD31H    2.488300       15.5990           0   -1.02800   1.30000
     24565 MEOH     982      MEOH     DO1      DRUD    -2.488300        0.4000           0   0.00000   0.00000
     24566 MEOH     982      MEOH     HO1      HDP1A    0.360000        1.0080           0   0.00000   0.00000
     24567 MEOH     982      MEOH     HO2      DUMH     0.000000        1.0080           0   0.00000   0.00000
     24568 MEOH     982      MEOH     H1A      HDA3B    0.080000        1.0080           0   0.00000   0.00000
     24569 MEOH     982      MEOH     H1B      HDA3B    0.080000        1.0080           0   0.00000   0.00000
     24570 MEOH     982      MEOH     H1C      HDA3B    0.080000        1.0080           0   0.00000   0.00000
     24571 MEOH     982      MEOH     LP1A     LPD     -0.230000        0.0000           -1   0.00000   0.00000
     24572 MEOH     982      MEOH     LP1B     LPD     -0.230000        0.0000           -1   0.00000   0.00000
     24573 MEOH     983      MEOH     C1       CD33B    2.314100       11.6110           0   -1.00000   1.30000
     24574 MEOH     983      MEOH     DC1      DRUD    -2.454100        0.4000           0   0.00000   0.00000
     24575 MEOH     983      MEOH     O1       OD31H    2.488300       15.5990           0   -1.02800   1.30000
     24576 MEOH     983      MEOH     DO1      DRUD    -2.488300        0.4000           0   0.00000   0.00000
     24577 MEOH     983      MEOH     HO1      HDP1A    0.360000        1.0080           0   0.00000   0.00000
     24578 MEOH     983      MEOH     HO2      DUMH     0.000000        1.0080           0   0.00000   0.00000
     24579 MEOH     983      MEOH     H1A      HDA3B    0.080000        1.0080           0   0.00000   0.00000
     24580 MEOH     983      MEOH     H1B      HDA3B    0.080000        1.0080           0   0.00000   0.00000
     24581 MEOH     983      MEOH     H1C      HDA3B    0.080000        1.0080           0   0.00000   0.00000
     24582 MEOH     983      MEOH     LP1A     LPD     -0.230000        0.0000           -1   0.00000   0.00000
     24583 MEOH     983      MEOH     LP1B     LPD     -0.230000        0.0000           -1   0.00000   0.00000
     24584 MEOH     984      MEOH     C1       CD33B    2.314100       11.6110           0   -1.00000   1.30000
     24585 MEOH     984      MEOH     DC1      DRUD    -2.454100        0.4000           0   0.00000   0.00000
     24586 MEOH     984      MEOH     O1       OD31H    2.488300       15.5990           0   -1.02800   1.30000
     24587 MEOH     984      MEOH     DO1      DRUD    -2.488300        0.4000           0   0.00000   0.00000
     24588 MEOH     984      MEOH     HO1      HDP1A    0.360000        1.0080           0   0.00000   0.00000
     24589 MEOH     984      MEOH     HO2      DUMH     0.000000        1.0080           0   0.00000   0.00000
     24590 MEOH     984      MEOH     H1A      HDA3B    0.080000        1.0080           0   0.00000   0.00000
     24591 MEOH     984      MEOH     H1B      HDA3B    0.080000        1.0080           0   0.00000   0.00000
     24592 MEOH     984      MEOH     H1C      HDA3B    0.080000        1.0080           0   0.00000   0.00000
     24593 MEOH     984      MEOH     LP1A     LPD     -0.230000        0.0000           -1   0.00000   0.00000
     24594 MEOH     984      MEOH     LP1B     LPD     -0.230000        0.0000           -1   0.00000   0.00000
     24595 MEOH     985      MEOH     C1       CD33B    2.314100       11.6110           0   -1.00000   1.30000
     24596 MEOH     985      MEOH     DC1      DRUD    -2.454100        0.4000           0   0.00000   0.00000
     24597 MEOH     985      MEOH     O1       OD31H    2.488300       15.5990           0   -1.02800   1.30000
     24598 MEOH     985      MEOH     DO1      DRUD    -2.488300        0.4000           0   0.00000   0.00000
     24599 MEOH     985      MEOH     HO1      HDP1A    0.360000        1.0080           0   0.00000   0.00000
     24600 MEOH     985      MEOH     HO2      DUMH     0.000000        1.0080           0   0.00000   0.00000
     24601 MEOH     985      MEOH     H1A      HDA3B    0.080000        1.0080           0   0.00000   0.00000
     24602 MEOH     985      MEOH     H1B      HDA3B    0.080000        1.0080           0   0.00000   0.00000
     24603 MEOH     985      MEOH     H1C      HDA3B    0.080000        1.0080           0   0.00000   0.00000
     24604 MEOH     985      MEOH     LP1A     LPD     -0.230000        0.0000           -1   0.00000   0.00000
     24605 MEOH     985      MEOH     LP1B     LPD     -0.230000        0.0000           -1   0.00000   0.00000
     24606 MEOH     986      MEOH     C1       CD33B    2.314100       11.6110           0   -1.00000   1.30000
     24607 MEOH     986      MEOH     DC1      DRUD    -2.454100        0.4000           0   0.00000   0.00000
     24608 MEOH     986      MEOH     O1       OD31H    2.488300       15.5990           0   -1.02800   1.30000
     24609 MEOH     986      MEOH     DO1      DRUD    -2.488300        0.4000           0   0.00000   0.00000
     24610 MEOH     986      MEOH     HO1      HDP1A    0.360000        1.0080           0   0.00000   0.00000
     24611 MEOH     986      MEOH     HO2      DUMH     0.000000        1.0080           0   0.00000   0.00000
     24612 MEOH     986      MEOH     H1A      HDA3B    0.080000        1.0080           0   0.00000   0.00000
     24613 MEOH     986      MEOH     H1B      HDA3B    0.080000        1.0080           0   0.00000   0.00000
     24614 MEOH     986      MEOH     H1C      HDA3B    0.080000        1.0080           0   0.00000   0.00000
     24615 MEOH     986      MEOH     LP1A     LPD     -0.230000        0.0000           -1   0.00000   0.00000
     24616 MEOH     986      MEOH     LP1B     LPD     -0.230000        0.0000           -1   0.00000   0.00000
     24617 MEOH     987      MEOH     C1       CD33B    2.314100       11.6110           0   -1.00000   1.30000
     24618 MEOH     987      MEOH     DC1      DRUD    -2.454100        0.4000           0   0.00000   0.00000
     24619 MEOH     987      MEOH     O1       OD31H    2.488300       15.5990           0   -1.02800   1.30000
     24620 MEOH     987      MEOH     DO1      DRUD    -2.488300        0.4000           0   0.00000   0.00000
     24621 MEOH     987      MEOH     HO1      HDP1A    0.360000        1.0080           0   0.00000   0.00000
     24622 MEOH     987      MEOH     HO2      DUMH     0.000000        1.0080           0   0.00000   0.00000
     24623 MEOH     987      MEOH     H1A      HDA3B    0.080000        1.0080           0   0.00000   0.00000
     24624 MEOH     987      MEOH     H1B      HDA3B    0.080000        1.0080           0   0.00000   0.00000
     24625 MEOH     987      MEOH     H1C      HDA3B    0.080000        1.0080           0   0.00000   0.00000
     24626 MEOH     987      MEOH     LP1A     LPD     -0.230000        0.0000           -1   0.00000   0.00000
     24627 MEOH     987      MEOH     LP1B     LPD     -0.230000        0.0000           -1   0.00000   0.00000
     24628 MEOH     988      MEOH     C1       CD33B    2.314100       11.6110           0   -1.00000   1.30000
     24629 MEOH     988      MEOH     DC1      DRUD    -2.454100        0.4000           0   0.00000   0.00000
     24630 MEOH     988      MEOH     O1       OD31H    2.488300       15.5990           0   -1.02800   1.30000
     24631 MEOH     988      MEOH     DO1      DRUD    -2.488300        0.4000           0   0.00000   0.00000
     24632 MEOH     988      MEOH     HO1      HDP1A    0.360000        1.0080           0   0.00000   0.00000
     24633 MEOH     988      MEOH     HO2      DUMH     0.000000        1.0080           0   0.00000   0.00000
     24634 MEOH     988      MEOH     H1A      HDA3B    0.080000        1.0080           0   0.00000   0.00000
     24635 MEOH     988      MEOH     H1B      HDA3B    0.080000        1.0080           0   0.00000   0.00000
     24636 MEOH     988      MEOH     H1C      HDA3B    0.080000        1.0080           0   0.00000   0.00000
     24637 MEOH     988      MEOH     LP1A     LPD     -0.230000        0.0000           -1   0.00000   0.00000
     24638 MEOH     988      MEOH     LP1B     LPD     -0.230000        0.0000           -1   0.00000   0.00000
     24639 MEOH     989      MEOH     C1       CD33B    2.314100       11.6110           0   -1.00000   1.30000
     24640 MEOH     989      MEOH     DC1      DRUD    -2.454100        0.4000           0   0.00000   0.00000
     24641 MEOH     989      MEOH     O1       OD31H    2.488300       15.5990           0   -1.02800   1.30000
     24642 MEOH     989      MEOH     DO1      DRUD    -2.488300        0.4000           0   0.00000   0.00000
     24643 MEOH     989      MEOH     HO1      HDP1A    0.360000        1.0080           0   0.00000   0.00000
     24644 MEOH     989      MEOH     HO2      DUMH     0.000000        1.0080           0   0.00000   0.00000
     24645 MEOH     989      MEOH     H1A      HDA3B    0.080000        1.0080           0   0.00000   0.00000
     24646 MEOH     989      MEOH     H1B      HDA3B    0.080000        1.0080           0   0.00000   0.00000
     24647 MEOH     989      MEOH     H1C      HDA3B    0.080000        1.0080           0   0.00000   0.00000
     24648 MEOH     989      MEOH     LP1A     LPD     -0.230000        0.0000           -1   0.00000   0.00000
     24649 MEOH     989      MEOH     LP1B     LPD     -0.230000        0.0000           -1   0.00000   0.00000
     24650 MEOH     990      MEOH     C1       CD33B    2.314100       11.6110           0   -1.00000   1.30000
     24651 MEOH     990      MEOH     DC1      DRUD    -2.454100        0.4000           0   0.00000   0.00000
     24652 MEOH     990      MEOH     O1       OD31H    2.488300       15.5990           0   -1.02800   1.30000
     24653 MEOH     990      MEOH     DO1      DRUD    -2.488300        0.4000           0   0.00000   0.00000
     24654 MEOH     990      MEOH     HO1      HDP1A    0.360000        1.0080           0   0.00000   0.00000
     24655 MEOH     990      MEOH     HO2      DUMH     0.000000        1.0080           0   0.00000   0.00000
     24656 MEOH     990      MEOH     H1A      HDA3B    0.080000        1.0080           0   0.00000   0.00000
     24657 MEOH     990      MEOH     H1B      HDA3B    0.080000        1.0080           0   0.00000   0.00000
     24658 MEOH     990      MEOH     H1C      HDA3B    0.080000        1.0080           0   0.00000   0.00000
     24659 MEOH     990      MEOH     LP1A     LPD     -0.230000        0.0000           -1   0.00000   0.00000
     24660 MEOH     990      MEOH     LP1B     LPD     -0.230000        0.0000           -1   0.00000   0.00000
     24661 MEOH     991      MEOH     C1       CD33B    2.314100       11.6110           0   -1.00000   1.30000
     24662 MEOH     991      MEOH     DC1      DRUD    -2.454100        0.4000           0   0.00000   0.00000
     24663 MEOH     991      MEOH     O1       OD31H    2.488300       15.5990           0   -1.02800   1.30000
     24664 MEOH     991      MEOH     DO1      DRUD    -2.488300        0.4000           0   0.00000   0.00000
     24665 MEOH     991      MEOH     HO1      HDP1A    0.360000        1.0080           0   0.00000   0.00000
     24666 MEOH     991      MEOH     HO2      DUMH     0.000000        1.0080           0   0.00000   0.00000
     24667 MEOH     991      MEOH     H1A      HDA3B    0.080000        1.0080           0   0.00000   0.00000
     24668 MEOH     991      MEOH     H1B      HDA3B    0.080000        1.0080           0   0.00000   0.00000
     24669 MEOH     991      MEOH     H1C      HDA3B    0.080000        1.0080           0   0.00000   0.00000
     24670 MEOH     991      MEOH     LP1A     LPD     -0.230000        0.0000           -1   0.00000   0.00000
     24671 MEOH     991      MEOH     LP1B     LPD     -0.230000        0.0000           -1   0.00000   0.00000
     24672 MEOH     992      MEOH     C1       CD33B    2.314100       11.6110           0   -1.00000   1.30000
     24673 MEOH     992      MEOH     DC1      DRUD    -2.454100        0.4000           0   0.00000   0.00000
     24674 MEOH     992      MEOH     O1       OD31H    2.488300       15.5990           0   -1.02800   1.30000
     24675 MEOH     992      MEOH     DO1      DRUD    -2.488300        0.4000           0   0.00000   0.00000
     24676 MEOH     992      MEOH     HO1      HDP1A    0.360000        1.0080           0   0.00000   0.00000
     24677 MEOH     992      MEOH     HO2      DUMH     0.000000        1.0080           0   0.00000   0.00000
     24678 MEOH     992      MEOH     H1A      HDA3B    0.080000        1.0080           0   0.00000   0.00000
     24679 MEOH     992      MEOH     H1B      HDA3B    0.080000        1.0080           0   0.00000   0.00000
     24680 MEOH     992      MEOH     H1C      HDA3B    0.080000        1.0080           0   0.00000   0.00000
     24681 MEOH     992      MEOH     LP1A     LPD     -0.230000        0.0000           -1   0.00000   0.00000
     24682 MEOH     992      MEOH     LP1B     LPD     -0.230000        0.0000           -1   0.00000   0.00000
     24683 MEOH     993      MEOH     C1       CD33B    2.314100       11.6110           0   -1.00000   1.30000
     24684 MEOH     993      MEOH     DC1      DRUD    -2.454100        0.4000           0   0.00000   0.00000
     24685 MEOH     993      MEOH     O1       OD31H    2.488300       15.5990           0   -1.02800   1.30000
     24686 MEOH     993      MEOH     DO1      DRUD    -2.488300        0.4000           0   0.00000   0.00000
     24687 MEOH     993      MEOH     HO1      HDP1A    0.360000        1.0080           0   0.00000   0.00000
     24688 MEOH     993      MEOH     HO2      DUMH     0.000000        1.0080           0   0.00000   0.00000
     24689 MEOH     993      MEOH     H1A      HDA3B    0.080000        1.0080           0   0.00000   0.00000
     24690 MEOH     993      MEOH     H1B      HDA3B    0.080000        1.0080           0   0.00000   0.00000
     24691 MEOH     993      MEOH     H1C      HDA3B    0.080000        1.0080           0   0.00000   0.00000
     24692 MEOH     993      MEOH     LP1A     LPD     -0.230000        0.0000           -1   0.00000   0.00000
     24693 MEOH     993      MEOH     LP1B     LPD     -0.230000        0.0000           -1   0.00000   0.00000
     24694 MEOH     994      MEOH     C1       CD33B    2.314100       11.6110           0   -1.00000   1.30000
     24695 MEOH     994      MEOH     DC1      DRUD    -2.454100        0.4000           0   0.00000   0.00000
     24696 MEOH     994      MEOH     O1       OD31H    2.488300       15.5990           0   -1.02800   1.30000
     24697 MEOH     994      MEOH     DO1      DRUD    -2.488300        0.4000           0   0.00000   0.00000
     24698 MEOH     994      MEOH     HO1      HDP1A    0.360000        1.0080           0   0.00000   0.00000
     24699 MEOH     994      MEOH     HO2      DUMH     0.000000        1.0080           0   0.00000   0.00000
     24700 MEOH     994      MEOH     H1A      HDA3B    0.080000        1.0080           0   0.00000   0.00000
     24701 MEOH     994      MEOH     H1B      HDA3B    0.080000        1.0080           0   0.00000   0.00000
     24702 MEOH     994      MEOH     H1C      HDA3B    0.080000        1.0080           0   0.00000   0.00000
     24703 MEOH     994      MEOH     LP1A     LPD     -0.230000        0.0000           -1   0.00000   0.00000
     24704 MEOH     994      MEOH     LP1B     LPD     -0.230000        0.0000           -1   0.00000   0.00000
     24705 MEOH     995      MEOH     C1       CD33B    2.314100       11.6110           0   -1.00000   1.30000
     24706 MEOH     995      MEOH     DC1      DRUD    -2.454100        0.4000           0   0.00000   0.00000
     24707 MEOH     995      MEOH     O1       OD31H    2.488300       15.5990           0   -1.02800   1.30000
     24708 MEOH     995      MEOH     DO1      DRUD    -2.488300        0.4000           0   0.00000   0.00000
     24709 MEOH     995      MEOH     HO1      HDP1A    0.360000        1.0080           0   0.00000   0.00000
     24710 MEOH     995      MEOH     HO2      DUMH     0.000000        1.0080           0   0.00000   0.00000
     24711 MEOH     995      MEOH     H1A      HDA3B    0.080000        1.0080           0   0.00000   0.00000
     24712 MEOH     995      MEOH     H1B      HDA3B    0.080000        1.0080           0   0.00000   0.00000
     24713 MEOH     995      MEOH     H1C      HDA3B    0.080000        1.0080           0   0.00000   0.00000
     24714 MEOH     995      MEOH     LP1A     LPD     -0.230000        0.0000           -1   0.00000   0.00000
     24715 MEOH     995      MEOH     LP1B     LPD     -0.230000        0.0000           -1   0.00000   0.00000
     24716 MEOH     996      MEOH     C1       CD33B    2.314100       11.6110           0   -1.00000   1.30000
     24717 MEOH     996      MEOH     DC1      DRUD    -2.454100        0.4000           0   0.00000   0.00000
     24718 MEOH     996      MEOH     O1       OD31H    2.488300       15.5990           0   -1.02800   1.30000
     24719 MEOH     996      MEOH     DO1      DRUD    -2.488300        0.4000           0   0.00000   0.00000
     24720 MEOH     996      MEOH     HO1      HDP1A    0.360000        1.0080           0   0.00000   0.00000
     24721 MEOH     996      MEOH     HO2      DUMH     0.000000        1.0080           0   0.00000   0.00000
     24722 MEOH     996      MEOH     H1A      HDA3B    0.080000        1.0080           0   0.00000   0.00000
     24723 MEOH     996      MEOH     H1B      HDA3B    0.080000        1.0080           0   0.00000   0.00000
     24724 MEOH     996      MEOH     H1C      HDA3B    0.080000        1.0080           0   0.00000   0.00000
     24725 MEOH     996      MEOH     LP1A     LPD     -0.230000        0.0000           -1   0.00000   0.00000
     24726 MEOH     996      MEOH     LP1B     LPD     -0.230000        0.0000           -1   0.00000   0.00000
     24727 MEOH     997      MEOH     C1       CD33B    2.314100       11.6110           0   -1.00000   1.30000
     24728 MEOH     997      MEOH     DC1      DRUD    -2.454100        0.4000           0   0.00000   0.00000
     24729 MEOH     997      MEOH     O1       OD31H    2.488300       15.5990           0   -1.02800   1.30000
     24730 MEOH     997      MEOH     DO1      DRUD    -2.488300        0.4000           0   0.00000   0.00000
     24731 MEOH     997      MEOH     HO1      HDP1A    0.360000        1.0080           0   0.00000   0.00000
     24732 MEOH     997      MEOH     HO2      DUMH     0.000000        1.0080           0   0.00000   0.00000
     24733 MEOH     997      MEOH     H1A      HDA3B    0.080000        1.0080           0   0.00000   0.00000
     24734 MEOH     997      MEOH     H1B      HDA3B    0.080000        1.0080           0   0.00000   0.00000
     24735 MEOH     997      MEOH     H1C      HDA3B    0.080000        1.0080           0   0.00000   0.00000
     24736 MEOH     997      MEOH     LP1A     LPD     -0.230000        0.0000           -1   0.00000   0.00000
     24737 MEOH     997      MEOH     LP1B     LPD     -0.230000        0.0000           -1   0.00000   0.00000
     24738 MEOH     998      MEOH     C1       CD33B    2.314100       11.6110           0   -1.00000   1.30000
     24739 MEOH     998      MEOH     DC1      DRUD    -2.454100        0.4000           0   0.00000   0.00000
     24740 MEOH     998      MEOH     O1       OD31H    2.488300       15.5990           0   -1.02800   1.30000
     24741 MEOH     998      MEOH     DO1      DRUD    -2.488300        0.4000           0   0.00000   0.00000
     24742 MEOH     998      MEOH     HO1      HDP1A    0.360000        1.0080           0   0.00000   0.00000
     24743 MEOH     998      MEOH     HO2      DUMH     0.000000        1.0080           0   0.00000   0.00000
     24744 MEOH     998      MEOH     H1A      HDA3B    0.080000        1.0080           0   0.00000   0.00000
     24745 MEOH     998      MEOH     H1B      HDA3B    0.080000        1.0080           0   0.00000   0.00000
     24746 MEOH     998      MEOH     H1C      HDA3B    0.080000        1.0080           0   0.00000   0.00000
     24747 MEOH     998      MEOH     LP1A     LPD     -0.230000        0.0000           -1   0.00000   0.00000
     24748 MEOH     998      MEOH     LP1B     LPD     -0.230000        0.0000           -1   0.00000   0.00000
     24749 MEOH     999      MEOH     C1       CD33B    2.314100       11.6110           0   -1.00000   1.30000
     24750 MEOH     999      MEOH     DC1      DRUD    -2.454100        0.4000           0   0.00000   0.00000
     24751 MEOH     999      MEOH     O1       OD31H    2.488300       15.5990           0   -1.02800   1.30000
     24752 MEOH     999      MEOH     DO1      DRUD    -2.488300        0.4000           0   0.00000   0.00000
     24753 MEOH     999      MEOH     HO1      HDP1A    0.360000        1.0080           0   0.00000   0.00000
     24754 MEOH     999      MEOH     HO2      DUMH     0.000000        1.0080           0   0.00000   0.00000
     24755 MEOH     999      MEOH     H1A      HDA3B    0.080000        1.0080           0   0.00000   0.00000
     24756 MEOH     999      MEOH     H1B      HDA3B    0.080000        1.0080           0   0.00000   0.00000
     24757 MEOH     999      MEOH     H1C      HDA3B    0.080000        1.0080           0   0.00000   0.00000
     24758 MEOH     999      MEOH     LP1A     LPD     -0.230000        0.0000           -1   0.00000   0.00000
     24759 MEOH     999      MEOH     LP1B     LPD     -0.230000        0.0000           -1   0.00000   0.00000
     24760 MEOH     1000     MEOH     C1       CD33B    2.314100       11.6110           0   -1.00000   1.30000
     24761 MEOH     1000     MEOH     DC1      DRUD    -2.454100        0.4000           0   0.00000   0.00000
     24762 MEOH     1000     MEOH     O1       OD31H    2.488300       15.5990           0   -1.02800   1.30000
     24763 MEOH     1000     MEOH     DO1      DRUD    -2.488300        0.4000           0   0.00000   0.00000
     24764 MEOH     1000     MEOH     HO1      HDP1A    0.360000        1.0080           0   0.00000   0.00000
     24765 MEOH     1000     MEOH     HO2      DUMH     0.000000        1.0080           0   0.00000   0.00000
     24766 MEOH     1000     MEOH     H1A      HDA3B    0.080000        1.0080           0   0.00000   0.00000
     24767 MEOH     1000     MEOH     H1B      HDA3B    0.080000        1.0080           0   0.00000   0.00000
     24768 MEOH     1000     MEOH     H1C      HDA3B    0.080000        1.0080           0   0.00000   0.00000
     24769 MEOH     1000     MEOH     LP1A     LPD     -0.230000        0.0000           -1   0.00000   0.00000
     24770 MEOH     1000     MEOH     LP1B     LPD     -0.230000        0.0000           -1   0.00000   0.00000
     24771 MEOH     1001     MEOH     C1       CD33B    2.314100       11.6110           0   -1.00000   1.30000
     24772 MEOH     1001     MEOH     DC1      DRUD    -2.454100        0.4000           0   0.00000   0.00000
     24773 MEOH     1001     MEOH     O1       OD31H    2.488300       15.5990           0   -1.02800   1.30000
     24774 MEOH     1001     MEOH     DO1      DRUD    -2.488300        0.4000           0   0.00000   0.00000
     24775 MEOH     1001     MEOH     HO1      HDP1A    0.360000        1.0080           0   0.00000   0.00000
     24776 MEOH     1001     MEOH     HO2      DUMH     0.000000        1.0080           0   0.00000   0.00000
     24777 MEOH     1001     MEOH     H1A      HDA3B    0.080000        1.0080           0   0.00000   0.00000
     24778 MEOH     1001     MEOH     H1B      HDA3B    0.080000        1.0080           0   0.00000   0.00000
     24779 MEOH     1001     MEOH     H1C      HDA3B    0.080000        1.0080           0   0.00000   0.00000
     24780 MEOH     1001     MEOH     LP1A     LPD     -0.230000        0.0000           -1   0.00000   0.00000
     24781 MEOH     1001     MEOH     LP1B     LPD     -0.230000        0.0000           -1   0.00000   0.00000
     24782 MEOH     1002     MEOH     C1       CD33B    2.314100       11.6110           0   -1.00000   1.30000
     24783 MEOH     1002     MEOH     DC1      DRUD    -2.454100        0.4000           0   0.00000   0.00000
     24784 MEOH     1002     MEOH     O1       OD31H    2.488300       15.5990           0   -1.02800   1.30000
     24785 MEOH     1002     MEOH     DO1      DRUD    -2.488300        0.4000           0   0.00000   0.00000
     24786 MEOH     1002     MEOH     HO1      HDP1A    0.360000        1.0080           0   0.00000   0.00000
     24787 MEOH     1002     MEOH     HO2      DUMH     0.000000        1.0080           0   0.00000   0.00000
     24788 MEOH     1002     MEOH     H1A      HDA3B    0.080000        1.0080           0   0.00000   0.00000
     24789 MEOH     1002     MEOH     H1B      HDA3B    0.080000        1.0080           0   0.00000   0.00000
     24790 MEOH     1002     MEOH     H1C      HDA3B    0.080000        1.0080           0   0.00000   0.00000
     24791 MEOH     1002     MEOH     LP1A     LPD     -0.230000        0.0000           -1   0.00000   0.00000
     24792 MEOH     1002     MEOH     LP1B     LPD     -0.230000        0.0000           -1   0.00000   0.00000
     24793 MEOH     1003     MEOH     C1       CD33B    2.314100       11.6110           0   -1.00000   1.30000
     24794 MEOH     1003     MEOH     DC1      DRUD    -2.454100        0.4000           0   0.00000   0.00000
     24795 MEOH     1003     MEOH     O1       OD31H    2.488300       15.5990           0   -1.02800   1.30000
     24796 MEOH     1003     MEOH     DO1      DRUD    -2.488300        0.4000           0   0.00000   0.00000
     24797 MEOH     1003     MEOH     HO1      HDP1A    0.360000        1.0080           0   0.00000   0.00000
     24798 MEOH     1003     MEOH     HO2      DUMH     0.000000        1.0080           0   0.00000   0.00000
     24799 MEOH     1003     MEOH     H1A      HDA3B    0.080000        1.0080           0   0.00000   0.00000
     24800 MEOH     1003     MEOH     H1B      HDA3B    0.080000        1.0080           0   0.00000   0.00000
     24801 MEOH     1003     MEOH     H1C      HDA3B    0.080000        1.0080           0   0.00000   0.00000
     24802 MEOH     1003     MEOH     LP1A     LPD     -0.230000        0.0000           -1   0.00000   0.00000
     24803 MEOH     1003     MEOH     LP1B     LPD     -0.230000        0.0000           -1   0.00000   0.00000
     24804 MEOH     1004     MEOH     C1       CD33B    2.314100       11.6110           0   -1.00000   1.30000
     24805 MEOH     1004     MEOH     DC1      DRUD    -2.454100        0.4000           0   0.00000   0.00000
     24806 MEOH     1004     MEOH     O1       OD31H    2.488300       15.5990           0   -1.02800   1.30000
     24807 MEOH     1004     MEOH     DO1      DRUD    -2.488300        0.4000           0   0.00000   0.00000
     24808 MEOH     1004     MEOH     HO1      HDP1A    0.360000        1.0080           0   0.00000   0.00000
     24809 MEOH     1004     MEOH     HO2      DUMH     0.000000        1.0080           0   0.00000   0.00000
     24810 MEOH     1004     MEOH     H1A      HDA3B    0.080000        1.0080           0   0.00000   0.00000
     24811 MEOH     1004     MEOH     H1B      HDA3B    0.080000        1.0080           0   0.00000   0.00000
     24812 MEOH     1004     MEOH     H1C      HDA3B    0.080000        1.0080           0   0.00000   0.00000
     24813 MEOH     1004     MEOH     LP1A     LPD     -0.230000        0.0000           -1   0.00000   0.00000
     24814 MEOH     1004     MEOH     LP1B     LPD     -0.230000        0.0000           -1   0.00000   0.00000
     24815 MEOH     1005     MEOH     C1       CD33B    2.314100       11.6110           0   -1.00000   1.30000
     24816 MEOH     1005     MEOH     DC1      DRUD    -2.454100        0.4000           0   0.00000   0.00000
     24817 MEOH     1005     MEOH     O1       OD31H    2.488300       15.5990           0   -1.02800   1.30000
     24818 MEOH     1005     MEOH     DO1      DRUD    -2.488300        0.4000           0   0.00000   0.00000
     24819 MEOH     1005     MEOH     HO1      HDP1A    0.360000        1.0080           0   0.00000   0.00000
     24820 MEOH     1005     MEOH     HO2      DUMH     0.000000        1.0080           0   0.00000   0.00000
     24821 MEOH     1005     MEOH     H1A      HDA3B    0.080000        1.0080           0   0.00000   0.00000
     24822 MEOH     1005     MEOH     H1B      HDA3B    0.080000        1.0080           0   0.00000   0.00000
     24823 MEOH     1005     MEOH     H1C      HDA3B    0.080000        1.0080           0   0.00000   0.00000
     24824 MEOH     1005     MEOH     LP1A     LPD     -0.230000        0.0000           -1   0.00000   0.00000
     24825 MEOH     1005     MEOH     LP1B     LPD     -0.230000        0.0000           -1   0.00000   0.00000
     24826 MEOH     1006     MEOH     C1       CD33B    2.314100       11.6110           0   -1.00000   1.30000
     24827 MEOH     1006     MEOH     DC1      DRUD    -2.454100        0.4000           0   0.00000   0.00000
     24828 MEOH     1006     MEOH     O1       OD31H    2.488300       15.5990           0   -1.02800   1.30000
     24829 MEOH     1006     MEOH     DO1      DRUD    -2.488300        0.4000           0   0.00000   0.00000
     24830 MEOH     1006     MEOH     HO1      HDP1A    0.360000        1.0080           0   0.00000   0.00000
     24831 MEOH     1006     MEOH     HO2      DUMH     0.000000        1.0080           0   0.00000   0.00000
     24832 MEOH     1006     MEOH     H1A      HDA3B    0.080000        1.0080           0   0.00000   0.00000
     24833 MEOH     1006     MEOH     H1B      HDA3B    0.080000        1.0080           0   0.00000   0.00000
     24834 MEOH     1006     MEOH     H1C      HDA3B    0.080000        1.0080           0   0.00000   0.00000
     24835 MEOH     1006     MEOH     LP1A     LPD     -0.230000        0.0000           -1   0.00000   0.00000
     24836 MEOH     1006     MEOH     LP1B     LPD     -0.230000        0.0000           -1   0.00000   0.00000
     24837 MEOH     1007     MEOH     C1       CD33B    2.314100       11.6110           0   -1.00000   1.30000
     24838 MEOH     1007     MEOH     DC1      DRUD    -2.454100        0.4000           0   0.00000   0.00000
     24839 MEOH     1007     MEOH     O1       OD31H    2.488300       15.5990           0   -1.02800   1.30000
     24840 MEOH     1007     MEOH     DO1      DRUD    -2.488300        0.4000           0   0.00000   0.00000
     24841 MEOH     1007     MEOH     HO1      HDP1A    0.360000        1.0080           0   0.00000   0.00000
     24842 MEOH     1007     MEOH     HO2      DUMH     0.000000        1.0080           0   0.00000   0.00000
     24843 MEOH     1007     MEOH     H1A      HDA3B    0.080000        1.0080           0   0.00000   0.00000
     24844 MEOH     1007     MEOH     H1B      HDA3B    0.080000        1.0080           0   0.00000   0.00000
     24845 MEOH     1007     MEOH     H1C      HDA3B    0.080000        1.0080           0   0.00000   0.00000
     24846 MEOH     1007     MEOH     LP1A     LPD     -0.230000        0.0000           -1   0.00000   0.00000
     24847 MEOH     1007     MEOH     LP1B     LPD     -0.230000        0.0000           -1   0.00000   0.00000
     24848 MEOH     1008     MEOH     C1       CD33B    2.314100       11.6110           0   -1.00000   1.30000
     24849 MEOH     1008     MEOH     DC1      DRUD    -2.454100        0.4000           0   0.00000   0.00000
     24850 MEOH     1008     MEOH     O1       OD31H    2.488300       15.5990           0   -1.02800   1.30000
     24851 MEOH     1008     MEOH     DO1      DRUD    -2.488300        0.4000           0   0.00000   0.00000
     24852 MEOH     1008     MEOH     HO1      HDP1A    0.360000        1.0080           0   0.00000   0.00000
     24853 MEOH     1008     MEOH     HO2      DUMH     0.000000        1.0080           0   0.00000   0.00000
     24854 MEOH     1008     MEOH     H1A      HDA3B    0.080000        1.0080           0   0.00000   0.00000
     24855 MEOH     1008     MEOH     H1B      HDA3B    0.080000        1.0080           0   0.00000   0.00000
     24856 MEOH     1008     MEOH     H1C      HDA3B    0.080000        1.0080           0   0.00000   0.00000
     24857 MEOH     1008     MEOH     LP1A     LPD     -0.230000        0.0000           -1   0.00000   0.00000
     24858 MEOH     1008     MEOH     LP1B     LPD     -0.230000        0.0000           -1   0.00000   0.00000
     24859 MEOH     1009     MEOH     C1       CD33B    2.314100       11.6110           0   -1.00000   1.30000
     24860 MEOH     1009     MEOH     DC1      DRUD    -2.454100        0.4000           0   0.00000   0.00000
     24861 MEOH     1009     MEOH     O1       OD31H    2.488300       15.5990           0   -1.02800   1.30000
     24862 MEOH     1009     MEOH     DO1      DRUD    -2.488300        0.4000           0   0.00000   0.00000
     24863 MEOH     1009     MEOH     HO1      HDP1A    0.360000        1.0080           0   0.00000   0.00000
     24864 MEOH     1009     MEOH     HO2      DUMH     0.000000        1.0080           0   0.00000   0.00000
     24865 MEOH     1009     MEOH     H1A      HDA3B    0.080000        1.0080           0   0.00000   0.00000
     24866 MEOH     1009     MEOH     H1B      HDA3B    0.080000        1.0080           0   0.00000   0.00000
     24867 MEOH     1009     MEOH     H1C      HDA3B    0.080000        1.0080           0   0.00000   0.00000
     24868 MEOH     1009     MEOH     LP1A     LPD     -0.230000        0.0000           -1   0.00000   0.00000
     24869 MEOH     1009     MEOH     LP1B     LPD     -0.230000        0.0000           -1   0.00000   0.00000
     24870 MEOH     1010     MEOH     C1       CD33B    2.314100       11.6110           0   -1.00000   1.30000
     24871 MEOH     1010     MEOH     DC1      DRUD    -2.454100        0.4000           0   0.00000   0.00000
     24872 MEOH     1010     MEOH     O1       OD31H    2.488300       15.5990           0   -1.02800   1.30000
     24873 MEOH     1010     MEOH     DO1      DRUD    -2.488300        0.4000           0   0.00000   0.00000
     24874 MEOH     1010     MEOH     HO1      HDP1A    0.360000        1.0080           0   0.00000   0.00000
     24875 MEOH     1010     MEOH     HO2      DUMH     0.000000        1.0080           0   0.00000   0.00000
     24876 MEOH     1010     MEOH     H1A      HDA3B    0.080000        1.0080           0   0.00000   0.00000
     24877 MEOH     1010     MEOH     H1B      HDA3B    0.080000        1.0080           0   0.00000   0.00000
     24878 MEOH     1010     MEOH     H1C      HDA3B    0.080000        1.0080           0   0.00000   0.00000
     24879 MEOH     1010     MEOH     LP1A     LPD     -0.230000        0.0000           -1   0.00000   0.00000
     24880 MEOH     1010     MEOH     LP1B     LPD     -0.230000        0.0000           -1   0.00000   0.00000
     24881 MEOH     1011     MEOH     C1       CD33B    2.314100       11.6110           0   -1.00000   1.30000
     24882 MEOH     1011     MEOH     DC1      DRUD    -2.454100        0.4000           0   0.00000   0.00000
     24883 MEOH     1011     MEOH     O1       OD31H    2.488300       15.5990           0   -1.02800   1.30000
     24884 MEOH     1011     MEOH     DO1      DRUD    -2.488300        0.4000           0   0.00000   0.00000
     24885 MEOH     1011     MEOH     HO1      HDP1A    0.360000        1.0080           0   0.00000   0.00000
     24886 MEOH     1011     MEOH     HO2      DUMH     0.000000        1.0080           0   0.00000   0.00000
     24887 MEOH     1011     MEOH     H1A      HDA3B    0.080000        1.0080           0   0.00000   0.00000
     24888 MEOH     1011     MEOH     H1B      HDA3B    0.080000        1.0080           0   0.00000   0.00000
     24889 MEOH     1011     MEOH     H1C      HDA3B    0.080000        1.0080           0   0.00000   0.00000
     24890 MEOH     1011     MEOH     LP1A     LPD     -0.230000        0.0000           -1   0.00000   0.00000
     24891 MEOH     1011     MEOH     LP1B     LPD     -0.230000        0.0000           -1   0.00000   0.00000
     24892 MEOH     1012     MEOH     C1       CD33B    2.314100       11.6110           0   -1.00000   1.30000
     24893 MEOH     1012     MEOH     DC1      DRUD    -2.454100        0.4000           0   0.00000   0.00000
     24894 MEOH     1012     MEOH     O1       OD31H    2.488300       15.5990           0   -1.02800   1.30000
     24895 MEOH     1012     MEOH     DO1      DRUD    -2.488300        0.4000           0   0.00000   0.00000
     24896 MEOH     1012     MEOH     HO1      HDP1A    0.360000        1.0080           0   0.00000   0.00000
     24897 MEOH     1012     MEOH     HO2      DUMH     0.000000        1.0080           0   0.00000   0.00000
     24898 MEOH     1012     MEOH     H1A      HDA3B    0.080000        1.0080           0   0.00000   0.00000
     24899 MEOH     1012     MEOH     H1B      HDA3B    0.080000        1.0080           0   0.00000   0.00000
     24900 MEOH     1012     MEOH     H1C      HDA3B    0.080000        1.0080           0   0.00000   0.00000
     24901 MEOH     1012     MEOH     LP1A     LPD     -0.230000        0.0000           -1   0.00000   0.00000
     24902 MEOH     1012     MEOH     LP1B     LPD     -0.230000        0.0000           -1   0.00000   0.00000
     24903 MEOH     1013     MEOH     C1       CD33B    2.314100       11.6110           0   -1.00000   1.30000
     24904 MEOH     1013     MEOH     DC1      DRUD    -2.454100        0.4000           0   0.00000   0.00000
     24905 MEOH     1013     MEOH     O1       OD31H    2.488300       15.5990           0   -1.02800   1.30000
     24906 MEOH     1013     MEOH     DO1      DRUD    -2.488300        0.4000           0   0.00000   0.00000
     24907 MEOH     1013     MEOH     HO1      HDP1A    0.360000        1.0080           0   0.00000   0.00000
     24908 MEOH     1013     MEOH     HO2      DUMH     0.000000        1.0080           0   0.00000   0.00000
     24909 MEOH     1013     MEOH     H1A      HDA3B    0.080000        1.0080           0   0.00000   0.00000
     24910 MEOH     1013     MEOH     H1B      HDA3B    0.080000        1.0080           0   0.00000   0.00000
     24911 MEOH     1013     MEOH     H1C      HDA3B    0.080000        1.0080           0   0.00000   0.00000
     24912 MEOH     1013     MEOH     LP1A     LPD     -0.230000        0.0000           -1   0.00000   0.00000
     24913 MEOH     1013     MEOH     LP1B     LPD     -0.230000        0.0000           -1   0.00000   0.00000
     24914 MEOH     1014     MEOH     C1       CD33B    2.314100       11.6110           0   -1.00000   1.30000
     24915 MEOH     1014     MEOH     DC1      DRUD    -2.454100        0.4000           0   0.00000   0.00000
     24916 MEOH     1014     MEOH     O1       OD31H    2.488300       15.5990           0   -1.02800   1.30000
     24917 MEOH     1014     MEOH     DO1      DRUD    -2.488300        0.4000           0   0.00000   0.00000
     24918 MEOH     1014     MEOH     HO1      HDP1A    0.360000        1.0080           0   0.00000   0.00000
     24919 MEOH     1014     MEOH     HO2      DUMH     0.000000        1.0080           0   0.00000   0.00000
     24920 MEOH     1014     MEOH     H1A      HDA3B    0.080000        1.0080           0   0.00000   0.00000
     24921 MEOH     1014     MEOH     H1B      HDA3B    0.080000        1.0080           0   0.00000   0.00000
     24922 MEOH     1014     MEOH     H1C      HDA3B    0.080000        1.0080           0   0.00000   0.00000
     24923 MEOH     1014     MEOH     LP1A     LPD     -0.230000        0.0000           -1   0.00000   0.00000
     24924 MEOH     1014     MEOH     LP1B     LPD     -0.230000        0.0000           -1   0.00000   0.00000
     24925 MEOH     1015     MEOH     C1       CD33B    2.314100       11.6110           0   -1.00000   1.30000
     24926 MEOH     1015     MEOH     DC1      DRUD    -2.454100        0.4000           0   0.00000   0.00000
     24927 MEOH     1015     MEOH     O1       OD31H    2.488300       15.5990           0   -1.02800   1.30000
     24928 MEOH     1015     MEOH     DO1      DRUD    -2.488300        0.4000           0   0.00000   0.00000
     24929 MEOH     1015     MEOH     HO1      HDP1A    0.360000        1.0080           0   0.00000   0.00000
     24930 MEOH     1015     MEOH     HO2      DUMH     0.000000        1.0080           0   0.00000   0.00000
     24931 MEOH     1015     MEOH     H1A      HDA3B    0.080000        1.0080           0   0.00000   0.00000
     24932 MEOH     1015     MEOH     H1B      HDA3B    0.080000        1.0080           0   0.00000   0.00000
     24933 MEOH     1015     MEOH     H1C      HDA3B    0.080000        1.0080           0   0.00000   0.00000
     24934 MEOH     1015     MEOH     LP1A     LPD     -0.230000        0.0000           -1   0.00000   0.00000
     24935 MEOH     1015     MEOH     LP1B     LPD     -0.230000        0.0000           -1   0.00000   0.00000
     24936 MEOH     1016     MEOH     C1       CD33B    2.314100       11.6110           0   -1.00000   1.30000
     24937 MEOH     1016     MEOH     DC1      DRUD    -2.454100        0.4000           0   0.00000   0.00000
     24938 MEOH     1016     MEOH     O1       OD31H    2.488300       15.5990           0   -1.02800   1.30000
     24939 MEOH     1016     MEOH     DO1      DRUD    -2.488300        0.4000           0   0.00000   0.00000
     24940 MEOH     1016     MEOH     HO1      HDP1A    0.360000        1.0080           0   0.00000   0.00000
     24941 MEOH     1016     MEOH     HO2      DUMH     0.000000        1.0080           0   0.00000   0.00000
     24942 MEOH     1016     MEOH     H1A      HDA3B    0.080000        1.0080           0   0.00000   0.00000
     24943 MEOH     1016     MEOH     H1B      HDA3B    0.080000        1.0080           0   0.00000   0.00000
     24944 MEOH     1016     MEOH     H1C      HDA3B    0.080000        1.0080           0   0.00000   0.00000
     24945 MEOH     1016     MEOH     LP1A     LPD     -0.230000        0.0000           -1   0.00000   0.00000
     24946 MEOH     1016     MEOH     LP1B     LPD     -0.230000        0.0000           -1   0.00000   0.00000
     24947 MEOH     1017     MEOH     C1       CD33B    2.314100       11.6110           0   -1.00000   1.30000
     24948 MEOH     1017     MEOH     DC1      DRUD    -2.454100        0.4000           0   0.00000   0.00000
     24949 MEOH     1017     MEOH     O1       OD31H    2.488300       15.5990           0   -1.02800   1.30000
     24950 MEOH     1017     MEOH     DO1      DRUD    -2.488300        0.4000           0   0.00000   0.00000
     24951 MEOH     1017     MEOH     HO1      HDP1A    0.360000        1.0080           0   0.00000   0.00000
     24952 MEOH     1017     MEOH     HO2      DUMH     0.000000        1.0080           0   0.00000   0.00000
     24953 MEOH     1017     MEOH     H1A      HDA3B    0.080000        1.0080           0   0.00000   0.00000
     24954 MEOH     1017     MEOH     H1B      HDA3B    0.080000        1.0080           0   0.00000   0.00000
     24955 MEOH     1017     MEOH     H1C      HDA3B    0.080000        1.0080           0   0.00000   0.00000
     24956 MEOH     1017     MEOH     LP1A     LPD     -0.230000        0.0000           -1   0.00000   0.00000
     24957 MEOH     1017     MEOH     LP1B     LPD     -0.230000        0.0000           -1   0.00000   0.00000
     24958 MEOH     1018     MEOH     C1       CD33B    2.314100       11.6110           0   -1.00000   1.30000
     24959 MEOH     1018     MEOH     DC1      DRUD    -2.454100        0.4000           0   0.00000   0.00000
     24960 MEOH     1018     MEOH     O1       OD31H    2.488300       15.5990           0   -1.02800   1.30000
     24961 MEOH     1018     MEOH     DO1      DRUD    -2.488300        0.4000           0   0.00000   0.00000
     24962 MEOH     1018     MEOH     HO1      HDP1A    0.360000        1.0080           0   0.00000   0.00000
     24963 MEOH     1018     MEOH     HO2      DUMH     0.000000        1.0080           0   0.00000   0.00000
     24964 MEOH     1018     MEOH     H1A      HDA3B    0.080000        1.0080           0   0.00000   0.00000
     24965 MEOH     1018     MEOH     H1B      HDA3B    0.080000        1.0080           0   0.00000   0.00000
     24966 MEOH     1018     MEOH     H1C      HDA3B    0.080000        1.0080           0   0.00000   0.00000
     24967 MEOH     1018     MEOH     LP1A     LPD     -0.230000        0.0000           -1   0.00000   0.00000
     24968 MEOH     1018     MEOH     LP1B     LPD     -0.230000        0.0000           -1   0.00000   0.00000
     24969 MEOH     1019     MEOH     C1       CD33B    2.314100       11.6110           0   -1.00000   1.30000
     24970 MEOH     1019     MEOH     DC1      DRUD    -2.454100        0.4000           0   0.00000   0.00000
     24971 MEOH     1019     MEOH     O1       OD31H    2.488300       15.5990           0   -1.02800   1.30000
     24972 MEOH     1019     MEOH     DO1      DRUD    -2.488300        0.4000           0   0.00000   0.00000
     24973 MEOH     1019     MEOH     HO1      HDP1A    0.360000        1.0080           0   0.00000   0.00000
     24974 MEOH     1019     MEOH     HO2      DUMH     0.000000        1.0080           0   0.00000   0.00000
     24975 MEOH     1019     MEOH     H1A      HDA3B    0.080000        1.0080           0   0.00000   0.00000
     24976 MEOH     1019     MEOH     H1B      HDA3B    0.080000        1.0080           0   0.00000   0.00000
     24977 MEOH     1019     MEOH     H1C      HDA3B    0.080000        1.0080           0   0.00000   0.00000
     24978 MEOH     1019     MEOH     LP1A     LPD     -0.230000        0.0000           -1   0.00000   0.00000
     24979 MEOH     1019     MEOH     LP1B     LPD     -0.230000        0.0000           -1   0.00000   0.00000
     24980 MEOH     1020     MEOH     C1       CD33B    2.314100       11.6110           0   -1.00000   1.30000
     24981 MEOH     1020     MEOH     DC1      DRUD    -2.454100        0.4000           0   0.00000   0.00000
     24982 MEOH     1020     MEOH     O1       OD31H    2.488300       15.5990           0   -1.02800   1.30000
     24983 MEOH     1020     MEOH     DO1      DRUD    -2.488300        0.4000           0   0.00000   0.00000
     24984 MEOH     1020     MEOH     HO1      HDP1A    0.360000        1.0080           0   0.00000   0.00000
     24985 MEOH     1020     MEOH     HO2      DUMH     0.000000        1.0080           0   0.00000   0.00000
     24986 MEOH     1020     MEOH     H1A      HDA3B    0.080000        1.0080           0   0.00000   0.00000
     24987 MEOH     1020     MEOH     H1B      HDA3B    0.080000        1.0080           0   0.00000   0.00000
     24988 MEOH     1020     MEOH     H1C      HDA3B    0.080000        1.0080           0   0.00000   0.00000
     24989 MEOH     1020     MEOH     LP1A     LPD     -0.230000        0.0000           -1   0.00000   0.00000
     24990 MEOH     1020     MEOH     LP1B     LPD     -0.230000        0.0000           -1   0.00000   0.00000
     24991 MEOH     1021     MEOH     C1       CD33B    2.314100       11.6110           0   -1.00000   1.30000
     24992 MEOH     1021     MEOH     DC1      DRUD    -2.454100        0.4000           0   0.00000   0.00000
     24993 MEOH     1021     MEOH     O1       OD31H    2.488300       15.5990           0   -1.02800   1.30000
     24994 MEOH     1021     MEOH     DO1      DRUD    -2.488300        0.4000           0   0.00000   0.00000
     24995 MEOH     1021     MEOH     HO1      HDP1A    0.360000        1.0080           0   0.00000   0.00000
     24996 MEOH     1021     MEOH     HO2      DUMH     0.000000        1.0080           0   0.00000   0.00000
     24997 MEOH     1021     MEOH     H1A      HDA3B    0.080000        1.0080           0   0.00000   0.00000
     24998 MEOH     1021     MEOH     H1B      HDA3B    0.080000        1.0080           0   0.00000   0.00000
     24999 MEOH     1021     MEOH     H1C      HDA3B    0.080000        1.0080           0   0.00000   0.00000
     25000 MEOH     1021     MEOH     LP1A     LPD     -0.230000        0.0000           -1   0.00000   0.00000
     25001 MEOH     1021     MEOH     LP1B     LPD     -0.230000        0.0000           -1   0.00000   0.00000
     25002 MEOH     1022     MEOH     C1       CD33B    2.314100       11.6110           0   -1.00000   1.30000
     25003 MEOH     1022     MEOH     DC1      DRUD    -2.454100        0.4000           0   0.00000   0.00000
     25004 MEOH     1022     MEOH     O1       OD31H    2.488300       15.5990           0   -1.02800   1.30000
     25005 MEOH     1022     MEOH     DO1      DRUD    -2.488300        0.4000           0   0.00000   0.00000
     25006 MEOH     1022     MEOH     HO1      HDP1A    0.360000        1.0080           0   0.00000   0.00000
     25007 MEOH     1022     MEOH     HO2      DUMH     0.000000        1.0080           0   0.00000   0.00000
     25008 MEOH     1022     MEOH     H1A      HDA3B    0.080000        1.0080           0   0.00000   0.00000
     25009 MEOH     1022     MEOH     H1B      HDA3B    0.080000        1.0080           0   0.00000   0.00000
     25010 MEOH     1022     MEOH     H1C      HDA3B    0.080000        1.0080           0   0.00000   0.00000
     25011 MEOH     1022     MEOH     LP1A     LPD     -0.230000        0.0000           -1   0.00000   0.00000
     25012 MEOH     1022     MEOH     LP1B     LPD     -0.230000        0.0000           -1   0.00000   0.00000
     25013 MEOH     1023     MEOH     C1       CD33B    2.314100       11.6110           0   -1.00000   1.30000
     25014 MEOH     1023     MEOH     DC1      DRUD    -2.454100        0.4000           0   0.00000   0.00000
     25015 MEOH     1023     MEOH     O1       OD31H    2.488300       15.5990           0   -1.02800   1.30000
     25016 MEOH     1023     MEOH     DO1      DRUD    -2.488300        0.4000           0   0.00000   0.00000
     25017 MEOH     1023     MEOH     HO1      HDP1A    0.360000        1.0080           0   0.00000   0.00000
     25018 MEOH     1023     MEOH     HO2      DUMH     0.000000        1.0080           0   0.00000   0.00000
     25019 MEOH     1023     MEOH     H1A      HDA3B    0.080000        1.0080           0   0.00000   0.00000
     25020 MEOH     1023     MEOH     H1B      HDA3B    0.080000        1.0080           0   0.00000   0.00000
     25021 MEOH     1023     MEOH     H1C      HDA3B    0.080000        1.0080           0   0.00000   0.00000
     25022 MEOH     1023     MEOH     LP1A     LPD     -0.230000        0.0000           -1   0.00000   0.00000
     25023 MEOH     1023     MEOH     LP1B     LPD     -0.230000        0.0000           -1   0.00000   0.00000
     25024 MEOH     1024     MEOH     C1       CD33B    2.314100       11.6110           0   -1.00000   1.30000
     25025 MEOH     1024     MEOH     DC1      DRUD    -2.454100        0.4000           0   0.00000   0.00000
     25026 MEOH     1024     MEOH     O1       OD31H    2.488300       15.5990           0   -1.02800   1.30000
     25027 MEOH     1024     MEOH     DO1      DRUD    -2.488300        0.4000           0   0.00000   0.00000
     25028 MEOH     1024     MEOH     HO1      HDP1A    0.360000        1.0080           0   0.00000   0.00000
     25029 MEOH     1024     MEOH     HO2      DUMH     0.000000        1.0080           0   0.00000   0.00000
     25030 MEOH     1024     MEOH     H1A      HDA3B    0.080000        1.0080           0   0.00000   0.00000
     25031 MEOH     1024     MEOH     H1B      HDA3B    0.080000        1.0080           0   0.00000   0.00000
     25032 MEOH     1024     MEOH     H1C      HDA3B    0.080000        1.0080           0   0.00000   0.00000
     25033 MEOH     1024     MEOH     LP1A     LPD     -0.230000        0.0000           -1   0.00000   0.00000
     25034 MEOH     1024     MEOH     LP1B     LPD     -0.230000        0.0000           -1   0.00000   0.00000
     25035 MEOH     1025     MEOH     C1       CD33B    2.314100       11.6110           0   -1.00000   1.30000
     25036 MEOH     1025     MEOH     DC1      DRUD    -2.454100        0.4000           0   0.00000   0.00000
     25037 MEOH     1025     MEOH     O1       OD31H    2.488300       15.5990           0   -1.02800   1.30000
     25038 MEOH     1025     MEOH     DO1      DRUD    -2.488300        0.4000           0   0.00000   0.00000
     25039 MEOH     1025     MEOH     HO1      HDP1A    0.360000        1.0080           0   0.00000   0.00000
     25040 MEOH     1025     MEOH     HO2      DUMH     0.000000        1.0080           0   0.00000   0.00000
     25041 MEOH     1025     MEOH     H1A      HDA3B    0.080000        1.0080           0   0.00000   0.00000
     25042 MEOH     1025     MEOH     H1B      HDA3B    0.080000        1.0080           0   0.00000   0.00000
     25043 MEOH     1025     MEOH     H1C      HDA3B    0.080000        1.0080           0   0.00000   0.00000
     25044 MEOH     1025     MEOH     LP1A     LPD     -0.230000        0.0000           -1   0.00000   0.00000
     25045 MEOH     1025     MEOH     LP1B     LPD     -0.230000        0.0000           -1   0.00000   0.00000
     25046 MEOH     1026     MEOH     C1       CD33B    2.314100       11.6110           0   -1.00000   1.30000
     25047 MEOH     1026     MEOH     DC1      DRUD    -2.454100        0.4000           0   0.00000   0.00000
     25048 MEOH     1026     MEOH     O1       OD31H    2.488300       15.5990           0   -1.02800   1.30000
     25049 MEOH     1026     MEOH     DO1      DRUD    -2.488300        0.4000           0   0.00000   0.00000
     25050 MEOH     1026     MEOH     HO1      HDP1A    0.360000        1.0080           0   0.00000   0.00000
     25051 MEOH     1026     MEOH     HO2      DUMH     0.000000        1.0080           0   0.00000   0.00000
     25052 MEOH     1026     MEOH     H1A      HDA3B    0.080000        1.0080           0   0.00000   0.00000
     25053 MEOH     1026     MEOH     H1B      HDA3B    0.080000        1.0080           0   0.00000   0.00000
     25054 MEOH     1026     MEOH     H1C      HDA3B    0.080000        1.0080           0   0.00000   0.00000
     25055 MEOH     1026     MEOH     LP1A     LPD     -0.230000        0.0000           -1   0.00000   0.00000
     25056 MEOH     1026     MEOH     LP1B     LPD     -0.230000        0.0000           -1   0.00000   0.00000
     25057 MEOH     1027     MEOH     C1       CD33B    2.314100       11.6110           0   -1.00000   1.30000
     25058 MEOH     1027     MEOH     DC1      DRUD    -2.454100        0.4000           0   0.00000   0.00000
     25059 MEOH     1027     MEOH     O1       OD31H    2.488300       15.5990           0   -1.02800   1.30000
     25060 MEOH     1027     MEOH     DO1      DRUD    -2.488300        0.4000           0   0.00000   0.00000
     25061 MEOH     1027     MEOH     HO1      HDP1A    0.360000        1.0080           0   0.00000   0.00000
     25062 MEOH     1027     MEOH     HO2      DUMH     0.000000        1.0080           0   0.00000   0.00000
     25063 MEOH     1027     MEOH     H1A      HDA3B    0.080000        1.0080           0   0.00000   0.00000
     25064 MEOH     1027     MEOH     H1B      HDA3B    0.080000        1.0080           0   0.00000   0.00000
     25065 MEOH     1027     MEOH     H1C      HDA3B    0.080000        1.0080           0   0.00000   0.00000
     25066 MEOH     1027     MEOH     LP1A     LPD     -0.230000        0.0000           -1   0.00000   0.00000
     25067 MEOH     1027     MEOH     LP1B     LPD     -0.230000        0.0000           -1   0.00000   0.00000
     25068 MEOH     1028     MEOH     C1       CD33B    2.314100       11.6110           0   -1.00000   1.30000
     25069 MEOH     1028     MEOH     DC1      DRUD    -2.454100        0.4000           0   0.00000   0.00000
     25070 MEOH     1028     MEOH     O1       OD31H    2.488300       15.5990           0   -1.02800   1.30000
     25071 MEOH     1028     MEOH     DO1      DRUD    -2.488300        0.4000           0   0.00000   0.00000
     25072 MEOH     1028     MEOH     HO1      HDP1A    0.360000        1.0080           0   0.00000   0.00000
     25073 MEOH     1028     MEOH     HO2      DUMH     0.000000        1.0080           0   0.00000   0.00000
     25074 MEOH     1028     MEOH     H1A      HDA3B    0.080000        1.0080           0   0.00000   0.00000
     25075 MEOH     1028     MEOH     H1B      HDA3B    0.080000        1.0080           0   0.00000   0.00000
     25076 MEOH     1028     MEOH     H1C      HDA3B    0.080000        1.0080           0   0.00000   0.00000
     25077 MEOH     1028     MEOH     LP1A     LPD     -0.230000        0.0000           -1   0.00000   0.00000
     25078 MEOH     1028     MEOH     LP1B     LPD     -0.230000        0.0000           -1   0.00000   0.00000
     25079 MEOH     1029     MEOH     C1       CD33B    2.314100       11.6110           0   -1.00000   1.30000
     25080 MEOH     1029     MEOH     DC1      DRUD    -2.454100        0.4000           0   0.00000   0.00000
     25081 MEOH     1029     MEOH     O1       OD31H    2.488300       15.5990           0   -1.02800   1.30000
     25082 MEOH     1029     MEOH     DO1      DRUD    -2.488300        0.4000           0   0.00000   0.00000
     25083 MEOH     1029     MEOH     HO1      HDP1A    0.360000        1.0080           0   0.00000   0.00000
     25084 MEOH     1029     MEOH     HO2      DUMH     0.000000        1.0080           0   0.00000   0.00000
     25085 MEOH     1029     MEOH     H1A      HDA3B    0.080000        1.0080           0   0.00000   0.00000
     25086 MEOH     1029     MEOH     H1B      HDA3B    0.080000        1.0080           0   0.00000   0.00000
     25087 MEOH     1029     MEOH     H1C      HDA3B    0.080000        1.0080           0   0.00000   0.00000
     25088 MEOH     1029     MEOH     LP1A     LPD     -0.230000        0.0000           -1   0.00000   0.00000
     25089 MEOH     1029     MEOH     LP1B     LPD     -0.230000        0.0000           -1   0.00000   0.00000
     25090 MEOH     1030     MEOH     C1       CD33B    2.314100       11.6110           0   -1.00000   1.30000
     25091 MEOH     1030     MEOH     DC1      DRUD    -2.454100        0.4000           0   0.00000   0.00000
     25092 MEOH     1030     MEOH     O1       OD31H    2.488300       15.5990           0   -1.02800   1.30000
     25093 MEOH     1030     MEOH     DO1      DRUD    -2.488300        0.4000           0   0.00000   0.00000
     25094 MEOH     1030     MEOH     HO1      HDP1A    0.360000        1.0080           0   0.00000   0.00000
     25095 MEOH     1030     MEOH     HO2      DUMH     0.000000        1.0080           0   0.00000   0.00000
     25096 MEOH     1030     MEOH     H1A      HDA3B    0.080000        1.0080           0   0.00000   0.00000
     25097 MEOH     1030     MEOH     H1B      HDA3B    0.080000        1.0080           0   0.00000   0.00000
     25098 MEOH     1030     MEOH     H1C      HDA3B    0.080000        1.0080           0   0.00000   0.00000
     25099 MEOH     1030     MEOH     LP1A     LPD     -0.230000        0.0000           -1   0.00000   0.00000
     25100 MEOH     1030     MEOH     LP1B     LPD     -0.230000        0.0000           -1   0.00000   0.00000
     25101 MEOH     1031     MEOH     C1       CD33B    2.314100       11.6110           0   -1.00000   1.30000
     25102 MEOH     1031     MEOH     DC1      DRUD    -2.454100        0.4000           0   0.00000   0.00000
     25103 MEOH     1031     MEOH     O1       OD31H    2.488300       15.5990           0   -1.02800   1.30000
     25104 MEOH     1031     MEOH     DO1      DRUD    -2.488300        0.4000           0   0.00000   0.00000
     25105 MEOH     1031     MEOH     HO1      HDP1A    0.360000        1.0080           0   0.00000   0.00000
     25106 MEOH     1031     MEOH     HO2      DUMH     0.000000        1.0080           0   0.00000   0.00000
     25107 MEOH     1031     MEOH     H1A      HDA3B    0.080000        1.0080           0   0.00000   0.00000
     25108 MEOH     1031     MEOH     H1B      HDA3B    0.080000        1.0080           0   0.00000   0.00000
     25109 MEOH     1031     MEOH     H1C      HDA3B    0.080000        1.0080           0   0.00000   0.00000
     25110 MEOH     1031     MEOH     LP1A     LPD     -0.230000        0.0000           -1   0.00000   0.00000
     25111 MEOH     1031     MEOH     LP1B     LPD     -0.230000        0.0000           -1   0.00000   0.00000
     25112 MEOH     1032     MEOH     C1       CD33B    2.314100       11.6110           0   -1.00000   1.30000
     25113 MEOH     1032     MEOH     DC1      DRUD    -2.454100        0.4000           0   0.00000   0.00000
     25114 MEOH     1032     MEOH     O1       OD31H    2.488300       15.5990           0   -1.02800   1.30000
     25115 MEOH     1032     MEOH     DO1      DRUD    -2.488300        0.4000           0   0.00000   0.00000
     25116 MEOH     1032     MEOH     HO1      HDP1A    0.360000        1.0080           0   0.00000   0.00000
     25117 MEOH     1032     MEOH     HO2      DUMH     0.000000        1.0080           0   0.00000   0.00000
     25118 MEOH     1032     MEOH     H1A      HDA3B    0.080000        1.0080           0   0.00000   0.00000
     25119 MEOH     1032     MEOH     H1B      HDA3B    0.080000        1.0080           0   0.00000   0.00000
     25120 MEOH     1032     MEOH     H1C      HDA3B    0.080000        1.0080           0   0.00000   0.00000
     25121 MEOH     1032     MEOH     LP1A     LPD     -0.230000        0.0000           -1   0.00000   0.00000
     25122 MEOH     1032     MEOH     LP1B     LPD     -0.230000        0.0000           -1   0.00000   0.00000
     25123 MEOH     1033     MEOH     C1       CD33B    2.314100       11.6110           0   -1.00000   1.30000
     25124 MEOH     1033     MEOH     DC1      DRUD    -2.454100        0.4000           0   0.00000   0.00000
     25125 MEOH     1033     MEOH     O1       OD31H    2.488300       15.5990           0   -1.02800   1.30000
     25126 MEOH     1033     MEOH     DO1      DRUD    -2.488300        0.4000           0   0.00000   0.00000
     25127 MEOH     1033     MEOH     HO1      HDP1A    0.360000        1.0080           0   0.00000   0.00000
     25128 MEOH     1033     MEOH     HO2      DUMH     0.000000        1.0080           0   0.00000   0.00000
     25129 MEOH     1033     MEOH     H1A      HDA3B    0.080000        1.0080           0   0.00000   0.00000
     25130 MEOH     1033     MEOH     H1B      HDA3B    0.080000        1.0080           0   0.00000   0.00000
     25131 MEOH     1033     MEOH     H1C      HDA3B    0.080000        1.0080           0   0.00000   0.00000
     25132 MEOH     1033     MEOH     LP1A     LPD     -0.230000        0.0000           -1   0.00000   0.00000
     25133 MEOH     1033     MEOH     LP1B     LPD     -0.230000        0.0000           -1   0.00000   0.00000
     25134 MEOH     1034     MEOH     C1       CD33B    2.314100       11.6110           0   -1.00000   1.30000
     25135 MEOH     1034     MEOH     DC1      DRUD    -2.454100        0.4000           0   0.00000   0.00000
     25136 MEOH     1034     MEOH     O1       OD31H    2.488300       15.5990           0   -1.02800   1.30000
     25137 MEOH     1034     MEOH     DO1      DRUD    -2.488300        0.4000           0   0.00000   0.00000
     25138 MEOH     1034     MEOH     HO1      HDP1A    0.360000        1.0080           0   0.00000   0.00000
     25139 MEOH     1034     MEOH     HO2      DUMH     0.000000        1.0080           0   0.00000   0.00000
     25140 MEOH     1034     MEOH     H1A      HDA3B    0.080000        1.0080           0   0.00000   0.00000
     25141 MEOH     1034     MEOH     H1B      HDA3B    0.080000        1.0080           0   0.00000   0.00000
     25142 MEOH     1034     MEOH     H1C      HDA3B    0.080000        1.0080           0   0.00000   0.00000
     25143 MEOH     1034     MEOH     LP1A     LPD     -0.230000        0.0000           -1   0.00000   0.00000
     25144 MEOH     1034     MEOH     LP1B     LPD     -0.230000        0.0000           -1   0.00000   0.00000
     25145 MEOH     1035     MEOH     C1       CD33B    2.314100       11.6110           0   -1.00000   1.30000
     25146 MEOH     1035     MEOH     DC1      DRUD    -2.454100        0.4000           0   0.00000   0.00000
     25147 MEOH     1035     MEOH     O1       OD31H    2.488300       15.5990           0   -1.02800   1.30000
     25148 MEOH     1035     MEOH     DO1      DRUD    -2.488300        0.4000           0   0.00000   0.00000
     25149 MEOH     1035     MEOH     HO1      HDP1A    0.360000        1.0080           0   0.00000   0.00000
     25150 MEOH     1035     MEOH     HO2      DUMH     0.000000        1.0080           0   0.00000   0.00000
     25151 MEOH     1035     MEOH     H1A      HDA3B    0.080000        1.0080           0   0.00000   0.00000
     25152 MEOH     1035     MEOH     H1B      HDA3B    0.080000        1.0080           0   0.00000   0.00000
     25153 MEOH     1035     MEOH     H1C      HDA3B    0.080000        1.0080           0   0.00000   0.00000
     25154 MEOH     1035     MEOH     LP1A     LPD     -0.230000        0.0000           -1   0.00000   0.00000
     25155 MEOH     1035     MEOH     LP1B     LPD     -0.230000        0.0000           -1   0.00000   0.00000
     25156 MEOH     1036     MEOH     C1       CD33B    2.314100       11.6110           0   -1.00000   1.30000
     25157 MEOH     1036     MEOH     DC1      DRUD    -2.454100        0.4000           0   0.00000   0.00000
     25158 MEOH     1036     MEOH     O1       OD31H    2.488300       15.5990           0   -1.02800   1.30000
     25159 MEOH     1036     MEOH     DO1      DRUD    -2.488300        0.4000           0   0.00000   0.00000
     25160 MEOH     1036     MEOH     HO1      HDP1A    0.360000        1.0080           0   0.00000   0.00000
     25161 MEOH     1036     MEOH     HO2      DUMH     0.000000        1.0080           0   0.00000   0.00000
     25162 MEOH     1036     MEOH     H1A      HDA3B    0.080000        1.0080           0   0.00000   0.00000
     25163 MEOH     1036     MEOH     H1B      HDA3B    0.080000        1.0080           0   0.00000   0.00000
     25164 MEOH     1036     MEOH     H1C      HDA3B    0.080000        1.0080           0   0.00000   0.00000
     25165 MEOH     1036     MEOH     LP1A     LPD     -0.230000        0.0000           -1   0.00000   0.00000
     25166 MEOH     1036     MEOH     LP1B     LPD     -0.230000        0.0000           -1   0.00000   0.00000
     25167 MEOH     1037     MEOH     C1       CD33B    2.314100       11.6110           0   -1.00000   1.30000
     25168 MEOH     1037     MEOH     DC1      DRUD    -2.454100        0.4000           0   0.00000   0.00000
     25169 MEOH     1037     MEOH     O1       OD31H    2.488300       15.5990           0   -1.02800   1.30000
     25170 MEOH     1037     MEOH     DO1      DRUD    -2.488300        0.4000           0   0.00000   0.00000
     25171 MEOH     1037     MEOH     HO1      HDP1A    0.360000        1.0080           0   0.00000   0.00000
     25172 MEOH     1037     MEOH     HO2      DUMH     0.000000        1.0080           0   0.00000   0.00000
     25173 MEOH     1037     MEOH     H1A      HDA3B    0.080000        1.0080           0   0.00000   0.00000
     25174 MEOH     1037     MEOH     H1B      HDA3B    0.080000        1.0080           0   0.00000   0.00000
     25175 MEOH     1037     MEOH     H1C      HDA3B    0.080000        1.0080           0   0.00000   0.00000
     25176 MEOH     1037     MEOH     LP1A     LPD     -0.230000        0.0000           -1   0.00000   0.00000
     25177 MEOH     1037     MEOH     LP1B     LPD     -0.230000        0.0000           -1   0.00000   0.00000
     25178 MEOH     1038     MEOH     C1       CD33B    2.314100       11.6110           0   -1.00000   1.30000
     25179 MEOH     1038     MEOH     DC1      DRUD    -2.454100        0.4000           0   0.00000   0.00000
     25180 MEOH     1038     MEOH     O1       OD31H    2.488300       15.5990           0   -1.02800   1.30000
     25181 MEOH     1038     MEOH     DO1      DRUD    -2.488300        0.4000           0   0.00000   0.00000
     25182 MEOH     1038     MEOH     HO1      HDP1A    0.360000        1.0080           0   0.00000   0.00000
     25183 MEOH     1038     MEOH     HO2      DUMH     0.000000        1.0080           0   0.00000   0.00000
     25184 MEOH     1038     MEOH     H1A      HDA3B    0.080000        1.0080           0   0.00000   0.00000
     25185 MEOH     1038     MEOH     H1B      HDA3B    0.080000        1.0080           0   0.00000   0.00000
     25186 MEOH     1038     MEOH     H1C      HDA3B    0.080000        1.0080           0   0.00000   0.00000
     25187 MEOH     1038     MEOH     LP1A     LPD     -0.230000        0.0000           -1   0.00000   0.00000
     25188 MEOH     1038     MEOH     LP1B     LPD     -0.230000        0.0000           -1   0.00000   0.00000
     25189 MEOH     1039     MEOH     C1       CD33B    2.314100       11.6110           0   -1.00000   1.30000
     25190 MEOH     1039     MEOH     DC1      DRUD    -2.454100        0.4000           0   0.00000   0.00000
     25191 MEOH     1039     MEOH     O1       OD31H    2.488300       15.5990           0   -1.02800   1.30000
     25192 MEOH     1039     MEOH     DO1      DRUD    -2.488300        0.4000           0   0.00000   0.00000
     25193 MEOH     1039     MEOH     HO1      HDP1A    0.360000        1.0080           0   0.00000   0.00000
     25194 MEOH     1039     MEOH     HO2      DUMH     0.000000        1.0080           0   0.00000   0.00000
     25195 MEOH     1039     MEOH     H1A      HDA3B    0.080000        1.0080           0   0.00000   0.00000
     25196 MEOH     1039     MEOH     H1B      HDA3B    0.080000        1.0080           0   0.00000   0.00000
     25197 MEOH     1039     MEOH     H1C      HDA3B    0.080000        1.0080           0   0.00000   0.00000
     25198 MEOH     1039     MEOH     LP1A     LPD     -0.230000        0.0000           -1   0.00000   0.00000
     25199 MEOH     1039     MEOH     LP1B     LPD     -0.230000        0.0000           -1   0.00000   0.00000
     25200 MEOH     1040     MEOH     C1       CD33B    2.314100       11.6110           0   -1.00000   1.30000
     25201 MEOH     1040     MEOH     DC1      DRUD    -2.454100        0.4000           0   0.00000   0.00000
     25202 MEOH     1040     MEOH     O1       OD31H    2.488300       15.5990           0   -1.02800   1.30000
     25203 MEOH     1040     MEOH     DO1      DRUD    -2.488300        0.4000           0   0.00000   0.00000
     25204 MEOH     1040     MEOH     HO1      HDP1A    0.360000        1.0080           0   0.00000   0.00000
     25205 MEOH     1040     MEOH     HO2      DUMH     0.000000        1.0080           0   0.00000   0.00000
     25206 MEOH     1040     MEOH     H1A      HDA3B    0.080000        1.0080           0   0.00000   0.00000
     25207 MEOH     1040     MEOH     H1B      HDA3B    0.080000        1.0080           0   0.00000   0.00000
     25208 MEOH     1040     MEOH     H1C      HDA3B    0.080000        1.0080           0   0.00000   0.00000
     25209 MEOH     1040     MEOH     LP1A     LPD     -0.230000        0.0000           -1   0.00000   0.00000
     25210 MEOH     1040     MEOH     LP1B     LPD     -0.230000        0.0000           -1   0.00000   0.00000
     25211 MEOH     1041     MEOH     C1       CD33B    2.314100       11.6110           0   -1.00000   1.30000
     25212 MEOH     1041     MEOH     DC1      DRUD    -2.454100        0.4000           0   0.00000   0.00000
     25213 MEOH     1041     MEOH     O1       OD31H    2.488300       15.5990           0   -1.02800   1.30000
     25214 MEOH     1041     MEOH     DO1      DRUD    -2.488300        0.4000           0   0.00000   0.00000
     25215 MEOH     1041     MEOH     HO1      HDP1A    0.360000        1.0080           0   0.00000   0.00000
     25216 MEOH     1041     MEOH     HO2      DUMH     0.000000        1.0080           0   0.00000   0.00000
     25217 MEOH     1041     MEOH     H1A      HDA3B    0.080000        1.0080           0   0.00000   0.00000
     25218 MEOH     1041     MEOH     H1B      HDA3B    0.080000        1.0080           0   0.00000   0.00000
     25219 MEOH     1041     MEOH     H1C      HDA3B    0.080000        1.0080           0   0.00000   0.00000
     25220 MEOH     1041     MEOH     LP1A     LPD     -0.230000        0.0000           -1   0.00000   0.00000
     25221 MEOH     1041     MEOH     LP1B     LPD     -0.230000        0.0000           -1   0.00000   0.00000
     25222 MEOH     1042     MEOH     C1       CD33B    2.314100       11.6110           0   -1.00000   1.30000
     25223 MEOH     1042     MEOH     DC1      DRUD    -2.454100        0.4000           0   0.00000   0.00000
     25224 MEOH     1042     MEOH     O1       OD31H    2.488300       15.5990           0   -1.02800   1.30000
     25225 MEOH     1042     MEOH     DO1      DRUD    -2.488300        0.4000           0   0.00000   0.00000
     25226 MEOH     1042     MEOH     HO1      HDP1A    0.360000        1.0080           0   0.00000   0.00000
     25227 MEOH     1042     MEOH     HO2      DUMH     0.000000        1.0080           0   0.00000   0.00000
     25228 MEOH     1042     MEOH     H1A      HDA3B    0.080000        1.0080           0   0.00000   0.00000
     25229 MEOH     1042     MEOH     H1B      HDA3B    0.080000        1.0080           0   0.00000   0.00000
     25230 MEOH     1042     MEOH     H1C      HDA3B    0.080000        1.0080           0   0.00000   0.00000
     25231 MEOH     1042     MEOH     LP1A     LPD     -0.230000        0.0000           -1   0.00000   0.00000
     25232 MEOH     1042     MEOH     LP1B     LPD     -0.230000        0.0000           -1   0.00000   0.00000
     25233 MEOH     1043     MEOH     C1       CD33B    2.314100       11.6110           0   -1.00000   1.30000
     25234 MEOH     1043     MEOH     DC1      DRUD    -2.454100        0.4000           0   0.00000   0.00000
     25235 MEOH     1043     MEOH     O1       OD31H    2.488300       15.5990           0   -1.02800   1.30000
     25236 MEOH     1043     MEOH     DO1      DRUD    -2.488300        0.4000           0   0.00000   0.00000
     25237 MEOH     1043     MEOH     HO1      HDP1A    0.360000        1.0080           0   0.00000   0.00000
     25238 MEOH     1043     MEOH     HO2      DUMH     0.000000        1.0080           0   0.00000   0.00000
     25239 MEOH     1043     MEOH     H1A      HDA3B    0.080000        1.0080           0   0.00000   0.00000
     25240 MEOH     1043     MEOH     H1B      HDA3B    0.080000        1.0080           0   0.00000   0.00000
     25241 MEOH     1043     MEOH     H1C      HDA3B    0.080000        1.0080           0   0.00000   0.00000
     25242 MEOH     1043     MEOH     LP1A     LPD     -0.230000        0.0000           -1   0.00000   0.00000
     25243 MEOH     1043     MEOH     LP1B     LPD     -0.230000        0.0000           -1   0.00000   0.00000
     25244 MEOH     1044     MEOH     C1       CD33B    2.314100       11.6110           0   -1.00000   1.30000
     25245 MEOH     1044     MEOH     DC1      DRUD    -2.454100        0.4000           0   0.00000   0.00000
     25246 MEOH     1044     MEOH     O1       OD31H    2.488300       15.5990           0   -1.02800   1.30000
     25247 MEOH     1044     MEOH     DO1      DRUD    -2.488300        0.4000           0   0.00000   0.00000
     25248 MEOH     1044     MEOH     HO1      HDP1A    0.360000        1.0080           0   0.00000   0.00000
     25249 MEOH     1044     MEOH     HO2      DUMH     0.000000        1.0080           0   0.00000   0.00000
     25250 MEOH     1044     MEOH     H1A      HDA3B    0.080000        1.0080           0   0.00000   0.00000
     25251 MEOH     1044     MEOH     H1B      HDA3B    0.080000        1.0080           0   0.00000   0.00000
     25252 MEOH     1044     MEOH     H1C      HDA3B    0.080000        1.0080           0   0.00000   0.00000
     25253 MEOH     1044     MEOH     LP1A     LPD     -0.230000        0.0000           -1   0.00000   0.00000
     25254 MEOH     1044     MEOH     LP1B     LPD     -0.230000        0.0000           -1   0.00000   0.00000
     25255 MEOH     1045     MEOH     C1       CD33B    2.314100       11.6110           0   -1.00000   1.30000
     25256 MEOH     1045     MEOH     DC1      DRUD    -2.454100        0.4000           0   0.00000   0.00000
     25257 MEOH     1045     MEOH     O1       OD31H    2.488300       15.5990           0   -1.02800   1.30000
     25258 MEOH     1045     MEOH     DO1      DRUD    -2.488300        0.4000           0   0.00000   0.00000
     25259 MEOH     1045     MEOH     HO1      HDP1A    0.360000        1.0080           0   0.00000   0.00000
     25260 MEOH     1045     MEOH     HO2      DUMH     0.000000        1.0080           0   0.00000   0.00000
     25261 MEOH     1045     MEOH     H1A      HDA3B    0.080000        1.0080           0   0.00000   0.00000
     25262 MEOH     1045     MEOH     H1B      HDA3B    0.080000        1.0080           0   0.00000   0.00000
     25263 MEOH     1045     MEOH     H1C      HDA3B    0.080000        1.0080           0   0.00000   0.00000
     25264 MEOH     1045     MEOH     LP1A     LPD     -0.230000        0.0000           -1   0.00000   0.00000
     25265 MEOH     1045     MEOH     LP1B     LPD     -0.230000        0.0000           -1   0.00000   0.00000
     25266 MEOH     1046     MEOH     C1       CD33B    2.314100       11.6110           0   -1.00000   1.30000
     25267 MEOH     1046     MEOH     DC1      DRUD    -2.454100        0.4000           0   0.00000   0.00000
     25268 MEOH     1046     MEOH     O1       OD31H    2.488300       15.5990           0   -1.02800   1.30000
     25269 MEOH     1046     MEOH     DO1      DRUD    -2.488300        0.4000           0   0.00000   0.00000
     25270 MEOH     1046     MEOH     HO1      HDP1A    0.360000        1.0080           0   0.00000   0.00000
     25271 MEOH     1046     MEOH     HO2      DUMH     0.000000        1.0080           0   0.00000   0.00000
     25272 MEOH     1046     MEOH     H1A      HDA3B    0.080000        1.0080           0   0.00000   0.00000
     25273 MEOH     1046     MEOH     H1B      HDA3B    0.080000        1.0080           0   0.00000   0.00000
     25274 MEOH     1046     MEOH     H1C      HDA3B    0.080000        1.0080           0   0.00000   0.00000
     25275 MEOH     1046     MEOH     LP1A     LPD     -0.230000        0.0000           -1   0.00000   0.00000
     25276 MEOH     1046     MEOH     LP1B     LPD     -0.230000        0.0000           -1   0.00000   0.00000
     25277 MEOH     1047     MEOH     C1       CD33B    2.314100       11.6110           0   -1.00000   1.30000
     25278 MEOH     1047     MEOH     DC1      DRUD    -2.454100        0.4000           0   0.00000   0.00000
     25279 MEOH     1047     MEOH     O1       OD31H    2.488300       15.5990           0   -1.02800   1.30000
     25280 MEOH     1047     MEOH     DO1      DRUD    -2.488300        0.4000           0   0.00000   0.00000
     25281 MEOH     1047     MEOH     HO1      HDP1A    0.360000        1.0080           0   0.00000   0.00000
     25282 MEOH     1047     MEOH     HO2      DUMH     0.000000        1.0080           0   0.00000   0.00000
     25283 MEOH     1047     MEOH     H1A      HDA3B    0.080000        1.0080           0   0.00000   0.00000
     25284 MEOH     1047     MEOH     H1B      HDA3B    0.080000        1.0080           0   0.00000   0.00000
     25285 MEOH     1047     MEOH     H1C      HDA3B    0.080000        1.0080           0   0.00000   0.00000
     25286 MEOH     1047     MEOH     LP1A     LPD     -0.230000        0.0000           -1   0.00000   0.00000
     25287 MEOH     1047     MEOH     LP1B     LPD     -0.230000        0.0000           -1   0.00000   0.00000
     25288 MEOH     1048     MEOH     C1       CD33B    2.314100       11.6110           0   -1.00000   1.30000
     25289 MEOH     1048     MEOH     DC1      DRUD    -2.454100        0.4000           0   0.00000   0.00000
     25290 MEOH     1048     MEOH     O1       OD31H    2.488300       15.5990           0   -1.02800   1.30000
     25291 MEOH     1048     MEOH     DO1      DRUD    -2.488300        0.4000           0   0.00000   0.00000
     25292 MEOH     1048     MEOH     HO1      HDP1A    0.360000        1.0080           0   0.00000   0.00000
     25293 MEOH     1048     MEOH     HO2      DUMH     0.000000        1.0080           0   0.00000   0.00000
     25294 MEOH     1048     MEOH     H1A      HDA3B    0.080000        1.0080           0   0.00000   0.00000
     25295 MEOH     1048     MEOH     H1B      HDA3B    0.080000        1.0080           0   0.00000   0.00000
     25296 MEOH     1048     MEOH     H1C      HDA3B    0.080000        1.0080           0   0.00000   0.00000
     25297 MEOH     1048     MEOH     LP1A     LPD     -0.230000        0.0000           -1   0.00000   0.00000
     25298 MEOH     1048     MEOH     LP1B     LPD     -0.230000        0.0000           -1   0.00000   0.00000
     25299 MEOH     1049     MEOH     C1       CD33B    2.314100       11.6110           0   -1.00000   1.30000
     25300 MEOH     1049     MEOH     DC1      DRUD    -2.454100        0.4000           0   0.00000   0.00000
     25301 MEOH     1049     MEOH     O1       OD31H    2.488300       15.5990           0   -1.02800   1.30000
     25302 MEOH     1049     MEOH     DO1      DRUD    -2.488300        0.4000           0   0.00000   0.00000
     25303 MEOH     1049     MEOH     HO1      HDP1A    0.360000        1.0080           0   0.00000   0.00000
     25304 MEOH     1049     MEOH     HO2      DUMH     0.000000        1.0080           0   0.00000   0.00000
     25305 MEOH     1049     MEOH     H1A      HDA3B    0.080000        1.0080           0   0.00000   0.00000
     25306 MEOH     1049     MEOH     H1B      HDA3B    0.080000        1.0080           0   0.00000   0.00000
     25307 MEOH     1049     MEOH     H1C      HDA3B    0.080000        1.0080           0   0.00000   0.00000
     25308 MEOH     1049     MEOH     LP1A     LPD     -0.230000        0.0000           -1   0.00000   0.00000
     25309 MEOH     1049     MEOH     LP1B     LPD     -0.230000        0.0000           -1   0.00000   0.00000
     25310 MEOH     1050     MEOH     C1       CD33B    2.314100       11.6110           0   -1.00000   1.30000
     25311 MEOH     1050     MEOH     DC1      DRUD    -2.454100        0.4000           0   0.00000   0.00000
     25312 MEOH     1050     MEOH     O1       OD31H    2.488300       15.5990           0   -1.02800   1.30000
     25313 MEOH     1050     MEOH     DO1      DRUD    -2.488300        0.4000           0   0.00000   0.00000
     25314 MEOH     1050     MEOH     HO1      HDP1A    0.360000        1.0080           0   0.00000   0.00000
     25315 MEOH     1050     MEOH     HO2      DUMH     0.000000        1.0080           0   0.00000   0.00000
     25316 MEOH     1050     MEOH     H1A      HDA3B    0.080000        1.0080           0   0.00000   0.00000
     25317 MEOH     1050     MEOH     H1B      HDA3B    0.080000        1.0080           0   0.00000   0.00000
     25318 MEOH     1050     MEOH     H1C      HDA3B    0.080000        1.0080           0   0.00000   0.00000
     25319 MEOH     1050     MEOH     LP1A     LPD     -0.230000        0.0000           -1   0.00000   0.00000
     25320 MEOH     1050     MEOH     LP1B     LPD     -0.230000        0.0000           -1   0.00000   0.00000
     25321 MEOH     1051     MEOH     C1       CD33B    2.314100       11.6110           0   -1.00000   1.30000
     25322 MEOH     1051     MEOH     DC1      DRUD    -2.454100        0.4000           0   0.00000   0.00000
     25323 MEOH     1051     MEOH     O1       OD31H    2.488300       15.5990           0   -1.02800   1.30000
     25324 MEOH     1051     MEOH     DO1      DRUD    -2.488300        0.4000           0   0.00000   0.00000
     25325 MEOH     1051     MEOH     HO1      HDP1A    0.360000        1.0080           0   0.00000   0.00000
     25326 MEOH     1051     MEOH     HO2      DUMH     0.000000        1.0080           0   0.00000   0.00000
     25327 MEOH     1051     MEOH     H1A      HDA3B    0.080000        1.0080           0   0.00000   0.00000
     25328 MEOH     1051     MEOH     H1B      HDA3B    0.080000        1.0080           0   0.00000   0.00000
     25329 MEOH     1051     MEOH     H1C      HDA3B    0.080000        1.0080           0   0.00000   0.00000
     25330 MEOH     1051     MEOH     LP1A     LPD     -0.230000        0.0000           -1   0.00000   0.00000
     25331 MEOH     1051     MEOH     LP1B     LPD     -0.230000        0.0000           -1   0.00000   0.00000
     25332 MEOH     1052     MEOH     C1       CD33B    2.314100       11.6110           0   -1.00000   1.30000
     25333 MEOH     1052     MEOH     DC1      DRUD    -2.454100        0.4000           0   0.00000   0.00000
     25334 MEOH     1052     MEOH     O1       OD31H    2.488300       15.5990           0   -1.02800   1.30000
     25335 MEOH     1052     MEOH     DO1      DRUD    -2.488300        0.4000           0   0.00000   0.00000
     25336 MEOH     1052     MEOH     HO1      HDP1A    0.360000        1.0080           0   0.00000   0.00000
     25337 MEOH     1052     MEOH     HO2      DUMH     0.000000        1.0080           0   0.00000   0.00000
     25338 MEOH     1052     MEOH     H1A      HDA3B    0.080000        1.0080           0   0.00000   0.00000
     25339 MEOH     1052     MEOH     H1B      HDA3B    0.080000        1.0080           0   0.00000   0.00000
     25340 MEOH     1052     MEOH     H1C      HDA3B    0.080000        1.0080           0   0.00000   0.00000
     25341 MEOH     1052     MEOH     LP1A     LPD     -0.230000        0.0000           -1   0.00000   0.00000
     25342 MEOH     1052     MEOH     LP1B     LPD     -0.230000        0.0000           -1   0.00000   0.00000
     25343 MEOH     1053     MEOH     C1       CD33B    2.314100       11.6110           0   -1.00000   1.30000
     25344 MEOH     1053     MEOH     DC1      DRUD    -2.454100        0.4000           0   0.00000   0.00000
     25345 MEOH     1053     MEOH     O1       OD31H    2.488300       15.5990           0   -1.02800   1.30000
     25346 MEOH     1053     MEOH     DO1      DRUD    -2.488300        0.4000           0   0.00000   0.00000
     25347 MEOH     1053     MEOH     HO1      HDP1A    0.360000        1.0080           0   0.00000   0.00000
     25348 MEOH     1053     MEOH     HO2      DUMH     0.000000        1.0080           0   0.00000   0.00000
     25349 MEOH     1053     MEOH     H1A      HDA3B    0.080000        1.0080           0   0.00000   0.00000
     25350 MEOH     1053     MEOH     H1B      HDA3B    0.080000        1.0080           0   0.00000   0.00000
     25351 MEOH     1053     MEOH     H1C      HDA3B    0.080000        1.0080           0   0.00000   0.00000
     25352 MEOH     1053     MEOH     LP1A     LPD     -0.230000        0.0000           -1   0.00000   0.00000
     25353 MEOH     1053     MEOH     LP1B     LPD     -0.230000        0.0000           -1   0.00000   0.00000
     25354 MEOH     1054     MEOH     C1       CD33B    2.314100       11.6110           0   -1.00000   1.30000
     25355 MEOH     1054     MEOH     DC1      DRUD    -2.454100        0.4000           0   0.00000   0.00000
     25356 MEOH     1054     MEOH     O1       OD31H    2.488300       15.5990           0   -1.02800   1.30000
     25357 MEOH     1054     MEOH     DO1      DRUD    -2.488300        0.4000           0   0.00000   0.00000
     25358 MEOH     1054     MEOH     HO1      HDP1A    0.360000        1.0080           0   0.00000   0.00000
     25359 MEOH     1054     MEOH     HO2      DUMH     0.000000        1.0080           0   0.00000   0.00000
     25360 MEOH     1054     MEOH     H1A      HDA3B    0.080000        1.0080           0   0.00000   0.00000
     25361 MEOH     1054     MEOH     H1B      HDA3B    0.080000        1.0080           0   0.00000   0.00000
     25362 MEOH     1054     MEOH     H1C      HDA3B    0.080000        1.0080           0   0.00000   0.00000
     25363 MEOH     1054     MEOH     LP1A     LPD     -0.230000        0.0000           -1   0.00000   0.00000
     25364 MEOH     1054     MEOH     LP1B     LPD     -0.230000        0.0000           -1   0.00000   0.00000
     25365 MEOH     1055     MEOH     C1       CD33B    2.314100       11.6110           0   -1.00000   1.30000
     25366 MEOH     1055     MEOH     DC1      DRUD    -2.454100        0.4000           0   0.00000   0.00000
     25367 MEOH     1055     MEOH     O1       OD31H    2.488300       15.5990           0   -1.02800   1.30000
     25368 MEOH     1055     MEOH     DO1      DRUD    -2.488300        0.4000           0   0.00000   0.00000
     25369 MEOH     1055     MEOH     HO1      HDP1A    0.360000        1.0080           0   0.00000   0.00000
     25370 MEOH     1055     MEOH     HO2      DUMH     0.000000        1.0080           0   0.00000   0.00000
     25371 MEOH     1055     MEOH     H1A      HDA3B    0.080000        1.0080           0   0.00000   0.00000
     25372 MEOH     1055     MEOH     H1B      HDA3B    0.080000        1.0080           0   0.00000   0.00000
     25373 MEOH     1055     MEOH     H1C      HDA3B    0.080000        1.0080           0   0.00000   0.00000
     25374 MEOH     1055     MEOH     LP1A     LPD     -0.230000        0.0000           -1   0.00000   0.00000
     25375 MEOH     1055     MEOH     LP1B     LPD     -0.230000        0.0000           -1   0.00000   0.00000
     25376 MEOH     1056     MEOH     C1       CD33B    2.314100       11.6110           0   -1.00000   1.30000
     25377 MEOH     1056     MEOH     DC1      DRUD    -2.454100        0.4000           0   0.00000   0.00000
     25378 MEOH     1056     MEOH     O1       OD31H    2.488300       15.5990           0   -1.02800   1.30000
     25379 MEOH     1056     MEOH     DO1      DRUD    -2.488300        0.4000           0   0.00000   0.00000
     25380 MEOH     1056     MEOH     HO1      HDP1A    0.360000        1.0080           0   0.00000   0.00000
     25381 MEOH     1056     MEOH     HO2      DUMH     0.000000        1.0080           0   0.00000   0.00000
     25382 MEOH     1056     MEOH     H1A      HDA3B    0.080000        1.0080           0   0.00000   0.00000
     25383 MEOH     1056     MEOH     H1B      HDA3B    0.080000        1.0080           0   0.00000   0.00000
     25384 MEOH     1056     MEOH     H1C      HDA3B    0.080000        1.0080           0   0.00000   0.00000
     25385 MEOH     1056     MEOH     LP1A     LPD     -0.230000        0.0000           -1   0.00000   0.00000
     25386 MEOH     1056     MEOH     LP1B     LPD     -0.230000        0.0000           -1   0.00000   0.00000
     25387 MEOH     1057     MEOH     C1       CD33B    2.314100       11.6110           0   -1.00000   1.30000
     25388 MEOH     1057     MEOH     DC1      DRUD    -2.454100        0.4000           0   0.00000   0.00000
     25389 MEOH     1057     MEOH     O1       OD31H    2.488300       15.5990           0   -1.02800   1.30000
     25390 MEOH     1057     MEOH     DO1      DRUD    -2.488300        0.4000           0   0.00000   0.00000
     25391 MEOH     1057     MEOH     HO1      HDP1A    0.360000        1.0080           0   0.00000   0.00000
     25392 MEOH     1057     MEOH     HO2      DUMH     0.000000        1.0080           0   0.00000   0.00000
     25393 MEOH     1057     MEOH     H1A      HDA3B    0.080000        1.0080           0   0.00000   0.00000
     25394 MEOH     1057     MEOH     H1B      HDA3B    0.080000        1.0080           0   0.00000   0.00000
     25395 MEOH     1057     MEOH     H1C      HDA3B    0.080000        1.0080           0   0.00000   0.00000
     25396 MEOH     1057     MEOH     LP1A     LPD     -0.230000        0.0000           -1   0.00000   0.00000
     25397 MEOH     1057     MEOH     LP1B     LPD     -0.230000        0.0000           -1   0.00000   0.00000
     25398 MEOH     1058     MEOH     C1       CD33B    2.314100       11.6110           0   -1.00000   1.30000
     25399 MEOH     1058     MEOH     DC1      DRUD    -2.454100        0.4000           0   0.00000   0.00000
     25400 MEOH     1058     MEOH     O1       OD31H    2.488300       15.5990           0   -1.02800   1.30000
     25401 MEOH     1058     MEOH     DO1      DRUD    -2.488300        0.4000           0   0.00000   0.00000
     25402 MEOH     1058     MEOH     HO1      HDP1A    0.360000        1.0080           0   0.00000   0.00000
     25403 MEOH     1058     MEOH     HO2      DUMH     0.000000        1.0080           0   0.00000   0.00000
     25404 MEOH     1058     MEOH     H1A      HDA3B    0.080000        1.0080           0   0.00000   0.00000
     25405 MEOH     1058     MEOH     H1B      HDA3B    0.080000        1.0080           0   0.00000   0.00000
     25406 MEOH     1058     MEOH     H1C      HDA3B    0.080000        1.0080           0   0.00000   0.00000
     25407 MEOH     1058     MEOH     LP1A     LPD     -0.230000        0.0000           -1   0.00000   0.00000
     25408 MEOH     1058     MEOH     LP1B     LPD     -0.230000        0.0000           -1   0.00000   0.00000
     25409 MEOH     1059     MEOH     C1       CD33B    2.314100       11.6110           0   -1.00000   1.30000
     25410 MEOH     1059     MEOH     DC1      DRUD    -2.454100        0.4000           0   0.00000   0.00000
     25411 MEOH     1059     MEOH     O1       OD31H    2.488300       15.5990           0   -1.02800   1.30000
     25412 MEOH     1059     MEOH     DO1      DRUD    -2.488300        0.4000           0   0.00000   0.00000
     25413 MEOH     1059     MEOH     HO1      HDP1A    0.360000        1.0080           0   0.00000   0.00000
     25414 MEOH     1059     MEOH     HO2      DUMH     0.000000        1.0080           0   0.00000   0.00000
     25415 MEOH     1059     MEOH     H1A      HDA3B    0.080000        1.0080           0   0.00000   0.00000
     25416 MEOH     1059     MEOH     H1B      HDA3B    0.080000        1.0080           0   0.00000   0.00000
     25417 MEOH     1059     MEOH     H1C      HDA3B    0.080000        1.0080           0   0.00000   0.00000
     25418 MEOH     1059     MEOH     LP1A     LPD     -0.230000        0.0000           -1   0.00000   0.00000
     25419 MEOH     1059     MEOH     LP1B     LPD     -0.230000        0.0000           -1   0.00000   0.00000
     25420 MEOH     1060     MEOH     C1       CD33B    2.314100       11.6110           0   -1.00000   1.30000
     25421 MEOH     1060     MEOH     DC1      DRUD    -2.454100        0.4000           0   0.00000   0.00000
     25422 MEOH     1060     MEOH     O1       OD31H    2.488300       15.5990           0   -1.02800   1.30000
     25423 MEOH     1060     MEOH     DO1      DRUD    -2.488300        0.4000           0   0.00000   0.00000
     25424 MEOH     1060     MEOH     HO1      HDP1A    0.360000        1.0080           0   0.00000   0.00000
     25425 MEOH     1060     MEOH     HO2      DUMH     0.000000        1.0080           0   0.00000   0.00000
     25426 MEOH     1060     MEOH     H1A      HDA3B    0.080000        1.0080           0   0.00000   0.00000
     25427 MEOH     1060     MEOH     H1B      HDA3B    0.080000        1.0080           0   0.00000   0.00000
     25428 MEOH     1060     MEOH     H1C      HDA3B    0.080000        1.0080           0   0.00000   0.00000
     25429 MEOH     1060     MEOH     LP1A     LPD     -0.230000        0.0000           -1   0.00000   0.00000
     25430 MEOH     1060     MEOH     LP1B     LPD     -0.230000        0.0000           -1   0.00000   0.00000
     25431 MEOH     1061     MEOH     C1       CD33B    2.314100       11.6110           0   -1.00000   1.30000
     25432 MEOH     1061     MEOH     DC1      DRUD    -2.454100        0.4000           0   0.00000   0.00000
     25433 MEOH     1061     MEOH     O1       OD31H    2.488300       15.5990           0   -1.02800   1.30000
     25434 MEOH     1061     MEOH     DO1      DRUD    -2.488300        0.4000           0   0.00000   0.00000
     25435 MEOH     1061     MEOH     HO1      HDP1A    0.360000        1.0080           0   0.00000   0.00000
     25436 MEOH     1061     MEOH     HO2      DUMH     0.000000        1.0080           0   0.00000   0.00000
     25437 MEOH     1061     MEOH     H1A      HDA3B    0.080000        1.0080           0   0.00000   0.00000
     25438 MEOH     1061     MEOH     H1B      HDA3B    0.080000        1.0080           0   0.00000   0.00000
     25439 MEOH     1061     MEOH     H1C      HDA3B    0.080000        1.0080           0   0.00000   0.00000
     25440 MEOH     1061     MEOH     LP1A     LPD     -0.230000        0.0000           -1   0.00000   0.00000
     25441 MEOH     1061     MEOH     LP1B     LPD     -0.230000        0.0000           -1   0.00000   0.00000
     25442 MEOH     1062     MEOH     C1       CD33B    2.314100       11.6110           0   -1.00000   1.30000
     25443 MEOH     1062     MEOH     DC1      DRUD    -2.454100        0.4000           0   0.00000   0.00000
     25444 MEOH     1062     MEOH     O1       OD31H    2.488300       15.5990           0   -1.02800   1.30000
     25445 MEOH     1062     MEOH     DO1      DRUD    -2.488300        0.4000           0   0.00000   0.00000
     25446 MEOH     1062     MEOH     HO1      HDP1A    0.360000        1.0080           0   0.00000   0.00000
     25447 MEOH     1062     MEOH     HO2      DUMH     0.000000        1.0080           0   0.00000   0.00000
     25448 MEOH     1062     MEOH     H1A      HDA3B    0.080000        1.0080           0   0.00000   0.00000
     25449 MEOH     1062     MEOH     H1B      HDA3B    0.080000        1.0080           0   0.00000   0.00000
     25450 MEOH     1062     MEOH     H1C      HDA3B    0.080000        1.0080           0   0.00000   0.00000
     25451 MEOH     1062     MEOH     LP1A     LPD     -0.230000        0.0000           -1   0.00000   0.00000
     25452 MEOH     1062     MEOH     LP1B     LPD     -0.230000        0.0000           -1   0.00000   0.00000
     25453 MEOH     1063     MEOH     C1       CD33B    2.314100       11.6110           0   -1.00000   1.30000
     25454 MEOH     1063     MEOH     DC1      DRUD    -2.454100        0.4000           0   0.00000   0.00000
     25455 MEOH     1063     MEOH     O1       OD31H    2.488300       15.5990           0   -1.02800   1.30000
     25456 MEOH     1063     MEOH     DO1      DRUD    -2.488300        0.4000           0   0.00000   0.00000
     25457 MEOH     1063     MEOH     HO1      HDP1A    0.360000        1.0080           0   0.00000   0.00000
     25458 MEOH     1063     MEOH     HO2      DUMH     0.000000        1.0080           0   0.00000   0.00000
     25459 MEOH     1063     MEOH     H1A      HDA3B    0.080000        1.0080           0   0.00000   0.00000
     25460 MEOH     1063     MEOH     H1B      HDA3B    0.080000        1.0080           0   0.00000   0.00000
     25461 MEOH     1063     MEOH     H1C      HDA3B    0.080000        1.0080           0   0.00000   0.00000
     25462 MEOH     1063     MEOH     LP1A     LPD     -0.230000        0.0000           -1   0.00000   0.00000
     25463 MEOH     1063     MEOH     LP1B     LPD     -0.230000        0.0000           -1   0.00000   0.00000
     25464 MEOH     1064     MEOH     C1       CD33B    2.314100       11.6110           0   -1.00000   1.30000
     25465 MEOH     1064     MEOH     DC1      DRUD    -2.454100        0.4000           0   0.00000   0.00000
     25466 MEOH     1064     MEOH     O1       OD31H    2.488300       15.5990           0   -1.02800   1.30000
     25467 MEOH     1064     MEOH     DO1      DRUD    -2.488300        0.4000           0   0.00000   0.00000
     25468 MEOH     1064     MEOH     HO1      HDP1A    0.360000        1.0080           0   0.00000   0.00000
     25469 MEOH     1064     MEOH     HO2      DUMH     0.000000        1.0080           0   0.00000   0.00000
     25470 MEOH     1064     MEOH     H1A      HDA3B    0.080000        1.0080           0   0.00000   0.00000
     25471 MEOH     1064     MEOH     H1B      HDA3B    0.080000        1.0080           0   0.00000   0.00000
     25472 MEOH     1064     MEOH     H1C      HDA3B    0.080000        1.0080           0   0.00000   0.00000
     25473 MEOH     1064     MEOH     LP1A     LPD     -0.230000        0.0000           -1   0.00000   0.00000
     25474 MEOH     1064     MEOH     LP1B     LPD     -0.230000        0.0000           -1   0.00000   0.00000
     25475 MEOH     1065     MEOH     C1       CD33B    2.314100       11.6110           0   -1.00000   1.30000
     25476 MEOH     1065     MEOH     DC1      DRUD    -2.454100        0.4000           0   0.00000   0.00000
     25477 MEOH     1065     MEOH     O1       OD31H    2.488300       15.5990           0   -1.02800   1.30000
     25478 MEOH     1065     MEOH     DO1      DRUD    -2.488300        0.4000           0   0.00000   0.00000
     25479 MEOH     1065     MEOH     HO1      HDP1A    0.360000        1.0080           0   0.00000   0.00000
     25480 MEOH     1065     MEOH     HO2      DUMH     0.000000        1.0080           0   0.00000   0.00000
     25481 MEOH     1065     MEOH     H1A      HDA3B    0.080000        1.0080           0   0.00000   0.00000
     25482 MEOH     1065     MEOH     H1B      HDA3B    0.080000        1.0080           0   0.00000   0.00000
     25483 MEOH     1065     MEOH     H1C      HDA3B    0.080000        1.0080           0   0.00000   0.00000
     25484 MEOH     1065     MEOH     LP1A     LPD     -0.230000        0.0000           -1   0.00000   0.00000
     25485 MEOH     1065     MEOH     LP1B     LPD     -0.230000        0.0000           -1   0.00000   0.00000
     25486 MEOH     1066     MEOH     C1       CD33B    2.314100       11.6110           0   -1.00000   1.30000
     25487 MEOH     1066     MEOH     DC1      DRUD    -2.454100        0.4000           0   0.00000   0.00000
     25488 MEOH     1066     MEOH     O1       OD31H    2.488300       15.5990           0   -1.02800   1.30000
     25489 MEOH     1066     MEOH     DO1      DRUD    -2.488300        0.4000           0   0.00000   0.00000
     25490 MEOH     1066     MEOH     HO1      HDP1A    0.360000        1.0080           0   0.00000   0.00000
     25491 MEOH     1066     MEOH     HO2      DUMH     0.000000        1.0080           0   0.00000   0.00000
     25492 MEOH     1066     MEOH     H1A      HDA3B    0.080000        1.0080           0   0.00000   0.00000
     25493 MEOH     1066     MEOH     H1B      HDA3B    0.080000        1.0080           0   0.00000   0.00000
     25494 MEOH     1066     MEOH     H1C      HDA3B    0.080000        1.0080           0   0.00000   0.00000
     25495 MEOH     1066     MEOH     LP1A     LPD     -0.230000        0.0000           -1   0.00000   0.00000
     25496 MEOH     1066     MEOH     LP1B     LPD     -0.230000        0.0000           -1   0.00000   0.00000
     25497 MEOH     1067     MEOH     C1       CD33B    2.314100       11.6110           0   -1.00000   1.30000
     25498 MEOH     1067     MEOH     DC1      DRUD    -2.454100        0.4000           0   0.00000   0.00000
     25499 MEOH     1067     MEOH     O1       OD31H    2.488300       15.5990           0   -1.02800   1.30000
     25500 MEOH     1067     MEOH     DO1      DRUD    -2.488300        0.4000           0   0.00000   0.00000
     25501 MEOH     1067     MEOH     HO1      HDP1A    0.360000        1.0080           0   0.00000   0.00000
     25502 MEOH     1067     MEOH     HO2      DUMH     0.000000        1.0080           0   0.00000   0.00000
     25503 MEOH     1067     MEOH     H1A      HDA3B    0.080000        1.0080           0   0.00000   0.00000
     25504 MEOH     1067     MEOH     H1B      HDA3B    0.080000        1.0080           0   0.00000   0.00000
     25505 MEOH     1067     MEOH     H1C      HDA3B    0.080000        1.0080           0   0.00000   0.00000
     25506 MEOH     1067     MEOH     LP1A     LPD     -0.230000        0.0000           -1   0.00000   0.00000
     25507 MEOH     1067     MEOH     LP1B     LPD     -0.230000        0.0000           -1   0.00000   0.00000
     25508 MEOH     1068     MEOH     C1       CD33B    2.314100       11.6110           0   -1.00000   1.30000
     25509 MEOH     1068     MEOH     DC1      DRUD    -2.454100        0.4000           0   0.00000   0.00000
     25510 MEOH     1068     MEOH     O1       OD31H    2.488300       15.5990           0   -1.02800   1.30000
     25511 MEOH     1068     MEOH     DO1      DRUD    -2.488300        0.4000           0   0.00000   0.00000
     25512 MEOH     1068     MEOH     HO1      HDP1A    0.360000        1.0080           0   0.00000   0.00000
     25513 MEOH     1068     MEOH     HO2      DUMH     0.000000        1.0080           0   0.00000   0.00000
     25514 MEOH     1068     MEOH     H1A      HDA3B    0.080000        1.0080           0   0.00000   0.00000
     25515 MEOH     1068     MEOH     H1B      HDA3B    0.080000        1.0080           0   0.00000   0.00000
     25516 MEOH     1068     MEOH     H1C      HDA3B    0.080000        1.0080           0   0.00000   0.00000
     25517 MEOH     1068     MEOH     LP1A     LPD     -0.230000        0.0000           -1   0.00000   0.00000
     25518 MEOH     1068     MEOH     LP1B     LPD     -0.230000        0.0000           -1   0.00000   0.00000
     25519 MEOH     1069     MEOH     C1       CD33B    2.314100       11.6110           0   -1.00000   1.30000
     25520 MEOH     1069     MEOH     DC1      DRUD    -2.454100        0.4000           0   0.00000   0.00000
     25521 MEOH     1069     MEOH     O1       OD31H    2.488300       15.5990           0   -1.02800   1.30000
     25522 MEOH     1069     MEOH     DO1      DRUD    -2.488300        0.4000           0   0.00000   0.00000
     25523 MEOH     1069     MEOH     HO1      HDP1A    0.360000        1.0080           0   0.00000   0.00000
     25524 MEOH     1069     MEOH     HO2      DUMH     0.000000        1.0080           0   0.00000   0.00000
     25525 MEOH     1069     MEOH     H1A      HDA3B    0.080000        1.0080           0   0.00000   0.00000
     25526 MEOH     1069     MEOH     H1B      HDA3B    0.080000        1.0080           0   0.00000   0.00000
     25527 MEOH     1069     MEOH     H1C      HDA3B    0.080000        1.0080           0   0.00000   0.00000
     25528 MEOH     1069     MEOH     LP1A     LPD     -0.230000        0.0000           -1   0.00000   0.00000
     25529 MEOH     1069     MEOH     LP1B     LPD     -0.230000        0.0000           -1   0.00000   0.00000
     25530 MEOH     1070     MEOH     C1       CD33B    2.314100       11.6110           0   -1.00000   1.30000
     25531 MEOH     1070     MEOH     DC1      DRUD    -2.454100        0.4000           0   0.00000   0.00000
     25532 MEOH     1070     MEOH     O1       OD31H    2.488300       15.5990           0   -1.02800   1.30000
     25533 MEOH     1070     MEOH     DO1      DRUD    -2.488300        0.4000           0   0.00000   0.00000
     25534 MEOH     1070     MEOH     HO1      HDP1A    0.360000        1.0080           0   0.00000   0.00000
     25535 MEOH     1070     MEOH     HO2      DUMH     0.000000        1.0080           0   0.00000   0.00000
     25536 MEOH     1070     MEOH     H1A      HDA3B    0.080000        1.0080           0   0.00000   0.00000
     25537 MEOH     1070     MEOH     H1B      HDA3B    0.080000        1.0080           0   0.00000   0.00000
     25538 MEOH     1070     MEOH     H1C      HDA3B    0.080000        1.0080           0   0.00000   0.00000
     25539 MEOH     1070     MEOH     LP1A     LPD     -0.230000        0.0000           -1   0.00000   0.00000
     25540 MEOH     1070     MEOH     LP1B     LPD     -0.230000        0.0000           -1   0.00000   0.00000
     25541 MEOH     1071     MEOH     C1       CD33B    2.314100       11.6110           0   -1.00000   1.30000
     25542 MEOH     1071     MEOH     DC1      DRUD    -2.454100        0.4000           0   0.00000   0.00000
     25543 MEOH     1071     MEOH     O1       OD31H    2.488300       15.5990           0   -1.02800   1.30000
     25544 MEOH     1071     MEOH     DO1      DRUD    -2.488300        0.4000           0   0.00000   0.00000
     25545 MEOH     1071     MEOH     HO1      HDP1A    0.360000        1.0080           0   0.00000   0.00000
     25546 MEOH     1071     MEOH     HO2      DUMH     0.000000        1.0080           0   0.00000   0.00000
     25547 MEOH     1071     MEOH     H1A      HDA3B    0.080000        1.0080           0   0.00000   0.00000
     25548 MEOH     1071     MEOH     H1B      HDA3B    0.080000        1.0080           0   0.00000   0.00000
     25549 MEOH     1071     MEOH     H1C      HDA3B    0.080000        1.0080           0   0.00000   0.00000
     25550 MEOH     1071     MEOH     LP1A     LPD     -0.230000        0.0000           -1   0.00000   0.00000
     25551 MEOH     1071     MEOH     LP1B     LPD     -0.230000        0.0000           -1   0.00000   0.00000
     25552 MEOH     1072     MEOH     C1       CD33B    2.314100       11.6110           0   -1.00000   1.30000
     25553 MEOH     1072     MEOH     DC1      DRUD    -2.454100        0.4000           0   0.00000   0.00000
     25554 MEOH     1072     MEOH     O1       OD31H    2.488300       15.5990           0   -1.02800   1.30000
     25555 MEOH     1072     MEOH     DO1      DRUD    -2.488300        0.4000           0   0.00000   0.00000
     25556 MEOH     1072     MEOH     HO1      HDP1A    0.360000        1.0080           0   0.00000   0.00000
     25557 MEOH     1072     MEOH     HO2      DUMH     0.000000        1.0080           0   0.00000   0.00000
     25558 MEOH     1072     MEOH     H1A      HDA3B    0.080000        1.0080           0   0.00000   0.00000
     25559 MEOH     1072     MEOH     H1B      HDA3B    0.080000        1.0080           0   0.00000   0.00000
     25560 MEOH     1072     MEOH     H1C      HDA3B    0.080000        1.0080           0   0.00000   0.00000
     25561 MEOH     1072     MEOH     LP1A     LPD     -0.230000        0.0000           -1   0.00000   0.00000
     25562 MEOH     1072     MEOH     LP1B     LPD     -0.230000        0.0000           -1   0.00000   0.00000
     25563 MEOH     1073     MEOH     C1       CD33B    2.314100       11.6110           0   -1.00000   1.30000
     25564 MEOH     1073     MEOH     DC1      DRUD    -2.454100        0.4000           0   0.00000   0.00000
     25565 MEOH     1073     MEOH     O1       OD31H    2.488300       15.5990           0   -1.02800   1.30000
     25566 MEOH     1073     MEOH     DO1      DRUD    -2.488300        0.4000           0   0.00000   0.00000
     25567 MEOH     1073     MEOH     HO1      HDP1A    0.360000        1.0080           0   0.00000   0.00000
     25568 MEOH     1073     MEOH     HO2      DUMH     0.000000        1.0080           0   0.00000   0.00000
     25569 MEOH     1073     MEOH     H1A      HDA3B    0.080000        1.0080           0   0.00000   0.00000
     25570 MEOH     1073     MEOH     H1B      HDA3B    0.080000        1.0080           0   0.00000   0.00000
     25571 MEOH     1073     MEOH     H1C      HDA3B    0.080000        1.0080           0   0.00000   0.00000
     25572 MEOH     1073     MEOH     LP1A     LPD     -0.230000        0.0000           -1   0.00000   0.00000
     25573 MEOH     1073     MEOH     LP1B     LPD     -0.230000        0.0000           -1   0.00000   0.00000
     25574 MEOH     1074     MEOH     C1       CD33B    2.314100       11.6110           0   -1.00000   1.30000
     25575 MEOH     1074     MEOH     DC1      DRUD    -2.454100        0.4000           0   0.00000   0.00000
     25576 MEOH     1074     MEOH     O1       OD31H    2.488300       15.5990           0   -1.02800   1.30000
     25577 MEOH     1074     MEOH     DO1      DRUD    -2.488300        0.4000           0   0.00000   0.00000
     25578 MEOH     1074     MEOH     HO1      HDP1A    0.360000        1.0080           0   0.00000   0.00000
     25579 MEOH     1074     MEOH     HO2      DUMH     0.000000        1.0080           0   0.00000   0.00000
     25580 MEOH     1074     MEOH     H1A      HDA3B    0.080000        1.0080           0   0.00000   0.00000
     25581 MEOH     1074     MEOH     H1B      HDA3B    0.080000        1.0080           0   0.00000   0.00000
     25582 MEOH     1074     MEOH     H1C      HDA3B    0.080000        1.0080           0   0.00000   0.00000
     25583 MEOH     1074     MEOH     LP1A     LPD     -0.230000        0.0000           -1   0.00000   0.00000
     25584 MEOH     1074     MEOH     LP1B     LPD     -0.230000        0.0000           -1   0.00000   0.00000
     25585 MEOH     1075     MEOH     C1       CD33B    2.314100       11.6110           0   -1.00000   1.30000
     25586 MEOH     1075     MEOH     DC1      DRUD    -2.454100        0.4000           0   0.00000   0.00000
     25587 MEOH     1075     MEOH     O1       OD31H    2.488300       15.5990           0   -1.02800   1.30000
     25588 MEOH     1075     MEOH     DO1      DRUD    -2.488300        0.4000           0   0.00000   0.00000
     25589 MEOH     1075     MEOH     HO1      HDP1A    0.360000        1.0080           0   0.00000   0.00000
     25590 MEOH     1075     MEOH     HO2      DUMH     0.000000        1.0080           0   0.00000   0.00000
     25591 MEOH     1075     MEOH     H1A      HDA3B    0.080000        1.0080           0   0.00000   0.00000
     25592 MEOH     1075     MEOH     H1B      HDA3B    0.080000        1.0080           0   0.00000   0.00000
     25593 MEOH     1075     MEOH     H1C      HDA3B    0.080000        1.0080           0   0.00000   0.00000
     25594 MEOH     1075     MEOH     LP1A     LPD     -0.230000        0.0000           -1   0.00000   0.00000
     25595 MEOH     1075     MEOH     LP1B     LPD     -0.230000        0.0000           -1   0.00000   0.00000
     25596 MEOH     1076     MEOH     C1       CD33B    2.314100       11.6110           0   -1.00000   1.30000
     25597 MEOH     1076     MEOH     DC1      DRUD    -2.454100        0.4000           0   0.00000   0.00000
     25598 MEOH     1076     MEOH     O1       OD31H    2.488300       15.5990           0   -1.02800   1.30000
     25599 MEOH     1076     MEOH     DO1      DRUD    -2.488300        0.4000           0   0.00000   0.00000
     25600 MEOH     1076     MEOH     HO1      HDP1A    0.360000        1.0080           0   0.00000   0.00000
     25601 MEOH     1076     MEOH     HO2      DUMH     0.000000        1.0080           0   0.00000   0.00000
     25602 MEOH     1076     MEOH     H1A      HDA3B    0.080000        1.0080           0   0.00000   0.00000
     25603 MEOH     1076     MEOH     H1B      HDA3B    0.080000        1.0080           0   0.00000   0.00000
     25604 MEOH     1076     MEOH     H1C      HDA3B    0.080000        1.0080           0   0.00000   0.00000
     25605 MEOH     1076     MEOH     LP1A     LPD     -0.230000        0.0000           -1   0.00000   0.00000
     25606 MEOH     1076     MEOH     LP1B     LPD     -0.230000        0.0000           -1   0.00000   0.00000
     25607 MEOH     1077     MEOH     C1       CD33B    2.314100       11.6110           0   -1.00000   1.30000
     25608 MEOH     1077     MEOH     DC1      DRUD    -2.454100        0.4000           0   0.00000   0.00000
     25609 MEOH     1077     MEOH     O1       OD31H    2.488300       15.5990           0   -1.02800   1.30000
     25610 MEOH     1077     MEOH     DO1      DRUD    -2.488300        0.4000           0   0.00000   0.00000
     25611 MEOH     1077     MEOH     HO1      HDP1A    0.360000        1.0080           0   0.00000   0.00000
     25612 MEOH     1077     MEOH     HO2      DUMH     0.000000        1.0080           0   0.00000   0.00000
     25613 MEOH     1077     MEOH     H1A      HDA3B    0.080000        1.0080           0   0.00000   0.00000
     25614 MEOH     1077     MEOH     H1B      HDA3B    0.080000        1.0080           0   0.00000   0.00000
     25615 MEOH     1077     MEOH     H1C      HDA3B    0.080000        1.0080           0   0.00000   0.00000
     25616 MEOH     1077     MEOH     LP1A     LPD     -0.230000        0.0000           -1   0.00000   0.00000
     25617 MEOH     1077     MEOH     LP1B     LPD     -0.230000        0.0000           -1   0.00000   0.00000
     25618 MEOH     1078     MEOH     C1       CD33B    2.314100       11.6110           0   -1.00000   1.30000
     25619 MEOH     1078     MEOH     DC1      DRUD    -2.454100        0.4000           0   0.00000   0.00000
     25620 MEOH     1078     MEOH     O1       OD31H    2.488300       15.5990           0   -1.02800   1.30000
     25621 MEOH     1078     MEOH     DO1      DRUD    -2.488300        0.4000           0   0.00000   0.00000
     25622 MEOH     1078     MEOH     HO1      HDP1A    0.360000        1.0080           0   0.00000   0.00000
     25623 MEOH     1078     MEOH     HO2      DUMH     0.000000        1.0080           0   0.00000   0.00000
     25624 MEOH     1078     MEOH     H1A      HDA3B    0.080000        1.0080           0   0.00000   0.00000
     25625 MEOH     1078     MEOH     H1B      HDA3B    0.080000        1.0080           0   0.00000   0.00000
     25626 MEOH     1078     MEOH     H1C      HDA3B    0.080000        1.0080           0   0.00000   0.00000
     25627 MEOH     1078     MEOH     LP1A     LPD     -0.230000        0.0000           -1   0.00000   0.00000
     25628 MEOH     1078     MEOH     LP1B     LPD     -0.230000        0.0000           -1   0.00000   0.00000
     25629 MEOH     1079     MEOH     C1       CD33B    2.314100       11.6110           0   -1.00000   1.30000
     25630 MEOH     1079     MEOH     DC1      DRUD    -2.454100        0.4000           0   0.00000   0.00000
     25631 MEOH     1079     MEOH     O1       OD31H    2.488300       15.5990           0   -1.02800   1.30000
     25632 MEOH     1079     MEOH     DO1      DRUD    -2.488300        0.4000           0   0.00000   0.00000
     25633 MEOH     1079     MEOH     HO1      HDP1A    0.360000        1.0080           0   0.00000   0.00000
     25634 MEOH     1079     MEOH     HO2      DUMH     0.000000        1.0080           0   0.00000   0.00000
     25635 MEOH     1079     MEOH     H1A      HDA3B    0.080000        1.0080           0   0.00000   0.00000
     25636 MEOH     1079     MEOH     H1B      HDA3B    0.080000        1.0080           0   0.00000   0.00000
     25637 MEOH     1079     MEOH     H1C      HDA3B    0.080000        1.0080           0   0.00000   0.00000
     25638 MEOH     1079     MEOH     LP1A     LPD     -0.230000        0.0000           -1   0.00000   0.00000
     25639 MEOH     1079     MEOH     LP1B     LPD     -0.230000        0.0000           -1   0.00000   0.00000
     25640 MEOH     1080     MEOH     C1       CD33B    2.314100       11.6110           0   -1.00000   1.30000
     25641 MEOH     1080     MEOH     DC1      DRUD    -2.454100        0.4000           0   0.00000   0.00000
     25642 MEOH     1080     MEOH     O1       OD31H    2.488300       15.5990           0   -1.02800   1.30000
     25643 MEOH     1080     MEOH     DO1      DRUD    -2.488300        0.4000           0   0.00000   0.00000
     25644 MEOH     1080     MEOH     HO1      HDP1A    0.360000        1.0080           0   0.00000   0.00000
     25645 MEOH     1080     MEOH     HO2      DUMH     0.000000        1.0080           0   0.00000   0.00000
     25646 MEOH     1080     MEOH     H1A      HDA3B    0.080000        1.0080           0   0.00000   0.00000
     25647 MEOH     1080     MEOH     H1B      HDA3B    0.080000        1.0080           0   0.00000   0.00000
     25648 MEOH     1080     MEOH     H1C      HDA3B    0.080000        1.0080           0   0.00000   0.00000
     25649 MEOH     1080     MEOH     LP1A     LPD     -0.230000        0.0000           -1   0.00000   0.00000
     25650 MEOH     1080     MEOH     LP1B     LPD     -0.230000        0.0000           -1   0.00000   0.00000
     25651 MEOH     1081     MEOH     C1       CD33B    2.314100       11.6110           0   -1.00000   1.30000
     25652 MEOH     1081     MEOH     DC1      DRUD    -2.454100        0.4000           0   0.00000   0.00000
     25653 MEOH     1081     MEOH     O1       OD31H    2.488300       15.5990           0   -1.02800   1.30000
     25654 MEOH     1081     MEOH     DO1      DRUD    -2.488300        0.4000           0   0.00000   0.00000
     25655 MEOH     1081     MEOH     HO1      HDP1A    0.360000        1.0080           0   0.00000   0.00000
     25656 MEOH     1081     MEOH     HO2      DUMH     0.000000        1.0080           0   0.00000   0.00000
     25657 MEOH     1081     MEOH     H1A      HDA3B    0.080000        1.0080           0   0.00000   0.00000
     25658 MEOH     1081     MEOH     H1B      HDA3B    0.080000        1.0080           0   0.00000   0.00000
     25659 MEOH     1081     MEOH     H1C      HDA3B    0.080000        1.0080           0   0.00000   0.00000
     25660 MEOH     1081     MEOH     LP1A     LPD     -0.230000        0.0000           -1   0.00000   0.00000
     25661 MEOH     1081     MEOH     LP1B     LPD     -0.230000        0.0000           -1   0.00000   0.00000
     25662 MEOH     1082     MEOH     C1       CD33B    2.314100       11.6110           0   -1.00000   1.30000
     25663 MEOH     1082     MEOH     DC1      DRUD    -2.454100        0.4000           0   0.00000   0.00000
     25664 MEOH     1082     MEOH     O1       OD31H    2.488300       15.5990           0   -1.02800   1.30000
     25665 MEOH     1082     MEOH     DO1      DRUD    -2.488300        0.4000           0   0.00000   0.00000
     25666 MEOH     1082     MEOH     HO1      HDP1A    0.360000        1.0080           0   0.00000   0.00000
     25667 MEOH     1082     MEOH     HO2      DUMH     0.000000        1.0080           0   0.00000   0.00000
     25668 MEOH     1082     MEOH     H1A      HDA3B    0.080000        1.0080           0   0.00000   0.00000
     25669 MEOH     1082     MEOH     H1B      HDA3B    0.080000        1.0080           0   0.00000   0.00000
     25670 MEOH     1082     MEOH     H1C      HDA3B    0.080000        1.0080           0   0.00000   0.00000
     25671 MEOH     1082     MEOH     LP1A     LPD     -0.230000        0.0000           -1   0.00000   0.00000
     25672 MEOH     1082     MEOH     LP1B     LPD     -0.230000        0.0000           -1   0.00000   0.00000
     25673 MEOH     1083     MEOH     C1       CD33B    2.314100       11.6110           0   -1.00000   1.30000
     25674 MEOH     1083     MEOH     DC1      DRUD    -2.454100        0.4000           0   0.00000   0.00000
     25675 MEOH     1083     MEOH     O1       OD31H    2.488300       15.5990           0   -1.02800   1.30000
     25676 MEOH     1083     MEOH     DO1      DRUD    -2.488300        0.4000           0   0.00000   0.00000
     25677 MEOH     1083     MEOH     HO1      HDP1A    0.360000        1.0080           0   0.00000   0.00000
     25678 MEOH     1083     MEOH     HO2      DUMH     0.000000        1.0080           0   0.00000   0.00000
     25679 MEOH     1083     MEOH     H1A      HDA3B    0.080000        1.0080           0   0.00000   0.00000
     25680 MEOH     1083     MEOH     H1B      HDA3B    0.080000        1.0080           0   0.00000   0.00000
     25681 MEOH     1083     MEOH     H1C      HDA3B    0.080000        1.0080           0   0.00000   0.00000
     25682 MEOH     1083     MEOH     LP1A     LPD     -0.230000        0.0000           -1   0.00000   0.00000
     25683 MEOH     1083     MEOH     LP1B     LPD     -0.230000        0.0000           -1   0.00000   0.00000
     25684 MEOH     1084     MEOH     C1       CD33B    2.314100       11.6110           0   -1.00000   1.30000
     25685 MEOH     1084     MEOH     DC1      DRUD    -2.454100        0.4000           0   0.00000   0.00000
     25686 MEOH     1084     MEOH     O1       OD31H    2.488300       15.5990           0   -1.02800   1.30000
     25687 MEOH     1084     MEOH     DO1      DRUD    -2.488300        0.4000           0   0.00000   0.00000
     25688 MEOH     1084     MEOH     HO1      HDP1A    0.360000        1.0080           0   0.00000   0.00000
     25689 MEOH     1084     MEOH     HO2      DUMH     0.000000        1.0080           0   0.00000   0.00000
     25690 MEOH     1084     MEOH     H1A      HDA3B    0.080000        1.0080           0   0.00000   0.00000
     25691 MEOH     1084     MEOH     H1B      HDA3B    0.080000        1.0080           0   0.00000   0.00000
     25692 MEOH     1084     MEOH     H1C      HDA3B    0.080000        1.0080           0   0.00000   0.00000
     25693 MEOH     1084     MEOH     LP1A     LPD     -0.230000        0.0000           -1   0.00000   0.00000
     25694 MEOH     1084     MEOH     LP1B     LPD     -0.230000        0.0000           -1   0.00000   0.00000
     25695 MEOH     1085     MEOH     C1       CD33B    2.314100       11.6110           0   -1.00000   1.30000
     25696 MEOH     1085     MEOH     DC1      DRUD    -2.454100        0.4000           0   0.00000   0.00000
     25697 MEOH     1085     MEOH     O1       OD31H    2.488300       15.5990           0   -1.02800   1.30000
     25698 MEOH     1085     MEOH     DO1      DRUD    -2.488300        0.4000           0   0.00000   0.00000
     25699 MEOH     1085     MEOH     HO1      HDP1A    0.360000        1.0080           0   0.00000   0.00000
     25700 MEOH     1085     MEOH     HO2      DUMH     0.000000        1.0080           0   0.00000   0.00000
     25701 MEOH     1085     MEOH     H1A      HDA3B    0.080000        1.0080           0   0.00000   0.00000
     25702 MEOH     1085     MEOH     H1B      HDA3B    0.080000        1.0080           0   0.00000   0.00000
     25703 MEOH     1085     MEOH     H1C      HDA3B    0.080000        1.0080           0   0.00000   0.00000
     25704 MEOH     1085     MEOH     LP1A     LPD     -0.230000        0.0000           -1   0.00000   0.00000
     25705 MEOH     1085     MEOH     LP1B     LPD     -0.230000        0.0000           -1   0.00000   0.00000
     25706 MEOH     1086     MEOH     C1       CD33B    2.314100       11.6110           0   -1.00000   1.30000
     25707 MEOH     1086     MEOH     DC1      DRUD    -2.454100        0.4000           0   0.00000   0.00000
     25708 MEOH     1086     MEOH     O1       OD31H    2.488300       15.5990           0   -1.02800   1.30000
     25709 MEOH     1086     MEOH     DO1      DRUD    -2.488300        0.4000           0   0.00000   0.00000
     25710 MEOH     1086     MEOH     HO1      HDP1A    0.360000        1.0080           0   0.00000   0.00000
     25711 MEOH     1086     MEOH     HO2      DUMH     0.000000        1.0080           0   0.00000   0.00000
     25712 MEOH     1086     MEOH     H1A      HDA3B    0.080000        1.0080           0   0.00000   0.00000
     25713 MEOH     1086     MEOH     H1B      HDA3B    0.080000        1.0080           0   0.00000   0.00000
     25714 MEOH     1086     MEOH     H1C      HDA3B    0.080000        1.0080           0   0.00000   0.00000
     25715 MEOH     1086     MEOH     LP1A     LPD     -0.230000        0.0000           -1   0.00000   0.00000
     25716 MEOH     1086     MEOH     LP1B     LPD     -0.230000        0.0000           -1   0.00000   0.00000
     25717 MEOH     1087     MEOH     C1       CD33B    2.314100       11.6110           0   -1.00000   1.30000
     25718 MEOH     1087     MEOH     DC1      DRUD    -2.454100        0.4000           0   0.00000   0.00000
     25719 MEOH     1087     MEOH     O1       OD31H    2.488300       15.5990           0   -1.02800   1.30000
     25720 MEOH     1087     MEOH     DO1      DRUD    -2.488300        0.4000           0   0.00000   0.00000
     25721 MEOH     1087     MEOH     HO1      HDP1A    0.360000        1.0080           0   0.00000   0.00000
     25722 MEOH     1087     MEOH     HO2      DUMH     0.000000        1.0080           0   0.00000   0.00000
     25723 MEOH     1087     MEOH     H1A      HDA3B    0.080000        1.0080           0   0.00000   0.00000
     25724 MEOH     1087     MEOH     H1B      HDA3B    0.080000        1.0080           0   0.00000   0.00000
     25725 MEOH     1087     MEOH     H1C      HDA3B    0.080000        1.0080           0   0.00000   0.00000
     25726 MEOH     1087     MEOH     LP1A     LPD     -0.230000        0.0000           -1   0.00000   0.00000
     25727 MEOH     1087     MEOH     LP1B     LPD     -0.230000        0.0000           -1   0.00000   0.00000
     25728 MEOH     1088     MEOH     C1       CD33B    2.314100       11.6110           0   -1.00000   1.30000
     25729 MEOH     1088     MEOH     DC1      DRUD    -2.454100        0.4000           0   0.00000   0.00000
     25730 MEOH     1088     MEOH     O1       OD31H    2.488300       15.5990           0   -1.02800   1.30000
     25731 MEOH     1088     MEOH     DO1      DRUD    -2.488300        0.4000           0   0.00000   0.00000
     25732 MEOH     1088     MEOH     HO1      HDP1A    0.360000        1.0080           0   0.00000   0.00000
     25733 MEOH     1088     MEOH     HO2      DUMH     0.000000        1.0080           0   0.00000   0.00000
     25734 MEOH     1088     MEOH     H1A      HDA3B    0.080000        1.0080           0   0.00000   0.00000
     25735 MEOH     1088     MEOH     H1B      HDA3B    0.080000        1.0080           0   0.00000   0.00000
     25736 MEOH     1088     MEOH     H1C      HDA3B    0.080000        1.0080           0   0.00000   0.00000
     25737 MEOH     1088     MEOH     LP1A     LPD     -0.230000        0.0000           -1   0.00000   0.00000
     25738 MEOH     1088     MEOH     LP1B     LPD     -0.230000        0.0000           -1   0.00000   0.00000
     25739 MEOH     1089     MEOH     C1       CD33B    2.314100       11.6110           0   -1.00000   1.30000
     25740 MEOH     1089     MEOH     DC1      DRUD    -2.454100        0.4000           0   0.00000   0.00000
     25741 MEOH     1089     MEOH     O1       OD31H    2.488300       15.5990           0   -1.02800   1.30000
     25742 MEOH     1089     MEOH     DO1      DRUD    -2.488300        0.4000           0   0.00000   0.00000
     25743 MEOH     1089     MEOH     HO1      HDP1A    0.360000        1.0080           0   0.00000   0.00000
     25744 MEOH     1089     MEOH     HO2      DUMH     0.000000        1.0080           0   0.00000   0.00000
     25745 MEOH     1089     MEOH     H1A      HDA3B    0.080000        1.0080           0   0.00000   0.00000
     25746 MEOH     1089     MEOH     H1B      HDA3B    0.080000        1.0080           0   0.00000   0.00000
     25747 MEOH     1089     MEOH     H1C      HDA3B    0.080000        1.0080           0   0.00000   0.00000
     25748 MEOH     1089     MEOH     LP1A     LPD     -0.230000        0.0000           -1   0.00000   0.00000
     25749 MEOH     1089     MEOH     LP1B     LPD     -0.230000        0.0000           -1   0.00000   0.00000
     25750 MEOH     1090     MEOH     C1       CD33B    2.314100       11.6110           0   -1.00000   1.30000
     25751 MEOH     1090     MEOH     DC1      DRUD    -2.454100        0.4000           0   0.00000   0.00000
     25752 MEOH     1090     MEOH     O1       OD31H    2.488300       15.5990           0   -1.02800   1.30000
     25753 MEOH     1090     MEOH     DO1      DRUD    -2.488300        0.4000           0   0.00000   0.00000
     25754 MEOH     1090     MEOH     HO1      HDP1A    0.360000        1.0080           0   0.00000   0.00000
     25755 MEOH     1090     MEOH     HO2      DUMH     0.000000        1.0080           0   0.00000   0.00000
     25756 MEOH     1090     MEOH     H1A      HDA3B    0.080000        1.0080           0   0.00000   0.00000
     25757 MEOH     1090     MEOH     H1B      HDA3B    0.080000        1.0080           0   0.00000   0.00000
     25758 MEOH     1090     MEOH     H1C      HDA3B    0.080000        1.0080           0   0.00000   0.00000
     25759 MEOH     1090     MEOH     LP1A     LPD     -0.230000        0.0000           -1   0.00000   0.00000
     25760 MEOH     1090     MEOH     LP1B     LPD     -0.230000        0.0000           -1   0.00000   0.00000
     25761 MEOH     1091     MEOH     C1       CD33B    2.314100       11.6110           0   -1.00000   1.30000
     25762 MEOH     1091     MEOH     DC1      DRUD    -2.454100        0.4000           0   0.00000   0.00000
     25763 MEOH     1091     MEOH     O1       OD31H    2.488300       15.5990           0   -1.02800   1.30000
     25764 MEOH     1091     MEOH     DO1      DRUD    -2.488300        0.4000           0   0.00000   0.00000
     25765 MEOH     1091     MEOH     HO1      HDP1A    0.360000        1.0080           0   0.00000   0.00000
     25766 MEOH     1091     MEOH     HO2      DUMH     0.000000        1.0080           0   0.00000   0.00000
     25767 MEOH     1091     MEOH     H1A      HDA3B    0.080000        1.0080           0   0.00000   0.00000
     25768 MEOH     1091     MEOH     H1B      HDA3B    0.080000        1.0080           0   0.00000   0.00000
     25769 MEOH     1091     MEOH     H1C      HDA3B    0.080000        1.0080           0   0.00000   0.00000
     25770 MEOH     1091     MEOH     LP1A     LPD     -0.230000        0.0000           -1   0.00000   0.00000
     25771 MEOH     1091     MEOH     LP1B     LPD     -0.230000        0.0000           -1   0.00000   0.00000
     25772 MEOH     1092     MEOH     C1       CD33B    2.314100       11.6110           0   -1.00000   1.30000
     25773 MEOH     1092     MEOH     DC1      DRUD    -2.454100        0.4000           0   0.00000   0.00000
     25774 MEOH     1092     MEOH     O1       OD31H    2.488300       15.5990           0   -1.02800   1.30000
     25775 MEOH     1092     MEOH     DO1      DRUD    -2.488300        0.4000           0   0.00000   0.00000
     25776 MEOH     1092     MEOH     HO1      HDP1A    0.360000        1.0080           0   0.00000   0.00000
     25777 MEOH     1092     MEOH     HO2      DUMH     0.000000        1.0080           0   0.00000   0.00000
     25778 MEOH     1092     MEOH     H1A      HDA3B    0.080000        1.0080           0   0.00000   0.00000
     25779 MEOH     1092     MEOH     H1B      HDA3B    0.080000        1.0080           0   0.00000   0.00000
     25780 MEOH     1092     MEOH     H1C      HDA3B    0.080000        1.0080           0   0.00000   0.00000
     25781 MEOH     1092     MEOH     LP1A     LPD     -0.230000        0.0000           -1   0.00000   0.00000
     25782 MEOH     1092     MEOH     LP1B     LPD     -0.230000        0.0000           -1   0.00000   0.00000
     25783 MEOH     1093     MEOH     C1       CD33B    2.314100       11.6110           0   -1.00000   1.30000
     25784 MEOH     1093     MEOH     DC1      DRUD    -2.454100        0.4000           0   0.00000   0.00000
     25785 MEOH     1093     MEOH     O1       OD31H    2.488300       15.5990           0   -1.02800   1.30000
     25786 MEOH     1093     MEOH     DO1      DRUD    -2.488300        0.4000           0   0.00000   0.00000
     25787 MEOH     1093     MEOH     HO1      HDP1A    0.360000        1.0080           0   0.00000   0.00000
     25788 MEOH     1093     MEOH     HO2      DUMH     0.000000        1.0080           0   0.00000   0.00000
     25789 MEOH     1093     MEOH     H1A      HDA3B    0.080000        1.0080           0   0.00000   0.00000
     25790 MEOH     1093     MEOH     H1B      HDA3B    0.080000        1.0080           0   0.00000   0.00000
     25791 MEOH     1093     MEOH     H1C      HDA3B    0.080000        1.0080           0   0.00000   0.00000
     25792 MEOH     1093     MEOH     LP1A     LPD     -0.230000        0.0000           -1   0.00000   0.00000
     25793 MEOH     1093     MEOH     LP1B     LPD     -0.230000        0.0000           -1   0.00000   0.00000
     25794 MEOH     1094     MEOH     C1       CD33B    2.314100       11.6110           0   -1.00000   1.30000
     25795 MEOH     1094     MEOH     DC1      DRUD    -2.454100        0.4000           0   0.00000   0.00000
     25796 MEOH     1094     MEOH     O1       OD31H    2.488300       15.5990           0   -1.02800   1.30000
     25797 MEOH     1094     MEOH     DO1      DRUD    -2.488300        0.4000           0   0.00000   0.00000
     25798 MEOH     1094     MEOH     HO1      HDP1A    0.360000        1.0080           0   0.00000   0.00000
     25799 MEOH     1094     MEOH     HO2      DUMH     0.000000        1.0080           0   0.00000   0.00000
     25800 MEOH     1094     MEOH     H1A      HDA3B    0.080000        1.0080           0   0.00000   0.00000
     25801 MEOH     1094     MEOH     H1B      HDA3B    0.080000        1.0080           0   0.00000   0.00000
     25802 MEOH     1094     MEOH     H1C      HDA3B    0.080000        1.0080           0   0.00000   0.00000
     25803 MEOH     1094     MEOH     LP1A     LPD     -0.230000        0.0000           -1   0.00000   0.00000
     25804 MEOH     1094     MEOH     LP1B     LPD     -0.230000        0.0000           -1   0.00000   0.00000
     25805 MEOH     1095     MEOH     C1       CD33B    2.314100       11.6110           0   -1.00000   1.30000
     25806 MEOH     1095     MEOH     DC1      DRUD    -2.454100        0.4000           0   0.00000   0.00000
     25807 MEOH     1095     MEOH     O1       OD31H    2.488300       15.5990           0   -1.02800   1.30000
     25808 MEOH     1095     MEOH     DO1      DRUD    -2.488300        0.4000           0   0.00000   0.00000
     25809 MEOH     1095     MEOH     HO1      HDP1A    0.360000        1.0080           0   0.00000   0.00000
     25810 MEOH     1095     MEOH     HO2      DUMH     0.000000        1.0080           0   0.00000   0.00000
     25811 MEOH     1095     MEOH     H1A      HDA3B    0.080000        1.0080           0   0.00000   0.00000
     25812 MEOH     1095     MEOH     H1B      HDA3B    0.080000        1.0080           0   0.00000   0.00000
     25813 MEOH     1095     MEOH     H1C      HDA3B    0.080000        1.0080           0   0.00000   0.00000
     25814 MEOH     1095     MEOH     LP1A     LPD     -0.230000        0.0000           -1   0.00000   0.00000
     25815 MEOH     1095     MEOH     LP1B     LPD     -0.230000        0.0000           -1   0.00000   0.00000
     25816 MEOH     1096     MEOH     C1       CD33B    2.314100       11.6110           0   -1.00000   1.30000
     25817 MEOH     1096     MEOH     DC1      DRUD    -2.454100        0.4000           0   0.00000   0.00000
     25818 MEOH     1096     MEOH     O1       OD31H    2.488300       15.5990           0   -1.02800   1.30000
     25819 MEOH     1096     MEOH     DO1      DRUD    -2.488300        0.4000           0   0.00000   0.00000
     25820 MEOH     1096     MEOH     HO1      HDP1A    0.360000        1.0080           0   0.00000   0.00000
     25821 MEOH     1096     MEOH     HO2      DUMH     0.000000        1.0080           0   0.00000   0.00000
     25822 MEOH     1096     MEOH     H1A      HDA3B    0.080000        1.0080           0   0.00000   0.00000
     25823 MEOH     1096     MEOH     H1B      HDA3B    0.080000        1.0080           0   0.00000   0.00000
     25824 MEOH     1096     MEOH     H1C      HDA3B    0.080000        1.0080           0   0.00000   0.00000
     25825 MEOH     1096     MEOH     LP1A     LPD     -0.230000        0.0000           -1   0.00000   0.00000
     25826 MEOH     1096     MEOH     LP1B     LPD     -0.230000        0.0000           -1   0.00000   0.00000
     25827 MEOH     1097     MEOH     C1       CD33B    2.314100       11.6110           0   -1.00000   1.30000
     25828 MEOH     1097     MEOH     DC1      DRUD    -2.454100        0.4000           0   0.00000   0.00000
     25829 MEOH     1097     MEOH     O1       OD31H    2.488300       15.5990           0   -1.02800   1.30000
     25830 MEOH     1097     MEOH     DO1      DRUD    -2.488300        0.4000           0   0.00000   0.00000
     25831 MEOH     1097     MEOH     HO1      HDP1A    0.360000        1.0080           0   0.00000   0.00000
     25832 MEOH     1097     MEOH     HO2      DUMH     0.000000        1.0080           0   0.00000   0.00000
     25833 MEOH     1097     MEOH     H1A      HDA3B    0.080000        1.0080           0   0.00000   0.00000
     25834 MEOH     1097     MEOH     H1B      HDA3B    0.080000        1.0080           0   0.00000   0.00000
     25835 MEOH     1097     MEOH     H1C      HDA3B    0.080000        1.0080           0   0.00000   0.00000
     25836 MEOH     1097     MEOH     LP1A     LPD     -0.230000        0.0000           -1   0.00000   0.00000
     25837 MEOH     1097     MEOH     LP1B     LPD     -0.230000        0.0000           -1   0.00000   0.00000
     25838 MEOH     1098     MEOH     C1       CD33B    2.314100       11.6110           0   -1.00000   1.30000
     25839 MEOH     1098     MEOH     DC1      DRUD    -2.454100        0.4000           0   0.00000   0.00000
     25840 MEOH     1098     MEOH     O1       OD31H    2.488300       15.5990           0   -1.02800   1.30000
     25841 MEOH     1098     MEOH     DO1      DRUD    -2.488300        0.4000           0   0.00000   0.00000
     25842 MEOH     1098     MEOH     HO1      HDP1A    0.360000        1.0080           0   0.00000   0.00000
     25843 MEOH     1098     MEOH     HO2      DUMH     0.000000        1.0080           0   0.00000   0.00000
     25844 MEOH     1098     MEOH     H1A      HDA3B    0.080000        1.0080           0   0.00000   0.00000
     25845 MEOH     1098     MEOH     H1B      HDA3B    0.080000        1.0080           0   0.00000   0.00000
     25846 MEOH     1098     MEOH     H1C      HDA3B    0.080000        1.0080           0   0.00000   0.00000
     25847 MEOH     1098     MEOH     LP1A     LPD     -0.230000        0.0000           -1   0.00000   0.00000
     25848 MEOH     1098     MEOH     LP1B     LPD     -0.230000        0.0000           -1   0.00000   0.00000
     25849 MEOH     1099     MEOH     C1       CD33B    2.314100       11.6110           0   -1.00000   1.30000
     25850 MEOH     1099     MEOH     DC1      DRUD    -2.454100        0.4000           0   0.00000   0.00000
     25851 MEOH     1099     MEOH     O1       OD31H    2.488300       15.5990           0   -1.02800   1.30000
     25852 MEOH     1099     MEOH     DO1      DRUD    -2.488300        0.4000           0   0.00000   0.00000
     25853 MEOH     1099     MEOH     HO1      HDP1A    0.360000        1.0080           0   0.00000   0.00000
     25854 MEOH     1099     MEOH     HO2      DUMH     0.000000        1.0080           0   0.00000   0.00000
     25855 MEOH     1099     MEOH     H1A      HDA3B    0.080000        1.0080           0   0.00000   0.00000
     25856 MEOH     1099     MEOH     H1B      HDA3B    0.080000        1.0080           0   0.00000   0.00000
     25857 MEOH     1099     MEOH     H1C      HDA3B    0.080000        1.0080           0   0.00000   0.00000
     25858 MEOH     1099     MEOH     LP1A     LPD     -0.230000        0.0000           -1   0.00000   0.00000
     25859 MEOH     1099     MEOH     LP1B     LPD     -0.230000        0.0000           -1   0.00000   0.00000
     25860 MEOH     1100     MEOH     C1       CD33B    2.314100       11.6110           0   -1.00000   1.30000
     25861 MEOH     1100     MEOH     DC1      DRUD    -2.454100        0.4000           0   0.00000   0.00000
     25862 MEOH     1100     MEOH     O1       OD31H    2.488300       15.5990           0   -1.02800   1.30000
     25863 MEOH     1100     MEOH     DO1      DRUD    -2.488300        0.4000           0   0.00000   0.00000
     25864 MEOH     1100     MEOH     HO1      HDP1A    0.360000        1.0080           0   0.00000   0.00000
     25865 MEOH     1100     MEOH     HO2      DUMH     0.000000        1.0080           0   0.00000   0.00000
     25866 MEOH     1100     MEOH     H1A      HDA3B    0.080000        1.0080           0   0.00000   0.00000
     25867 MEOH     1100     MEOH     H1B      HDA3B    0.080000        1.0080           0   0.00000   0.00000
     25868 MEOH     1100     MEOH     H1C      HDA3B    0.080000        1.0080           0   0.00000   0.00000
     25869 MEOH     1100     MEOH     LP1A     LPD     -0.230000        0.0000           -1   0.00000   0.00000
     25870 MEOH     1100     MEOH     LP1B     LPD     -0.230000        0.0000           -1   0.00000   0.00000
     25871 MEOH     1101     MEOH     C1       CD33B    2.314100       11.6110           0   -1.00000   1.30000
     25872 MEOH     1101     MEOH     DC1      DRUD    -2.454100        0.4000           0   0.00000   0.00000
     25873 MEOH     1101     MEOH     O1       OD31H    2.488300       15.5990           0   -1.02800   1.30000
     25874 MEOH     1101     MEOH     DO1      DRUD    -2.488300        0.4000           0   0.00000   0.00000
     25875 MEOH     1101     MEOH     HO1      HDP1A    0.360000        1.0080           0   0.00000   0.00000
     25876 MEOH     1101     MEOH     HO2      DUMH     0.000000        1.0080           0   0.00000   0.00000
     25877 MEOH     1101     MEOH     H1A      HDA3B    0.080000        1.0080           0   0.00000   0.00000
     25878 MEOH     1101     MEOH     H1B      HDA3B    0.080000        1.0080           0   0.00000   0.00000
     25879 MEOH     1101     MEOH     H1C      HDA3B    0.080000        1.0080           0   0.00000   0.00000
     25880 MEOH     1101     MEOH     LP1A     LPD     -0.230000        0.0000           -1   0.00000   0.00000
     25881 MEOH     1101     MEOH     LP1B     LPD     -0.230000        0.0000           -1   0.00000   0.00000
     25882 MEOH     1102     MEOH     C1       CD33B    2.314100       11.6110           0   -1.00000   1.30000
     25883 MEOH     1102     MEOH     DC1      DRUD    -2.454100        0.4000           0   0.00000   0.00000
     25884 MEOH     1102     MEOH     O1       OD31H    2.488300       15.5990           0   -1.02800   1.30000
     25885 MEOH     1102     MEOH     DO1      DRUD    -2.488300        0.4000           0   0.00000   0.00000
     25886 MEOH     1102     MEOH     HO1      HDP1A    0.360000        1.0080           0   0.00000   0.00000
     25887 MEOH     1102     MEOH     HO2      DUMH     0.000000        1.0080           0   0.00000   0.00000
     25888 MEOH     1102     MEOH     H1A      HDA3B    0.080000        1.0080           0   0.00000   0.00000
     25889 MEOH     1102     MEOH     H1B      HDA3B    0.080000        1.0080           0   0.00000   0.00000
     25890 MEOH     1102     MEOH     H1C      HDA3B    0.080000        1.0080           0   0.00000   0.00000
     25891 MEOH     1102     MEOH     LP1A     LPD     -0.230000        0.0000           -1   0.00000   0.00000
     25892 MEOH     1102     MEOH     LP1B     LPD     -0.230000        0.0000           -1   0.00000   0.00000
     25893 MEOH     1103     MEOH     C1       CD33B    2.314100       11.6110           0   -1.00000   1.30000
     25894 MEOH     1103     MEOH     DC1      DRUD    -2.454100        0.4000           0   0.00000   0.00000
     25895 MEOH     1103     MEOH     O1       OD31H    2.488300       15.5990           0   -1.02800   1.30000
     25896 MEOH     1103     MEOH     DO1      DRUD    -2.488300        0.4000           0   0.00000   0.00000
     25897 MEOH     1103     MEOH     HO1      HDP1A    0.360000        1.0080           0   0.00000   0.00000
     25898 MEOH     1103     MEOH     HO2      DUMH     0.000000        1.0080           0   0.00000   0.00000
     25899 MEOH     1103     MEOH     H1A      HDA3B    0.080000        1.0080           0   0.00000   0.00000
     25900 MEOH     1103     MEOH     H1B      HDA3B    0.080000        1.0080           0   0.00000   0.00000
     25901 MEOH     1103     MEOH     H1C      HDA3B    0.080000        1.0080           0   0.00000   0.00000
     25902 MEOH     1103     MEOH     LP1A     LPD     -0.230000        0.0000           -1   0.00000   0.00000
     25903 MEOH     1103     MEOH     LP1B     LPD     -0.230000        0.0000           -1   0.00000   0.00000
     25904 MEOH     1104     MEOH     C1       CD33B    2.314100       11.6110           0   -1.00000   1.30000
     25905 MEOH     1104     MEOH     DC1      DRUD    -2.454100        0.4000           0   0.00000   0.00000
     25906 MEOH     1104     MEOH     O1       OD31H    2.488300       15.5990           0   -1.02800   1.30000
     25907 MEOH     1104     MEOH     DO1      DRUD    -2.488300        0.4000           0   0.00000   0.00000
     25908 MEOH     1104     MEOH     HO1      HDP1A    0.360000        1.0080           0   0.00000   0.00000
     25909 MEOH     1104     MEOH     HO2      DUMH     0.000000        1.0080           0   0.00000   0.00000
     25910 MEOH     1104     MEOH     H1A      HDA3B    0.080000        1.0080           0   0.00000   0.00000
     25911 MEOH     1104     MEOH     H1B      HDA3B    0.080000        1.0080           0   0.00000   0.00000
     25912 MEOH     1104     MEOH     H1C      HDA3B    0.080000        1.0080           0   0.00000   0.00000
     25913 MEOH     1104     MEOH     LP1A     LPD     -0.230000        0.0000           -1   0.00000   0.00000
     25914 MEOH     1104     MEOH     LP1B     LPD     -0.230000        0.0000           -1   0.00000   0.00000
     25915 MEOH     1105     MEOH     C1       CD33B    2.314100       11.6110           0   -1.00000   1.30000
     25916 MEOH     1105     MEOH     DC1      DRUD    -2.454100        0.4000           0   0.00000   0.00000
     25917 MEOH     1105     MEOH     O1       OD31H    2.488300       15.5990           0   -1.02800   1.30000
     25918 MEOH     1105     MEOH     DO1      DRUD    -2.488300        0.4000           0   0.00000   0.00000
     25919 MEOH     1105     MEOH     HO1      HDP1A    0.360000        1.0080           0   0.00000   0.00000
     25920 MEOH     1105     MEOH     HO2      DUMH     0.000000        1.0080           0   0.00000   0.00000
     25921 MEOH     1105     MEOH     H1A      HDA3B    0.080000        1.0080           0   0.00000   0.00000
     25922 MEOH     1105     MEOH     H1B      HDA3B    0.080000        1.0080           0   0.00000   0.00000
     25923 MEOH     1105     MEOH     H1C      HDA3B    0.080000        1.0080           0   0.00000   0.00000
     25924 MEOH     1105     MEOH     LP1A     LPD     -0.230000        0.0000           -1   0.00000   0.00000
     25925 MEOH     1105     MEOH     LP1B     LPD     -0.230000        0.0000           -1   0.00000   0.00000
     25926 MEOH     1106     MEOH     C1       CD33B    2.314100       11.6110           0   -1.00000   1.30000
     25927 MEOH     1106     MEOH     DC1      DRUD    -2.454100        0.4000           0   0.00000   0.00000
     25928 MEOH     1106     MEOH     O1       OD31H    2.488300       15.5990           0   -1.02800   1.30000
     25929 MEOH     1106     MEOH     DO1      DRUD    -2.488300        0.4000           0   0.00000   0.00000
     25930 MEOH     1106     MEOH     HO1      HDP1A    0.360000        1.0080           0   0.00000   0.00000
     25931 MEOH     1106     MEOH     HO2      DUMH     0.000000        1.0080           0   0.00000   0.00000
     25932 MEOH     1106     MEOH     H1A      HDA3B    0.080000        1.0080           0   0.00000   0.00000
     25933 MEOH     1106     MEOH     H1B      HDA3B    0.080000        1.0080           0   0.00000   0.00000
     25934 MEOH     1106     MEOH     H1C      HDA3B    0.080000        1.0080           0   0.00000   0.00000
     25935 MEOH     1106     MEOH     LP1A     LPD     -0.230000        0.0000           -1   0.00000   0.00000
     25936 MEOH     1106     MEOH     LP1B     LPD     -0.230000        0.0000           -1   0.00000   0.00000
     25937 MEOH     1107     MEOH     C1       CD33B    2.314100       11.6110           0   -1.00000   1.30000
     25938 MEOH     1107     MEOH     DC1      DRUD    -2.454100        0.4000           0   0.00000   0.00000
     25939 MEOH     1107     MEOH     O1       OD31H    2.488300       15.5990           0   -1.02800   1.30000
     25940 MEOH     1107     MEOH     DO1      DRUD    -2.488300        0.4000           0   0.00000   0.00000
     25941 MEOH     1107     MEOH     HO1      HDP1A    0.360000        1.0080           0   0.00000   0.00000
     25942 MEOH     1107     MEOH     HO2      DUMH     0.000000        1.0080           0   0.00000   0.00000
     25943 MEOH     1107     MEOH     H1A      HDA3B    0.080000        1.0080           0   0.00000   0.00000
     25944 MEOH     1107     MEOH     H1B      HDA3B    0.080000        1.0080           0   0.00000   0.00000
     25945 MEOH     1107     MEOH     H1C      HDA3B    0.080000        1.0080           0   0.00000   0.00000
     25946 MEOH     1107     MEOH     LP1A     LPD     -0.230000        0.0000           -1   0.00000   0.00000
     25947 MEOH     1107     MEOH     LP1B     LPD     -0.230000        0.0000           -1   0.00000   0.00000
     25948 MEOH     1108     MEOH     C1       CD33B    2.314100       11.6110           0   -1.00000   1.30000
     25949 MEOH     1108     MEOH     DC1      DRUD    -2.454100        0.4000           0   0.00000   0.00000
     25950 MEOH     1108     MEOH     O1       OD31H    2.488300       15.5990           0   -1.02800   1.30000
     25951 MEOH     1108     MEOH     DO1      DRUD    -2.488300        0.4000           0   0.00000   0.00000
     25952 MEOH     1108     MEOH     HO1      HDP1A    0.360000        1.0080           0   0.00000   0.00000
     25953 MEOH     1108     MEOH     HO2      DUMH     0.000000        1.0080           0   0.00000   0.00000
     25954 MEOH     1108     MEOH     H1A      HDA3B    0.080000        1.0080           0   0.00000   0.00000
     25955 MEOH     1108     MEOH     H1B      HDA3B    0.080000        1.0080           0   0.00000   0.00000
     25956 MEOH     1108     MEOH     H1C      HDA3B    0.080000        1.0080           0   0.00000   0.00000
     25957 MEOH     1108     MEOH     LP1A     LPD     -0.230000        0.0000           -1   0.00000   0.00000
     25958 MEOH     1108     MEOH     LP1B     LPD     -0.230000        0.0000           -1   0.00000   0.00000
     25959 MEOH     1109     MEOH     C1       CD33B    2.314100       11.6110           0   -1.00000   1.30000
     25960 MEOH     1109     MEOH     DC1      DRUD    -2.454100        0.4000           0   0.00000   0.00000
     25961 MEOH     1109     MEOH     O1       OD31H    2.488300       15.5990           0   -1.02800   1.30000
     25962 MEOH     1109     MEOH     DO1      DRUD    -2.488300        0.4000           0   0.00000   0.00000
     25963 MEOH     1109     MEOH     HO1      HDP1A    0.360000        1.0080           0   0.00000   0.00000
     25964 MEOH     1109     MEOH     HO2      DUMH     0.000000        1.0080           0   0.00000   0.00000
     25965 MEOH     1109     MEOH     H1A      HDA3B    0.080000        1.0080           0   0.00000   0.00000
     25966 MEOH     1109     MEOH     H1B      HDA3B    0.080000        1.0080           0   0.00000   0.00000
     25967 MEOH     1109     MEOH     H1C      HDA3B    0.080000        1.0080           0   0.00000   0.00000
     25968 MEOH     1109     MEOH     LP1A     LPD     -0.230000        0.0000           -1   0.00000   0.00000
     25969 MEOH     1109     MEOH     LP1B     LPD     -0.230000        0.0000           -1   0.00000   0.00000
     25970 MEOH     1110     MEOH     C1       CD33B    2.314100       11.6110           0   -1.00000   1.30000
     25971 MEOH     1110     MEOH     DC1      DRUD    -2.454100        0.4000           0   0.00000   0.00000
     25972 MEOH     1110     MEOH     O1       OD31H    2.488300       15.5990           0   -1.02800   1.30000
     25973 MEOH     1110     MEOH     DO1      DRUD    -2.488300        0.4000           0   0.00000   0.00000
     25974 MEOH     1110     MEOH     HO1      HDP1A    0.360000        1.0080           0   0.00000   0.00000
     25975 MEOH     1110     MEOH     HO2      DUMH     0.000000        1.0080           0   0.00000   0.00000
     25976 MEOH     1110     MEOH     H1A      HDA3B    0.080000        1.0080           0   0.00000   0.00000
     25977 MEOH     1110     MEOH     H1B      HDA3B    0.080000        1.0080           0   0.00000   0.00000
     25978 MEOH     1110     MEOH     H1C      HDA3B    0.080000        1.0080           0   0.00000   0.00000
     25979 MEOH     1110     MEOH     LP1A     LPD     -0.230000        0.0000           -1   0.00000   0.00000
     25980 MEOH     1110     MEOH     LP1B     LPD     -0.230000        0.0000           -1   0.00000   0.00000
     25981 MEOH     1111     MEOH     C1       CD33B    2.314100       11.6110           0   -1.00000   1.30000
     25982 MEOH     1111     MEOH     DC1      DRUD    -2.454100        0.4000           0   0.00000   0.00000
     25983 MEOH     1111     MEOH     O1       OD31H    2.488300       15.5990           0   -1.02800   1.30000
     25984 MEOH     1111     MEOH     DO1      DRUD    -2.488300        0.4000           0   0.00000   0.00000
     25985 MEOH     1111     MEOH     HO1      HDP1A    0.360000        1.0080           0   0.00000   0.00000
     25986 MEOH     1111     MEOH     HO2      DUMH     0.000000        1.0080           0   0.00000   0.00000
     25987 MEOH     1111     MEOH     H1A      HDA3B    0.080000        1.0080           0   0.00000   0.00000
     25988 MEOH     1111     MEOH     H1B      HDA3B    0.080000        1.0080           0   0.00000   0.00000
     25989 MEOH     1111     MEOH     H1C      HDA3B    0.080000        1.0080           0   0.00000   0.00000
     25990 MEOH     1111     MEOH     LP1A     LPD     -0.230000        0.0000           -1   0.00000   0.00000
     25991 MEOH     1111     MEOH     LP1B     LPD     -0.230000        0.0000           -1   0.00000   0.00000
     25992 MEOH     1112     MEOH     C1       CD33B    2.314100       11.6110           0   -1.00000   1.30000
     25993 MEOH     1112     MEOH     DC1      DRUD    -2.454100        0.4000           0   0.00000   0.00000
     25994 MEOH     1112     MEOH     O1       OD31H    2.488300       15.5990           0   -1.02800   1.30000
     25995 MEOH     1112     MEOH     DO1      DRUD    -2.488300        0.4000           0   0.00000   0.00000
     25996 MEOH     1112     MEOH     HO1      HDP1A    0.360000        1.0080           0   0.00000   0.00000
     25997 MEOH     1112     MEOH     HO2      DUMH     0.000000        1.0080           0   0.00000   0.00000
     25998 MEOH     1112     MEOH     H1A      HDA3B    0.080000        1.0080           0   0.00000   0.00000
     25999 MEOH     1112     MEOH     H1B      HDA3B    0.080000        1.0080           0   0.00000   0.00000
     26000 MEOH     1112     MEOH     H1C      HDA3B    0.080000        1.0080           0   0.00000   0.00000
     26001 MEOH     1112     MEOH     LP1A     LPD     -0.230000        0.0000           -1   0.00000   0.00000
     26002 MEOH     1112     MEOH     LP1B     LPD     -0.230000        0.0000           -1   0.00000   0.00000
     26003 MEOH     1113     MEOH     C1       CD33B    2.314100       11.6110           0   -1.00000   1.30000
     26004 MEOH     1113     MEOH     DC1      DRUD    -2.454100        0.4000           0   0.00000   0.00000
     26005 MEOH     1113     MEOH     O1       OD31H    2.488300       15.5990           0   -1.02800   1.30000
     26006 MEOH     1113     MEOH     DO1      DRUD    -2.488300        0.4000           0   0.00000   0.00000
     26007 MEOH     1113     MEOH     HO1      HDP1A    0.360000        1.0080           0   0.00000   0.00000
     26008 MEOH     1113     MEOH     HO2      DUMH     0.000000        1.0080           0   0.00000   0.00000
     26009 MEOH     1113     MEOH     H1A      HDA3B    0.080000        1.0080           0   0.00000   0.00000
     26010 MEOH     1113     MEOH     H1B      HDA3B    0.080000        1.0080           0   0.00000   0.00000
     26011 MEOH     1113     MEOH     H1C      HDA3B    0.080000        1.0080           0   0.00000   0.00000
     26012 MEOH     1113     MEOH     LP1A     LPD     -0.230000        0.0000           -1   0.00000   0.00000
     26013 MEOH     1113     MEOH     LP1B     LPD     -0.230000        0.0000           -1   0.00000   0.00000
     26014 MEOH     1114     MEOH     C1       CD33B    2.314100       11.6110           0   -1.00000   1.30000
     26015 MEOH     1114     MEOH     DC1      DRUD    -2.454100        0.4000           0   0.00000   0.00000
     26016 MEOH     1114     MEOH     O1       OD31H    2.488300       15.5990           0   -1.02800   1.30000
     26017 MEOH     1114     MEOH     DO1      DRUD    -2.488300        0.4000           0   0.00000   0.00000
     26018 MEOH     1114     MEOH     HO1      HDP1A    0.360000        1.0080           0   0.00000   0.00000
     26019 MEOH     1114     MEOH     HO2      DUMH     0.000000        1.0080           0   0.00000   0.00000
     26020 MEOH     1114     MEOH     H1A      HDA3B    0.080000        1.0080           0   0.00000   0.00000
     26021 MEOH     1114     MEOH     H1B      HDA3B    0.080000        1.0080           0   0.00000   0.00000
     26022 MEOH     1114     MEOH     H1C      HDA3B    0.080000        1.0080           0   0.00000   0.00000
     26023 MEOH     1114     MEOH     LP1A     LPD     -0.230000        0.0000           -1   0.00000   0.00000
     26024 MEOH     1114     MEOH     LP1B     LPD     -0.230000        0.0000           -1   0.00000   0.00000
     26025 MEOH     1115     MEOH     C1       CD33B    2.314100       11.6110           0   -1.00000   1.30000
     26026 MEOH     1115     MEOH     DC1      DRUD    -2.454100        0.4000           0   0.00000   0.00000
     26027 MEOH     1115     MEOH     O1       OD31H    2.488300       15.5990           0   -1.02800   1.30000
     26028 MEOH     1115     MEOH     DO1      DRUD    -2.488300        0.4000           0   0.00000   0.00000
     26029 MEOH     1115     MEOH     HO1      HDP1A    0.360000        1.0080           0   0.00000   0.00000
     26030 MEOH     1115     MEOH     HO2      DUMH     0.000000        1.0080           0   0.00000   0.00000
     26031 MEOH     1115     MEOH     H1A      HDA3B    0.080000        1.0080           0   0.00000   0.00000
     26032 MEOH     1115     MEOH     H1B      HDA3B    0.080000        1.0080           0   0.00000   0.00000
     26033 MEOH     1115     MEOH     H1C      HDA3B    0.080000        1.0080           0   0.00000   0.00000
     26034 MEOH     1115     MEOH     LP1A     LPD     -0.230000        0.0000           -1   0.00000   0.00000
     26035 MEOH     1115     MEOH     LP1B     LPD     -0.230000        0.0000           -1   0.00000   0.00000
     26036 MEOH     1116     MEOH     C1       CD33B    2.314100       11.6110           0   -1.00000   1.30000
     26037 MEOH     1116     MEOH     DC1      DRUD    -2.454100        0.4000           0   0.00000   0.00000
     26038 MEOH     1116     MEOH     O1       OD31H    2.488300       15.5990           0   -1.02800   1.30000
     26039 MEOH     1116     MEOH     DO1      DRUD    -2.488300        0.4000           0   0.00000   0.00000
     26040 MEOH     1116     MEOH     HO1      HDP1A    0.360000        1.0080           0   0.00000   0.00000
     26041 MEOH     1116     MEOH     HO2      DUMH     0.000000        1.0080           0   0.00000   0.00000
     26042 MEOH     1116     MEOH     H1A      HDA3B    0.080000        1.0080           0   0.00000   0.00000
     26043 MEOH     1116     MEOH     H1B      HDA3B    0.080000        1.0080           0   0.00000   0.00000
     26044 MEOH     1116     MEOH     H1C      HDA3B    0.080000        1.0080           0   0.00000   0.00000
     26045 MEOH     1116     MEOH     LP1A     LPD     -0.230000        0.0000           -1   0.00000   0.00000
     26046 MEOH     1116     MEOH     LP1B     LPD     -0.230000        0.0000           -1   0.00000   0.00000
     26047 MEOH     1117     MEOH     C1       CD33B    2.314100       11.6110           0   -1.00000   1.30000
     26048 MEOH     1117     MEOH     DC1      DRUD    -2.454100        0.4000           0   0.00000   0.00000
     26049 MEOH     1117     MEOH     O1       OD31H    2.488300       15.5990           0   -1.02800   1.30000
     26050 MEOH     1117     MEOH     DO1      DRUD    -2.488300        0.4000           0   0.00000   0.00000
     26051 MEOH     1117     MEOH     HO1      HDP1A    0.360000        1.0080           0   0.00000   0.00000
     26052 MEOH     1117     MEOH     HO2      DUMH     0.000000        1.0080           0   0.00000   0.00000
     26053 MEOH     1117     MEOH     H1A      HDA3B    0.080000        1.0080           0   0.00000   0.00000
     26054 MEOH     1117     MEOH     H1B      HDA3B    0.080000        1.0080           0   0.00000   0.00000
     26055 MEOH     1117     MEOH     H1C      HDA3B    0.080000        1.0080           0   0.00000   0.00000
     26056 MEOH     1117     MEOH     LP1A     LPD     -0.230000        0.0000           -1   0.00000   0.00000
     26057 MEOH     1117     MEOH     LP1B     LPD     -0.230000        0.0000           -1   0.00000   0.00000
     26058 MEOH     1118     MEOH     C1       CD33B    2.314100       11.6110           0   -1.00000   1.30000
     26059 MEOH     1118     MEOH     DC1      DRUD    -2.454100        0.4000           0   0.00000   0.00000
     26060 MEOH     1118     MEOH     O1       OD31H    2.488300       15.5990           0   -1.02800   1.30000
     26061 MEOH     1118     MEOH     DO1      DRUD    -2.488300        0.4000           0   0.00000   0.00000
     26062 MEOH     1118     MEOH     HO1      HDP1A    0.360000        1.0080           0   0.00000   0.00000
     26063 MEOH     1118     MEOH     HO2      DUMH     0.000000        1.0080           0   0.00000   0.00000
     26064 MEOH     1118     MEOH     H1A      HDA3B    0.080000        1.0080           0   0.00000   0.00000
     26065 MEOH     1118     MEOH     H1B      HDA3B    0.080000        1.0080           0   0.00000   0.00000
     26066 MEOH     1118     MEOH     H1C      HDA3B    0.080000        1.0080           0   0.00000   0.00000
     26067 MEOH     1118     MEOH     LP1A     LPD     -0.230000        0.0000           -1   0.00000   0.00000
     26068 MEOH     1118     MEOH     LP1B     LPD     -0.230000        0.0000           -1   0.00000   0.00000
     26069 MEOH     1119     MEOH     C1       CD33B    2.314100       11.6110           0   -1.00000   1.30000
     26070 MEOH     1119     MEOH     DC1      DRUD    -2.454100        0.4000           0   0.00000   0.00000
     26071 MEOH     1119     MEOH     O1       OD31H    2.488300       15.5990           0   -1.02800   1.30000
     26072 MEOH     1119     MEOH     DO1      DRUD    -2.488300        0.4000           0   0.00000   0.00000
     26073 MEOH     1119     MEOH     HO1      HDP1A    0.360000        1.0080           0   0.00000   0.00000
     26074 MEOH     1119     MEOH     HO2      DUMH     0.000000        1.0080           0   0.00000   0.00000
     26075 MEOH     1119     MEOH     H1A      HDA3B    0.080000        1.0080           0   0.00000   0.00000
     26076 MEOH     1119     MEOH     H1B      HDA3B    0.080000        1.0080           0   0.00000   0.00000
     26077 MEOH     1119     MEOH     H1C      HDA3B    0.080000        1.0080           0   0.00000   0.00000
     26078 MEOH     1119     MEOH     LP1A     LPD     -0.230000        0.0000           -1   0.00000   0.00000
     26079 MEOH     1119     MEOH     LP1B     LPD     -0.230000        0.0000           -1   0.00000   0.00000
     26080 MEOH     1120     MEOH     C1       CD33B    2.314100       11.6110           0   -1.00000   1.30000
     26081 MEOH     1120     MEOH     DC1      DRUD    -2.454100        0.4000           0   0.00000   0.00000
     26082 MEOH     1120     MEOH     O1       OD31H    2.488300       15.5990           0   -1.02800   1.30000
     26083 MEOH     1120     MEOH     DO1      DRUD    -2.488300        0.4000           0   0.00000   0.00000
     26084 MEOH     1120     MEOH     HO1      HDP1A    0.360000        1.0080           0   0.00000   0.00000
     26085 MEOH     1120     MEOH     HO2      DUMH     0.000000        1.0080           0   0.00000   0.00000
     26086 MEOH     1120     MEOH     H1A      HDA3B    0.080000        1.0080           0   0.00000   0.00000
     26087 MEOH     1120     MEOH     H1B      HDA3B    0.080000        1.0080           0   0.00000   0.00000
     26088 MEOH     1120     MEOH     H1C      HDA3B    0.080000        1.0080           0   0.00000   0.00000
     26089 MEOH     1120     MEOH     LP1A     LPD     -0.230000        0.0000           -1   0.00000   0.00000
     26090 MEOH     1120     MEOH     LP1B     LPD     -0.230000        0.0000           -1   0.00000   0.00000
     26091 MEOH     1121     MEOH     C1       CD33B    2.314100       11.6110           0   -1.00000   1.30000
     26092 MEOH     1121     MEOH     DC1      DRUD    -2.454100        0.4000           0   0.00000   0.00000
     26093 MEOH     1121     MEOH     O1       OD31H    2.488300       15.5990           0   -1.02800   1.30000
     26094 MEOH     1121     MEOH     DO1      DRUD    -2.488300        0.4000           0   0.00000   0.00000
     26095 MEOH     1121     MEOH     HO1      HDP1A    0.360000        1.0080           0   0.00000   0.00000
     26096 MEOH     1121     MEOH     HO2      DUMH     0.000000        1.0080           0   0.00000   0.00000
     26097 MEOH     1121     MEOH     H1A      HDA3B    0.080000        1.0080           0   0.00000   0.00000
     26098 MEOH     1121     MEOH     H1B      HDA3B    0.080000        1.0080           0   0.00000   0.00000
     26099 MEOH     1121     MEOH     H1C      HDA3B    0.080000        1.0080           0   0.00000   0.00000
     26100 MEOH     1121     MEOH     LP1A     LPD     -0.230000        0.0000           -1   0.00000   0.00000
     26101 MEOH     1121     MEOH     LP1B     LPD     -0.230000        0.0000           -1   0.00000   0.00000
     26102 MEOH     1122     MEOH     C1       CD33B    2.314100       11.6110           0   -1.00000   1.30000
     26103 MEOH     1122     MEOH     DC1      DRUD    -2.454100        0.4000           0   0.00000   0.00000
     26104 MEOH     1122     MEOH     O1       OD31H    2.488300       15.5990           0   -1.02800   1.30000
     26105 MEOH     1122     MEOH     DO1      DRUD    -2.488300        0.4000           0   0.00000   0.00000
     26106 MEOH     1122     MEOH     HO1      HDP1A    0.360000        1.0080           0   0.00000   0.00000
     26107 MEOH     1122     MEOH     HO2      DUMH     0.000000        1.0080           0   0.00000   0.00000
     26108 MEOH     1122     MEOH     H1A      HDA3B    0.080000        1.0080           0   0.00000   0.00000
     26109 MEOH     1122     MEOH     H1B      HDA3B    0.080000        1.0080           0   0.00000   0.00000
     26110 MEOH     1122     MEOH     H1C      HDA3B    0.080000        1.0080           0   0.00000   0.00000
     26111 MEOH     1122     MEOH     LP1A     LPD     -0.230000        0.0000           -1   0.00000   0.00000
     26112 MEOH     1122     MEOH     LP1B     LPD     -0.230000        0.0000           -1   0.00000   0.00000
     26113 MEOH     1123     MEOH     C1       CD33B    2.314100       11.6110           0   -1.00000   1.30000
     26114 MEOH     1123     MEOH     DC1      DRUD    -2.454100        0.4000           0   0.00000   0.00000
     26115 MEOH     1123     MEOH     O1       OD31H    2.488300       15.5990           0   -1.02800   1.30000
     26116 MEOH     1123     MEOH     DO1      DRUD    -2.488300        0.4000           0   0.00000   0.00000
     26117 MEOH     1123     MEOH     HO1      HDP1A    0.360000        1.0080           0   0.00000   0.00000
     26118 MEOH     1123     MEOH     HO2      DUMH     0.000000        1.0080           0   0.00000   0.00000
     26119 MEOH     1123     MEOH     H1A      HDA3B    0.080000        1.0080           0   0.00000   0.00000
     26120 MEOH     1123     MEOH     H1B      HDA3B    0.080000        1.0080           0   0.00000   0.00000
     26121 MEOH     1123     MEOH     H1C      HDA3B    0.080000        1.0080           0   0.00000   0.00000
     26122 MEOH     1123     MEOH     LP1A     LPD     -0.230000        0.0000           -1   0.00000   0.00000
     26123 MEOH     1123     MEOH     LP1B     LPD     -0.230000        0.0000           -1   0.00000   0.00000
     26124 MEOH     1124     MEOH     C1       CD33B    2.314100       11.6110           0   -1.00000   1.30000
     26125 MEOH     1124     MEOH     DC1      DRUD    -2.454100        0.4000           0   0.00000   0.00000
     26126 MEOH     1124     MEOH     O1       OD31H    2.488300       15.5990           0   -1.02800   1.30000
     26127 MEOH     1124     MEOH     DO1      DRUD    -2.488300        0.4000           0   0.00000   0.00000
     26128 MEOH     1124     MEOH     HO1      HDP1A    0.360000        1.0080           0   0.00000   0.00000
     26129 MEOH     1124     MEOH     HO2      DUMH     0.000000        1.0080           0   0.00000   0.00000
     26130 MEOH     1124     MEOH     H1A      HDA3B    0.080000        1.0080           0   0.00000   0.00000
     26131 MEOH     1124     MEOH     H1B      HDA3B    0.080000        1.0080           0   0.00000   0.00000
     26132 MEOH     1124     MEOH     H1C      HDA3B    0.080000        1.0080           0   0.00000   0.00000
     26133 MEOH     1124     MEOH     LP1A     LPD     -0.230000        0.0000           -1   0.00000   0.00000
     26134 MEOH     1124     MEOH     LP1B     LPD     -0.230000        0.0000           -1   0.00000   0.00000
     26135 MEOH     1125     MEOH     C1       CD33B    2.314100       11.6110           0   -1.00000   1.30000
     26136 MEOH     1125     MEOH     DC1      DRUD    -2.454100        0.4000           0   0.00000   0.00000
     26137 MEOH     1125     MEOH     O1       OD31H    2.488300       15.5990           0   -1.02800   1.30000
     26138 MEOH     1125     MEOH     DO1      DRUD    -2.488300        0.4000           0   0.00000   0.00000
     26139 MEOH     1125     MEOH     HO1      HDP1A    0.360000        1.0080           0   0.00000   0.00000
     26140 MEOH     1125     MEOH     HO2      DUMH     0.000000        1.0080           0   0.00000   0.00000
     26141 MEOH     1125     MEOH     H1A      HDA3B    0.080000        1.0080           0   0.00000   0.00000
     26142 MEOH     1125     MEOH     H1B      HDA3B    0.080000        1.0080           0   0.00000   0.00000
     26143 MEOH     1125     MEOH     H1C      HDA3B    0.080000        1.0080           0   0.00000   0.00000
     26144 MEOH     1125     MEOH     LP1A     LPD     -0.230000        0.0000           -1   0.00000   0.00000
     26145 MEOH     1125     MEOH     LP1B     LPD     -0.230000        0.0000           -1   0.00000   0.00000
     26146 MEOH     1126     MEOH     C1       CD33B    2.314100       11.6110           0   -1.00000   1.30000
     26147 MEOH     1126     MEOH     DC1      DRUD    -2.454100        0.4000           0   0.00000   0.00000
     26148 MEOH     1126     MEOH     O1       OD31H    2.488300       15.5990           0   -1.02800   1.30000
     26149 MEOH     1126     MEOH     DO1      DRUD    -2.488300        0.4000           0   0.00000   0.00000
     26150 MEOH     1126     MEOH     HO1      HDP1A    0.360000        1.0080           0   0.00000   0.00000
     26151 MEOH     1126     MEOH     HO2      DUMH     0.000000        1.0080           0   0.00000   0.00000
     26152 MEOH     1126     MEOH     H1A      HDA3B    0.080000        1.0080           0   0.00000   0.00000
     26153 MEOH     1126     MEOH     H1B      HDA3B    0.080000        1.0080           0   0.00000   0.00000
     26154 MEOH     1126     MEOH     H1C      HDA3B    0.080000        1.0080           0   0.00000   0.00000
     26155 MEOH     1126     MEOH     LP1A     LPD     -0.230000        0.0000           -1   0.00000   0.00000
     26156 MEOH     1126     MEOH     LP1B     LPD     -0.230000        0.0000           -1   0.00000   0.00000
     26157 MEOH     1127     MEOH     C1       CD33B    2.314100       11.6110           0   -1.00000   1.30000
     26158 MEOH     1127     MEOH     DC1      DRUD    -2.454100        0.4000           0   0.00000   0.00000
     26159 MEOH     1127     MEOH     O1       OD31H    2.488300       15.5990           0   -1.02800   1.30000
     26160 MEOH     1127     MEOH     DO1      DRUD    -2.488300        0.4000           0   0.00000   0.00000
     26161 MEOH     1127     MEOH     HO1      HDP1A    0.360000        1.0080           0   0.00000   0.00000
     26162 MEOH     1127     MEOH     HO2      DUMH     0.000000        1.0080           0   0.00000   0.00000
     26163 MEOH     1127     MEOH     H1A      HDA3B    0.080000        1.0080           0   0.00000   0.00000
     26164 MEOH     1127     MEOH     H1B      HDA3B    0.080000        1.0080           0   0.00000   0.00000
     26165 MEOH     1127     MEOH     H1C      HDA3B    0.080000        1.0080           0   0.00000   0.00000
     26166 MEOH     1127     MEOH     LP1A     LPD     -0.230000        0.0000           -1   0.00000   0.00000
     26167 MEOH     1127     MEOH     LP1B     LPD     -0.230000        0.0000           -1   0.00000   0.00000
     26168 MEOH     1128     MEOH     C1       CD33B    2.314100       11.6110           0   -1.00000   1.30000
     26169 MEOH     1128     MEOH     DC1      DRUD    -2.454100        0.4000           0   0.00000   0.00000
     26170 MEOH     1128     MEOH     O1       OD31H    2.488300       15.5990           0   -1.02800   1.30000
     26171 MEOH     1128     MEOH     DO1      DRUD    -2.488300        0.4000           0   0.00000   0.00000
     26172 MEOH     1128     MEOH     HO1      HDP1A    0.360000        1.0080           0   0.00000   0.00000
     26173 MEOH     1128     MEOH     HO2      DUMH     0.000000        1.0080           0   0.00000   0.00000
     26174 MEOH     1128     MEOH     H1A      HDA3B    0.080000        1.0080           0   0.00000   0.00000
     26175 MEOH     1128     MEOH     H1B      HDA3B    0.080000        1.0080           0   0.00000   0.00000
     26176 MEOH     1128     MEOH     H1C      HDA3B    0.080000        1.0080           0   0.00000   0.00000
     26177 MEOH     1128     MEOH     LP1A     LPD     -0.230000        0.0000           -1   0.00000   0.00000
     26178 MEOH     1128     MEOH     LP1B     LPD     -0.230000        0.0000           -1   0.00000   0.00000
     26179 MEOH     1129     MEOH     C1       CD33B    2.314100       11.6110           0   -1.00000   1.30000
     26180 MEOH     1129     MEOH     DC1      DRUD    -2.454100        0.4000           0   0.00000   0.00000
     26181 MEOH     1129     MEOH     O1       OD31H    2.488300       15.5990           0   -1.02800   1.30000
     26182 MEOH     1129     MEOH     DO1      DRUD    -2.488300        0.4000           0   0.00000   0.00000
     26183 MEOH     1129     MEOH     HO1      HDP1A    0.360000        1.0080           0   0.00000   0.00000
     26184 MEOH     1129     MEOH     HO2      DUMH     0.000000        1.0080           0   0.00000   0.00000
     26185 MEOH     1129     MEOH     H1A      HDA3B    0.080000        1.0080           0   0.00000   0.00000
     26186 MEOH     1129     MEOH     H1B      HDA3B    0.080000        1.0080           0   0.00000   0.00000
     26187 MEOH     1129     MEOH     H1C      HDA3B    0.080000        1.0080           0   0.00000   0.00000
     26188 MEOH     1129     MEOH     LP1A     LPD     -0.230000        0.0000           -1   0.00000   0.00000
     26189 MEOH     1129     MEOH     LP1B     LPD     -0.230000        0.0000           -1   0.00000   0.00000
     26190 MEOH     1130     MEOH     C1       CD33B    2.314100       11.6110           0   -1.00000   1.30000
     26191 MEOH     1130     MEOH     DC1      DRUD    -2.454100        0.4000           0   0.00000   0.00000
     26192 MEOH     1130     MEOH     O1       OD31H    2.488300       15.5990           0   -1.02800   1.30000
     26193 MEOH     1130     MEOH     DO1      DRUD    -2.488300        0.4000           0   0.00000   0.00000
     26194 MEOH     1130     MEOH     HO1      HDP1A    0.360000        1.0080           0   0.00000   0.00000
     26195 MEOH     1130     MEOH     HO2      DUMH     0.000000        1.0080           0   0.00000   0.00000
     26196 MEOH     1130     MEOH     H1A      HDA3B    0.080000        1.0080           0   0.00000   0.00000
     26197 MEOH     1130     MEOH     H1B      HDA3B    0.080000        1.0080           0   0.00000   0.00000
     26198 MEOH     1130     MEOH     H1C      HDA3B    0.080000        1.0080           0   0.00000   0.00000
     26199 MEOH     1130     MEOH     LP1A     LPD     -0.230000        0.0000           -1   0.00000   0.00000
     26200 MEOH     1130     MEOH     LP1B     LPD     -0.230000        0.0000           -1   0.00000   0.00000
     26201 MEOH     1131     MEOH     C1       CD33B    2.314100       11.6110           0   -1.00000   1.30000
     26202 MEOH     1131     MEOH     DC1      DRUD    -2.454100        0.4000           0   0.00000   0.00000
     26203 MEOH     1131     MEOH     O1       OD31H    2.488300       15.5990           0   -1.02800   1.30000
     26204 MEOH     1131     MEOH     DO1      DRUD    -2.488300        0.4000           0   0.00000   0.00000
     26205 MEOH     1131     MEOH     HO1      HDP1A    0.360000        1.0080           0   0.00000   0.00000
     26206 MEOH     1131     MEOH     HO2      DUMH     0.000000        1.0080           0   0.00000   0.00000
     26207 MEOH     1131     MEOH     H1A      HDA3B    0.080000        1.0080           0   0.00000   0.00000
     26208 MEOH     1131     MEOH     H1B      HDA3B    0.080000        1.0080           0   0.00000   0.00000
     26209 MEOH     1131     MEOH     H1C      HDA3B    0.080000        1.0080           0   0.00000   0.00000
     26210 MEOH     1131     MEOH     LP1A     LPD     -0.230000        0.0000           -1   0.00000   0.00000
     26211 MEOH     1131     MEOH     LP1B     LPD     -0.230000        0.0000           -1   0.00000   0.00000
     26212 MEOH     1132     MEOH     C1       CD33B    2.314100       11.6110           0   -1.00000   1.30000
     26213 MEOH     1132     MEOH     DC1      DRUD    -2.454100        0.4000           0   0.00000   0.00000
     26214 MEOH     1132     MEOH     O1       OD31H    2.488300       15.5990           0   -1.02800   1.30000
     26215 MEOH     1132     MEOH     DO1      DRUD    -2.488300        0.4000           0   0.00000   0.00000
     26216 MEOH     1132     MEOH     HO1      HDP1A    0.360000        1.0080           0   0.00000   0.00000
     26217 MEOH     1132     MEOH     HO2      DUMH     0.000000        1.0080           0   0.00000   0.00000
     26218 MEOH     1132     MEOH     H1A      HDA3B    0.080000        1.0080           0   0.00000   0.00000
     26219 MEOH     1132     MEOH     H1B      HDA3B    0.080000        1.0080           0   0.00000   0.00000
     26220 MEOH     1132     MEOH     H1C      HDA3B    0.080000        1.0080           0   0.00000   0.00000
     26221 MEOH     1132     MEOH     LP1A     LPD     -0.230000        0.0000           -1   0.00000   0.00000
     26222 MEOH     1132     MEOH     LP1B     LPD     -0.230000        0.0000           -1   0.00000   0.00000
     26223 MEOH     1133     MEOH     C1       CD33B    2.314100       11.6110           0   -1.00000   1.30000
     26224 MEOH     1133     MEOH     DC1      DRUD    -2.454100        0.4000           0   0.00000   0.00000
     26225 MEOH     1133     MEOH     O1       OD31H    2.488300       15.5990           0   -1.02800   1.30000
     26226 MEOH     1133     MEOH     DO1      DRUD    -2.488300        0.4000           0   0.00000   0.00000
     26227 MEOH     1133     MEOH     HO1      HDP1A    0.360000        1.0080           0   0.00000   0.00000
     26228 MEOH     1133     MEOH     HO2      DUMH     0.000000        1.0080           0   0.00000   0.00000
     26229 MEOH     1133     MEOH     H1A      HDA3B    0.080000        1.0080           0   0.00000   0.00000
     26230 MEOH     1133     MEOH     H1B      HDA3B    0.080000        1.0080           0   0.00000   0.00000
     26231 MEOH     1133     MEOH     H1C      HDA3B    0.080000        1.0080           0   0.00000   0.00000
     26232 MEOH     1133     MEOH     LP1A     LPD     -0.230000        0.0000           -1   0.00000   0.00000
     26233 MEOH     1133     MEOH     LP1B     LPD     -0.230000        0.0000           -1   0.00000   0.00000
     26234 MEOH     1134     MEOH     C1       CD33B    2.314100       11.6110           0   -1.00000   1.30000
     26235 MEOH     1134     MEOH     DC1      DRUD    -2.454100        0.4000           0   0.00000   0.00000
     26236 MEOH     1134     MEOH     O1       OD31H    2.488300       15.5990           0   -1.02800   1.30000
     26237 MEOH     1134     MEOH     DO1      DRUD    -2.488300        0.4000           0   0.00000   0.00000
     26238 MEOH     1134     MEOH     HO1      HDP1A    0.360000        1.0080           0   0.00000   0.00000
     26239 MEOH     1134     MEOH     HO2      DUMH     0.000000        1.0080           0   0.00000   0.00000
     26240 MEOH     1134     MEOH     H1A      HDA3B    0.080000        1.0080           0   0.00000   0.00000
     26241 MEOH     1134     MEOH     H1B      HDA3B    0.080000        1.0080           0   0.00000   0.00000
     26242 MEOH     1134     MEOH     H1C      HDA3B    0.080000        1.0080           0   0.00000   0.00000
     26243 MEOH     1134     MEOH     LP1A     LPD     -0.230000        0.0000           -1   0.00000   0.00000
     26244 MEOH     1134     MEOH     LP1B     LPD     -0.230000        0.0000           -1   0.00000   0.00000
     26245 MEOH     1135     MEOH     C1       CD33B    2.314100       11.6110           0   -1.00000   1.30000
     26246 MEOH     1135     MEOH     DC1      DRUD    -2.454100        0.4000           0   0.00000   0.00000
     26247 MEOH     1135     MEOH     O1       OD31H    2.488300       15.5990           0   -1.02800   1.30000
     26248 MEOH     1135     MEOH     DO1      DRUD    -2.488300        0.4000           0   0.00000   0.00000
     26249 MEOH     1135     MEOH     HO1      HDP1A    0.360000        1.0080           0   0.00000   0.00000
     26250 MEOH     1135     MEOH     HO2      DUMH     0.000000        1.0080           0   0.00000   0.00000
     26251 MEOH     1135     MEOH     H1A      HDA3B    0.080000        1.0080           0   0.00000   0.00000
     26252 MEOH     1135     MEOH     H1B      HDA3B    0.080000        1.0080           0   0.00000   0.00000
     26253 MEOH     1135     MEOH     H1C      HDA3B    0.080000        1.0080           0   0.00000   0.00000
     26254 MEOH     1135     MEOH     LP1A     LPD     -0.230000        0.0000           -1   0.00000   0.00000
     26255 MEOH     1135     MEOH     LP1B     LPD     -0.230000        0.0000           -1   0.00000   0.00000
     26256 MEOH     1136     MEOH     C1       CD33B    2.314100       11.6110           0   -1.00000   1.30000
     26257 MEOH     1136     MEOH     DC1      DRUD    -2.454100        0.4000           0   0.00000   0.00000
     26258 MEOH     1136     MEOH     O1       OD31H    2.488300       15.5990           0   -1.02800   1.30000
     26259 MEOH     1136     MEOH     DO1      DRUD    -2.488300        0.4000           0   0.00000   0.00000
     26260 MEOH     1136     MEOH     HO1      HDP1A    0.360000        1.0080           0   0.00000   0.00000
     26261 MEOH     1136     MEOH     HO2      DUMH     0.000000        1.0080           0   0.00000   0.00000
     26262 MEOH     1136     MEOH     H1A      HDA3B    0.080000        1.0080           0   0.00000   0.00000
     26263 MEOH     1136     MEOH     H1B      HDA3B    0.080000        1.0080           0   0.00000   0.00000
     26264 MEOH     1136     MEOH     H1C      HDA3B    0.080000        1.0080           0   0.00000   0.00000
     26265 MEOH     1136     MEOH     LP1A     LPD     -0.230000        0.0000           -1   0.00000   0.00000
     26266 MEOH     1136     MEOH     LP1B     LPD     -0.230000        0.0000           -1   0.00000   0.00000
     26267 MEOH     1137     MEOH     C1       CD33B    2.314100       11.6110           0   -1.00000   1.30000
     26268 MEOH     1137     MEOH     DC1      DRUD    -2.454100        0.4000           0   0.00000   0.00000
     26269 MEOH     1137     MEOH     O1       OD31H    2.488300       15.5990           0   -1.02800   1.30000
     26270 MEOH     1137     MEOH     DO1      DRUD    -2.488300        0.4000           0   0.00000   0.00000
     26271 MEOH     1137     MEOH     HO1      HDP1A    0.360000        1.0080           0   0.00000   0.00000
     26272 MEOH     1137     MEOH     HO2      DUMH     0.000000        1.0080           0   0.00000   0.00000
     26273 MEOH     1137     MEOH     H1A      HDA3B    0.080000        1.0080           0   0.00000   0.00000
     26274 MEOH     1137     MEOH     H1B      HDA3B    0.080000        1.0080           0   0.00000   0.00000
     26275 MEOH     1137     MEOH     H1C      HDA3B    0.080000        1.0080           0   0.00000   0.00000
     26276 MEOH     1137     MEOH     LP1A     LPD     -0.230000        0.0000           -1   0.00000   0.00000
     26277 MEOH     1137     MEOH     LP1B     LPD     -0.230000        0.0000           -1   0.00000   0.00000
     26278 MEOH     1138     MEOH     C1       CD33B    2.314100       11.6110           0   -1.00000   1.30000
     26279 MEOH     1138     MEOH     DC1      DRUD    -2.454100        0.4000           0   0.00000   0.00000
     26280 MEOH     1138     MEOH     O1       OD31H    2.488300       15.5990           0   -1.02800   1.30000
     26281 MEOH     1138     MEOH     DO1      DRUD    -2.488300        0.4000           0   0.00000   0.00000
     26282 MEOH     1138     MEOH     HO1      HDP1A    0.360000        1.0080           0   0.00000   0.00000
     26283 MEOH     1138     MEOH     HO2      DUMH     0.000000        1.0080           0   0.00000   0.00000
     26284 MEOH     1138     MEOH     H1A      HDA3B    0.080000        1.0080           0   0.00000   0.00000
     26285 MEOH     1138     MEOH     H1B      HDA3B    0.080000        1.0080           0   0.00000   0.00000
     26286 MEOH     1138     MEOH     H1C      HDA3B    0.080000        1.0080           0   0.00000   0.00000
     26287 MEOH     1138     MEOH     LP1A     LPD     -0.230000        0.0000           -1   0.00000   0.00000
     26288 MEOH     1138     MEOH     LP1B     LPD     -0.230000        0.0000           -1   0.00000   0.00000
     26289 MEOH     1139     MEOH     C1       CD33B    2.314100       11.6110           0   -1.00000   1.30000
     26290 MEOH     1139     MEOH     DC1      DRUD    -2.454100        0.4000           0   0.00000   0.00000
     26291 MEOH     1139     MEOH     O1       OD31H    2.488300       15.5990           0   -1.02800   1.30000
     26292 MEOH     1139     MEOH     DO1      DRUD    -2.488300        0.4000           0   0.00000   0.00000
     26293 MEOH     1139     MEOH     HO1      HDP1A    0.360000        1.0080           0   0.00000   0.00000
     26294 MEOH     1139     MEOH     HO2      DUMH     0.000000        1.0080           0   0.00000   0.00000
     26295 MEOH     1139     MEOH     H1A      HDA3B    0.080000        1.0080           0   0.00000   0.00000
     26296 MEOH     1139     MEOH     H1B      HDA3B    0.080000        1.0080           0   0.00000   0.00000
     26297 MEOH     1139     MEOH     H1C      HDA3B    0.080000        1.0080           0   0.00000   0.00000
     26298 MEOH     1139     MEOH     LP1A     LPD     -0.230000        0.0000           -1   0.00000   0.00000
     26299 MEOH     1139     MEOH     LP1B     LPD     -0.230000        0.0000           -1   0.00000   0.00000
     26300 MEOH     1140     MEOH     C1       CD33B    2.314100       11.6110           0   -1.00000   1.30000
     26301 MEOH     1140     MEOH     DC1      DRUD    -2.454100        0.4000           0   0.00000   0.00000
     26302 MEOH     1140     MEOH     O1       OD31H    2.488300       15.5990           0   -1.02800   1.30000
     26303 MEOH     1140     MEOH     DO1      DRUD    -2.488300        0.4000           0   0.00000   0.00000
     26304 MEOH     1140     MEOH     HO1      HDP1A    0.360000        1.0080           0   0.00000   0.00000
     26305 MEOH     1140     MEOH     HO2      DUMH     0.000000        1.0080           0   0.00000   0.00000
     26306 MEOH     1140     MEOH     H1A      HDA3B    0.080000        1.0080           0   0.00000   0.00000
     26307 MEOH     1140     MEOH     H1B      HDA3B    0.080000        1.0080           0   0.00000   0.00000
     26308 MEOH     1140     MEOH     H1C      HDA3B    0.080000        1.0080           0   0.00000   0.00000
     26309 MEOH     1140     MEOH     LP1A     LPD     -0.230000        0.0000           -1   0.00000   0.00000
     26310 MEOH     1140     MEOH     LP1B     LPD     -0.230000        0.0000           -1   0.00000   0.00000
     26311 MEOH     1141     MEOH     C1       CD33B    2.314100       11.6110           0   -1.00000   1.30000
     26312 MEOH     1141     MEOH     DC1      DRUD    -2.454100        0.4000           0   0.00000   0.00000
     26313 MEOH     1141     MEOH     O1       OD31H    2.488300       15.5990           0   -1.02800   1.30000
     26314 MEOH     1141     MEOH     DO1      DRUD    -2.488300        0.4000           0   0.00000   0.00000
     26315 MEOH     1141     MEOH     HO1      HDP1A    0.360000        1.0080           0   0.00000   0.00000
     26316 MEOH     1141     MEOH     HO2      DUMH     0.000000        1.0080           0   0.00000   0.00000
     26317 MEOH     1141     MEOH     H1A      HDA3B    0.080000        1.0080           0   0.00000   0.00000
     26318 MEOH     1141     MEOH     H1B      HDA3B    0.080000        1.0080           0   0.00000   0.00000
     26319 MEOH     1141     MEOH     H1C      HDA3B    0.080000        1.0080           0   0.00000   0.00000
     26320 MEOH     1141     MEOH     LP1A     LPD     -0.230000        0.0000           -1   0.00000   0.00000
     26321 MEOH     1141     MEOH     LP1B     LPD     -0.230000        0.0000           -1   0.00000   0.00000
     26322 MEOH     1142     MEOH     C1       CD33B    2.314100       11.6110           0   -1.00000   1.30000
     26323 MEOH     1142     MEOH     DC1      DRUD    -2.454100        0.4000           0   0.00000   0.00000
     26324 MEOH     1142     MEOH     O1       OD31H    2.488300       15.5990           0   -1.02800   1.30000
     26325 MEOH     1142     MEOH     DO1      DRUD    -2.488300        0.4000           0   0.00000   0.00000
     26326 MEOH     1142     MEOH     HO1      HDP1A    0.360000        1.0080           0   0.00000   0.00000
     26327 MEOH     1142     MEOH     HO2      DUMH     0.000000        1.0080           0   0.00000   0.00000
     26328 MEOH     1142     MEOH     H1A      HDA3B    0.080000        1.0080           0   0.00000   0.00000
     26329 MEOH     1142     MEOH     H1B      HDA3B    0.080000        1.0080           0   0.00000   0.00000
     26330 MEOH     1142     MEOH     H1C      HDA3B    0.080000        1.0080           0   0.00000   0.00000
     26331 MEOH     1142     MEOH     LP1A     LPD     -0.230000        0.0000           -1   0.00000   0.00000
     26332 MEOH     1142     MEOH     LP1B     LPD     -0.230000        0.0000           -1   0.00000   0.00000
     26333 MEOH     1143     MEOH     C1       CD33B    2.314100       11.6110           0   -1.00000   1.30000
     26334 MEOH     1143     MEOH     DC1      DRUD    -2.454100        0.4000           0   0.00000   0.00000
     26335 MEOH     1143     MEOH     O1       OD31H    2.488300       15.5990           0   -1.02800   1.30000
     26336 MEOH     1143     MEOH     DO1      DRUD    -2.488300        0.4000           0   0.00000   0.00000
     26337 MEOH     1143     MEOH     HO1      HDP1A    0.360000        1.0080           0   0.00000   0.00000
     26338 MEOH     1143     MEOH     HO2      DUMH     0.000000        1.0080           0   0.00000   0.00000
     26339 MEOH     1143     MEOH     H1A      HDA3B    0.080000        1.0080           0   0.00000   0.00000
     26340 MEOH     1143     MEOH     H1B      HDA3B    0.080000        1.0080           0   0.00000   0.00000
     26341 MEOH     1143     MEOH     H1C      HDA3B    0.080000        1.0080           0   0.00000   0.00000
     26342 MEOH     1143     MEOH     LP1A     LPD     -0.230000        0.0000           -1   0.00000   0.00000
     26343 MEOH     1143     MEOH     LP1B     LPD     -0.230000        0.0000           -1   0.00000   0.00000
     26344 MEOH     1144     MEOH     C1       CD33B    2.314100       11.6110           0   -1.00000   1.30000
     26345 MEOH     1144     MEOH     DC1      DRUD    -2.454100        0.4000           0   0.00000   0.00000
     26346 MEOH     1144     MEOH     O1       OD31H    2.488300       15.5990           0   -1.02800   1.30000
     26347 MEOH     1144     MEOH     DO1      DRUD    -2.488300        0.4000           0   0.00000   0.00000
     26348 MEOH     1144     MEOH     HO1      HDP1A    0.360000        1.0080           0   0.00000   0.00000
     26349 MEOH     1144     MEOH     HO2      DUMH     0.000000        1.0080           0   0.00000   0.00000
     26350 MEOH     1144     MEOH     H1A      HDA3B    0.080000        1.0080           0   0.00000   0.00000
     26351 MEOH     1144     MEOH     H1B      HDA3B    0.080000        1.0080           0   0.00000   0.00000
     26352 MEOH     1144     MEOH     H1C      HDA3B    0.080000        1.0080           0   0.00000   0.00000
     26353 MEOH     1144     MEOH     LP1A     LPD     -0.230000        0.0000           -1   0.00000   0.00000
     26354 MEOH     1144     MEOH     LP1B     LPD     -0.230000        0.0000           -1   0.00000   0.00000
     26355 MEOH     1145     MEOH     C1       CD33B    2.314100       11.6110           0   -1.00000   1.30000
     26356 MEOH     1145     MEOH     DC1      DRUD    -2.454100        0.4000           0   0.00000   0.00000
     26357 MEOH     1145     MEOH     O1       OD31H    2.488300       15.5990           0   -1.02800   1.30000
     26358 MEOH     1145     MEOH     DO1      DRUD    -2.488300        0.4000           0   0.00000   0.00000
     26359 MEOH     1145     MEOH     HO1      HDP1A    0.360000        1.0080           0   0.00000   0.00000
     26360 MEOH     1145     MEOH     HO2      DUMH     0.000000        1.0080           0   0.00000   0.00000
     26361 MEOH     1145     MEOH     H1A      HDA3B    0.080000        1.0080           0   0.00000   0.00000
     26362 MEOH     1145     MEOH     H1B      HDA3B    0.080000        1.0080           0   0.00000   0.00000
     26363 MEOH     1145     MEOH     H1C      HDA3B    0.080000        1.0080           0   0.00000   0.00000
     26364 MEOH     1145     MEOH     LP1A     LPD     -0.230000        0.0000           -1   0.00000   0.00000
     26365 MEOH     1145     MEOH     LP1B     LPD     -0.230000        0.0000           -1   0.00000   0.00000
     26366 MEOH     1146     MEOH     C1       CD33B    2.314100       11.6110           0   -1.00000   1.30000
     26367 MEOH     1146     MEOH     DC1      DRUD    -2.454100        0.4000           0   0.00000   0.00000
     26368 MEOH     1146     MEOH     O1       OD31H    2.488300       15.5990           0   -1.02800   1.30000
     26369 MEOH     1146     MEOH     DO1      DRUD    -2.488300        0.4000           0   0.00000   0.00000
     26370 MEOH     1146     MEOH     HO1      HDP1A    0.360000        1.0080           0   0.00000   0.00000
     26371 MEOH     1146     MEOH     HO2      DUMH     0.000000        1.0080           0   0.00000   0.00000
     26372 MEOH     1146     MEOH     H1A      HDA3B    0.080000        1.0080           0   0.00000   0.00000
     26373 MEOH     1146     MEOH     H1B      HDA3B    0.080000        1.0080           0   0.00000   0.00000
     26374 MEOH     1146     MEOH     H1C      HDA3B    0.080000        1.0080           0   0.00000   0.00000
     26375 MEOH     1146     MEOH     LP1A     LPD     -0.230000        0.0000           -1   0.00000   0.00000
     26376 MEOH     1146     MEOH     LP1B     LPD     -0.230000        0.0000           -1   0.00000   0.00000
     26377 MEOH     1147     MEOH     C1       CD33B    2.314100       11.6110           0   -1.00000   1.30000
     26378 MEOH     1147     MEOH     DC1      DRUD    -2.454100        0.4000           0   0.00000   0.00000
     26379 MEOH     1147     MEOH     O1       OD31H    2.488300       15.5990           0   -1.02800   1.30000
     26380 MEOH     1147     MEOH     DO1      DRUD    -2.488300        0.4000           0   0.00000   0.00000
     26381 MEOH     1147     MEOH     HO1      HDP1A    0.360000        1.0080           0   0.00000   0.00000
     26382 MEOH     1147     MEOH     HO2      DUMH     0.000000        1.0080           0   0.00000   0.00000
     26383 MEOH     1147     MEOH     H1A      HDA3B    0.080000        1.0080           0   0.00000   0.00000
     26384 MEOH     1147     MEOH     H1B      HDA3B    0.080000        1.0080           0   0.00000   0.00000
     26385 MEOH     1147     MEOH     H1C      HDA3B    0.080000        1.0080           0   0.00000   0.00000
     26386 MEOH     1147     MEOH     LP1A     LPD     -0.230000        0.0000           -1   0.00000   0.00000
     26387 MEOH     1147     MEOH     LP1B     LPD     -0.230000        0.0000           -1   0.00000   0.00000
     26388 MEOH     1148     MEOH     C1       CD33B    2.314100       11.6110           0   -1.00000   1.30000
     26389 MEOH     1148     MEOH     DC1      DRUD    -2.454100        0.4000           0   0.00000   0.00000
     26390 MEOH     1148     MEOH     O1       OD31H    2.488300       15.5990           0   -1.02800   1.30000
     26391 MEOH     1148     MEOH     DO1      DRUD    -2.488300        0.4000           0   0.00000   0.00000
     26392 MEOH     1148     MEOH     HO1      HDP1A    0.360000        1.0080           0   0.00000   0.00000
     26393 MEOH     1148     MEOH     HO2      DUMH     0.000000        1.0080           0   0.00000   0.00000
     26394 MEOH     1148     MEOH     H1A      HDA3B    0.080000        1.0080           0   0.00000   0.00000
     26395 MEOH     1148     MEOH     H1B      HDA3B    0.080000        1.0080           0   0.00000   0.00000
     26396 MEOH     1148     MEOH     H1C      HDA3B    0.080000        1.0080           0   0.00000   0.00000
     26397 MEOH     1148     MEOH     LP1A     LPD     -0.230000        0.0000           -1   0.00000   0.00000
     26398 MEOH     1148     MEOH     LP1B     LPD     -0.230000        0.0000           -1   0.00000   0.00000
     26399 MEOH     1149     MEOH     C1       CD33B    2.314100       11.6110           0   -1.00000   1.30000
     26400 MEOH     1149     MEOH     DC1      DRUD    -2.454100        0.4000           0   0.00000   0.00000
     26401 MEOH     1149     MEOH     O1       OD31H    2.488300       15.5990           0   -1.02800   1.30000
     26402 MEOH     1149     MEOH     DO1      DRUD    -2.488300        0.4000           0   0.00000   0.00000
     26403 MEOH     1149     MEOH     HO1      HDP1A    0.360000        1.0080           0   0.00000   0.00000
     26404 MEOH     1149     MEOH     HO2      DUMH     0.000000        1.0080           0   0.00000   0.00000
     26405 MEOH     1149     MEOH     H1A      HDA3B    0.080000        1.0080           0   0.00000   0.00000
     26406 MEOH     1149     MEOH     H1B      HDA3B    0.080000        1.0080           0   0.00000   0.00000
     26407 MEOH     1149     MEOH     H1C      HDA3B    0.080000        1.0080           0   0.00000   0.00000
     26408 MEOH     1149     MEOH     LP1A     LPD     -0.230000        0.0000           -1   0.00000   0.00000
     26409 MEOH     1149     MEOH     LP1B     LPD     -0.230000        0.0000           -1   0.00000   0.00000
     26410 MEOH     1150     MEOH     C1       CD33B    2.314100       11.6110           0   -1.00000   1.30000
     26411 MEOH     1150     MEOH     DC1      DRUD    -2.454100        0.4000           0   0.00000   0.00000
     26412 MEOH     1150     MEOH     O1       OD31H    2.488300       15.5990           0   -1.02800   1.30000
     26413 MEOH     1150     MEOH     DO1      DRUD    -2.488300        0.4000           0   0.00000   0.00000
     26414 MEOH     1150     MEOH     HO1      HDP1A    0.360000        1.0080           0   0.00000   0.00000
     26415 MEOH     1150     MEOH     HO2      DUMH     0.000000        1.0080           0   0.00000   0.00000
     26416 MEOH     1150     MEOH     H1A      HDA3B    0.080000        1.0080           0   0.00000   0.00000
     26417 MEOH     1150     MEOH     H1B      HDA3B    0.080000        1.0080           0   0.00000   0.00000
     26418 MEOH     1150     MEOH     H1C      HDA3B    0.080000        1.0080           0   0.00000   0.00000
     26419 MEOH     1150     MEOH     LP1A     LPD     -0.230000        0.0000           -1   0.00000   0.00000
     26420 MEOH     1150     MEOH     LP1B     LPD     -0.230000        0.0000           -1   0.00000   0.00000
     26421 MEOH     1151     MEOH     C1       CD33B    2.314100       11.6110           0   -1.00000   1.30000
     26422 MEOH     1151     MEOH     DC1      DRUD    -2.454100        0.4000           0   0.00000   0.00000
     26423 MEOH     1151     MEOH     O1       OD31H    2.488300       15.5990           0   -1.02800   1.30000
     26424 MEOH     1151     MEOH     DO1      DRUD    -2.488300        0.4000           0   0.00000   0.00000
     26425 MEOH     1151     MEOH     HO1      HDP1A    0.360000        1.0080           0   0.00000   0.00000
     26426 MEOH     1151     MEOH     HO2      DUMH     0.000000        1.0080           0   0.00000   0.00000
     26427 MEOH     1151     MEOH     H1A      HDA3B    0.080000        1.0080           0   0.00000   0.00000
     26428 MEOH     1151     MEOH     H1B      HDA3B    0.080000        1.0080           0   0.00000   0.00000
     26429 MEOH     1151     MEOH     H1C      HDA3B    0.080000        1.0080           0   0.00000   0.00000
     26430 MEOH     1151     MEOH     LP1A     LPD     -0.230000        0.0000           -1   0.00000   0.00000
     26431 MEOH     1151     MEOH     LP1B     LPD     -0.230000        0.0000           -1   0.00000   0.00000
     26432 MEOH     1152     MEOH     C1       CD33B    2.314100       11.6110           0   -1.00000   1.30000
     26433 MEOH     1152     MEOH     DC1      DRUD    -2.454100        0.4000           0   0.00000   0.00000
     26434 MEOH     1152     MEOH     O1       OD31H    2.488300       15.5990           0   -1.02800   1.30000
     26435 MEOH     1152     MEOH     DO1      DRUD    -2.488300        0.4000           0   0.00000   0.00000
     26436 MEOH     1152     MEOH     HO1      HDP1A    0.360000        1.0080           0   0.00000   0.00000
     26437 MEOH     1152     MEOH     HO2      DUMH     0.000000        1.0080           0   0.00000   0.00000
     26438 MEOH     1152     MEOH     H1A      HDA3B    0.080000        1.0080           0   0.00000   0.00000
     26439 MEOH     1152     MEOH     H1B      HDA3B    0.080000        1.0080           0   0.00000   0.00000
     26440 MEOH     1152     MEOH     H1C      HDA3B    0.080000        1.0080           0   0.00000   0.00000
     26441 MEOH     1152     MEOH     LP1A     LPD     -0.230000        0.0000           -1   0.00000   0.00000
     26442 MEOH     1152     MEOH     LP1B     LPD     -0.230000        0.0000           -1   0.00000   0.00000
     26443 MEOH     1153     MEOH     C1       CD33B    2.314100       11.6110           0   -1.00000   1.30000
     26444 MEOH     1153     MEOH     DC1      DRUD    -2.454100        0.4000           0   0.00000   0.00000
     26445 MEOH     1153     MEOH     O1       OD31H    2.488300       15.5990           0   -1.02800   1.30000
     26446 MEOH     1153     MEOH     DO1      DRUD    -2.488300        0.4000           0   0.00000   0.00000
     26447 MEOH     1153     MEOH     HO1      HDP1A    0.360000        1.0080           0   0.00000   0.00000
     26448 MEOH     1153     MEOH     HO2      DUMH     0.000000        1.0080           0   0.00000   0.00000
     26449 MEOH     1153     MEOH     H1A      HDA3B    0.080000        1.0080           0   0.00000   0.00000
     26450 MEOH     1153     MEOH     H1B      HDA3B    0.080000        1.0080           0   0.00000   0.00000
     26451 MEOH     1153     MEOH     H1C      HDA3B    0.080000        1.0080           0   0.00000   0.00000
     26452 MEOH     1153     MEOH     LP1A     LPD     -0.230000        0.0000           -1   0.00000   0.00000
     26453 MEOH     1153     MEOH     LP1B     LPD     -0.230000        0.0000           -1   0.00000   0.00000
     26454 MEOH     1154     MEOH     C1       CD33B    2.314100       11.6110           0   -1.00000   1.30000
     26455 MEOH     1154     MEOH     DC1      DRUD    -2.454100        0.4000           0   0.00000   0.00000
     26456 MEOH     1154     MEOH     O1       OD31H    2.488300       15.5990           0   -1.02800   1.30000
     26457 MEOH     1154     MEOH     DO1      DRUD    -2.488300        0.4000           0   0.00000   0.00000
     26458 MEOH     1154     MEOH     HO1      HDP1A    0.360000        1.0080           0   0.00000   0.00000
     26459 MEOH     1154     MEOH     HO2      DUMH     0.000000        1.0080           0   0.00000   0.00000
     26460 MEOH     1154     MEOH     H1A      HDA3B    0.080000        1.0080           0   0.00000   0.00000
     26461 MEOH     1154     MEOH     H1B      HDA3B    0.080000        1.0080           0   0.00000   0.00000
     26462 MEOH     1154     MEOH     H1C      HDA3B    0.080000        1.0080           0   0.00000   0.00000
     26463 MEOH     1154     MEOH     LP1A     LPD     -0.230000        0.0000           -1   0.00000   0.00000
     26464 MEOH     1154     MEOH     LP1B     LPD     -0.230000        0.0000           -1   0.00000   0.00000
     26465 MEOH     1155     MEOH     C1       CD33B    2.314100       11.6110           0   -1.00000   1.30000
     26466 MEOH     1155     MEOH     DC1      DRUD    -2.454100        0.4000           0   0.00000   0.00000
     26467 MEOH     1155     MEOH     O1       OD31H    2.488300       15.5990           0   -1.02800   1.30000
     26468 MEOH     1155     MEOH     DO1      DRUD    -2.488300        0.4000           0   0.00000   0.00000
     26469 MEOH     1155     MEOH     HO1      HDP1A    0.360000        1.0080           0   0.00000   0.00000
     26470 MEOH     1155     MEOH     HO2      DUMH     0.000000        1.0080           0   0.00000   0.00000
     26471 MEOH     1155     MEOH     H1A      HDA3B    0.080000        1.0080           0   0.00000   0.00000
     26472 MEOH     1155     MEOH     H1B      HDA3B    0.080000        1.0080           0   0.00000   0.00000
     26473 MEOH     1155     MEOH     H1C      HDA3B    0.080000        1.0080           0   0.00000   0.00000
     26474 MEOH     1155     MEOH     LP1A     LPD     -0.230000        0.0000           -1   0.00000   0.00000
     26475 MEOH     1155     MEOH     LP1B     LPD     -0.230000        0.0000           -1   0.00000   0.00000
     26476 MEOH     1156     MEOH     C1       CD33B    2.314100       11.6110           0   -1.00000   1.30000
     26477 MEOH     1156     MEOH     DC1      DRUD    -2.454100        0.4000           0   0.00000   0.00000
     26478 MEOH     1156     MEOH     O1       OD31H    2.488300       15.5990           0   -1.02800   1.30000
     26479 MEOH     1156     MEOH     DO1      DRUD    -2.488300        0.4000           0   0.00000   0.00000
     26480 MEOH     1156     MEOH     HO1      HDP1A    0.360000        1.0080           0   0.00000   0.00000
     26481 MEOH     1156     MEOH     HO2      DUMH     0.000000        1.0080           0   0.00000   0.00000
     26482 MEOH     1156     MEOH     H1A      HDA3B    0.080000        1.0080           0   0.00000   0.00000
     26483 MEOH     1156     MEOH     H1B      HDA3B    0.080000        1.0080           0   0.00000   0.00000
     26484 MEOH     1156     MEOH     H1C      HDA3B    0.080000        1.0080           0   0.00000   0.00000
     26485 MEOH     1156     MEOH     LP1A     LPD     -0.230000        0.0000           -1   0.00000   0.00000
     26486 MEOH     1156     MEOH     LP1B     LPD     -0.230000        0.0000           -1   0.00000   0.00000
     26487 MEOH     1157     MEOH     C1       CD33B    2.314100       11.6110           0   -1.00000   1.30000
     26488 MEOH     1157     MEOH     DC1      DRUD    -2.454100        0.4000           0   0.00000   0.00000
     26489 MEOH     1157     MEOH     O1       OD31H    2.488300       15.5990           0   -1.02800   1.30000
     26490 MEOH     1157     MEOH     DO1      DRUD    -2.488300        0.4000           0   0.00000   0.00000
     26491 MEOH     1157     MEOH     HO1      HDP1A    0.360000        1.0080           0   0.00000   0.00000
     26492 MEOH     1157     MEOH     HO2      DUMH     0.000000        1.0080           0   0.00000   0.00000
     26493 MEOH     1157     MEOH     H1A      HDA3B    0.080000        1.0080           0   0.00000   0.00000
     26494 MEOH     1157     MEOH     H1B      HDA3B    0.080000        1.0080           0   0.00000   0.00000
     26495 MEOH     1157     MEOH     H1C      HDA3B    0.080000        1.0080           0   0.00000   0.00000
     26496 MEOH     1157     MEOH     LP1A     LPD     -0.230000        0.0000           -1   0.00000   0.00000
     26497 MEOH     1157     MEOH     LP1B     LPD     -0.230000        0.0000           -1   0.00000   0.00000
     26498 MEOH     1158     MEOH     C1       CD33B    2.314100       11.6110           0   -1.00000   1.30000
     26499 MEOH     1158     MEOH     DC1      DRUD    -2.454100        0.4000           0   0.00000   0.00000
     26500 MEOH     1158     MEOH     O1       OD31H    2.488300       15.5990           0   -1.02800   1.30000
     26501 MEOH     1158     MEOH     DO1      DRUD    -2.488300        0.4000           0   0.00000   0.00000
     26502 MEOH     1158     MEOH     HO1      HDP1A    0.360000        1.0080           0   0.00000   0.00000
     26503 MEOH     1158     MEOH     HO2      DUMH     0.000000        1.0080           0   0.00000   0.00000
     26504 MEOH     1158     MEOH     H1A      HDA3B    0.080000        1.0080           0   0.00000   0.00000
     26505 MEOH     1158     MEOH     H1B      HDA3B    0.080000        1.0080           0   0.00000   0.00000
     26506 MEOH     1158     MEOH     H1C      HDA3B    0.080000        1.0080           0   0.00000   0.00000
     26507 MEOH     1158     MEOH     LP1A     LPD     -0.230000        0.0000           -1   0.00000   0.00000
     26508 MEOH     1158     MEOH     LP1B     LPD     -0.230000        0.0000           -1   0.00000   0.00000
     26509 MEOH     1159     MEOH     C1       CD33B    2.314100       11.6110           0   -1.00000   1.30000
     26510 MEOH     1159     MEOH     DC1      DRUD    -2.454100        0.4000           0   0.00000   0.00000
     26511 MEOH     1159     MEOH     O1       OD31H    2.488300       15.5990           0   -1.02800   1.30000
     26512 MEOH     1159     MEOH     DO1      DRUD    -2.488300        0.4000           0   0.00000   0.00000
     26513 MEOH     1159     MEOH     HO1      HDP1A    0.360000        1.0080           0   0.00000   0.00000
     26514 MEOH     1159     MEOH     HO2      DUMH     0.000000        1.0080           0   0.00000   0.00000
     26515 MEOH     1159     MEOH     H1A      HDA3B    0.080000        1.0080           0   0.00000   0.00000
     26516 MEOH     1159     MEOH     H1B      HDA3B    0.080000        1.0080           0   0.00000   0.00000
     26517 MEOH     1159     MEOH     H1C      HDA3B    0.080000        1.0080           0   0.00000   0.00000
     26518 MEOH     1159     MEOH     LP1A     LPD     -0.230000        0.0000           -1   0.00000   0.00000
     26519 MEOH     1159     MEOH     LP1B     LPD     -0.230000        0.0000           -1   0.00000   0.00000
     26520 MEOH     1160     MEOH     C1       CD33B    2.314100       11.6110           0   -1.00000   1.30000
     26521 MEOH     1160     MEOH     DC1      DRUD    -2.454100        0.4000           0   0.00000   0.00000
     26522 MEOH     1160     MEOH     O1       OD31H    2.488300       15.5990           0   -1.02800   1.30000
     26523 MEOH     1160     MEOH     DO1      DRUD    -2.488300        0.4000           0   0.00000   0.00000
     26524 MEOH     1160     MEOH     HO1      HDP1A    0.360000        1.0080           0   0.00000   0.00000
     26525 MEOH     1160     MEOH     HO2      DUMH     0.000000        1.0080           0   0.00000   0.00000
     26526 MEOH     1160     MEOH     H1A      HDA3B    0.080000        1.0080           0   0.00000   0.00000
     26527 MEOH     1160     MEOH     H1B      HDA3B    0.080000        1.0080           0   0.00000   0.00000
     26528 MEOH     1160     MEOH     H1C      HDA3B    0.080000        1.0080           0   0.00000   0.00000
     26529 MEOH     1160     MEOH     LP1A     LPD     -0.230000        0.0000           -1   0.00000   0.00000
     26530 MEOH     1160     MEOH     LP1B     LPD     -0.230000        0.0000           -1   0.00000   0.00000
     26531 MEOH     1161     MEOH     C1       CD33B    2.314100       11.6110           0   -1.00000   1.30000
     26532 MEOH     1161     MEOH     DC1      DRUD    -2.454100        0.4000           0   0.00000   0.00000
     26533 MEOH     1161     MEOH     O1       OD31H    2.488300       15.5990           0   -1.02800   1.30000
     26534 MEOH     1161     MEOH     DO1      DRUD    -2.488300        0.4000           0   0.00000   0.00000
     26535 MEOH     1161     MEOH     HO1      HDP1A    0.360000        1.0080           0   0.00000   0.00000
     26536 MEOH     1161     MEOH     HO2      DUMH     0.000000        1.0080           0   0.00000   0.00000
     26537 MEOH     1161     MEOH     H1A      HDA3B    0.080000        1.0080           0   0.00000   0.00000
     26538 MEOH     1161     MEOH     H1B      HDA3B    0.080000        1.0080           0   0.00000   0.00000
     26539 MEOH     1161     MEOH     H1C      HDA3B    0.080000        1.0080           0   0.00000   0.00000
     26540 MEOH     1161     MEOH     LP1A     LPD     -0.230000        0.0000           -1   0.00000   0.00000
     26541 MEOH     1161     MEOH     LP1B     LPD     -0.230000        0.0000           -1   0.00000   0.00000
     26542 MEOH     1162     MEOH     C1       CD33B    2.314100       11.6110           0   -1.00000   1.30000
     26543 MEOH     1162     MEOH     DC1      DRUD    -2.454100        0.4000           0   0.00000   0.00000
     26544 MEOH     1162     MEOH     O1       OD31H    2.488300       15.5990           0   -1.02800   1.30000
     26545 MEOH     1162     MEOH     DO1      DRUD    -2.488300        0.4000           0   0.00000   0.00000
     26546 MEOH     1162     MEOH     HO1      HDP1A    0.360000        1.0080           0   0.00000   0.00000
     26547 MEOH     1162     MEOH     HO2      DUMH     0.000000        1.0080           0   0.00000   0.00000
     26548 MEOH     1162     MEOH     H1A      HDA3B    0.080000        1.0080           0   0.00000   0.00000
     26549 MEOH     1162     MEOH     H1B      HDA3B    0.080000        1.0080           0   0.00000   0.00000
     26550 MEOH     1162     MEOH     H1C      HDA3B    0.080000        1.0080           0   0.00000   0.00000
     26551 MEOH     1162     MEOH     LP1A     LPD     -0.230000        0.0000           -1   0.00000   0.00000
     26552 MEOH     1162     MEOH     LP1B     LPD     -0.230000        0.0000           -1   0.00000   0.00000
     26553 MEOH     1163     MEOH     C1       CD33B    2.314100       11.6110           0   -1.00000   1.30000
     26554 MEOH     1163     MEOH     DC1      DRUD    -2.454100        0.4000           0   0.00000   0.00000
     26555 MEOH     1163     MEOH     O1       OD31H    2.488300       15.5990           0   -1.02800   1.30000
     26556 MEOH     1163     MEOH     DO1      DRUD    -2.488300        0.4000           0   0.00000   0.00000
     26557 MEOH     1163     MEOH     HO1      HDP1A    0.360000        1.0080           0   0.00000   0.00000
     26558 MEOH     1163     MEOH     HO2      DUMH     0.000000        1.0080           0   0.00000   0.00000
     26559 MEOH     1163     MEOH     H1A      HDA3B    0.080000        1.0080           0   0.00000   0.00000
     26560 MEOH     1163     MEOH     H1B      HDA3B    0.080000        1.0080           0   0.00000   0.00000
     26561 MEOH     1163     MEOH     H1C      HDA3B    0.080000        1.0080           0   0.00000   0.00000
     26562 MEOH     1163     MEOH     LP1A     LPD     -0.230000        0.0000           -1   0.00000   0.00000
     26563 MEOH     1163     MEOH     LP1B     LPD     -0.230000        0.0000           -1   0.00000   0.00000
     26564 MEOH     1164     MEOH     C1       CD33B    2.314100       11.6110           0   -1.00000   1.30000
     26565 MEOH     1164     MEOH     DC1      DRUD    -2.454100        0.4000           0   0.00000   0.00000
     26566 MEOH     1164     MEOH     O1       OD31H    2.488300       15.5990           0   -1.02800   1.30000
     26567 MEOH     1164     MEOH     DO1      DRUD    -2.488300        0.4000           0   0.00000   0.00000
     26568 MEOH     1164     MEOH     HO1      HDP1A    0.360000        1.0080           0   0.00000   0.00000
     26569 MEOH     1164     MEOH     HO2      DUMH     0.000000        1.0080           0   0.00000   0.00000
     26570 MEOH     1164     MEOH     H1A      HDA3B    0.080000        1.0080           0   0.00000   0.00000
     26571 MEOH     1164     MEOH     H1B      HDA3B    0.080000        1.0080           0   0.00000   0.00000
     26572 MEOH     1164     MEOH     H1C      HDA3B    0.080000        1.0080           0   0.00000   0.00000
     26573 MEOH     1164     MEOH     LP1A     LPD     -0.230000        0.0000           -1   0.00000   0.00000
     26574 MEOH     1164     MEOH     LP1B     LPD     -0.230000        0.0000           -1   0.00000   0.00000
     26575 MEOH     1165     MEOH     C1       CD33B    2.314100       11.6110           0   -1.00000   1.30000
     26576 MEOH     1165     MEOH     DC1      DRUD    -2.454100        0.4000           0   0.00000   0.00000
     26577 MEOH     1165     MEOH     O1       OD31H    2.488300       15.5990           0   -1.02800   1.30000
     26578 MEOH     1165     MEOH     DO1      DRUD    -2.488300        0.4000           0   0.00000   0.00000
     26579 MEOH     1165     MEOH     HO1      HDP1A    0.360000        1.0080           0   0.00000   0.00000
     26580 MEOH     1165     MEOH     HO2      DUMH     0.000000        1.0080           0   0.00000   0.00000
     26581 MEOH     1165     MEOH     H1A      HDA3B    0.080000        1.0080           0   0.00000   0.00000
     26582 MEOH     1165     MEOH     H1B      HDA3B    0.080000        1.0080           0   0.00000   0.00000
     26583 MEOH     1165     MEOH     H1C      HDA3B    0.080000        1.0080           0   0.00000   0.00000
     26584 MEOH     1165     MEOH     LP1A     LPD     -0.230000        0.0000           -1   0.00000   0.00000
     26585 MEOH     1165     MEOH     LP1B     LPD     -0.230000        0.0000           -1   0.00000   0.00000
     26586 MEOH     1166     MEOH     C1       CD33B    2.314100       11.6110           0   -1.00000   1.30000
     26587 MEOH     1166     MEOH     DC1      DRUD    -2.454100        0.4000           0   0.00000   0.00000
     26588 MEOH     1166     MEOH     O1       OD31H    2.488300       15.5990           0   -1.02800   1.30000
     26589 MEOH     1166     MEOH     DO1      DRUD    -2.488300        0.4000           0   0.00000   0.00000
     26590 MEOH     1166     MEOH     HO1      HDP1A    0.360000        1.0080           0   0.00000   0.00000
     26591 MEOH     1166     MEOH     HO2      DUMH     0.000000        1.0080           0   0.00000   0.00000
     26592 MEOH     1166     MEOH     H1A      HDA3B    0.080000        1.0080           0   0.00000   0.00000
     26593 MEOH     1166     MEOH     H1B      HDA3B    0.080000        1.0080           0   0.00000   0.00000
     26594 MEOH     1166     MEOH     H1C      HDA3B    0.080000        1.0080           0   0.00000   0.00000
     26595 MEOH     1166     MEOH     LP1A     LPD     -0.230000        0.0000           -1   0.00000   0.00000
     26596 MEOH     1166     MEOH     LP1B     LPD     -0.230000        0.0000           -1   0.00000   0.00000
     26597 MEOH     1167     MEOH     C1       CD33B    2.314100       11.6110           0   -1.00000   1.30000
     26598 MEOH     1167     MEOH     DC1      DRUD    -2.454100        0.4000           0   0.00000   0.00000
     26599 MEOH     1167     MEOH     O1       OD31H    2.488300       15.5990           0   -1.02800   1.30000
     26600 MEOH     1167     MEOH     DO1      DRUD    -2.488300        0.4000           0   0.00000   0.00000
     26601 MEOH     1167     MEOH     HO1      HDP1A    0.360000        1.0080           0   0.00000   0.00000
     26602 MEOH     1167     MEOH     HO2      DUMH     0.000000        1.0080           0   0.00000   0.00000
     26603 MEOH     1167     MEOH     H1A      HDA3B    0.080000        1.0080           0   0.00000   0.00000
     26604 MEOH     1167     MEOH     H1B      HDA3B    0.080000        1.0080           0   0.00000   0.00000
     26605 MEOH     1167     MEOH     H1C      HDA3B    0.080000        1.0080           0   0.00000   0.00000
     26606 MEOH     1167     MEOH     LP1A     LPD     -0.230000        0.0000           -1   0.00000   0.00000
     26607 MEOH     1167     MEOH     LP1B     LPD     -0.230000        0.0000           -1   0.00000   0.00000
     26608 MEOH     1168     MEOH     C1       CD33B    2.314100       11.6110           0   -1.00000   1.30000
     26609 MEOH     1168     MEOH     DC1      DRUD    -2.454100        0.4000           0   0.00000   0.00000
     26610 MEOH     1168     MEOH     O1       OD31H    2.488300       15.5990           0   -1.02800   1.30000
     26611 MEOH     1168     MEOH     DO1      DRUD    -2.488300        0.4000           0   0.00000   0.00000
     26612 MEOH     1168     MEOH     HO1      HDP1A    0.360000        1.0080           0   0.00000   0.00000
     26613 MEOH     1168     MEOH     HO2      DUMH     0.000000        1.0080           0   0.00000   0.00000
     26614 MEOH     1168     MEOH     H1A      HDA3B    0.080000        1.0080           0   0.00000   0.00000
     26615 MEOH     1168     MEOH     H1B      HDA3B    0.080000        1.0080           0   0.00000   0.00000
     26616 MEOH     1168     MEOH     H1C      HDA3B    0.080000        1.0080           0   0.00000   0.00000
     26617 MEOH     1168     MEOH     LP1A     LPD     -0.230000        0.0000           -1   0.00000   0.00000
     26618 MEOH     1168     MEOH     LP1B     LPD     -0.230000        0.0000           -1   0.00000   0.00000
     26619 MEOH     1169     MEOH     C1       CD33B    2.314100       11.6110           0   -1.00000   1.30000
     26620 MEOH     1169     MEOH     DC1      DRUD    -2.454100        0.4000           0   0.00000   0.00000
     26621 MEOH     1169     MEOH     O1       OD31H    2.488300       15.5990           0   -1.02800   1.30000
     26622 MEOH     1169     MEOH     DO1      DRUD    -2.488300        0.4000           0   0.00000   0.00000
     26623 MEOH     1169     MEOH     HO1      HDP1A    0.360000        1.0080           0   0.00000   0.00000
     26624 MEOH     1169     MEOH     HO2      DUMH     0.000000        1.0080           0   0.00000   0.00000
     26625 MEOH     1169     MEOH     H1A      HDA3B    0.080000        1.0080           0   0.00000   0.00000
     26626 MEOH     1169     MEOH     H1B      HDA3B    0.080000        1.0080           0   0.00000   0.00000
     26627 MEOH     1169     MEOH     H1C      HDA3B    0.080000        1.0080           0   0.00000   0.00000
     26628 MEOH     1169     MEOH     LP1A     LPD     -0.230000        0.0000           -1   0.00000   0.00000
     26629 MEOH     1169     MEOH     LP1B     LPD     -0.230000        0.0000           -1   0.00000   0.00000
     26630 MEOH     1170     MEOH     C1       CD33B    2.314100       11.6110           0   -1.00000   1.30000
     26631 MEOH     1170     MEOH     DC1      DRUD    -2.454100        0.4000           0   0.00000   0.00000
     26632 MEOH     1170     MEOH     O1       OD31H    2.488300       15.5990           0   -1.02800   1.30000
     26633 MEOH     1170     MEOH     DO1      DRUD    -2.488300        0.4000           0   0.00000   0.00000
     26634 MEOH     1170     MEOH     HO1      HDP1A    0.360000        1.0080           0   0.00000   0.00000
     26635 MEOH     1170     MEOH     HO2      DUMH     0.000000        1.0080           0   0.00000   0.00000
     26636 MEOH     1170     MEOH     H1A      HDA3B    0.080000        1.0080           0   0.00000   0.00000
     26637 MEOH     1170     MEOH     H1B      HDA3B    0.080000        1.0080           0   0.00000   0.00000
     26638 MEOH     1170     MEOH     H1C      HDA3B    0.080000        1.0080           0   0.00000   0.00000
     26639 MEOH     1170     MEOH     LP1A     LPD     -0.230000        0.0000           -1   0.00000   0.00000
     26640 MEOH     1170     MEOH     LP1B     LPD     -0.230000        0.0000           -1   0.00000   0.00000
     26641 MEOH     1171     MEOH     C1       CD33B    2.314100       11.6110           0   -1.00000   1.30000
     26642 MEOH     1171     MEOH     DC1      DRUD    -2.454100        0.4000           0   0.00000   0.00000
     26643 MEOH     1171     MEOH     O1       OD31H    2.488300       15.5990           0   -1.02800   1.30000
     26644 MEOH     1171     MEOH     DO1      DRUD    -2.488300        0.4000           0   0.00000   0.00000
     26645 MEOH     1171     MEOH     HO1      HDP1A    0.360000        1.0080           0   0.00000   0.00000
     26646 MEOH     1171     MEOH     HO2      DUMH     0.000000        1.0080           0   0.00000   0.00000
     26647 MEOH     1171     MEOH     H1A      HDA3B    0.080000        1.0080           0   0.00000   0.00000
     26648 MEOH     1171     MEOH     H1B      HDA3B    0.080000        1.0080           0   0.00000   0.00000
     26649 MEOH     1171     MEOH     H1C      HDA3B    0.080000        1.0080           0   0.00000   0.00000
     26650 MEOH     1171     MEOH     LP1A     LPD     -0.230000        0.0000           -1   0.00000   0.00000
     26651 MEOH     1171     MEOH     LP1B     LPD     -0.230000        0.0000           -1   0.00000   0.00000
     26652 MEOH     1172     MEOH     C1       CD33B    2.314100       11.6110           0   -1.00000   1.30000
     26653 MEOH     1172     MEOH     DC1      DRUD    -2.454100        0.4000           0   0.00000   0.00000
     26654 MEOH     1172     MEOH     O1       OD31H    2.488300       15.5990           0   -1.02800   1.30000
     26655 MEOH     1172     MEOH     DO1      DRUD    -2.488300        0.4000           0   0.00000   0.00000
     26656 MEOH     1172     MEOH     HO1      HDP1A    0.360000        1.0080           0   0.00000   0.00000
     26657 MEOH     1172     MEOH     HO2      DUMH     0.000000        1.0080           0   0.00000   0.00000
     26658 MEOH     1172     MEOH     H1A      HDA3B    0.080000        1.0080           0   0.00000   0.00000
     26659 MEOH     1172     MEOH     H1B      HDA3B    0.080000        1.0080           0   0.00000   0.00000
     26660 MEOH     1172     MEOH     H1C      HDA3B    0.080000        1.0080           0   0.00000   0.00000
     26661 MEOH     1172     MEOH     LP1A     LPD     -0.230000        0.0000           -1   0.00000   0.00000
     26662 MEOH     1172     MEOH     LP1B     LPD     -0.230000        0.0000           -1   0.00000   0.00000
     26663 MEOH     1173     MEOH     C1       CD33B    2.314100       11.6110           0   -1.00000   1.30000
     26664 MEOH     1173     MEOH     DC1      DRUD    -2.454100        0.4000           0   0.00000   0.00000
     26665 MEOH     1173     MEOH     O1       OD31H    2.488300       15.5990           0   -1.02800   1.30000
     26666 MEOH     1173     MEOH     DO1      DRUD    -2.488300        0.4000           0   0.00000   0.00000
     26667 MEOH     1173     MEOH     HO1      HDP1A    0.360000        1.0080           0   0.00000   0.00000
     26668 MEOH     1173     MEOH     HO2      DUMH     0.000000        1.0080           0   0.00000   0.00000
     26669 MEOH     1173     MEOH     H1A      HDA3B    0.080000        1.0080           0   0.00000   0.00000
     26670 MEOH     1173     MEOH     H1B      HDA3B    0.080000        1.0080           0   0.00000   0.00000
     26671 MEOH     1173     MEOH     H1C      HDA3B    0.080000        1.0080           0   0.00000   0.00000
     26672 MEOH     1173     MEOH     LP1A     LPD     -0.230000        0.0000           -1   0.00000   0.00000
     26673 MEOH     1173     MEOH     LP1B     LPD     -0.230000        0.0000           -1   0.00000   0.00000
     26674 MEOH     1174     MEOH     C1       CD33B    2.314100       11.6110           0   -1.00000   1.30000
     26675 MEOH     1174     MEOH     DC1      DRUD    -2.454100        0.4000           0   0.00000   0.00000
     26676 MEOH     1174     MEOH     O1       OD31H    2.488300       15.5990           0   -1.02800   1.30000
     26677 MEOH     1174     MEOH     DO1      DRUD    -2.488300        0.4000           0   0.00000   0.00000
     26678 MEOH     1174     MEOH     HO1      HDP1A    0.360000        1.0080           0   0.00000   0.00000
     26679 MEOH     1174     MEOH     HO2      DUMH     0.000000        1.0080           0   0.00000   0.00000
     26680 MEOH     1174     MEOH     H1A      HDA3B    0.080000        1.0080           0   0.00000   0.00000
     26681 MEOH     1174     MEOH     H1B      HDA3B    0.080000        1.0080           0   0.00000   0.00000
     26682 MEOH     1174     MEOH     H1C      HDA3B    0.080000        1.0080           0   0.00000   0.00000
     26683 MEOH     1174     MEOH     LP1A     LPD     -0.230000        0.0000           -1   0.00000   0.00000
     26684 MEOH     1174     MEOH     LP1B     LPD     -0.230000        0.0000           -1   0.00000   0.00000
     26685 MEOH     1175     MEOH     C1       CD33B    2.314100       11.6110           0   -1.00000   1.30000
     26686 MEOH     1175     MEOH     DC1      DRUD    -2.454100        0.4000           0   0.00000   0.00000
     26687 MEOH     1175     MEOH     O1       OD31H    2.488300       15.5990           0   -1.02800   1.30000
     26688 MEOH     1175     MEOH     DO1      DRUD    -2.488300        0.4000           0   0.00000   0.00000
     26689 MEOH     1175     MEOH     HO1      HDP1A    0.360000        1.0080           0   0.00000   0.00000
     26690 MEOH     1175     MEOH     HO2      DUMH     0.000000        1.0080           0   0.00000   0.00000
     26691 MEOH     1175     MEOH     H1A      HDA3B    0.080000        1.0080           0   0.00000   0.00000
     26692 MEOH     1175     MEOH     H1B      HDA3B    0.080000        1.0080           0   0.00000   0.00000
     26693 MEOH     1175     MEOH     H1C      HDA3B    0.080000        1.0080           0   0.00000   0.00000
     26694 MEOH     1175     MEOH     LP1A     LPD     -0.230000        0.0000           -1   0.00000   0.00000
     26695 MEOH     1175     MEOH     LP1B     LPD     -0.230000        0.0000           -1   0.00000   0.00000
     26696 MEOH     1176     MEOH     C1       CD33B    2.314100       11.6110           0   -1.00000   1.30000
     26697 MEOH     1176     MEOH     DC1      DRUD    -2.454100        0.4000           0   0.00000   0.00000
     26698 MEOH     1176     MEOH     O1       OD31H    2.488300       15.5990           0   -1.02800   1.30000
     26699 MEOH     1176     MEOH     DO1      DRUD    -2.488300        0.4000           0   0.00000   0.00000
     26700 MEOH     1176     MEOH     HO1      HDP1A    0.360000        1.0080           0   0.00000   0.00000
     26701 MEOH     1176     MEOH     HO2      DUMH     0.000000        1.0080           0   0.00000   0.00000
     26702 MEOH     1176     MEOH     H1A      HDA3B    0.080000        1.0080           0   0.00000   0.00000
     26703 MEOH     1176     MEOH     H1B      HDA3B    0.080000        1.0080           0   0.00000   0.00000
     26704 MEOH     1176     MEOH     H1C      HDA3B    0.080000        1.0080           0   0.00000   0.00000
     26705 MEOH     1176     MEOH     LP1A     LPD     -0.230000        0.0000           -1   0.00000   0.00000
     26706 MEOH     1176     MEOH     LP1B     LPD     -0.230000        0.0000           -1   0.00000   0.00000
     26707 MEOH     1177     MEOH     C1       CD33B    2.314100       11.6110           0   -1.00000   1.30000
     26708 MEOH     1177     MEOH     DC1      DRUD    -2.454100        0.4000           0   0.00000   0.00000
     26709 MEOH     1177     MEOH     O1       OD31H    2.488300       15.5990           0   -1.02800   1.30000
     26710 MEOH     1177     MEOH     DO1      DRUD    -2.488300        0.4000           0   0.00000   0.00000
     26711 MEOH     1177     MEOH     HO1      HDP1A    0.360000        1.0080           0   0.00000   0.00000
     26712 MEOH     1177     MEOH     HO2      DUMH     0.000000        1.0080           0   0.00000   0.00000
     26713 MEOH     1177     MEOH     H1A      HDA3B    0.080000        1.0080           0   0.00000   0.00000
     26714 MEOH     1177     MEOH     H1B      HDA3B    0.080000        1.0080           0   0.00000   0.00000
     26715 MEOH     1177     MEOH     H1C      HDA3B    0.080000        1.0080           0   0.00000   0.00000
     26716 MEOH     1177     MEOH     LP1A     LPD     -0.230000        0.0000           -1   0.00000   0.00000
     26717 MEOH     1177     MEOH     LP1B     LPD     -0.230000        0.0000           -1   0.00000   0.00000
     26718 MEOH     1178     MEOH     C1       CD33B    2.314100       11.6110           0   -1.00000   1.30000
     26719 MEOH     1178     MEOH     DC1      DRUD    -2.454100        0.4000           0   0.00000   0.00000
     26720 MEOH     1178     MEOH     O1       OD31H    2.488300       15.5990           0   -1.02800   1.30000
     26721 MEOH     1178     MEOH     DO1      DRUD    -2.488300        0.4000           0   0.00000   0.00000
     26722 MEOH     1178     MEOH     HO1      HDP1A    0.360000        1.0080           0   0.00000   0.00000
     26723 MEOH     1178     MEOH     HO2      DUMH     0.000000        1.0080           0   0.00000   0.00000
     26724 MEOH     1178     MEOH     H1A      HDA3B    0.080000        1.0080           0   0.00000   0.00000
     26725 MEOH     1178     MEOH     H1B      HDA3B    0.080000        1.0080           0   0.00000   0.00000
     26726 MEOH     1178     MEOH     H1C      HDA3B    0.080000        1.0080           0   0.00000   0.00000
     26727 MEOH     1178     MEOH     LP1A     LPD     -0.230000        0.0000           -1   0.00000   0.00000
     26728 MEOH     1178     MEOH     LP1B     LPD     -0.230000        0.0000           -1   0.00000   0.00000
     26729 MEOH     1179     MEOH     C1       CD33B    2.314100       11.6110           0   -1.00000   1.30000
     26730 MEOH     1179     MEOH     DC1      DRUD    -2.454100        0.4000           0   0.00000   0.00000
     26731 MEOH     1179     MEOH     O1       OD31H    2.488300       15.5990           0   -1.02800   1.30000
     26732 MEOH     1179     MEOH     DO1      DRUD    -2.488300        0.4000           0   0.00000   0.00000
     26733 MEOH     1179     MEOH     HO1      HDP1A    0.360000        1.0080           0   0.00000   0.00000
     26734 MEOH     1179     MEOH     HO2      DUMH     0.000000        1.0080           0   0.00000   0.00000
     26735 MEOH     1179     MEOH     H1A      HDA3B    0.080000        1.0080           0   0.00000   0.00000
     26736 MEOH     1179     MEOH     H1B      HDA3B    0.080000        1.0080           0   0.00000   0.00000
     26737 MEOH     1179     MEOH     H1C      HDA3B    0.080000        1.0080           0   0.00000   0.00000
     26738 MEOH     1179     MEOH     LP1A     LPD     -0.230000        0.0000           -1   0.00000   0.00000
     26739 MEOH     1179     MEOH     LP1B     LPD     -0.230000        0.0000           -1   0.00000   0.00000
     26740 MEOH     1180     MEOH     C1       CD33B    2.314100       11.6110           0   -1.00000   1.30000
     26741 MEOH     1180     MEOH     DC1      DRUD    -2.454100        0.4000           0   0.00000   0.00000
     26742 MEOH     1180     MEOH     O1       OD31H    2.488300       15.5990           0   -1.02800   1.30000
     26743 MEOH     1180     MEOH     DO1      DRUD    -2.488300        0.4000           0   0.00000   0.00000
     26744 MEOH     1180     MEOH     HO1      HDP1A    0.360000        1.0080           0   0.00000   0.00000
     26745 MEOH     1180     MEOH     HO2      DUMH     0.000000        1.0080           0   0.00000   0.00000
     26746 MEOH     1180     MEOH     H1A      HDA3B    0.080000        1.0080           0   0.00000   0.00000
     26747 MEOH     1180     MEOH     H1B      HDA3B    0.080000        1.0080           0   0.00000   0.00000
     26748 MEOH     1180     MEOH     H1C      HDA3B    0.080000        1.0080           0   0.00000   0.00000
     26749 MEOH     1180     MEOH     LP1A     LPD     -0.230000        0.0000           -1   0.00000   0.00000
     26750 MEOH     1180     MEOH     LP1B     LPD     -0.230000        0.0000           -1   0.00000   0.00000
     26751 MEOH     1181     MEOH     C1       CD33B    2.314100       11.6110           0   -1.00000   1.30000
     26752 MEOH     1181     MEOH     DC1      DRUD    -2.454100        0.4000           0   0.00000   0.00000
     26753 MEOH     1181     MEOH     O1       OD31H    2.488300       15.5990           0   -1.02800   1.30000
     26754 MEOH     1181     MEOH     DO1      DRUD    -2.488300        0.4000           0   0.00000   0.00000
     26755 MEOH     1181     MEOH     HO1      HDP1A    0.360000        1.0080           0   0.00000   0.00000
     26756 MEOH     1181     MEOH     HO2      DUMH     0.000000        1.0080           0   0.00000   0.00000
     26757 MEOH     1181     MEOH     H1A      HDA3B    0.080000        1.0080           0   0.00000   0.00000
     26758 MEOH     1181     MEOH     H1B      HDA3B    0.080000        1.0080           0   0.00000   0.00000
     26759 MEOH     1181     MEOH     H1C      HDA3B    0.080000        1.0080           0   0.00000   0.00000
     26760 MEOH     1181     MEOH     LP1A     LPD     -0.230000        0.0000           -1   0.00000   0.00000
     26761 MEOH     1181     MEOH     LP1B     LPD     -0.230000        0.0000           -1   0.00000   0.00000
     26762 MEOH     1182     MEOH     C1       CD33B    2.314100       11.6110           0   -1.00000   1.30000
     26763 MEOH     1182     MEOH     DC1      DRUD    -2.454100        0.4000           0   0.00000   0.00000
     26764 MEOH     1182     MEOH     O1       OD31H    2.488300       15.5990           0   -1.02800   1.30000
     26765 MEOH     1182     MEOH     DO1      DRUD    -2.488300        0.4000           0   0.00000   0.00000
     26766 MEOH     1182     MEOH     HO1      HDP1A    0.360000        1.0080           0   0.00000   0.00000
     26767 MEOH     1182     MEOH     HO2      DUMH     0.000000        1.0080           0   0.00000   0.00000
     26768 MEOH     1182     MEOH     H1A      HDA3B    0.080000        1.0080           0   0.00000   0.00000
     26769 MEOH     1182     MEOH     H1B      HDA3B    0.080000        1.0080           0   0.00000   0.00000
     26770 MEOH     1182     MEOH     H1C      HDA3B    0.080000        1.0080           0   0.00000   0.00000
     26771 MEOH     1182     MEOH     LP1A     LPD     -0.230000        0.0000           -1   0.00000   0.00000
     26772 MEOH     1182     MEOH     LP1B     LPD     -0.230000        0.0000           -1   0.00000   0.00000
     26773 MEOH     1183     MEOH     C1       CD33B    2.314100       11.6110           0   -1.00000   1.30000
     26774 MEOH     1183     MEOH     DC1      DRUD    -2.454100        0.4000           0   0.00000   0.00000
     26775 MEOH     1183     MEOH     O1       OD31H    2.488300       15.5990           0   -1.02800   1.30000
     26776 MEOH     1183     MEOH     DO1      DRUD    -2.488300        0.4000           0   0.00000   0.00000
     26777 MEOH     1183     MEOH     HO1      HDP1A    0.360000        1.0080           0   0.00000   0.00000
     26778 MEOH     1183     MEOH     HO2      DUMH     0.000000        1.0080           0   0.00000   0.00000
     26779 MEOH     1183     MEOH     H1A      HDA3B    0.080000        1.0080           0   0.00000   0.00000
     26780 MEOH     1183     MEOH     H1B      HDA3B    0.080000        1.0080           0   0.00000   0.00000
     26781 MEOH     1183     MEOH     H1C      HDA3B    0.080000        1.0080           0   0.00000   0.00000
     26782 MEOH     1183     MEOH     LP1A     LPD     -0.230000        0.0000           -1   0.00000   0.00000
     26783 MEOH     1183     MEOH     LP1B     LPD     -0.230000        0.0000           -1   0.00000   0.00000
     26784 MEOH     1184     MEOH     C1       CD33B    2.314100       11.6110           0   -1.00000   1.30000
     26785 MEOH     1184     MEOH     DC1      DRUD    -2.454100        0.4000           0   0.00000   0.00000
     26786 MEOH     1184     MEOH     O1       OD31H    2.488300       15.5990           0   -1.02800   1.30000
     26787 MEOH     1184     MEOH     DO1      DRUD    -2.488300        0.4000           0   0.00000   0.00000
     26788 MEOH     1184     MEOH     HO1      HDP1A    0.360000        1.0080           0   0.00000   0.00000
     26789 MEOH     1184     MEOH     HO2      DUMH     0.000000        1.0080           0   0.00000   0.00000
     26790 MEOH     1184     MEOH     H1A      HDA3B    0.080000        1.0080           0   0.00000   0.00000
     26791 MEOH     1184     MEOH     H1B      HDA3B    0.080000        1.0080           0   0.00000   0.00000
     26792 MEOH     1184     MEOH     H1C      HDA3B    0.080000        1.0080           0   0.00000   0.00000
     26793 MEOH     1184     MEOH     LP1A     LPD     -0.230000        0.0000           -1   0.00000   0.00000
     26794 MEOH     1184     MEOH     LP1B     LPD     -0.230000        0.0000           -1   0.00000   0.00000
     26795 MEOH     1185     MEOH     C1       CD33B    2.314100       11.6110           0   -1.00000   1.30000
     26796 MEOH     1185     MEOH     DC1      DRUD    -2.454100        0.4000           0   0.00000   0.00000
     26797 MEOH     1185     MEOH     O1       OD31H    2.488300       15.5990           0   -1.02800   1.30000
     26798 MEOH     1185     MEOH     DO1      DRUD    -2.488300        0.4000           0   0.00000   0.00000
     26799 MEOH     1185     MEOH     HO1      HDP1A    0.360000        1.0080           0   0.00000   0.00000
     26800 MEOH     1185     MEOH     HO2      DUMH     0.000000        1.0080           0   0.00000   0.00000
     26801 MEOH     1185     MEOH     H1A      HDA3B    0.080000        1.0080           0   0.00000   0.00000
     26802 MEOH     1185     MEOH     H1B      HDA3B    0.080000        1.0080           0   0.00000   0.00000
     26803 MEOH     1185     MEOH     H1C      HDA3B    0.080000        1.0080           0   0.00000   0.00000
     26804 MEOH     1185     MEOH     LP1A     LPD     -0.230000        0.0000           -1   0.00000   0.00000
     26805 MEOH     1185     MEOH     LP1B     LPD     -0.230000        0.0000           -1   0.00000   0.00000
     26806 MEOH     1186     MEOH     C1       CD33B    2.314100       11.6110           0   -1.00000   1.30000
     26807 MEOH     1186     MEOH     DC1      DRUD    -2.454100        0.4000           0   0.00000   0.00000
     26808 MEOH     1186     MEOH     O1       OD31H    2.488300       15.5990           0   -1.02800   1.30000
     26809 MEOH     1186     MEOH     DO1      DRUD    -2.488300        0.4000           0   0.00000   0.00000
     26810 MEOH     1186     MEOH     HO1      HDP1A    0.360000        1.0080           0   0.00000   0.00000
     26811 MEOH     1186     MEOH     HO2      DUMH     0.000000        1.0080           0   0.00000   0.00000
     26812 MEOH     1186     MEOH     H1A      HDA3B    0.080000        1.0080           0   0.00000   0.00000
     26813 MEOH     1186     MEOH     H1B      HDA3B    0.080000        1.0080           0   0.00000   0.00000
     26814 MEOH     1186     MEOH     H1C      HDA3B    0.080000        1.0080           0   0.00000   0.00000
     26815 MEOH     1186     MEOH     LP1A     LPD     -0.230000        0.0000           -1   0.00000   0.00000
     26816 MEOH     1186     MEOH     LP1B     LPD     -0.230000        0.0000           -1   0.00000   0.00000
     26817 MEOH     1187     MEOH     C1       CD33B    2.314100       11.6110           0   -1.00000   1.30000
     26818 MEOH     1187     MEOH     DC1      DRUD    -2.454100        0.4000           0   0.00000   0.00000
     26819 MEOH     1187     MEOH     O1       OD31H    2.488300       15.5990           0   -1.02800   1.30000
     26820 MEOH     1187     MEOH     DO1      DRUD    -2.488300        0.4000           0   0.00000   0.00000
     26821 MEOH     1187     MEOH     HO1      HDP1A    0.360000        1.0080           0   0.00000   0.00000
     26822 MEOH     1187     MEOH     HO2      DUMH     0.000000        1.0080           0   0.00000   0.00000
     26823 MEOH     1187     MEOH     H1A      HDA3B    0.080000        1.0080           0   0.00000   0.00000
     26824 MEOH     1187     MEOH     H1B      HDA3B    0.080000        1.0080           0   0.00000   0.00000
     26825 MEOH     1187     MEOH     H1C      HDA3B    0.080000        1.0080           0   0.00000   0.00000
     26826 MEOH     1187     MEOH     LP1A     LPD     -0.230000        0.0000           -1   0.00000   0.00000
     26827 MEOH     1187     MEOH     LP1B     LPD     -0.230000        0.0000           -1   0.00000   0.00000
     26828 MEOH     1188     MEOH     C1       CD33B    2.314100       11.6110           0   -1.00000   1.30000
     26829 MEOH     1188     MEOH     DC1      DRUD    -2.454100        0.4000           0   0.00000   0.00000
     26830 MEOH     1188     MEOH     O1       OD31H    2.488300       15.5990           0   -1.02800   1.30000
     26831 MEOH     1188     MEOH     DO1      DRUD    -2.488300        0.4000           0   0.00000   0.00000
     26832 MEOH     1188     MEOH     HO1      HDP1A    0.360000        1.0080           0   0.00000   0.00000
     26833 MEOH     1188     MEOH     HO2      DUMH     0.000000        1.0080           0   0.00000   0.00000
     26834 MEOH     1188     MEOH     H1A      HDA3B    0.080000        1.0080           0   0.00000   0.00000
     26835 MEOH     1188     MEOH     H1B      HDA3B    0.080000        1.0080           0   0.00000   0.00000
     26836 MEOH     1188     MEOH     H1C      HDA3B    0.080000        1.0080           0   0.00000   0.00000
     26837 MEOH     1188     MEOH     LP1A     LPD     -0.230000        0.0000           -1   0.00000   0.00000
     26838 MEOH     1188     MEOH     LP1B     LPD     -0.230000        0.0000           -1   0.00000   0.00000
     26839 MEOH     1189     MEOH     C1       CD33B    2.314100       11.6110           0   -1.00000   1.30000
     26840 MEOH     1189     MEOH     DC1      DRUD    -2.454100        0.4000           0   0.00000   0.00000
     26841 MEOH     1189     MEOH     O1       OD31H    2.488300       15.5990           0   -1.02800   1.30000
     26842 MEOH     1189     MEOH     DO1      DRUD    -2.488300        0.4000           0   0.00000   0.00000
     26843 MEOH     1189     MEOH     HO1      HDP1A    0.360000        1.0080           0   0.00000   0.00000
     26844 MEOH     1189     MEOH     HO2      DUMH     0.000000        1.0080           0   0.00000   0.00000
     26845 MEOH     1189     MEOH     H1A      HDA3B    0.080000        1.0080           0   0.00000   0.00000
     26846 MEOH     1189     MEOH     H1B      HDA3B    0.080000        1.0080           0   0.00000   0.00000
     26847 MEOH     1189     MEOH     H1C      HDA3B    0.080000        1.0080           0   0.00000   0.00000
     26848 MEOH     1189     MEOH     LP1A     LPD     -0.230000        0.0000           -1   0.00000   0.00000
     26849 MEOH     1189     MEOH     LP1B     LPD     -0.230000        0.0000           -1   0.00000   0.00000
     26850 MEOH     1190     MEOH     C1       CD33B    2.314100       11.6110           0   -1.00000   1.30000
     26851 MEOH     1190     MEOH     DC1      DRUD    -2.454100        0.4000           0   0.00000   0.00000
     26852 MEOH     1190     MEOH     O1       OD31H    2.488300       15.5990           0   -1.02800   1.30000
     26853 MEOH     1190     MEOH     DO1      DRUD    -2.488300        0.4000           0   0.00000   0.00000
     26854 MEOH     1190     MEOH     HO1      HDP1A    0.360000        1.0080           0   0.00000   0.00000
     26855 MEOH     1190     MEOH     HO2      DUMH     0.000000        1.0080           0   0.00000   0.00000
     26856 MEOH     1190     MEOH     H1A      HDA3B    0.080000        1.0080           0   0.00000   0.00000
     26857 MEOH     1190     MEOH     H1B      HDA3B    0.080000        1.0080           0   0.00000   0.00000
     26858 MEOH     1190     MEOH     H1C      HDA3B    0.080000        1.0080           0   0.00000   0.00000
     26859 MEOH     1190     MEOH     LP1A     LPD     -0.230000        0.0000           -1   0.00000   0.00000
     26860 MEOH     1190     MEOH     LP1B     LPD     -0.230000        0.0000           -1   0.00000   0.00000
     26861 MEOH     1191     MEOH     C1       CD33B    2.314100       11.6110           0   -1.00000   1.30000
     26862 MEOH     1191     MEOH     DC1      DRUD    -2.454100        0.4000           0   0.00000   0.00000
     26863 MEOH     1191     MEOH     O1       OD31H    2.488300       15.5990           0   -1.02800   1.30000
     26864 MEOH     1191     MEOH     DO1      DRUD    -2.488300        0.4000           0   0.00000   0.00000
     26865 MEOH     1191     MEOH     HO1      HDP1A    0.360000        1.0080           0   0.00000   0.00000
     26866 MEOH     1191     MEOH     HO2      DUMH     0.000000        1.0080           0   0.00000   0.00000
     26867 MEOH     1191     MEOH     H1A      HDA3B    0.080000        1.0080           0   0.00000   0.00000
     26868 MEOH     1191     MEOH     H1B      HDA3B    0.080000        1.0080           0   0.00000   0.00000
     26869 MEOH     1191     MEOH     H1C      HDA3B    0.080000        1.0080           0   0.00000   0.00000
     26870 MEOH     1191     MEOH     LP1A     LPD     -0.230000        0.0000           -1   0.00000   0.00000
     26871 MEOH     1191     MEOH     LP1B     LPD     -0.230000        0.0000           -1   0.00000   0.00000
     26872 MEOH     1192     MEOH     C1       CD33B    2.314100       11.6110           0   -1.00000   1.30000
     26873 MEOH     1192     MEOH     DC1      DRUD    -2.454100        0.4000           0   0.00000   0.00000
     26874 MEOH     1192     MEOH     O1       OD31H    2.488300       15.5990           0   -1.02800   1.30000
     26875 MEOH     1192     MEOH     DO1      DRUD    -2.488300        0.4000           0   0.00000   0.00000
     26876 MEOH     1192     MEOH     HO1      HDP1A    0.360000        1.0080           0   0.00000   0.00000
     26877 MEOH     1192     MEOH     HO2      DUMH     0.000000        1.0080           0   0.00000   0.00000
     26878 MEOH     1192     MEOH     H1A      HDA3B    0.080000        1.0080           0   0.00000   0.00000
     26879 MEOH     1192     MEOH     H1B      HDA3B    0.080000        1.0080           0   0.00000   0.00000
     26880 MEOH     1192     MEOH     H1C      HDA3B    0.080000        1.0080           0   0.00000   0.00000
     26881 MEOH     1192     MEOH     LP1A     LPD     -0.230000        0.0000           -1   0.00000   0.00000
     26882 MEOH     1192     MEOH     LP1B     LPD     -0.230000        0.0000           -1   0.00000   0.00000
     26883 MEOH     1193     MEOH     C1       CD33B    2.314100       11.6110           0   -1.00000   1.30000
     26884 MEOH     1193     MEOH     DC1      DRUD    -2.454100        0.4000           0   0.00000   0.00000
     26885 MEOH     1193     MEOH     O1       OD31H    2.488300       15.5990           0   -1.02800   1.30000
     26886 MEOH     1193     MEOH     DO1      DRUD    -2.488300        0.4000           0   0.00000   0.00000
     26887 MEOH     1193     MEOH     HO1      HDP1A    0.360000        1.0080           0   0.00000   0.00000
     26888 MEOH     1193     MEOH     HO2      DUMH     0.000000        1.0080           0   0.00000   0.00000
     26889 MEOH     1193     MEOH     H1A      HDA3B    0.080000        1.0080           0   0.00000   0.00000
     26890 MEOH     1193     MEOH     H1B      HDA3B    0.080000        1.0080           0   0.00000   0.00000
     26891 MEOH     1193     MEOH     H1C      HDA3B    0.080000        1.0080           0   0.00000   0.00000
     26892 MEOH     1193     MEOH     LP1A     LPD     -0.230000        0.0000           -1   0.00000   0.00000
     26893 MEOH     1193     MEOH     LP1B     LPD     -0.230000        0.0000           -1   0.00000   0.00000
     26894 MEOH     1194     MEOH     C1       CD33B    2.314100       11.6110           0   -1.00000   1.30000
     26895 MEOH     1194     MEOH     DC1      DRUD    -2.454100        0.4000           0   0.00000   0.00000
     26896 MEOH     1194     MEOH     O1       OD31H    2.488300       15.5990           0   -1.02800   1.30000
     26897 MEOH     1194     MEOH     DO1      DRUD    -2.488300        0.4000           0   0.00000   0.00000
     26898 MEOH     1194     MEOH     HO1      HDP1A    0.360000        1.0080           0   0.00000   0.00000
     26899 MEOH     1194     MEOH     HO2      DUMH     0.000000        1.0080           0   0.00000   0.00000
     26900 MEOH     1194     MEOH     H1A      HDA3B    0.080000        1.0080           0   0.00000   0.00000
     26901 MEOH     1194     MEOH     H1B      HDA3B    0.080000        1.0080           0   0.00000   0.00000
     26902 MEOH     1194     MEOH     H1C      HDA3B    0.080000        1.0080           0   0.00000   0.00000
     26903 MEOH     1194     MEOH     LP1A     LPD     -0.230000        0.0000           -1   0.00000   0.00000
     26904 MEOH     1194     MEOH     LP1B     LPD     -0.230000        0.0000           -1   0.00000   0.00000
     26905 MEOH     1195     MEOH     C1       CD33B    2.314100       11.6110           0   -1.00000   1.30000
     26906 MEOH     1195     MEOH     DC1      DRUD    -2.454100        0.4000           0   0.00000   0.00000
     26907 MEOH     1195     MEOH     O1       OD31H    2.488300       15.5990           0   -1.02800   1.30000
     26908 MEOH     1195     MEOH     DO1      DRUD    -2.488300        0.4000           0   0.00000   0.00000
     26909 MEOH     1195     MEOH     HO1      HDP1A    0.360000        1.0080           0   0.00000   0.00000
     26910 MEOH     1195     MEOH     HO2      DUMH     0.000000        1.0080           0   0.00000   0.00000
     26911 MEOH     1195     MEOH     H1A      HDA3B    0.080000        1.0080           0   0.00000   0.00000
     26912 MEOH     1195     MEOH     H1B      HDA3B    0.080000        1.0080           0   0.00000   0.00000
     26913 MEOH     1195     MEOH     H1C      HDA3B    0.080000        1.0080           0   0.00000   0.00000
     26914 MEOH     1195     MEOH     LP1A     LPD     -0.230000        0.0000           -1   0.00000   0.00000
     26915 MEOH     1195     MEOH     LP1B     LPD     -0.230000        0.0000           -1   0.00000   0.00000
     26916 MEOH     1196     MEOH     C1       CD33B    2.314100       11.6110           0   -1.00000   1.30000
     26917 MEOH     1196     MEOH     DC1      DRUD    -2.454100        0.4000           0   0.00000   0.00000
     26918 MEOH     1196     MEOH     O1       OD31H    2.488300       15.5990           0   -1.02800   1.30000
     26919 MEOH     1196     MEOH     DO1      DRUD    -2.488300        0.4000           0   0.00000   0.00000
     26920 MEOH     1196     MEOH     HO1      HDP1A    0.360000        1.0080           0   0.00000   0.00000
     26921 MEOH     1196     MEOH     HO2      DUMH     0.000000        1.0080           0   0.00000   0.00000
     26922 MEOH     1196     MEOH     H1A      HDA3B    0.080000        1.0080           0   0.00000   0.00000
     26923 MEOH     1196     MEOH     H1B      HDA3B    0.080000        1.0080           0   0.00000   0.00000
     26924 MEOH     1196     MEOH     H1C      HDA3B    0.080000        1.0080           0   0.00000   0.00000
     26925 MEOH     1196     MEOH     LP1A     LPD     -0.230000        0.0000           -1   0.00000   0.00000
     26926 MEOH     1196     MEOH     LP1B     LPD     -0.230000        0.0000           -1   0.00000   0.00000
     26927 MEOH     1197     MEOH     C1       CD33B    2.314100       11.6110           0   -1.00000   1.30000
     26928 MEOH     1197     MEOH     DC1      DRUD    -2.454100        0.4000           0   0.00000   0.00000
     26929 MEOH     1197     MEOH     O1       OD31H    2.488300       15.5990           0   -1.02800   1.30000
     26930 MEOH     1197     MEOH     DO1      DRUD    -2.488300        0.4000           0   0.00000   0.00000
     26931 MEOH     1197     MEOH     HO1      HDP1A    0.360000        1.0080           0   0.00000   0.00000
     26932 MEOH     1197     MEOH     HO2      DUMH     0.000000        1.0080           0   0.00000   0.00000
     26933 MEOH     1197     MEOH     H1A      HDA3B    0.080000        1.0080           0   0.00000   0.00000
     26934 MEOH     1197     MEOH     H1B      HDA3B    0.080000        1.0080           0   0.00000   0.00000
     26935 MEOH     1197     MEOH     H1C      HDA3B    0.080000        1.0080           0   0.00000   0.00000
     26936 MEOH     1197     MEOH     LP1A     LPD     -0.230000        0.0000           -1   0.00000   0.00000
     26937 MEOH     1197     MEOH     LP1B     LPD     -0.230000        0.0000           -1   0.00000   0.00000
     26938 MEOH     1198     MEOH     C1       CD33B    2.314100       11.6110           0   -1.00000   1.30000
     26939 MEOH     1198     MEOH     DC1      DRUD    -2.454100        0.4000           0   0.00000   0.00000
     26940 MEOH     1198     MEOH     O1       OD31H    2.488300       15.5990           0   -1.02800   1.30000
     26941 MEOH     1198     MEOH     DO1      DRUD    -2.488300        0.4000           0   0.00000   0.00000
     26942 MEOH     1198     MEOH     HO1      HDP1A    0.360000        1.0080           0   0.00000   0.00000
     26943 MEOH     1198     MEOH     HO2      DUMH     0.000000        1.0080           0   0.00000   0.00000
     26944 MEOH     1198     MEOH     H1A      HDA3B    0.080000        1.0080           0   0.00000   0.00000
     26945 MEOH     1198     MEOH     H1B      HDA3B    0.080000        1.0080           0   0.00000   0.00000
     26946 MEOH     1198     MEOH     H1C      HDA3B    0.080000        1.0080           0   0.00000   0.00000
     26947 MEOH     1198     MEOH     LP1A     LPD     -0.230000        0.0000           -1   0.00000   0.00000
     26948 MEOH     1198     MEOH     LP1B     LPD     -0.230000        0.0000           -1   0.00000   0.00000
     26949 MEOH     1199     MEOH     C1       CD33B    2.314100       11.6110           0   -1.00000   1.30000
     26950 MEOH     1199     MEOH     DC1      DRUD    -2.454100        0.4000           0   0.00000   0.00000
     26951 MEOH     1199     MEOH     O1       OD31H    2.488300       15.5990           0   -1.02800   1.30000
     26952 MEOH     1199     MEOH     DO1      DRUD    -2.488300        0.4000           0   0.00000   0.00000
     26953 MEOH     1199     MEOH     HO1      HDP1A    0.360000        1.0080           0   0.00000   0.00000
     26954 MEOH     1199     MEOH     HO2      DUMH     0.000000        1.0080           0   0.00000   0.00000
     26955 MEOH     1199     MEOH     H1A      HDA3B    0.080000        1.0080           0   0.00000   0.00000
     26956 MEOH     1199     MEOH     H1B      HDA3B    0.080000        1.0080           0   0.00000   0.00000
     26957 MEOH     1199     MEOH     H1C      HDA3B    0.080000        1.0080           0   0.00000   0.00000
     26958 MEOH     1199     MEOH     LP1A     LPD     -0.230000        0.0000           -1   0.00000   0.00000
     26959 MEOH     1199     MEOH     LP1B     LPD     -0.230000        0.0000           -1   0.00000   0.00000
     26960 MEOH     1200     MEOH     C1       CD33B    2.314100       11.6110           0   -1.00000   1.30000
     26961 MEOH     1200     MEOH     DC1      DRUD    -2.454100        0.4000           0   0.00000   0.00000
     26962 MEOH     1200     MEOH     O1       OD31H    2.488300       15.5990           0   -1.02800   1.30000
     26963 MEOH     1200     MEOH     DO1      DRUD    -2.488300        0.4000           0   0.00000   0.00000
     26964 MEOH     1200     MEOH     HO1      HDP1A    0.360000        1.0080           0   0.00000   0.00000
     26965 MEOH     1200     MEOH     HO2      DUMH     0.000000        1.0080           0   0.00000   0.00000
     26966 MEOH     1200     MEOH     H1A      HDA3B    0.080000        1.0080           0   0.00000   0.00000
     26967 MEOH     1200     MEOH     H1B      HDA3B    0.080000        1.0080           0   0.00000   0.00000
     26968 MEOH     1200     MEOH     H1C      HDA3B    0.080000        1.0080           0   0.00000   0.00000
     26969 MEOH     1200     MEOH     LP1A     LPD     -0.230000        0.0000           -1   0.00000   0.00000
     26970 MEOH     1200     MEOH     LP1B     LPD     -0.230000        0.0000           -1   0.00000   0.00000
     26971 MEOH     1201     MEOH     C1       CD33B    2.314100       11.6110           0   -1.00000   1.30000
     26972 MEOH     1201     MEOH     DC1      DRUD    -2.454100        0.4000           0   0.00000   0.00000
     26973 MEOH     1201     MEOH     O1       OD31H    2.488300       15.5990           0   -1.02800   1.30000
     26974 MEOH     1201     MEOH     DO1      DRUD    -2.488300        0.4000           0   0.00000   0.00000
     26975 MEOH     1201     MEOH     HO1      HDP1A    0.360000        1.0080           0   0.00000   0.00000
     26976 MEOH     1201     MEOH     HO2      DUMH     0.000000        1.0080           0   0.00000   0.00000
     26977 MEOH     1201     MEOH     H1A      HDA3B    0.080000        1.0080           0   0.00000   0.00000
     26978 MEOH     1201     MEOH     H1B      HDA3B    0.080000        1.0080           0   0.00000   0.00000
     26979 MEOH     1201     MEOH     H1C      HDA3B    0.080000        1.0080           0   0.00000   0.00000
     26980 MEOH     1201     MEOH     LP1A     LPD     -0.230000        0.0000           -1   0.00000   0.00000
     26981 MEOH     1201     MEOH     LP1B     LPD     -0.230000        0.0000           -1   0.00000   0.00000
     26982 MEOH     1202     MEOH     C1       CD33B    2.314100       11.6110           0   -1.00000   1.30000
     26983 MEOH     1202     MEOH     DC1      DRUD    -2.454100        0.4000           0   0.00000   0.00000
     26984 MEOH     1202     MEOH     O1       OD31H    2.488300       15.5990           0   -1.02800   1.30000
     26985 MEOH     1202     MEOH     DO1      DRUD    -2.488300        0.4000           0   0.00000   0.00000
     26986 MEOH     1202     MEOH     HO1      HDP1A    0.360000        1.0080           0   0.00000   0.00000
     26987 MEOH     1202     MEOH     HO2      DUMH     0.000000        1.0080           0   0.00000   0.00000
     26988 MEOH     1202     MEOH     H1A      HDA3B    0.080000        1.0080           0   0.00000   0.00000
     26989 MEOH     1202     MEOH     H1B      HDA3B    0.080000        1.0080           0   0.00000   0.00000
     26990 MEOH     1202     MEOH     H1C      HDA3B    0.080000        1.0080           0   0.00000   0.00000
     26991 MEOH     1202     MEOH     LP1A     LPD     -0.230000        0.0000           -1   0.00000   0.00000
     26992 MEOH     1202     MEOH     LP1B     LPD     -0.230000        0.0000           -1   0.00000   0.00000
     26993 MEOH     1203     MEOH     C1       CD33B    2.314100       11.6110           0   -1.00000   1.30000
     26994 MEOH     1203     MEOH     DC1      DRUD    -2.454100        0.4000           0   0.00000   0.00000
     26995 MEOH     1203     MEOH     O1       OD31H    2.488300       15.5990           0   -1.02800   1.30000
     26996 MEOH     1203     MEOH     DO1      DRUD    -2.488300        0.4000           0   0.00000   0.00000
     26997 MEOH     1203     MEOH     HO1      HDP1A    0.360000        1.0080           0   0.00000   0.00000
     26998 MEOH     1203     MEOH     HO2      DUMH     0.000000        1.0080           0   0.00000   0.00000
     26999 MEOH     1203     MEOH     H1A      HDA3B    0.080000        1.0080           0   0.00000   0.00000
     27000 MEOH     1203     MEOH     H1B      HDA3B    0.080000        1.0080           0   0.00000   0.00000
     27001 MEOH     1203     MEOH     H1C      HDA3B    0.080000        1.0080           0   0.00000   0.00000
     27002 MEOH     1203     MEOH     LP1A     LPD     -0.230000        0.0000           -1   0.00000   0.00000
     27003 MEOH     1203     MEOH     LP1B     LPD     -0.230000        0.0000           -1   0.00000   0.00000
     27004 MEOH     1204     MEOH     C1       CD33B    2.314100       11.6110           0   -1.00000   1.30000
     27005 MEOH     1204     MEOH     DC1      DRUD    -2.454100        0.4000           0   0.00000   0.00000
     27006 MEOH     1204     MEOH     O1       OD31H    2.488300       15.5990           0   -1.02800   1.30000
     27007 MEOH     1204     MEOH     DO1      DRUD    -2.488300        0.4000           0   0.00000   0.00000
     27008 MEOH     1204     MEOH     HO1      HDP1A    0.360000        1.0080           0   0.00000   0.00000
     27009 MEOH     1204     MEOH     HO2      DUMH     0.000000        1.0080           0   0.00000   0.00000
     27010 MEOH     1204     MEOH     H1A      HDA3B    0.080000        1.0080           0   0.00000   0.00000
     27011 MEOH     1204     MEOH     H1B      HDA3B    0.080000        1.0080           0   0.00000   0.00000
     27012 MEOH     1204     MEOH     H1C      HDA3B    0.080000        1.0080           0   0.00000   0.00000
     27013 MEOH     1204     MEOH     LP1A     LPD     -0.230000        0.0000           -1   0.00000   0.00000
     27014 MEOH     1204     MEOH     LP1B     LPD     -0.230000        0.0000           -1   0.00000   0.00000
     27015 MEOH     1205     MEOH     C1       CD33B    2.314100       11.6110           0   -1.00000   1.30000
     27016 MEOH     1205     MEOH     DC1      DRUD    -2.454100        0.4000           0   0.00000   0.00000
     27017 MEOH     1205     MEOH     O1       OD31H    2.488300       15.5990           0   -1.02800   1.30000
     27018 MEOH     1205     MEOH     DO1      DRUD    -2.488300        0.4000           0   0.00000   0.00000
     27019 MEOH     1205     MEOH     HO1      HDP1A    0.360000        1.0080           0   0.00000   0.00000
     27020 MEOH     1205     MEOH     HO2      DUMH     0.000000        1.0080           0   0.00000   0.00000
     27021 MEOH     1205     MEOH     H1A      HDA3B    0.080000        1.0080           0   0.00000   0.00000
     27022 MEOH     1205     MEOH     H1B      HDA3B    0.080000        1.0080           0   0.00000   0.00000
     27023 MEOH     1205     MEOH     H1C      HDA3B    0.080000        1.0080           0   0.00000   0.00000
     27024 MEOH     1205     MEOH     LP1A     LPD     -0.230000        0.0000           -1   0.00000   0.00000
     27025 MEOH     1205     MEOH     LP1B     LPD     -0.230000        0.0000           -1   0.00000   0.00000
     27026 MEOH     1206     MEOH     C1       CD33B    2.314100       11.6110           0   -1.00000   1.30000
     27027 MEOH     1206     MEOH     DC1      DRUD    -2.454100        0.4000           0   0.00000   0.00000
     27028 MEOH     1206     MEOH     O1       OD31H    2.488300       15.5990           0   -1.02800   1.30000
     27029 MEOH     1206     MEOH     DO1      DRUD    -2.488300        0.4000           0   0.00000   0.00000
     27030 MEOH     1206     MEOH     HO1      HDP1A    0.360000        1.0080           0   0.00000   0.00000
     27031 MEOH     1206     MEOH     HO2      DUMH     0.000000        1.0080           0   0.00000   0.00000
     27032 MEOH     1206     MEOH     H1A      HDA3B    0.080000        1.0080           0   0.00000   0.00000
     27033 MEOH     1206     MEOH     H1B      HDA3B    0.080000        1.0080           0   0.00000   0.00000
     27034 MEOH     1206     MEOH     H1C      HDA3B    0.080000        1.0080           0   0.00000   0.00000
     27035 MEOH     1206     MEOH     LP1A     LPD     -0.230000        0.0000           -1   0.00000   0.00000
     27036 MEOH     1206     MEOH     LP1B     LPD     -0.230000        0.0000           -1   0.00000   0.00000
     27037 MEOH     1207     MEOH     C1       CD33B    2.314100       11.6110           0   -1.00000   1.30000
     27038 MEOH     1207     MEOH     DC1      DRUD    -2.454100        0.4000           0   0.00000   0.00000
     27039 MEOH     1207     MEOH     O1       OD31H    2.488300       15.5990           0   -1.02800   1.30000
     27040 MEOH     1207     MEOH     DO1      DRUD    -2.488300        0.4000           0   0.00000   0.00000
     27041 MEOH     1207     MEOH     HO1      HDP1A    0.360000        1.0080           0   0.00000   0.00000
     27042 MEOH     1207     MEOH     HO2      DUMH     0.000000        1.0080           0   0.00000   0.00000
     27043 MEOH     1207     MEOH     H1A      HDA3B    0.080000        1.0080           0   0.00000   0.00000
     27044 MEOH     1207     MEOH     H1B      HDA3B    0.080000        1.0080           0   0.00000   0.00000
     27045 MEOH     1207     MEOH     H1C      HDA3B    0.080000        1.0080           0   0.00000   0.00000
     27046 MEOH     1207     MEOH     LP1A     LPD     -0.230000        0.0000           -1   0.00000   0.00000
     27047 MEOH     1207     MEOH     LP1B     LPD     -0.230000        0.0000           -1   0.00000   0.00000
     27048 MEOH     1208     MEOH     C1       CD33B    2.314100       11.6110           0   -1.00000   1.30000
     27049 MEOH     1208     MEOH     DC1      DRUD    -2.454100        0.4000           0   0.00000   0.00000
     27050 MEOH     1208     MEOH     O1       OD31H    2.488300       15.5990           0   -1.02800   1.30000
     27051 MEOH     1208     MEOH     DO1      DRUD    -2.488300        0.4000           0   0.00000   0.00000
     27052 MEOH     1208     MEOH     HO1      HDP1A    0.360000        1.0080           0   0.00000   0.00000
     27053 MEOH     1208     MEOH     HO2      DUMH     0.000000        1.0080           0   0.00000   0.00000
     27054 MEOH     1208     MEOH     H1A      HDA3B    0.080000        1.0080           0   0.00000   0.00000
     27055 MEOH     1208     MEOH     H1B      HDA3B    0.080000        1.0080           0   0.00000   0.00000
     27056 MEOH     1208     MEOH     H1C      HDA3B    0.080000        1.0080           0   0.00000   0.00000
     27057 MEOH     1208     MEOH     LP1A     LPD     -0.230000        0.0000           -1   0.00000   0.00000
     27058 MEOH     1208     MEOH     LP1B     LPD     -0.230000        0.0000           -1   0.00000   0.00000
     27059 MEOH     1209     MEOH     C1       CD33B    2.314100       11.6110           0   -1.00000   1.30000
     27060 MEOH     1209     MEOH     DC1      DRUD    -2.454100        0.4000           0   0.00000   0.00000
     27061 MEOH     1209     MEOH     O1       OD31H    2.488300       15.5990           0   -1.02800   1.30000
     27062 MEOH     1209     MEOH     DO1      DRUD    -2.488300        0.4000           0   0.00000   0.00000
     27063 MEOH     1209     MEOH     HO1      HDP1A    0.360000        1.0080           0   0.00000   0.00000
     27064 MEOH     1209     MEOH     HO2      DUMH     0.000000        1.0080           0   0.00000   0.00000
     27065 MEOH     1209     MEOH     H1A      HDA3B    0.080000        1.0080           0   0.00000   0.00000
     27066 MEOH     1209     MEOH     H1B      HDA3B    0.080000        1.0080           0   0.00000   0.00000
     27067 MEOH     1209     MEOH     H1C      HDA3B    0.080000        1.0080           0   0.00000   0.00000
     27068 MEOH     1209     MEOH     LP1A     LPD     -0.230000        0.0000           -1   0.00000   0.00000
     27069 MEOH     1209     MEOH     LP1B     LPD     -0.230000        0.0000           -1   0.00000   0.00000
     27070 MEOH     1210     MEOH     C1       CD33B    2.314100       11.6110           0   -1.00000   1.30000
     27071 MEOH     1210     MEOH     DC1      DRUD    -2.454100        0.4000           0   0.00000   0.00000
     27072 MEOH     1210     MEOH     O1       OD31H    2.488300       15.5990           0   -1.02800   1.30000
     27073 MEOH     1210     MEOH     DO1      DRUD    -2.488300        0.4000           0   0.00000   0.00000
     27074 MEOH     1210     MEOH     HO1      HDP1A    0.360000        1.0080           0   0.00000   0.00000
     27075 MEOH     1210     MEOH     HO2      DUMH     0.000000        1.0080           0   0.00000   0.00000
     27076 MEOH     1210     MEOH     H1A      HDA3B    0.080000        1.0080           0   0.00000   0.00000
     27077 MEOH     1210     MEOH     H1B      HDA3B    0.080000        1.0080           0   0.00000   0.00000
     27078 MEOH     1210     MEOH     H1C      HDA3B    0.080000        1.0080           0   0.00000   0.00000
     27079 MEOH     1210     MEOH     LP1A     LPD     -0.230000        0.0000           -1   0.00000   0.00000
     27080 MEOH     1210     MEOH     LP1B     LPD     -0.230000        0.0000           -1   0.00000   0.00000
     27081 MEOH     1211     MEOH     C1       CD33B    2.314100       11.6110           0   -1.00000   1.30000
     27082 MEOH     1211     MEOH     DC1      DRUD    -2.454100        0.4000           0   0.00000   0.00000
     27083 MEOH     1211     MEOH     O1       OD31H    2.488300       15.5990           0   -1.02800   1.30000
     27084 MEOH     1211     MEOH     DO1      DRUD    -2.488300        0.4000           0   0.00000   0.00000
     27085 MEOH     1211     MEOH     HO1      HDP1A    0.360000        1.0080           0   0.00000   0.00000
     27086 MEOH     1211     MEOH     HO2      DUMH     0.000000        1.0080           0   0.00000   0.00000
     27087 MEOH     1211     MEOH     H1A      HDA3B    0.080000        1.0080           0   0.00000   0.00000
     27088 MEOH     1211     MEOH     H1B      HDA3B    0.080000        1.0080           0   0.00000   0.00000
     27089 MEOH     1211     MEOH     H1C      HDA3B    0.080000        1.0080           0   0.00000   0.00000
     27090 MEOH     1211     MEOH     LP1A     LPD     -0.230000        0.0000           -1   0.00000   0.00000
     27091 MEOH     1211     MEOH     LP1B     LPD     -0.230000        0.0000           -1   0.00000   0.00000
     27092 MEOH     1212     MEOH     C1       CD33B    2.314100       11.6110           0   -1.00000   1.30000
     27093 MEOH     1212     MEOH     DC1      DRUD    -2.454100        0.4000           0   0.00000   0.00000
     27094 MEOH     1212     MEOH     O1       OD31H    2.488300       15.5990           0   -1.02800   1.30000
     27095 MEOH     1212     MEOH     DO1      DRUD    -2.488300        0.4000           0   0.00000   0.00000
     27096 MEOH     1212     MEOH     HO1      HDP1A    0.360000        1.0080           0   0.00000   0.00000
     27097 MEOH     1212     MEOH     HO2      DUMH     0.000000        1.0080           0   0.00000   0.00000
     27098 MEOH     1212     MEOH     H1A      HDA3B    0.080000        1.0080           0   0.00000   0.00000
     27099 MEOH     1212     MEOH     H1B      HDA3B    0.080000        1.0080           0   0.00000   0.00000
     27100 MEOH     1212     MEOH     H1C      HDA3B    0.080000        1.0080           0   0.00000   0.00000
     27101 MEOH     1212     MEOH     LP1A     LPD     -0.230000        0.0000           -1   0.00000   0.00000
     27102 MEOH     1212     MEOH     LP1B     LPD     -0.230000        0.0000           -1   0.00000   0.00000
     27103 MEOH     1213     MEOH     C1       CD33B    2.314100       11.6110           0   -1.00000   1.30000
     27104 MEOH     1213     MEOH     DC1      DRUD    -2.454100        0.4000           0   0.00000   0.00000
     27105 MEOH     1213     MEOH     O1       OD31H    2.488300       15.5990           0   -1.02800   1.30000
     27106 MEOH     1213     MEOH     DO1      DRUD    -2.488300        0.4000           0   0.00000   0.00000
     27107 MEOH     1213     MEOH     HO1      HDP1A    0.360000        1.0080           0   0.00000   0.00000
     27108 MEOH     1213     MEOH     HO2      DUMH     0.000000        1.0080           0   0.00000   0.00000
     27109 MEOH     1213     MEOH     H1A      HDA3B    0.080000        1.0080           0   0.00000   0.00000
     27110 MEOH     1213     MEOH     H1B      HDA3B    0.080000        1.0080           0   0.00000   0.00000
     27111 MEOH     1213     MEOH     H1C      HDA3B    0.080000        1.0080           0   0.00000   0.00000
     27112 MEOH     1213     MEOH     LP1A     LPD     -0.230000        0.0000           -1   0.00000   0.00000
     27113 MEOH     1213     MEOH     LP1B     LPD     -0.230000        0.0000           -1   0.00000   0.00000
     27114 MEOH     1214     MEOH     C1       CD33B    2.314100       11.6110           0   -1.00000   1.30000
     27115 MEOH     1214     MEOH     DC1      DRUD    -2.454100        0.4000           0   0.00000   0.00000
     27116 MEOH     1214     MEOH     O1       OD31H    2.488300       15.5990           0   -1.02800   1.30000
     27117 MEOH     1214     MEOH     DO1      DRUD    -2.488300        0.4000           0   0.00000   0.00000
     27118 MEOH     1214     MEOH     HO1      HDP1A    0.360000        1.0080           0   0.00000   0.00000
     27119 MEOH     1214     MEOH     HO2      DUMH     0.000000        1.0080           0   0.00000   0.00000
     27120 MEOH     1214     MEOH     H1A      HDA3B    0.080000        1.0080           0   0.00000   0.00000
     27121 MEOH     1214     MEOH     H1B      HDA3B    0.080000        1.0080           0   0.00000   0.00000
     27122 MEOH     1214     MEOH     H1C      HDA3B    0.080000        1.0080           0   0.00000   0.00000
     27123 MEOH     1214     MEOH     LP1A     LPD     -0.230000        0.0000           -1   0.00000   0.00000
     27124 MEOH     1214     MEOH     LP1B     LPD     -0.230000        0.0000           -1   0.00000   0.00000
     27125 MEOH     1215     MEOH     C1       CD33B    2.314100       11.6110           0   -1.00000   1.30000
     27126 MEOH     1215     MEOH     DC1      DRUD    -2.454100        0.4000           0   0.00000   0.00000
     27127 MEOH     1215     MEOH     O1       OD31H    2.488300       15.5990           0   -1.02800   1.30000
     27128 MEOH     1215     MEOH     DO1      DRUD    -2.488300        0.4000           0   0.00000   0.00000
     27129 MEOH     1215     MEOH     HO1      HDP1A    0.360000        1.0080           0   0.00000   0.00000
     27130 MEOH     1215     MEOH     HO2      DUMH     0.000000        1.0080           0   0.00000   0.00000
     27131 MEOH     1215     MEOH     H1A      HDA3B    0.080000        1.0080           0   0.00000   0.00000
     27132 MEOH     1215     MEOH     H1B      HDA3B    0.080000        1.0080           0   0.00000   0.00000
     27133 MEOH     1215     MEOH     H1C      HDA3B    0.080000        1.0080           0   0.00000   0.00000
     27134 MEOH     1215     MEOH     LP1A     LPD     -0.230000        0.0000           -1   0.00000   0.00000
     27135 MEOH     1215     MEOH     LP1B     LPD     -0.230000        0.0000           -1   0.00000   0.00000
     27136 MEOH     1216     MEOH     C1       CD33B    2.314100       11.6110           0   -1.00000   1.30000
     27137 MEOH     1216     MEOH     DC1      DRUD    -2.454100        0.4000           0   0.00000   0.00000
     27138 MEOH     1216     MEOH     O1       OD31H    2.488300       15.5990           0   -1.02800   1.30000
     27139 MEOH     1216     MEOH     DO1      DRUD    -2.488300        0.4000           0   0.00000   0.00000
     27140 MEOH     1216     MEOH     HO1      HDP1A    0.360000        1.0080           0   0.00000   0.00000
     27141 MEOH     1216     MEOH     HO2      DUMH     0.000000        1.0080           0   0.00000   0.00000
     27142 MEOH     1216     MEOH     H1A      HDA3B    0.080000        1.0080           0   0.00000   0.00000
     27143 MEOH     1216     MEOH     H1B      HDA3B    0.080000        1.0080           0   0.00000   0.00000
     27144 MEOH     1216     MEOH     H1C      HDA3B    0.080000        1.0080           0   0.00000   0.00000
     27145 MEOH     1216     MEOH     LP1A     LPD     -0.230000        0.0000           -1   0.00000   0.00000
     27146 MEOH     1216     MEOH     LP1B     LPD     -0.230000        0.0000           -1   0.00000   0.00000
     27147 MEOH     1217     MEOH     C1       CD33B    2.314100       11.6110           0   -1.00000   1.30000
     27148 MEOH     1217     MEOH     DC1      DRUD    -2.454100        0.4000           0   0.00000   0.00000
     27149 MEOH     1217     MEOH     O1       OD31H    2.488300       15.5990           0   -1.02800   1.30000
     27150 MEOH     1217     MEOH     DO1      DRUD    -2.488300        0.4000           0   0.00000   0.00000
     27151 MEOH     1217     MEOH     HO1      HDP1A    0.360000        1.0080           0   0.00000   0.00000
     27152 MEOH     1217     MEOH     HO2      DUMH     0.000000        1.0080           0   0.00000   0.00000
     27153 MEOH     1217     MEOH     H1A      HDA3B    0.080000        1.0080           0   0.00000   0.00000
     27154 MEOH     1217     MEOH     H1B      HDA3B    0.080000        1.0080           0   0.00000   0.00000
     27155 MEOH     1217     MEOH     H1C      HDA3B    0.080000        1.0080           0   0.00000   0.00000
     27156 MEOH     1217     MEOH     LP1A     LPD     -0.230000        0.0000           -1   0.00000   0.00000
     27157 MEOH     1217     MEOH     LP1B     LPD     -0.230000        0.0000           -1   0.00000   0.00000
     27158 MEOH     1218     MEOH     C1       CD33B    2.314100       11.6110           0   -1.00000   1.30000
     27159 MEOH     1218     MEOH     DC1      DRUD    -2.454100        0.4000           0   0.00000   0.00000
     27160 MEOH     1218     MEOH     O1       OD31H    2.488300       15.5990           0   -1.02800   1.30000
     27161 MEOH     1218     MEOH     DO1      DRUD    -2.488300        0.4000           0   0.00000   0.00000
     27162 MEOH     1218     MEOH     HO1      HDP1A    0.360000        1.0080           0   0.00000   0.00000
     27163 MEOH     1218     MEOH     HO2      DUMH     0.000000        1.0080           0   0.00000   0.00000
     27164 MEOH     1218     MEOH     H1A      HDA3B    0.080000        1.0080           0   0.00000   0.00000
     27165 MEOH     1218     MEOH     H1B      HDA3B    0.080000        1.0080           0   0.00000   0.00000
     27166 MEOH     1218     MEOH     H1C      HDA3B    0.080000        1.0080           0   0.00000   0.00000
     27167 MEOH     1218     MEOH     LP1A     LPD     -0.230000        0.0000           -1   0.00000   0.00000
     27168 MEOH     1218     MEOH     LP1B     LPD     -0.230000        0.0000           -1   0.00000   0.00000
     27169 MEOH     1219     MEOH     C1       CD33B    2.314100       11.6110           0   -1.00000   1.30000
     27170 MEOH     1219     MEOH     DC1      DRUD    -2.454100        0.4000           0   0.00000   0.00000
     27171 MEOH     1219     MEOH     O1       OD31H    2.488300       15.5990           0   -1.02800   1.30000
     27172 MEOH     1219     MEOH     DO1      DRUD    -2.488300        0.4000           0   0.00000   0.00000
     27173 MEOH     1219     MEOH     HO1      HDP1A    0.360000        1.0080           0   0.00000   0.00000
     27174 MEOH     1219     MEOH     HO2      DUMH     0.000000        1.0080           0   0.00000   0.00000
     27175 MEOH     1219     MEOH     H1A      HDA3B    0.080000        1.0080           0   0.00000   0.00000
     27176 MEOH     1219     MEOH     H1B      HDA3B    0.080000        1.0080           0   0.00000   0.00000
     27177 MEOH     1219     MEOH     H1C      HDA3B    0.080000        1.0080           0   0.00000   0.00000
     27178 MEOH     1219     MEOH     LP1A     LPD     -0.230000        0.0000           -1   0.00000   0.00000
     27179 MEOH     1219     MEOH     LP1B     LPD     -0.230000        0.0000           -1   0.00000   0.00000
     27180 MEOH     1220     MEOH     C1       CD33B    2.314100       11.6110           0   -1.00000   1.30000
     27181 MEOH     1220     MEOH     DC1      DRUD    -2.454100        0.4000           0   0.00000   0.00000
     27182 MEOH     1220     MEOH     O1       OD31H    2.488300       15.5990           0   -1.02800   1.30000
     27183 MEOH     1220     MEOH     DO1      DRUD    -2.488300        0.4000           0   0.00000   0.00000
     27184 MEOH     1220     MEOH     HO1      HDP1A    0.360000        1.0080           0   0.00000   0.00000
     27185 MEOH     1220     MEOH     HO2      DUMH     0.000000        1.0080           0   0.00000   0.00000
     27186 MEOH     1220     MEOH     H1A      HDA3B    0.080000        1.0080           0   0.00000   0.00000
     27187 MEOH     1220     MEOH     H1B      HDA3B    0.080000        1.0080           0   0.00000   0.00000
     27188 MEOH     1220     MEOH     H1C      HDA3B    0.080000        1.0080           0   0.00000   0.00000
     27189 MEOH     1220     MEOH     LP1A     LPD     -0.230000        0.0000           -1   0.00000   0.00000
     27190 MEOH     1220     MEOH     LP1B     LPD     -0.230000        0.0000           -1   0.00000   0.00000
     27191 MEOH     1221     MEOH     C1       CD33B    2.314100       11.6110           0   -1.00000   1.30000
     27192 MEOH     1221     MEOH     DC1      DRUD    -2.454100        0.4000           0   0.00000   0.00000
     27193 MEOH     1221     MEOH     O1       OD31H    2.488300       15.5990           0   -1.02800   1.30000
     27194 MEOH     1221     MEOH     DO1      DRUD    -2.488300        0.4000           0   0.00000   0.00000
     27195 MEOH     1221     MEOH     HO1      HDP1A    0.360000        1.0080           0   0.00000   0.00000
     27196 MEOH     1221     MEOH     HO2      DUMH     0.000000        1.0080           0   0.00000   0.00000
     27197 MEOH     1221     MEOH     H1A      HDA3B    0.080000        1.0080           0   0.00000   0.00000
     27198 MEOH     1221     MEOH     H1B      HDA3B    0.080000        1.0080           0   0.00000   0.00000
     27199 MEOH     1221     MEOH     H1C      HDA3B    0.080000        1.0080           0   0.00000   0.00000
     27200 MEOH     1221     MEOH     LP1A     LPD     -0.230000        0.0000           -1   0.00000   0.00000
     27201 MEOH     1221     MEOH     LP1B     LPD     -0.230000        0.0000           -1   0.00000   0.00000
     27202 MEOH     1222     MEOH     C1       CD33B    2.314100       11.6110           0   -1.00000   1.30000
     27203 MEOH     1222     MEOH     DC1      DRUD    -2.454100        0.4000           0   0.00000   0.00000
     27204 MEOH     1222     MEOH     O1       OD31H    2.488300       15.5990           0   -1.02800   1.30000
     27205 MEOH     1222     MEOH     DO1      DRUD    -2.488300        0.4000           0   0.00000   0.00000
     27206 MEOH     1222     MEOH     HO1      HDP1A    0.360000        1.0080           0   0.00000   0.00000
     27207 MEOH     1222     MEOH     HO2      DUMH     0.000000        1.0080           0   0.00000   0.00000
     27208 MEOH     1222     MEOH     H1A      HDA3B    0.080000        1.0080           0   0.00000   0.00000
     27209 MEOH     1222     MEOH     H1B      HDA3B    0.080000        1.0080           0   0.00000   0.00000
     27210 MEOH     1222     MEOH     H1C      HDA3B    0.080000        1.0080           0   0.00000   0.00000
     27211 MEOH     1222     MEOH     LP1A     LPD     -0.230000        0.0000           -1   0.00000   0.00000
     27212 MEOH     1222     MEOH     LP1B     LPD     -0.230000        0.0000           -1   0.00000   0.00000
     27213 MEOH     1223     MEOH     C1       CD33B    2.314100       11.6110           0   -1.00000   1.30000
     27214 MEOH     1223     MEOH     DC1      DRUD    -2.454100        0.4000           0   0.00000   0.00000
     27215 MEOH     1223     MEOH     O1       OD31H    2.488300       15.5990           0   -1.02800   1.30000
     27216 MEOH     1223     MEOH     DO1      DRUD    -2.488300        0.4000           0   0.00000   0.00000
     27217 MEOH     1223     MEOH     HO1      HDP1A    0.360000        1.0080           0   0.00000   0.00000
     27218 MEOH     1223     MEOH     HO2      DUMH     0.000000        1.0080           0   0.00000   0.00000
     27219 MEOH     1223     MEOH     H1A      HDA3B    0.080000        1.0080           0   0.00000   0.00000
     27220 MEOH     1223     MEOH     H1B      HDA3B    0.080000        1.0080           0   0.00000   0.00000
     27221 MEOH     1223     MEOH     H1C      HDA3B    0.080000        1.0080           0   0.00000   0.00000
     27222 MEOH     1223     MEOH     LP1A     LPD     -0.230000        0.0000           -1   0.00000   0.00000
     27223 MEOH     1223     MEOH     LP1B     LPD     -0.230000        0.0000           -1   0.00000   0.00000
     27224 MEOH     1224     MEOH     C1       CD33B    2.314100       11.6110           0   -1.00000   1.30000
     27225 MEOH     1224     MEOH     DC1      DRUD    -2.454100        0.4000           0   0.00000   0.00000
     27226 MEOH     1224     MEOH     O1       OD31H    2.488300       15.5990           0   -1.02800   1.30000
     27227 MEOH     1224     MEOH     DO1      DRUD    -2.488300        0.4000           0   0.00000   0.00000
     27228 MEOH     1224     MEOH     HO1      HDP1A    0.360000        1.0080           0   0.00000   0.00000
     27229 MEOH     1224     MEOH     HO2      DUMH     0.000000        1.0080           0   0.00000   0.00000
     27230 MEOH     1224     MEOH     H1A      HDA3B    0.080000        1.0080           0   0.00000   0.00000
     27231 MEOH     1224     MEOH     H1B      HDA3B    0.080000        1.0080           0   0.00000   0.00000
     27232 MEOH     1224     MEOH     H1C      HDA3B    0.080000        1.0080           0   0.00000   0.00000
     27233 MEOH     1224     MEOH     LP1A     LPD     -0.230000        0.0000           -1   0.00000   0.00000
     27234 MEOH     1224     MEOH     LP1B     LPD     -0.230000        0.0000           -1   0.00000   0.00000
     27235 MEOH     1225     MEOH     C1       CD33B    2.314100       11.6110           0   -1.00000   1.30000
     27236 MEOH     1225     MEOH     DC1      DRUD    -2.454100        0.4000           0   0.00000   0.00000
     27237 MEOH     1225     MEOH     O1       OD31H    2.488300       15.5990           0   -1.02800   1.30000
     27238 MEOH     1225     MEOH     DO1      DRUD    -2.488300        0.4000           0   0.00000   0.00000
     27239 MEOH     1225     MEOH     HO1      HDP1A    0.360000        1.0080           0   0.00000   0.00000
     27240 MEOH     1225     MEOH     HO2      DUMH     0.000000        1.0080           0   0.00000   0.00000
     27241 MEOH     1225     MEOH     H1A      HDA3B    0.080000        1.0080           0   0.00000   0.00000
     27242 MEOH     1225     MEOH     H1B      HDA3B    0.080000        1.0080           0   0.00000   0.00000
     27243 MEOH     1225     MEOH     H1C      HDA3B    0.080000        1.0080           0   0.00000   0.00000
     27244 MEOH     1225     MEOH     LP1A     LPD     -0.230000        0.0000           -1   0.00000   0.00000
     27245 MEOH     1225     MEOH     LP1B     LPD     -0.230000        0.0000           -1   0.00000   0.00000
     27246 MEOH     1226     MEOH     C1       CD33B    2.314100       11.6110           0   -1.00000   1.30000
     27247 MEOH     1226     MEOH     DC1      DRUD    -2.454100        0.4000           0   0.00000   0.00000
     27248 MEOH     1226     MEOH     O1       OD31H    2.488300       15.5990           0   -1.02800   1.30000
     27249 MEOH     1226     MEOH     DO1      DRUD    -2.488300        0.4000           0   0.00000   0.00000
     27250 MEOH     1226     MEOH     HO1      HDP1A    0.360000        1.0080           0   0.00000   0.00000
     27251 MEOH     1226     MEOH     HO2      DUMH     0.000000        1.0080           0   0.00000   0.00000
     27252 MEOH     1226     MEOH     H1A      HDA3B    0.080000        1.0080           0   0.00000   0.00000
     27253 MEOH     1226     MEOH     H1B      HDA3B    0.080000        1.0080           0   0.00000   0.00000
     27254 MEOH     1226     MEOH     H1C      HDA3B    0.080000        1.0080           0   0.00000   0.00000
     27255 MEOH     1226     MEOH     LP1A     LPD     -0.230000        0.0000           -1   0.00000   0.00000
     27256 MEOH     1226     MEOH     LP1B     LPD     -0.230000        0.0000           -1   0.00000   0.00000
     27257 MEOH     1227     MEOH     C1       CD33B    2.314100       11.6110           0   -1.00000   1.30000
     27258 MEOH     1227     MEOH     DC1      DRUD    -2.454100        0.4000           0   0.00000   0.00000
     27259 MEOH     1227     MEOH     O1       OD31H    2.488300       15.5990           0   -1.02800   1.30000
     27260 MEOH     1227     MEOH     DO1      DRUD    -2.488300        0.4000           0   0.00000   0.00000
     27261 MEOH     1227     MEOH     HO1      HDP1A    0.360000        1.0080           0   0.00000   0.00000
     27262 MEOH     1227     MEOH     HO2      DUMH     0.000000        1.0080           0   0.00000   0.00000
     27263 MEOH     1227     MEOH     H1A      HDA3B    0.080000        1.0080           0   0.00000   0.00000
     27264 MEOH     1227     MEOH     H1B      HDA3B    0.080000        1.0080           0   0.00000   0.00000
     27265 MEOH     1227     MEOH     H1C      HDA3B    0.080000        1.0080           0   0.00000   0.00000
     27266 MEOH     1227     MEOH     LP1A     LPD     -0.230000        0.0000           -1   0.00000   0.00000
     27267 MEOH     1227     MEOH     LP1B     LPD     -0.230000        0.0000           -1   0.00000   0.00000
     27268 MEOH     1228     MEOH     C1       CD33B    2.314100       11.6110           0   -1.00000   1.30000
     27269 MEOH     1228     MEOH     DC1      DRUD    -2.454100        0.4000           0   0.00000   0.00000
     27270 MEOH     1228     MEOH     O1       OD31H    2.488300       15.5990           0   -1.02800   1.30000
     27271 MEOH     1228     MEOH     DO1      DRUD    -2.488300        0.4000           0   0.00000   0.00000
     27272 MEOH     1228     MEOH     HO1      HDP1A    0.360000        1.0080           0   0.00000   0.00000
     27273 MEOH     1228     MEOH     HO2      DUMH     0.000000        1.0080           0   0.00000   0.00000
     27274 MEOH     1228     MEOH     H1A      HDA3B    0.080000        1.0080           0   0.00000   0.00000
     27275 MEOH     1228     MEOH     H1B      HDA3B    0.080000        1.0080           0   0.00000   0.00000
     27276 MEOH     1228     MEOH     H1C      HDA3B    0.080000        1.0080           0   0.00000   0.00000
     27277 MEOH     1228     MEOH     LP1A     LPD     -0.230000        0.0000           -1   0.00000   0.00000
     27278 MEOH     1228     MEOH     LP1B     LPD     -0.230000        0.0000           -1   0.00000   0.00000
     27279 MEOH     1229     MEOH     C1       CD33B    2.314100       11.6110           0   -1.00000   1.30000
     27280 MEOH     1229     MEOH     DC1      DRUD    -2.454100        0.4000           0   0.00000   0.00000
     27281 MEOH     1229     MEOH     O1       OD31H    2.488300       15.5990           0   -1.02800   1.30000
     27282 MEOH     1229     MEOH     DO1      DRUD    -2.488300        0.4000           0   0.00000   0.00000
     27283 MEOH     1229     MEOH     HO1      HDP1A    0.360000        1.0080           0   0.00000   0.00000
     27284 MEOH     1229     MEOH     HO2      DUMH     0.000000        1.0080           0   0.00000   0.00000
     27285 MEOH     1229     MEOH     H1A      HDA3B    0.080000        1.0080           0   0.00000   0.00000
     27286 MEOH     1229     MEOH     H1B      HDA3B    0.080000        1.0080           0   0.00000   0.00000
     27287 MEOH     1229     MEOH     H1C      HDA3B    0.080000        1.0080           0   0.00000   0.00000
     27288 MEOH     1229     MEOH     LP1A     LPD     -0.230000        0.0000           -1   0.00000   0.00000
     27289 MEOH     1229     MEOH     LP1B     LPD     -0.230000        0.0000           -1   0.00000   0.00000
     27290 MEOH     1230     MEOH     C1       CD33B    2.314100       11.6110           0   -1.00000   1.30000
     27291 MEOH     1230     MEOH     DC1      DRUD    -2.454100        0.4000           0   0.00000   0.00000
     27292 MEOH     1230     MEOH     O1       OD31H    2.488300       15.5990           0   -1.02800   1.30000
     27293 MEOH     1230     MEOH     DO1      DRUD    -2.488300        0.4000           0   0.00000   0.00000
     27294 MEOH     1230     MEOH     HO1      HDP1A    0.360000        1.0080           0   0.00000   0.00000
     27295 MEOH     1230     MEOH     HO2      DUMH     0.000000        1.0080           0   0.00000   0.00000
     27296 MEOH     1230     MEOH     H1A      HDA3B    0.080000        1.0080           0   0.00000   0.00000
     27297 MEOH     1230     MEOH     H1B      HDA3B    0.080000        1.0080           0   0.00000   0.00000
     27298 MEOH     1230     MEOH     H1C      HDA3B    0.080000        1.0080           0   0.00000   0.00000
     27299 MEOH     1230     MEOH     LP1A     LPD     -0.230000        0.0000           -1   0.00000   0.00000
     27300 MEOH     1230     MEOH     LP1B     LPD     -0.230000        0.0000           -1   0.00000   0.00000
     27301 MEOH     1231     MEOH     C1       CD33B    2.314100       11.6110           0   -1.00000   1.30000
     27302 MEOH     1231     MEOH     DC1      DRUD    -2.454100        0.4000           0   0.00000   0.00000
     27303 MEOH     1231     MEOH     O1       OD31H    2.488300       15.5990           0   -1.02800   1.30000
     27304 MEOH     1231     MEOH     DO1      DRUD    -2.488300        0.4000           0   0.00000   0.00000
     27305 MEOH     1231     MEOH     HO1      HDP1A    0.360000        1.0080           0   0.00000   0.00000
     27306 MEOH     1231     MEOH     HO2      DUMH     0.000000        1.0080           0   0.00000   0.00000
     27307 MEOH     1231     MEOH     H1A      HDA3B    0.080000        1.0080           0   0.00000   0.00000
     27308 MEOH     1231     MEOH     H1B      HDA3B    0.080000        1.0080           0   0.00000   0.00000
     27309 MEOH     1231     MEOH     H1C      HDA3B    0.080000        1.0080           0   0.00000   0.00000
     27310 MEOH     1231     MEOH     LP1A     LPD     -0.230000        0.0000           -1   0.00000   0.00000
     27311 MEOH     1231     MEOH     LP1B     LPD     -0.230000        0.0000           -1   0.00000   0.00000
     27312 MEOH     1232     MEOH     C1       CD33B    2.314100       11.6110           0   -1.00000   1.30000
     27313 MEOH     1232     MEOH     DC1      DRUD    -2.454100        0.4000           0   0.00000   0.00000
     27314 MEOH     1232     MEOH     O1       OD31H    2.488300       15.5990           0   -1.02800   1.30000
     27315 MEOH     1232     MEOH     DO1      DRUD    -2.488300        0.4000           0   0.00000   0.00000
     27316 MEOH     1232     MEOH     HO1      HDP1A    0.360000        1.0080           0   0.00000   0.00000
     27317 MEOH     1232     MEOH     HO2      DUMH     0.000000        1.0080           0   0.00000   0.00000
     27318 MEOH     1232     MEOH     H1A      HDA3B    0.080000        1.0080           0   0.00000   0.00000
     27319 MEOH     1232     MEOH     H1B      HDA3B    0.080000        1.0080           0   0.00000   0.00000
     27320 MEOH     1232     MEOH     H1C      HDA3B    0.080000        1.0080           0   0.00000   0.00000
     27321 MEOH     1232     MEOH     LP1A     LPD     -0.230000        0.0000           -1   0.00000   0.00000
     27322 MEOH     1232     MEOH     LP1B     LPD     -0.230000        0.0000           -1   0.00000   0.00000
     27323 MEOH     1233     MEOH     C1       CD33B    2.314100       11.6110           0   -1.00000   1.30000
     27324 MEOH     1233     MEOH     DC1      DRUD    -2.454100        0.4000           0   0.00000   0.00000
     27325 MEOH     1233     MEOH     O1       OD31H    2.488300       15.5990           0   -1.02800   1.30000
     27326 MEOH     1233     MEOH     DO1      DRUD    -2.488300        0.4000           0   0.00000   0.00000
     27327 MEOH     1233     MEOH     HO1      HDP1A    0.360000        1.0080           0   0.00000   0.00000
     27328 MEOH     1233     MEOH     HO2      DUMH     0.000000        1.0080           0   0.00000   0.00000
     27329 MEOH     1233     MEOH     H1A      HDA3B    0.080000        1.0080           0   0.00000   0.00000
     27330 MEOH     1233     MEOH     H1B      HDA3B    0.080000        1.0080           0   0.00000   0.00000
     27331 MEOH     1233     MEOH     H1C      HDA3B    0.080000        1.0080           0   0.00000   0.00000
     27332 MEOH     1233     MEOH     LP1A     LPD     -0.230000        0.0000           -1   0.00000   0.00000
     27333 MEOH     1233     MEOH     LP1B     LPD     -0.230000        0.0000           -1   0.00000   0.00000
     27334 MEOH     1234     MEOH     C1       CD33B    2.314100       11.6110           0   -1.00000   1.30000
     27335 MEOH     1234     MEOH     DC1      DRUD    -2.454100        0.4000           0   0.00000   0.00000
     27336 MEOH     1234     MEOH     O1       OD31H    2.488300       15.5990           0   -1.02800   1.30000
     27337 MEOH     1234     MEOH     DO1      DRUD    -2.488300        0.4000           0   0.00000   0.00000
     27338 MEOH     1234     MEOH     HO1      HDP1A    0.360000        1.0080           0   0.00000   0.00000
     27339 MEOH     1234     MEOH     HO2      DUMH     0.000000        1.0080           0   0.00000   0.00000
     27340 MEOH     1234     MEOH     H1A      HDA3B    0.080000        1.0080           0   0.00000   0.00000
     27341 MEOH     1234     MEOH     H1B      HDA3B    0.080000        1.0080           0   0.00000   0.00000
     27342 MEOH     1234     MEOH     H1C      HDA3B    0.080000        1.0080           0   0.00000   0.00000
     27343 MEOH     1234     MEOH     LP1A     LPD     -0.230000        0.0000           -1   0.00000   0.00000
     27344 MEOH     1234     MEOH     LP1B     LPD     -0.230000        0.0000           -1   0.00000   0.00000
     27345 MEOH     1235     MEOH     C1       CD33B    2.314100       11.6110           0   -1.00000   1.30000
     27346 MEOH     1235     MEOH     DC1      DRUD    -2.454100        0.4000           0   0.00000   0.00000
     27347 MEOH     1235     MEOH     O1       OD31H    2.488300       15.5990           0   -1.02800   1.30000
     27348 MEOH     1235     MEOH     DO1      DRUD    -2.488300        0.4000           0   0.00000   0.00000
     27349 MEOH     1235     MEOH     HO1      HDP1A    0.360000        1.0080           0   0.00000   0.00000
     27350 MEOH     1235     MEOH     HO2      DUMH     0.000000        1.0080           0   0.00000   0.00000
     27351 MEOH     1235     MEOH     H1A      HDA3B    0.080000        1.0080           0   0.00000   0.00000
     27352 MEOH     1235     MEOH     H1B      HDA3B    0.080000        1.0080           0   0.00000   0.00000
     27353 MEOH     1235     MEOH     H1C      HDA3B    0.080000        1.0080           0   0.00000   0.00000
     27354 MEOH     1235     MEOH     LP1A     LPD     -0.230000        0.0000           -1   0.00000   0.00000
     27355 MEOH     1235     MEOH     LP1B     LPD     -0.230000        0.0000           -1   0.00000   0.00000
     27356 MEOH     1236     MEOH     C1       CD33B    2.314100       11.6110           0   -1.00000   1.30000
     27357 MEOH     1236     MEOH     DC1      DRUD    -2.454100        0.4000           0   0.00000   0.00000
     27358 MEOH     1236     MEOH     O1       OD31H    2.488300       15.5990           0   -1.02800   1.30000
     27359 MEOH     1236     MEOH     DO1      DRUD    -2.488300        0.4000           0   0.00000   0.00000
     27360 MEOH     1236     MEOH     HO1      HDP1A    0.360000        1.0080           0   0.00000   0.00000
     27361 MEOH     1236     MEOH     HO2      DUMH     0.000000        1.0080           0   0.00000   0.00000
     27362 MEOH     1236     MEOH     H1A      HDA3B    0.080000        1.0080           0   0.00000   0.00000
     27363 MEOH     1236     MEOH     H1B      HDA3B    0.080000        1.0080           0   0.00000   0.00000
     27364 MEOH     1236     MEOH     H1C      HDA3B    0.080000        1.0080           0   0.00000   0.00000
     27365 MEOH     1236     MEOH     LP1A     LPD     -0.230000        0.0000           -1   0.00000   0.00000
     27366 MEOH     1236     MEOH     LP1B     LPD     -0.230000        0.0000           -1   0.00000   0.00000
     27367 MEOH     1237     MEOH     C1       CD33B    2.314100       11.6110           0   -1.00000   1.30000
     27368 MEOH     1237     MEOH     DC1      DRUD    -2.454100        0.4000           0   0.00000   0.00000
     27369 MEOH     1237     MEOH     O1       OD31H    2.488300       15.5990           0   -1.02800   1.30000
     27370 MEOH     1237     MEOH     DO1      DRUD    -2.488300        0.4000           0   0.00000   0.00000
     27371 MEOH     1237     MEOH     HO1      HDP1A    0.360000        1.0080           0   0.00000   0.00000
     27372 MEOH     1237     MEOH     HO2      DUMH     0.000000        1.0080           0   0.00000   0.00000
     27373 MEOH     1237     MEOH     H1A      HDA3B    0.080000        1.0080           0   0.00000   0.00000
     27374 MEOH     1237     MEOH     H1B      HDA3B    0.080000        1.0080           0   0.00000   0.00000
     27375 MEOH     1237     MEOH     H1C      HDA3B    0.080000        1.0080           0   0.00000   0.00000
     27376 MEOH     1237     MEOH     LP1A     LPD     -0.230000        0.0000           -1   0.00000   0.00000
     27377 MEOH     1237     MEOH     LP1B     LPD     -0.230000        0.0000           -1   0.00000   0.00000
     27378 MEOH     1238     MEOH     C1       CD33B    2.314100       11.6110           0   -1.00000   1.30000
     27379 MEOH     1238     MEOH     DC1      DRUD    -2.454100        0.4000           0   0.00000   0.00000
     27380 MEOH     1238     MEOH     O1       OD31H    2.488300       15.5990           0   -1.02800   1.30000
     27381 MEOH     1238     MEOH     DO1      DRUD    -2.488300        0.4000           0   0.00000   0.00000
     27382 MEOH     1238     MEOH     HO1      HDP1A    0.360000        1.0080           0   0.00000   0.00000
     27383 MEOH     1238     MEOH     HO2      DUMH     0.000000        1.0080           0   0.00000   0.00000
     27384 MEOH     1238     MEOH     H1A      HDA3B    0.080000        1.0080           0   0.00000   0.00000
     27385 MEOH     1238     MEOH     H1B      HDA3B    0.080000        1.0080           0   0.00000   0.00000
     27386 MEOH     1238     MEOH     H1C      HDA3B    0.080000        1.0080           0   0.00000   0.00000
     27387 MEOH     1238     MEOH     LP1A     LPD     -0.230000        0.0000           -1   0.00000   0.00000
     27388 MEOH     1238     MEOH     LP1B     LPD     -0.230000        0.0000           -1   0.00000   0.00000
     27389 MEOH     1239     MEOH     C1       CD33B    2.314100       11.6110           0   -1.00000   1.30000
     27390 MEOH     1239     MEOH     DC1      DRUD    -2.454100        0.4000           0   0.00000   0.00000
     27391 MEOH     1239     MEOH     O1       OD31H    2.488300       15.5990           0   -1.02800   1.30000
     27392 MEOH     1239     MEOH     DO1      DRUD    -2.488300        0.4000           0   0.00000   0.00000
     27393 MEOH     1239     MEOH     HO1      HDP1A    0.360000        1.0080           0   0.00000   0.00000
     27394 MEOH     1239     MEOH     HO2      DUMH     0.000000        1.0080           0   0.00000   0.00000
     27395 MEOH     1239     MEOH     H1A      HDA3B    0.080000        1.0080           0   0.00000   0.00000
     27396 MEOH     1239     MEOH     H1B      HDA3B    0.080000        1.0080           0   0.00000   0.00000
     27397 MEOH     1239     MEOH     H1C      HDA3B    0.080000        1.0080           0   0.00000   0.00000
     27398 MEOH     1239     MEOH     LP1A     LPD     -0.230000        0.0000           -1   0.00000   0.00000
     27399 MEOH     1239     MEOH     LP1B     LPD     -0.230000        0.0000           -1   0.00000   0.00000
     27400 MEOH     1240     MEOH     C1       CD33B    2.314100       11.6110           0   -1.00000   1.30000
     27401 MEOH     1240     MEOH     DC1      DRUD    -2.454100        0.4000           0   0.00000   0.00000
     27402 MEOH     1240     MEOH     O1       OD31H    2.488300       15.5990           0   -1.02800   1.30000
     27403 MEOH     1240     MEOH     DO1      DRUD    -2.488300        0.4000           0   0.00000   0.00000
     27404 MEOH     1240     MEOH     HO1      HDP1A    0.360000        1.0080           0   0.00000   0.00000
     27405 MEOH     1240     MEOH     HO2      DUMH     0.000000        1.0080           0   0.00000   0.00000
     27406 MEOH     1240     MEOH     H1A      HDA3B    0.080000        1.0080           0   0.00000   0.00000
     27407 MEOH     1240     MEOH     H1B      HDA3B    0.080000        1.0080           0   0.00000   0.00000
     27408 MEOH     1240     MEOH     H1C      HDA3B    0.080000        1.0080           0   0.00000   0.00000
     27409 MEOH     1240     MEOH     LP1A     LPD     -0.230000        0.0000           -1   0.00000   0.00000
     27410 MEOH     1240     MEOH     LP1B     LPD     -0.230000        0.0000           -1   0.00000   0.00000
     27411 MEOH     1241     MEOH     C1       CD33B    2.314100       11.6110           0   -1.00000   1.30000
     27412 MEOH     1241     MEOH     DC1      DRUD    -2.454100        0.4000           0   0.00000   0.00000
     27413 MEOH     1241     MEOH     O1       OD31H    2.488300       15.5990           0   -1.02800   1.30000
     27414 MEOH     1241     MEOH     DO1      DRUD    -2.488300        0.4000           0   0.00000   0.00000
     27415 MEOH     1241     MEOH     HO1      HDP1A    0.360000        1.0080           0   0.00000   0.00000
     27416 MEOH     1241     MEOH     HO2      DUMH     0.000000        1.0080           0   0.00000   0.00000
     27417 MEOH     1241     MEOH     H1A      HDA3B    0.080000        1.0080           0   0.00000   0.00000
     27418 MEOH     1241     MEOH     H1B      HDA3B    0.080000        1.0080           0   0.00000   0.00000
     27419 MEOH     1241     MEOH     H1C      HDA3B    0.080000        1.0080           0   0.00000   0.00000
     27420 MEOH     1241     MEOH     LP1A     LPD     -0.230000        0.0000           -1   0.00000   0.00000
     27421 MEOH     1241     MEOH     LP1B     LPD     -0.230000        0.0000           -1   0.00000   0.00000
     27422 MEOH     1242     MEOH     C1       CD33B    2.314100       11.6110           0   -1.00000   1.30000
     27423 MEOH     1242     MEOH     DC1      DRUD    -2.454100        0.4000           0   0.00000   0.00000
     27424 MEOH     1242     MEOH     O1       OD31H    2.488300       15.5990           0   -1.02800   1.30000
     27425 MEOH     1242     MEOH     DO1      DRUD    -2.488300        0.4000           0   0.00000   0.00000
     27426 MEOH     1242     MEOH     HO1      HDP1A    0.360000        1.0080           0   0.00000   0.00000
     27427 MEOH     1242     MEOH     HO2      DUMH     0.000000        1.0080           0   0.00000   0.00000
     27428 MEOH     1242     MEOH     H1A      HDA3B    0.080000        1.0080           0   0.00000   0.00000
     27429 MEOH     1242     MEOH     H1B      HDA3B    0.080000        1.0080           0   0.00000   0.00000
     27430 MEOH     1242     MEOH     H1C      HDA3B    0.080000        1.0080           0   0.00000   0.00000
     27431 MEOH     1242     MEOH     LP1A     LPD     -0.230000        0.0000           -1   0.00000   0.00000
     27432 MEOH     1242     MEOH     LP1B     LPD     -0.230000        0.0000           -1   0.00000   0.00000
     27433 MEOH     1243     MEOH     C1       CD33B    2.314100       11.6110           0   -1.00000   1.30000
     27434 MEOH     1243     MEOH     DC1      DRUD    -2.454100        0.4000           0   0.00000   0.00000
     27435 MEOH     1243     MEOH     O1       OD31H    2.488300       15.5990           0   -1.02800   1.30000
     27436 MEOH     1243     MEOH     DO1      DRUD    -2.488300        0.4000           0   0.00000   0.00000
     27437 MEOH     1243     MEOH     HO1      HDP1A    0.360000        1.0080           0   0.00000   0.00000
     27438 MEOH     1243     MEOH     HO2      DUMH     0.000000        1.0080           0   0.00000   0.00000
     27439 MEOH     1243     MEOH     H1A      HDA3B    0.080000        1.0080           0   0.00000   0.00000
     27440 MEOH     1243     MEOH     H1B      HDA3B    0.080000        1.0080           0   0.00000   0.00000
     27441 MEOH     1243     MEOH     H1C      HDA3B    0.080000        1.0080           0   0.00000   0.00000
     27442 MEOH     1243     MEOH     LP1A     LPD     -0.230000        0.0000           -1   0.00000   0.00000
     27443 MEOH     1243     MEOH     LP1B     LPD     -0.230000        0.0000           -1   0.00000   0.00000
     27444 MEOH     1244     MEOH     C1       CD33B    2.314100       11.6110           0   -1.00000   1.30000
     27445 MEOH     1244     MEOH     DC1      DRUD    -2.454100        0.4000           0   0.00000   0.00000
     27446 MEOH     1244     MEOH     O1       OD31H    2.488300       15.5990           0   -1.02800   1.30000
     27447 MEOH     1244     MEOH     DO1      DRUD    -2.488300        0.4000           0   0.00000   0.00000
     27448 MEOH     1244     MEOH     HO1      HDP1A    0.360000        1.0080           0   0.00000   0.00000
     27449 MEOH     1244     MEOH     HO2      DUMH     0.000000        1.0080           0   0.00000   0.00000
     27450 MEOH     1244     MEOH     H1A      HDA3B    0.080000        1.0080           0   0.00000   0.00000
     27451 MEOH     1244     MEOH     H1B      HDA3B    0.080000        1.0080           0   0.00000   0.00000
     27452 MEOH     1244     MEOH     H1C      HDA3B    0.080000        1.0080           0   0.00000   0.00000
     27453 MEOH     1244     MEOH     LP1A     LPD     -0.230000        0.0000           -1   0.00000   0.00000
     27454 MEOH     1244     MEOH     LP1B     LPD     -0.230000        0.0000           -1   0.00000   0.00000
     27455 MEOH     1245     MEOH     C1       CD33B    2.314100       11.6110           0   -1.00000   1.30000
     27456 MEOH     1245     MEOH     DC1      DRUD    -2.454100        0.4000           0   0.00000   0.00000
     27457 MEOH     1245     MEOH     O1       OD31H    2.488300       15.5990           0   -1.02800   1.30000
     27458 MEOH     1245     MEOH     DO1      DRUD    -2.488300        0.4000           0   0.00000   0.00000
     27459 MEOH     1245     MEOH     HO1      HDP1A    0.360000        1.0080           0   0.00000   0.00000
     27460 MEOH     1245     MEOH     HO2      DUMH     0.000000        1.0080           0   0.00000   0.00000
     27461 MEOH     1245     MEOH     H1A      HDA3B    0.080000        1.0080           0   0.00000   0.00000
     27462 MEOH     1245     MEOH     H1B      HDA3B    0.080000        1.0080           0   0.00000   0.00000
     27463 MEOH     1245     MEOH     H1C      HDA3B    0.080000        1.0080           0   0.00000   0.00000
     27464 MEOH     1245     MEOH     LP1A     LPD     -0.230000        0.0000           -1   0.00000   0.00000
     27465 MEOH     1245     MEOH     LP1B     LPD     -0.230000        0.0000           -1   0.00000   0.00000
     27466 MEOH     1246     MEOH     C1       CD33B    2.314100       11.6110           0   -1.00000   1.30000
     27467 MEOH     1246     MEOH     DC1      DRUD    -2.454100        0.4000           0   0.00000   0.00000
     27468 MEOH     1246     MEOH     O1       OD31H    2.488300       15.5990           0   -1.02800   1.30000
     27469 MEOH     1246     MEOH     DO1      DRUD    -2.488300        0.4000           0   0.00000   0.00000
     27470 MEOH     1246     MEOH     HO1      HDP1A    0.360000        1.0080           0   0.00000   0.00000
     27471 MEOH     1246     MEOH     HO2      DUMH     0.000000        1.0080           0   0.00000   0.00000
     27472 MEOH     1246     MEOH     H1A      HDA3B    0.080000        1.0080           0   0.00000   0.00000
     27473 MEOH     1246     MEOH     H1B      HDA3B    0.080000        1.0080           0   0.00000   0.00000
     27474 MEOH     1246     MEOH     H1C      HDA3B    0.080000        1.0080           0   0.00000   0.00000
     27475 MEOH     1246     MEOH     LP1A     LPD     -0.230000        0.0000           -1   0.00000   0.00000
     27476 MEOH     1246     MEOH     LP1B     LPD     -0.230000        0.0000           -1   0.00000   0.00000
     27477 MEOH     1247     MEOH     C1       CD33B    2.314100       11.6110           0   -1.00000   1.30000
     27478 MEOH     1247     MEOH     DC1      DRUD    -2.454100        0.4000           0   0.00000   0.00000
     27479 MEOH     1247     MEOH     O1       OD31H    2.488300       15.5990           0   -1.02800   1.30000
     27480 MEOH     1247     MEOH     DO1      DRUD    -2.488300        0.4000           0   0.00000   0.00000
     27481 MEOH     1247     MEOH     HO1      HDP1A    0.360000        1.0080           0   0.00000   0.00000
     27482 MEOH     1247     MEOH     HO2      DUMH     0.000000        1.0080           0   0.00000   0.00000
     27483 MEOH     1247     MEOH     H1A      HDA3B    0.080000        1.0080           0   0.00000   0.00000
     27484 MEOH     1247     MEOH     H1B      HDA3B    0.080000        1.0080           0   0.00000   0.00000
     27485 MEOH     1247     MEOH     H1C      HDA3B    0.080000        1.0080           0   0.00000   0.00000
     27486 MEOH     1247     MEOH     LP1A     LPD     -0.230000        0.0000           -1   0.00000   0.00000
     27487 MEOH     1247     MEOH     LP1B     LPD     -0.230000        0.0000           -1   0.00000   0.00000
     27488 MEOH     1248     MEOH     C1       CD33B    2.314100       11.6110           0   -1.00000   1.30000
     27489 MEOH     1248     MEOH     DC1      DRUD    -2.454100        0.4000           0   0.00000   0.00000
     27490 MEOH     1248     MEOH     O1       OD31H    2.488300       15.5990           0   -1.02800   1.30000
     27491 MEOH     1248     MEOH     DO1      DRUD    -2.488300        0.4000           0   0.00000   0.00000
     27492 MEOH     1248     MEOH     HO1      HDP1A    0.360000        1.0080           0   0.00000   0.00000
     27493 MEOH     1248     MEOH     HO2      DUMH     0.000000        1.0080           0   0.00000   0.00000
     27494 MEOH     1248     MEOH     H1A      HDA3B    0.080000        1.0080           0   0.00000   0.00000
     27495 MEOH     1248     MEOH     H1B      HDA3B    0.080000        1.0080           0   0.00000   0.00000
     27496 MEOH     1248     MEOH     H1C      HDA3B    0.080000        1.0080           0   0.00000   0.00000
     27497 MEOH     1248     MEOH     LP1A     LPD     -0.230000        0.0000           -1   0.00000   0.00000
     27498 MEOH     1248     MEOH     LP1B     LPD     -0.230000        0.0000           -1   0.00000   0.00000
     27499 MEOH     1249     MEOH     C1       CD33B    2.314100       11.6110           0   -1.00000   1.30000
     27500 MEOH     1249     MEOH     DC1      DRUD    -2.454100        0.4000           0   0.00000   0.00000
     27501 MEOH     1249     MEOH     O1       OD31H    2.488300       15.5990           0   -1.02800   1.30000
     27502 MEOH     1249     MEOH     DO1      DRUD    -2.488300        0.4000           0   0.00000   0.00000
     27503 MEOH     1249     MEOH     HO1      HDP1A    0.360000        1.0080           0   0.00000   0.00000
     27504 MEOH     1249     MEOH     HO2      DUMH     0.000000        1.0080           0   0.00000   0.00000
     27505 MEOH     1249     MEOH     H1A      HDA3B    0.080000        1.0080           0   0.00000   0.00000
     27506 MEOH     1249     MEOH     H1B      HDA3B    0.080000        1.0080           0   0.00000   0.00000
     27507 MEOH     1249     MEOH     H1C      HDA3B    0.080000        1.0080           0   0.00000   0.00000
     27508 MEOH     1249     MEOH     LP1A     LPD     -0.230000        0.0000           -1   0.00000   0.00000
     27509 MEOH     1249     MEOH     LP1B     LPD     -0.230000        0.0000           -1   0.00000   0.00000
     27510 MEOH     1250     MEOH     C1       CD33B    2.314100       11.6110           0   -1.00000   1.30000
     27511 MEOH     1250     MEOH     DC1      DRUD    -2.454100        0.4000           0   0.00000   0.00000
     27512 MEOH     1250     MEOH     O1       OD31H    2.488300       15.5990           0   -1.02800   1.30000
     27513 MEOH     1250     MEOH     DO1      DRUD    -2.488300        0.4000           0   0.00000   0.00000
     27514 MEOH     1250     MEOH     HO1      HDP1A    0.360000        1.0080           0   0.00000   0.00000
     27515 MEOH     1250     MEOH     HO2      DUMH     0.000000        1.0080           0   0.00000   0.00000
     27516 MEOH     1250     MEOH     H1A      HDA3B    0.080000        1.0080           0   0.00000   0.00000
     27517 MEOH     1250     MEOH     H1B      HDA3B    0.080000        1.0080           0   0.00000   0.00000
     27518 MEOH     1250     MEOH     H1C      HDA3B    0.080000        1.0080           0   0.00000   0.00000
     27519 MEOH     1250     MEOH     LP1A     LPD     -0.230000        0.0000           -1   0.00000   0.00000
     27520 MEOH     1250     MEOH     LP1B     LPD     -0.230000        0.0000           -1   0.00000   0.00000
     27521 MEOH     1251     MEOH     C1       CD33B    2.314100       11.6110           0   -1.00000   1.30000
     27522 MEOH     1251     MEOH     DC1      DRUD    -2.454100        0.4000           0   0.00000   0.00000
     27523 MEOH     1251     MEOH     O1       OD31H    2.488300       15.5990           0   -1.02800   1.30000
     27524 MEOH     1251     MEOH     DO1      DRUD    -2.488300        0.4000           0   0.00000   0.00000
     27525 MEOH     1251     MEOH     HO1      HDP1A    0.360000        1.0080           0   0.00000   0.00000
     27526 MEOH     1251     MEOH     HO2      DUMH     0.000000        1.0080           0   0.00000   0.00000
     27527 MEOH     1251     MEOH     H1A      HDA3B    0.080000        1.0080           0   0.00000   0.00000
     27528 MEOH     1251     MEOH     H1B      HDA3B    0.080000        1.0080           0   0.00000   0.00000
     27529 MEOH     1251     MEOH     H1C      HDA3B    0.080000        1.0080           0   0.00000   0.00000
     27530 MEOH     1251     MEOH     LP1A     LPD     -0.230000        0.0000           -1   0.00000   0.00000
     27531 MEOH     1251     MEOH     LP1B     LPD     -0.230000        0.0000           -1   0.00000   0.00000
     27532 MEOH     1252     MEOH     C1       CD33B    2.314100       11.6110           0   -1.00000   1.30000
     27533 MEOH     1252     MEOH     DC1      DRUD    -2.454100        0.4000           0   0.00000   0.00000
     27534 MEOH     1252     MEOH     O1       OD31H    2.488300       15.5990           0   -1.02800   1.30000
     27535 MEOH     1252     MEOH     DO1      DRUD    -2.488300        0.4000           0   0.00000   0.00000
     27536 MEOH     1252     MEOH     HO1      HDP1A    0.360000        1.0080           0   0.00000   0.00000
     27537 MEOH     1252     MEOH     HO2      DUMH     0.000000        1.0080           0   0.00000   0.00000
     27538 MEOH     1252     MEOH     H1A      HDA3B    0.080000        1.0080           0   0.00000   0.00000
     27539 MEOH     1252     MEOH     H1B      HDA3B    0.080000        1.0080           0   0.00000   0.00000
     27540 MEOH     1252     MEOH     H1C      HDA3B    0.080000        1.0080           0   0.00000   0.00000
     27541 MEOH     1252     MEOH     LP1A     LPD     -0.230000        0.0000           -1   0.00000   0.00000
     27542 MEOH     1252     MEOH     LP1B     LPD     -0.230000        0.0000           -1   0.00000   0.00000
     27543 MEOH     1253     MEOH     C1       CD33B    2.314100       11.6110           0   -1.00000   1.30000
     27544 MEOH     1253     MEOH     DC1      DRUD    -2.454100        0.4000           0   0.00000   0.00000
     27545 MEOH     1253     MEOH     O1       OD31H    2.488300       15.5990           0   -1.02800   1.30000
     27546 MEOH     1253     MEOH     DO1      DRUD    -2.488300        0.4000           0   0.00000   0.00000
     27547 MEOH     1253     MEOH     HO1      HDP1A    0.360000        1.0080           0   0.00000   0.00000
     27548 MEOH     1253     MEOH     HO2      DUMH     0.000000        1.0080           0   0.00000   0.00000
     27549 MEOH     1253     MEOH     H1A      HDA3B    0.080000        1.0080           0   0.00000   0.00000
     27550 MEOH     1253     MEOH     H1B      HDA3B    0.080000        1.0080           0   0.00000   0.00000
     27551 MEOH     1253     MEOH     H1C      HDA3B    0.080000        1.0080           0   0.00000   0.00000
     27552 MEOH     1253     MEOH     LP1A     LPD     -0.230000        0.0000           -1   0.00000   0.00000
     27553 MEOH     1253     MEOH     LP1B     LPD     -0.230000        0.0000           -1   0.00000   0.00000
     27554 MEOH     1254     MEOH     C1       CD33B    2.314100       11.6110           0   -1.00000   1.30000
     27555 MEOH     1254     MEOH     DC1      DRUD    -2.454100        0.4000           0   0.00000   0.00000
     27556 MEOH     1254     MEOH     O1       OD31H    2.488300       15.5990           0   -1.02800   1.30000
     27557 MEOH     1254     MEOH     DO1      DRUD    -2.488300        0.4000           0   0.00000   0.00000
     27558 MEOH     1254     MEOH     HO1      HDP1A    0.360000        1.0080           0   0.00000   0.00000
     27559 MEOH     1254     MEOH     HO2      DUMH     0.000000        1.0080           0   0.00000   0.00000
     27560 MEOH     1254     MEOH     H1A      HDA3B    0.080000        1.0080           0   0.00000   0.00000
     27561 MEOH     1254     MEOH     H1B      HDA3B    0.080000        1.0080           0   0.00000   0.00000
     27562 MEOH     1254     MEOH     H1C      HDA3B    0.080000        1.0080           0   0.00000   0.00000
     27563 MEOH     1254     MEOH     LP1A     LPD     -0.230000        0.0000           -1   0.00000   0.00000
     27564 MEOH     1254     MEOH     LP1B     LPD     -0.230000        0.0000           -1   0.00000   0.00000
     27565 MEOH     1255     MEOH     C1       CD33B    2.314100       11.6110           0   -1.00000   1.30000
     27566 MEOH     1255     MEOH     DC1      DRUD    -2.454100        0.4000           0   0.00000   0.00000
     27567 MEOH     1255     MEOH     O1       OD31H    2.488300       15.5990           0   -1.02800   1.30000
     27568 MEOH     1255     MEOH     DO1      DRUD    -2.488300        0.4000           0   0.00000   0.00000
     27569 MEOH     1255     MEOH     HO1      HDP1A    0.360000        1.0080           0   0.00000   0.00000
     27570 MEOH     1255     MEOH     HO2      DUMH     0.000000        1.0080           0   0.00000   0.00000
     27571 MEOH     1255     MEOH     H1A      HDA3B    0.080000        1.0080           0   0.00000   0.00000
     27572 MEOH     1255     MEOH     H1B      HDA3B    0.080000        1.0080           0   0.00000   0.00000
     27573 MEOH     1255     MEOH     H1C      HDA3B    0.080000        1.0080           0   0.00000   0.00000
     27574 MEOH     1255     MEOH     LP1A     LPD     -0.230000        0.0000           -1   0.00000   0.00000
     27575 MEOH     1255     MEOH     LP1B     LPD     -0.230000        0.0000           -1   0.00000   0.00000
     27576 MEOH     1256     MEOH     C1       CD33B    2.314100       11.6110           0   -1.00000   1.30000
     27577 MEOH     1256     MEOH     DC1      DRUD    -2.454100        0.4000           0   0.00000   0.00000
     27578 MEOH     1256     MEOH     O1       OD31H    2.488300       15.5990           0   -1.02800   1.30000
     27579 MEOH     1256     MEOH     DO1      DRUD    -2.488300        0.4000           0   0.00000   0.00000
     27580 MEOH     1256     MEOH     HO1      HDP1A    0.360000        1.0080           0   0.00000   0.00000
     27581 MEOH     1256     MEOH     HO2      DUMH     0.000000        1.0080           0   0.00000   0.00000
     27582 MEOH     1256     MEOH     H1A      HDA3B    0.080000        1.0080           0   0.00000   0.00000
     27583 MEOH     1256     MEOH     H1B      HDA3B    0.080000        1.0080           0   0.00000   0.00000
     27584 MEOH     1256     MEOH     H1C      HDA3B    0.080000        1.0080           0   0.00000   0.00000
     27585 MEOH     1256     MEOH     LP1A     LPD     -0.230000        0.0000           -1   0.00000   0.00000
     27586 MEOH     1256     MEOH     LP1B     LPD     -0.230000        0.0000           -1   0.00000   0.00000
     27587 MEOH     1257     MEOH     C1       CD33B    2.314100       11.6110           0   -1.00000   1.30000
     27588 MEOH     1257     MEOH     DC1      DRUD    -2.454100        0.4000           0   0.00000   0.00000
     27589 MEOH     1257     MEOH     O1       OD31H    2.488300       15.5990           0   -1.02800   1.30000
     27590 MEOH     1257     MEOH     DO1      DRUD    -2.488300        0.4000           0   0.00000   0.00000
     27591 MEOH     1257     MEOH     HO1      HDP1A    0.360000        1.0080           0   0.00000   0.00000
     27592 MEOH     1257     MEOH     HO2      DUMH     0.000000        1.0080           0   0.00000   0.00000
     27593 MEOH     1257     MEOH     H1A      HDA3B    0.080000        1.0080           0   0.00000   0.00000
     27594 MEOH     1257     MEOH     H1B      HDA3B    0.080000        1.0080           0   0.00000   0.00000
     27595 MEOH     1257     MEOH     H1C      HDA3B    0.080000        1.0080           0   0.00000   0.00000
     27596 MEOH     1257     MEOH     LP1A     LPD     -0.230000        0.0000           -1   0.00000   0.00000
     27597 MEOH     1257     MEOH     LP1B     LPD     -0.230000        0.0000           -1   0.00000   0.00000
     27598 MEOH     1258     MEOH     C1       CD33B    2.314100       11.6110           0   -1.00000   1.30000
     27599 MEOH     1258     MEOH     DC1      DRUD    -2.454100        0.4000           0   0.00000   0.00000
     27600 MEOH     1258     MEOH     O1       OD31H    2.488300       15.5990           0   -1.02800   1.30000
     27601 MEOH     1258     MEOH     DO1      DRUD    -2.488300        0.4000           0   0.00000   0.00000
     27602 MEOH     1258     MEOH     HO1      HDP1A    0.360000        1.0080           0   0.00000   0.00000
     27603 MEOH     1258     MEOH     HO2      DUMH     0.000000        1.0080           0   0.00000   0.00000
     27604 MEOH     1258     MEOH     H1A      HDA3B    0.080000        1.0080           0   0.00000   0.00000
     27605 MEOH     1258     MEOH     H1B      HDA3B    0.080000        1.0080           0   0.00000   0.00000
     27606 MEOH     1258     MEOH     H1C      HDA3B    0.080000        1.0080           0   0.00000   0.00000
     27607 MEOH     1258     MEOH     LP1A     LPD     -0.230000        0.0000           -1   0.00000   0.00000
     27608 MEOH     1258     MEOH     LP1B     LPD     -0.230000        0.0000           -1   0.00000   0.00000
     27609 MEOH     1259     MEOH     C1       CD33B    2.314100       11.6110           0   -1.00000   1.30000
     27610 MEOH     1259     MEOH     DC1      DRUD    -2.454100        0.4000           0   0.00000   0.00000
     27611 MEOH     1259     MEOH     O1       OD31H    2.488300       15.5990           0   -1.02800   1.30000
     27612 MEOH     1259     MEOH     DO1      DRUD    -2.488300        0.4000           0   0.00000   0.00000
     27613 MEOH     1259     MEOH     HO1      HDP1A    0.360000        1.0080           0   0.00000   0.00000
     27614 MEOH     1259     MEOH     HO2      DUMH     0.000000        1.0080           0   0.00000   0.00000
     27615 MEOH     1259     MEOH     H1A      HDA3B    0.080000        1.0080           0   0.00000   0.00000
     27616 MEOH     1259     MEOH     H1B      HDA3B    0.080000        1.0080           0   0.00000   0.00000
     27617 MEOH     1259     MEOH     H1C      HDA3B    0.080000        1.0080           0   0.00000   0.00000
     27618 MEOH     1259     MEOH     LP1A     LPD     -0.230000        0.0000           -1   0.00000   0.00000
     27619 MEOH     1259     MEOH     LP1B     LPD     -0.230000        0.0000           -1   0.00000   0.00000
     27620 MEOH     1260     MEOH     C1       CD33B    2.314100       11.6110           0   -1.00000   1.30000
     27621 MEOH     1260     MEOH     DC1      DRUD    -2.454100        0.4000           0   0.00000   0.00000
     27622 MEOH     1260     MEOH     O1       OD31H    2.488300       15.5990           0   -1.02800   1.30000
     27623 MEOH     1260     MEOH     DO1      DRUD    -2.488300        0.4000           0   0.00000   0.00000
     27624 MEOH     1260     MEOH     HO1      HDP1A    0.360000        1.0080           0   0.00000   0.00000
     27625 MEOH     1260     MEOH     HO2      DUMH     0.000000        1.0080           0   0.00000   0.00000
     27626 MEOH     1260     MEOH     H1A      HDA3B    0.080000        1.0080           0   0.00000   0.00000
     27627 MEOH     1260     MEOH     H1B      HDA3B    0.080000        1.0080           0   0.00000   0.00000
     27628 MEOH     1260     MEOH     H1C      HDA3B    0.080000        1.0080           0   0.00000   0.00000
     27629 MEOH     1260     MEOH     LP1A     LPD     -0.230000        0.0000           -1   0.00000   0.00000
     27630 MEOH     1260     MEOH     LP1B     LPD     -0.230000        0.0000           -1   0.00000   0.00000
     27631 MEOH     1261     MEOH     C1       CD33B    2.314100       11.6110           0   -1.00000   1.30000
     27632 MEOH     1261     MEOH     DC1      DRUD    -2.454100        0.4000           0   0.00000   0.00000
     27633 MEOH     1261     MEOH     O1       OD31H    2.488300       15.5990           0   -1.02800   1.30000
     27634 MEOH     1261     MEOH     DO1      DRUD    -2.488300        0.4000           0   0.00000   0.00000
     27635 MEOH     1261     MEOH     HO1      HDP1A    0.360000        1.0080           0   0.00000   0.00000
     27636 MEOH     1261     MEOH     HO2      DUMH     0.000000        1.0080           0   0.00000   0.00000
     27637 MEOH     1261     MEOH     H1A      HDA3B    0.080000        1.0080           0   0.00000   0.00000
     27638 MEOH     1261     MEOH     H1B      HDA3B    0.080000        1.0080           0   0.00000   0.00000
     27639 MEOH     1261     MEOH     H1C      HDA3B    0.080000        1.0080           0   0.00000   0.00000
     27640 MEOH     1261     MEOH     LP1A     LPD     -0.230000        0.0000           -1   0.00000   0.00000
     27641 MEOH     1261     MEOH     LP1B     LPD     -0.230000        0.0000           -1   0.00000   0.00000
     27642 MEOH     1262     MEOH     C1       CD33B    2.314100       11.6110           0   -1.00000   1.30000
     27643 MEOH     1262     MEOH     DC1      DRUD    -2.454100        0.4000           0   0.00000   0.00000
     27644 MEOH     1262     MEOH     O1       OD31H    2.488300       15.5990           0   -1.02800   1.30000
     27645 MEOH     1262     MEOH     DO1      DRUD    -2.488300        0.4000           0   0.00000   0.00000
     27646 MEOH     1262     MEOH     HO1      HDP1A    0.360000        1.0080           0   0.00000   0.00000
     27647 MEOH     1262     MEOH     HO2      DUMH     0.000000        1.0080           0   0.00000   0.00000
     27648 MEOH     1262     MEOH     H1A      HDA3B    0.080000        1.0080           0   0.00000   0.00000
     27649 MEOH     1262     MEOH     H1B      HDA3B    0.080000        1.0080           0   0.00000   0.00000
     27650 MEOH     1262     MEOH     H1C      HDA3B    0.080000        1.0080           0   0.00000   0.00000
     27651 MEOH     1262     MEOH     LP1A     LPD     -0.230000        0.0000           -1   0.00000   0.00000
     27652 MEOH     1262     MEOH     LP1B     LPD     -0.230000        0.0000           -1   0.00000   0.00000
     27653 MEOH     1263     MEOH     C1       CD33B    2.314100       11.6110           0   -1.00000   1.30000
     27654 MEOH     1263     MEOH     DC1      DRUD    -2.454100        0.4000           0   0.00000   0.00000
     27655 MEOH     1263     MEOH     O1       OD31H    2.488300       15.5990           0   -1.02800   1.30000
     27656 MEOH     1263     MEOH     DO1      DRUD    -2.488300        0.4000           0   0.00000   0.00000
     27657 MEOH     1263     MEOH     HO1      HDP1A    0.360000        1.0080           0   0.00000   0.00000
     27658 MEOH     1263     MEOH     HO2      DUMH     0.000000        1.0080           0   0.00000   0.00000
     27659 MEOH     1263     MEOH     H1A      HDA3B    0.080000        1.0080           0   0.00000   0.00000
     27660 MEOH     1263     MEOH     H1B      HDA3B    0.080000        1.0080           0   0.00000   0.00000
     27661 MEOH     1263     MEOH     H1C      HDA3B    0.080000        1.0080           0   0.00000   0.00000
     27662 MEOH     1263     MEOH     LP1A     LPD     -0.230000        0.0000           -1   0.00000   0.00000
     27663 MEOH     1263     MEOH     LP1B     LPD     -0.230000        0.0000           -1   0.00000   0.00000
     27664 MEOH     1264     MEOH     C1       CD33B    2.314100       11.6110           0   -1.00000   1.30000
     27665 MEOH     1264     MEOH     DC1      DRUD    -2.454100        0.4000           0   0.00000   0.00000
     27666 MEOH     1264     MEOH     O1       OD31H    2.488300       15.5990           0   -1.02800   1.30000
     27667 MEOH     1264     MEOH     DO1      DRUD    -2.488300        0.4000           0   0.00000   0.00000
     27668 MEOH     1264     MEOH     HO1      HDP1A    0.360000        1.0080           0   0.00000   0.00000
     27669 MEOH     1264     MEOH     HO2      DUMH     0.000000        1.0080           0   0.00000   0.00000
     27670 MEOH     1264     MEOH     H1A      HDA3B    0.080000        1.0080           0   0.00000   0.00000
     27671 MEOH     1264     MEOH     H1B      HDA3B    0.080000        1.0080           0   0.00000   0.00000
     27672 MEOH     1264     MEOH     H1C      HDA3B    0.080000        1.0080           0   0.00000   0.00000
     27673 MEOH     1264     MEOH     LP1A     LPD     -0.230000        0.0000           -1   0.00000   0.00000
     27674 MEOH     1264     MEOH     LP1B     LPD     -0.230000        0.0000           -1   0.00000   0.00000
     27675 MEOH     1265     MEOH     C1       CD33B    2.314100       11.6110           0   -1.00000   1.30000
     27676 MEOH     1265     MEOH     DC1      DRUD    -2.454100        0.4000           0   0.00000   0.00000
     27677 MEOH     1265     MEOH     O1       OD31H    2.488300       15.5990           0   -1.02800   1.30000
     27678 MEOH     1265     MEOH     DO1      DRUD    -2.488300        0.4000           0   0.00000   0.00000
     27679 MEOH     1265     MEOH     HO1      HDP1A    0.360000        1.0080           0   0.00000   0.00000
     27680 MEOH     1265     MEOH     HO2      DUMH     0.000000        1.0080           0   0.00000   0.00000
     27681 MEOH     1265     MEOH     H1A      HDA3B    0.080000        1.0080           0   0.00000   0.00000
     27682 MEOH     1265     MEOH     H1B      HDA3B    0.080000        1.0080           0   0.00000   0.00000
     27683 MEOH     1265     MEOH     H1C      HDA3B    0.080000        1.0080           0   0.00000   0.00000
     27684 MEOH     1265     MEOH     LP1A     LPD     -0.230000        0.0000           -1   0.00000   0.00000
     27685 MEOH     1265     MEOH     LP1B     LPD     -0.230000        0.0000           -1   0.00000   0.00000
     27686 MEOH     1266     MEOH     C1       CD33B    2.314100       11.6110           0   -1.00000   1.30000
     27687 MEOH     1266     MEOH     DC1      DRUD    -2.454100        0.4000           0   0.00000   0.00000
     27688 MEOH     1266     MEOH     O1       OD31H    2.488300       15.5990           0   -1.02800   1.30000
     27689 MEOH     1266     MEOH     DO1      DRUD    -2.488300        0.4000           0   0.00000   0.00000
     27690 MEOH     1266     MEOH     HO1      HDP1A    0.360000        1.0080           0   0.00000   0.00000
     27691 MEOH     1266     MEOH     HO2      DUMH     0.000000        1.0080           0   0.00000   0.00000
     27692 MEOH     1266     MEOH     H1A      HDA3B    0.080000        1.0080           0   0.00000   0.00000
     27693 MEOH     1266     MEOH     H1B      HDA3B    0.080000        1.0080           0   0.00000   0.00000
     27694 MEOH     1266     MEOH     H1C      HDA3B    0.080000        1.0080           0   0.00000   0.00000
     27695 MEOH     1266     MEOH     LP1A     LPD     -0.230000        0.0000           -1   0.00000   0.00000
     27696 MEOH     1266     MEOH     LP1B     LPD     -0.230000        0.0000           -1   0.00000   0.00000
     27697 MEOH     1267     MEOH     C1       CD33B    2.314100       11.6110           0   -1.00000   1.30000
     27698 MEOH     1267     MEOH     DC1      DRUD    -2.454100        0.4000           0   0.00000   0.00000
     27699 MEOH     1267     MEOH     O1       OD31H    2.488300       15.5990           0   -1.02800   1.30000
     27700 MEOH     1267     MEOH     DO1      DRUD    -2.488300        0.4000           0   0.00000   0.00000
     27701 MEOH     1267     MEOH     HO1      HDP1A    0.360000        1.0080           0   0.00000   0.00000
     27702 MEOH     1267     MEOH     HO2      DUMH     0.000000        1.0080           0   0.00000   0.00000
     27703 MEOH     1267     MEOH     H1A      HDA3B    0.080000        1.0080           0   0.00000   0.00000
     27704 MEOH     1267     MEOH     H1B      HDA3B    0.080000        1.0080           0   0.00000   0.00000
     27705 MEOH     1267     MEOH     H1C      HDA3B    0.080000        1.0080           0   0.00000   0.00000
     27706 MEOH     1267     MEOH     LP1A     LPD     -0.230000        0.0000           -1   0.00000   0.00000
     27707 MEOH     1267     MEOH     LP1B     LPD     -0.230000        0.0000           -1   0.00000   0.00000
     27708 MEOH     1268     MEOH     C1       CD33B    2.314100       11.6110           0   -1.00000   1.30000
     27709 MEOH     1268     MEOH     DC1      DRUD    -2.454100        0.4000           0   0.00000   0.00000
     27710 MEOH     1268     MEOH     O1       OD31H    2.488300       15.5990           0   -1.02800   1.30000
     27711 MEOH     1268     MEOH     DO1      DRUD    -2.488300        0.4000           0   0.00000   0.00000
     27712 MEOH     1268     MEOH     HO1      HDP1A    0.360000        1.0080           0   0.00000   0.00000
     27713 MEOH     1268     MEOH     HO2      DUMH     0.000000        1.0080           0   0.00000   0.00000
     27714 MEOH     1268     MEOH     H1A      HDA3B    0.080000        1.0080           0   0.00000   0.00000
     27715 MEOH     1268     MEOH     H1B      HDA3B    0.080000        1.0080           0   0.00000   0.00000
     27716 MEOH     1268     MEOH     H1C      HDA3B    0.080000        1.0080           0   0.00000   0.00000
     27717 MEOH     1268     MEOH     LP1A     LPD     -0.230000        0.0000           -1   0.00000   0.00000
     27718 MEOH     1268     MEOH     LP1B     LPD     -0.230000        0.0000           -1   0.00000   0.00000
     27719 MEOH     1269     MEOH     C1       CD33B    2.314100       11.6110           0   -1.00000   1.30000
     27720 MEOH     1269     MEOH     DC1      DRUD    -2.454100        0.4000           0   0.00000   0.00000
     27721 MEOH     1269     MEOH     O1       OD31H    2.488300       15.5990           0   -1.02800   1.30000
     27722 MEOH     1269     MEOH     DO1      DRUD    -2.488300        0.4000           0   0.00000   0.00000
     27723 MEOH     1269     MEOH     HO1      HDP1A    0.360000        1.0080           0   0.00000   0.00000
     27724 MEOH     1269     MEOH     HO2      DUMH     0.000000        1.0080           0   0.00000   0.00000
     27725 MEOH     1269     MEOH     H1A      HDA3B    0.080000        1.0080           0   0.00000   0.00000
     27726 MEOH     1269     MEOH     H1B      HDA3B    0.080000        1.0080           0   0.00000   0.00000
     27727 MEOH     1269     MEOH     H1C      HDA3B    0.080000        1.0080           0   0.00000   0.00000
     27728 MEOH     1269     MEOH     LP1A     LPD     -0.230000        0.0000           -1   0.00000   0.00000
     27729 MEOH     1269     MEOH     LP1B     LPD     -0.230000        0.0000           -1   0.00000   0.00000
     27730 MEOH     1270     MEOH     C1       CD33B    2.314100       11.6110           0   -1.00000   1.30000
     27731 MEOH     1270     MEOH     DC1      DRUD    -2.454100        0.4000           0   0.00000   0.00000
     27732 MEOH     1270     MEOH     O1       OD31H    2.488300       15.5990           0   -1.02800   1.30000
     27733 MEOH     1270     MEOH     DO1      DRUD    -2.488300        0.4000           0   0.00000   0.00000
     27734 MEOH     1270     MEOH     HO1      HDP1A    0.360000        1.0080           0   0.00000   0.00000
     27735 MEOH     1270     MEOH     HO2      DUMH     0.000000        1.0080           0   0.00000   0.00000
     27736 MEOH     1270     MEOH     H1A      HDA3B    0.080000        1.0080           0   0.00000   0.00000
     27737 MEOH     1270     MEOH     H1B      HDA3B    0.080000        1.0080           0   0.00000   0.00000
     27738 MEOH     1270     MEOH     H1C      HDA3B    0.080000        1.0080           0   0.00000   0.00000
     27739 MEOH     1270     MEOH     LP1A     LPD     -0.230000        0.0000           -1   0.00000   0.00000
     27740 MEOH     1270     MEOH     LP1B     LPD     -0.230000        0.0000           -1   0.00000   0.00000
     27741 MEOH     1271     MEOH     C1       CD33B    2.314100       11.6110           0   -1.00000   1.30000
     27742 MEOH     1271     MEOH     DC1      DRUD    -2.454100        0.4000           0   0.00000   0.00000
     27743 MEOH     1271     MEOH     O1       OD31H    2.488300       15.5990           0   -1.02800   1.30000
     27744 MEOH     1271     MEOH     DO1      DRUD    -2.488300        0.4000           0   0.00000   0.00000
     27745 MEOH     1271     MEOH     HO1      HDP1A    0.360000        1.0080           0   0.00000   0.00000
     27746 MEOH     1271     MEOH     HO2      DUMH     0.000000        1.0080           0   0.00000   0.00000
     27747 MEOH     1271     MEOH     H1A      HDA3B    0.080000        1.0080           0   0.00000   0.00000
     27748 MEOH     1271     MEOH     H1B      HDA3B    0.080000        1.0080           0   0.00000   0.00000
     27749 MEOH     1271     MEOH     H1C      HDA3B    0.080000        1.0080           0   0.00000   0.00000
     27750 MEOH     1271     MEOH     LP1A     LPD     -0.230000        0.0000           -1   0.00000   0.00000
     27751 MEOH     1271     MEOH     LP1B     LPD     -0.230000        0.0000           -1   0.00000   0.00000
     27752 MEOH     1272     MEOH     C1       CD33B    2.314100       11.6110           0   -1.00000   1.30000
     27753 MEOH     1272     MEOH     DC1      DRUD    -2.454100        0.4000           0   0.00000   0.00000
     27754 MEOH     1272     MEOH     O1       OD31H    2.488300       15.5990           0   -1.02800   1.30000
     27755 MEOH     1272     MEOH     DO1      DRUD    -2.488300        0.4000           0   0.00000   0.00000
     27756 MEOH     1272     MEOH     HO1      HDP1A    0.360000        1.0080           0   0.00000   0.00000
     27757 MEOH     1272     MEOH     HO2      DUMH     0.000000        1.0080           0   0.00000   0.00000
     27758 MEOH     1272     MEOH     H1A      HDA3B    0.080000        1.0080           0   0.00000   0.00000
     27759 MEOH     1272     MEOH     H1B      HDA3B    0.080000        1.0080           0   0.00000   0.00000
     27760 MEOH     1272     MEOH     H1C      HDA3B    0.080000        1.0080           0   0.00000   0.00000
     27761 MEOH     1272     MEOH     LP1A     LPD     -0.230000        0.0000           -1   0.00000   0.00000
     27762 MEOH     1272     MEOH     LP1B     LPD     -0.230000        0.0000           -1   0.00000   0.00000
     27763 MEOH     1273     MEOH     C1       CD33B    2.314100       11.6110           0   -1.00000   1.30000
     27764 MEOH     1273     MEOH     DC1      DRUD    -2.454100        0.4000           0   0.00000   0.00000
     27765 MEOH     1273     MEOH     O1       OD31H    2.488300       15.5990           0   -1.02800   1.30000
     27766 MEOH     1273     MEOH     DO1      DRUD    -2.488300        0.4000           0   0.00000   0.00000
     27767 MEOH     1273     MEOH     HO1      HDP1A    0.360000        1.0080           0   0.00000   0.00000
     27768 MEOH     1273     MEOH     HO2      DUMH     0.000000        1.0080           0   0.00000   0.00000
     27769 MEOH     1273     MEOH     H1A      HDA3B    0.080000        1.0080           0   0.00000   0.00000
     27770 MEOH     1273     MEOH     H1B      HDA3B    0.080000        1.0080           0   0.00000   0.00000
     27771 MEOH     1273     MEOH     H1C      HDA3B    0.080000        1.0080           0   0.00000   0.00000
     27772 MEOH     1273     MEOH     LP1A     LPD     -0.230000        0.0000           -1   0.00000   0.00000
     27773 MEOH     1273     MEOH     LP1B     LPD     -0.230000        0.0000           -1   0.00000   0.00000
     27774 MEOH     1274     MEOH     C1       CD33B    2.314100       11.6110           0   -1.00000   1.30000
     27775 MEOH     1274     MEOH     DC1      DRUD    -2.454100        0.4000           0   0.00000   0.00000
     27776 MEOH     1274     MEOH     O1       OD31H    2.488300       15.5990           0   -1.02800   1.30000
     27777 MEOH     1274     MEOH     DO1      DRUD    -2.488300        0.4000           0   0.00000   0.00000
     27778 MEOH     1274     MEOH     HO1      HDP1A    0.360000        1.0080           0   0.00000   0.00000
     27779 MEOH     1274     MEOH     HO2      DUMH     0.000000        1.0080           0   0.00000   0.00000
     27780 MEOH     1274     MEOH     H1A      HDA3B    0.080000        1.0080           0   0.00000   0.00000
     27781 MEOH     1274     MEOH     H1B      HDA3B    0.080000        1.0080           0   0.00000   0.00000
     27782 MEOH     1274     MEOH     H1C      HDA3B    0.080000        1.0080           0   0.00000   0.00000
     27783 MEOH     1274     MEOH     LP1A     LPD     -0.230000        0.0000           -1   0.00000   0.00000
     27784 MEOH     1274     MEOH     LP1B     LPD     -0.230000        0.0000           -1   0.00000   0.00000
     27785 MEOH     1275     MEOH     C1       CD33B    2.314100       11.6110           0   -1.00000   1.30000
     27786 MEOH     1275     MEOH     DC1      DRUD    -2.454100        0.4000           0   0.00000   0.00000
     27787 MEOH     1275     MEOH     O1       OD31H    2.488300       15.5990           0   -1.02800   1.30000
     27788 MEOH     1275     MEOH     DO1      DRUD    -2.488300        0.4000           0   0.00000   0.00000
     27789 MEOH     1275     MEOH     HO1      HDP1A    0.360000        1.0080           0   0.00000   0.00000
     27790 MEOH     1275     MEOH     HO2      DUMH     0.000000        1.0080           0   0.00000   0.00000
     27791 MEOH     1275     MEOH     H1A      HDA3B    0.080000        1.0080           0   0.00000   0.00000
     27792 MEOH     1275     MEOH     H1B      HDA3B    0.080000        1.0080           0   0.00000   0.00000
     27793 MEOH     1275     MEOH     H1C      HDA3B    0.080000        1.0080           0   0.00000   0.00000
     27794 MEOH     1275     MEOH     LP1A     LPD     -0.230000        0.0000           -1   0.00000   0.00000
     27795 MEOH     1275     MEOH     LP1B     LPD     -0.230000        0.0000           -1   0.00000   0.00000
     27796 MEOH     1276     MEOH     C1       CD33B    2.314100       11.6110           0   -1.00000   1.30000
     27797 MEOH     1276     MEOH     DC1      DRUD    -2.454100        0.4000           0   0.00000   0.00000
     27798 MEOH     1276     MEOH     O1       OD31H    2.488300       15.5990           0   -1.02800   1.30000
     27799 MEOH     1276     MEOH     DO1      DRUD    -2.488300        0.4000           0   0.00000   0.00000
     27800 MEOH     1276     MEOH     HO1      HDP1A    0.360000        1.0080           0   0.00000   0.00000
     27801 MEOH     1276     MEOH     HO2      DUMH     0.000000        1.0080           0   0.00000   0.00000
     27802 MEOH     1276     MEOH     H1A      HDA3B    0.080000        1.0080           0   0.00000   0.00000
     27803 MEOH     1276     MEOH     H1B      HDA3B    0.080000        1.0080           0   0.00000   0.00000
     27804 MEOH     1276     MEOH     H1C      HDA3B    0.080000        1.0080           0   0.00000   0.00000
     27805 MEOH     1276     MEOH     LP1A     LPD     -0.230000        0.0000           -1   0.00000   0.00000
     27806 MEOH     1276     MEOH     LP1B     LPD     -0.230000        0.0000           -1   0.00000   0.00000
     27807 MEOH     1277     MEOH     C1       CD33B    2.314100       11.6110           0   -1.00000   1.30000
     27808 MEOH     1277     MEOH     DC1      DRUD    -2.454100        0.4000           0   0.00000   0.00000
     27809 MEOH     1277     MEOH     O1       OD31H    2.488300       15.5990           0   -1.02800   1.30000
     27810 MEOH     1277     MEOH     DO1      DRUD    -2.488300        0.4000           0   0.00000   0.00000
     27811 MEOH     1277     MEOH     HO1      HDP1A    0.360000        1.0080           0   0.00000   0.00000
     27812 MEOH     1277     MEOH     HO2      DUMH     0.000000        1.0080           0   0.00000   0.00000
     27813 MEOH     1277     MEOH     H1A      HDA3B    0.080000        1.0080           0   0.00000   0.00000
     27814 MEOH     1277     MEOH     H1B      HDA3B    0.080000        1.0080           0   0.00000   0.00000
     27815 MEOH     1277     MEOH     H1C      HDA3B    0.080000        1.0080           0   0.00000   0.00000
     27816 MEOH     1277     MEOH     LP1A     LPD     -0.230000        0.0000           -1   0.00000   0.00000
     27817 MEOH     1277     MEOH     LP1B     LPD     -0.230000        0.0000           -1   0.00000   0.00000
     27818 MEOH     1278     MEOH     C1       CD33B    2.314100       11.6110           0   -1.00000   1.30000
     27819 MEOH     1278     MEOH     DC1      DRUD    -2.454100        0.4000           0   0.00000   0.00000
     27820 MEOH     1278     MEOH     O1       OD31H    2.488300       15.5990           0   -1.02800   1.30000
     27821 MEOH     1278     MEOH     DO1      DRUD    -2.488300        0.4000           0   0.00000   0.00000
     27822 MEOH     1278     MEOH     HO1      HDP1A    0.360000        1.0080           0   0.00000   0.00000
     27823 MEOH     1278     MEOH     HO2      DUMH     0.000000        1.0080           0   0.00000   0.00000
     27824 MEOH     1278     MEOH     H1A      HDA3B    0.080000        1.0080           0   0.00000   0.00000
     27825 MEOH     1278     MEOH     H1B      HDA3B    0.080000        1.0080           0   0.00000   0.00000
     27826 MEOH     1278     MEOH     H1C      HDA3B    0.080000        1.0080           0   0.00000   0.00000
     27827 MEOH     1278     MEOH     LP1A     LPD     -0.230000        0.0000           -1   0.00000   0.00000
     27828 MEOH     1278     MEOH     LP1B     LPD     -0.230000        0.0000           -1   0.00000   0.00000
     27829 MEOH     1279     MEOH     C1       CD33B    2.314100       11.6110           0   -1.00000   1.30000
     27830 MEOH     1279     MEOH     DC1      DRUD    -2.454100        0.4000           0   0.00000   0.00000
     27831 MEOH     1279     MEOH     O1       OD31H    2.488300       15.5990           0   -1.02800   1.30000
     27832 MEOH     1279     MEOH     DO1      DRUD    -2.488300        0.4000           0   0.00000   0.00000
     27833 MEOH     1279     MEOH     HO1      HDP1A    0.360000        1.0080           0   0.00000   0.00000
     27834 MEOH     1279     MEOH     HO2      DUMH     0.000000        1.0080           0   0.00000   0.00000
     27835 MEOH     1279     MEOH     H1A      HDA3B    0.080000        1.0080           0   0.00000   0.00000
     27836 MEOH     1279     MEOH     H1B      HDA3B    0.080000        1.0080           0   0.00000   0.00000
     27837 MEOH     1279     MEOH     H1C      HDA3B    0.080000        1.0080           0   0.00000   0.00000
     27838 MEOH     1279     MEOH     LP1A     LPD     -0.230000        0.0000           -1   0.00000   0.00000
     27839 MEOH     1279     MEOH     LP1B     LPD     -0.230000        0.0000           -1   0.00000   0.00000
     27840 MEOH     1280     MEOH     C1       CD33B    2.314100       11.6110           0   -1.00000   1.30000
     27841 MEOH     1280     MEOH     DC1      DRUD    -2.454100        0.4000           0   0.00000   0.00000
     27842 MEOH     1280     MEOH     O1       OD31H    2.488300       15.5990           0   -1.02800   1.30000
     27843 MEOH     1280     MEOH     DO1      DRUD    -2.488300        0.4000           0   0.00000   0.00000
     27844 MEOH     1280     MEOH     HO1      HDP1A    0.360000        1.0080           0   0.00000   0.00000
     27845 MEOH     1280     MEOH     HO2      DUMH     0.000000        1.0080           0   0.00000   0.00000
     27846 MEOH     1280     MEOH     H1A      HDA3B    0.080000        1.0080           0   0.00000   0.00000
     27847 MEOH     1280     MEOH     H1B      HDA3B    0.080000        1.0080           0   0.00000   0.00000
     27848 MEOH     1280     MEOH     H1C      HDA3B    0.080000        1.0080           0   0.00000   0.00000
     27849 MEOH     1280     MEOH     LP1A     LPD     -0.230000        0.0000           -1   0.00000   0.00000
     27850 MEOH     1280     MEOH     LP1B     LPD     -0.230000        0.0000           -1   0.00000   0.00000
     27851 MEOH     1281     MEOH     C1       CD33B    2.314100       11.6110           0   -1.00000   1.30000
     27852 MEOH     1281     MEOH     DC1      DRUD    -2.454100        0.4000           0   0.00000   0.00000
     27853 MEOH     1281     MEOH     O1       OD31H    2.488300       15.5990           0   -1.02800   1.30000
     27854 MEOH     1281     MEOH     DO1      DRUD    -2.488300        0.4000           0   0.00000   0.00000
     27855 MEOH     1281     MEOH     HO1      HDP1A    0.360000        1.0080           0   0.00000   0.00000
     27856 MEOH     1281     MEOH     HO2      DUMH     0.000000        1.0080           0   0.00000   0.00000
     27857 MEOH     1281     MEOH     H1A      HDA3B    0.080000        1.0080           0   0.00000   0.00000
     27858 MEOH     1281     MEOH     H1B      HDA3B    0.080000        1.0080           0   0.00000   0.00000
     27859 MEOH     1281     MEOH     H1C      HDA3B    0.080000        1.0080           0   0.00000   0.00000
     27860 MEOH     1281     MEOH     LP1A     LPD     -0.230000        0.0000           -1   0.00000   0.00000
     27861 MEOH     1281     MEOH     LP1B     LPD     -0.230000        0.0000           -1   0.00000   0.00000
     27862 MEOH     1282     MEOH     C1       CD33B    2.314100       11.6110           0   -1.00000   1.30000
     27863 MEOH     1282     MEOH     DC1      DRUD    -2.454100        0.4000           0   0.00000   0.00000
     27864 MEOH     1282     MEOH     O1       OD31H    2.488300       15.5990           0   -1.02800   1.30000
     27865 MEOH     1282     MEOH     DO1      DRUD    -2.488300        0.4000           0   0.00000   0.00000
     27866 MEOH     1282     MEOH     HO1      HDP1A    0.360000        1.0080           0   0.00000   0.00000
     27867 MEOH     1282     MEOH     HO2      DUMH     0.000000        1.0080           0   0.00000   0.00000
     27868 MEOH     1282     MEOH     H1A      HDA3B    0.080000        1.0080           0   0.00000   0.00000
     27869 MEOH     1282     MEOH     H1B      HDA3B    0.080000        1.0080           0   0.00000   0.00000
     27870 MEOH     1282     MEOH     H1C      HDA3B    0.080000        1.0080           0   0.00000   0.00000
     27871 MEOH     1282     MEOH     LP1A     LPD     -0.230000        0.0000           -1   0.00000   0.00000
     27872 MEOH     1282     MEOH     LP1B     LPD     -0.230000        0.0000           -1   0.00000   0.00000
     27873 MEOH     1283     MEOH     C1       CD33B    2.314100       11.6110           0   -1.00000   1.30000
     27874 MEOH     1283     MEOH     DC1      DRUD    -2.454100        0.4000           0   0.00000   0.00000
     27875 MEOH     1283     MEOH     O1       OD31H    2.488300       15.5990           0   -1.02800   1.30000
     27876 MEOH     1283     MEOH     DO1      DRUD    -2.488300        0.4000           0   0.00000   0.00000
     27877 MEOH     1283     MEOH     HO1      HDP1A    0.360000        1.0080           0   0.00000   0.00000
     27878 MEOH     1283     MEOH     HO2      DUMH     0.000000        1.0080           0   0.00000   0.00000
     27879 MEOH     1283     MEOH     H1A      HDA3B    0.080000        1.0080           0   0.00000   0.00000
     27880 MEOH     1283     MEOH     H1B      HDA3B    0.080000        1.0080           0   0.00000   0.00000
     27881 MEOH     1283     MEOH     H1C      HDA3B    0.080000        1.0080           0   0.00000   0.00000
     27882 MEOH     1283     MEOH     LP1A     LPD     -0.230000        0.0000           -1   0.00000   0.00000
     27883 MEOH     1283     MEOH     LP1B     LPD     -0.230000        0.0000           -1   0.00000   0.00000
     27884 MEOH     1284     MEOH     C1       CD33B    2.314100       11.6110           0   -1.00000   1.30000
     27885 MEOH     1284     MEOH     DC1      DRUD    -2.454100        0.4000           0   0.00000   0.00000
     27886 MEOH     1284     MEOH     O1       OD31H    2.488300       15.5990           0   -1.02800   1.30000
     27887 MEOH     1284     MEOH     DO1      DRUD    -2.488300        0.4000           0   0.00000   0.00000
     27888 MEOH     1284     MEOH     HO1      HDP1A    0.360000        1.0080           0   0.00000   0.00000
     27889 MEOH     1284     MEOH     HO2      DUMH     0.000000        1.0080           0   0.00000   0.00000
     27890 MEOH     1284     MEOH     H1A      HDA3B    0.080000        1.0080           0   0.00000   0.00000
     27891 MEOH     1284     MEOH     H1B      HDA3B    0.080000        1.0080           0   0.00000   0.00000
     27892 MEOH     1284     MEOH     H1C      HDA3B    0.080000        1.0080           0   0.00000   0.00000
     27893 MEOH     1284     MEOH     LP1A     LPD     -0.230000        0.0000           -1   0.00000   0.00000
     27894 MEOH     1284     MEOH     LP1B     LPD     -0.230000        0.0000           -1   0.00000   0.00000
     27895 MEOH     1285     MEOH     C1       CD33B    2.314100       11.6110           0   -1.00000   1.30000
     27896 MEOH     1285     MEOH     DC1      DRUD    -2.454100        0.4000           0   0.00000   0.00000
     27897 MEOH     1285     MEOH     O1       OD31H    2.488300       15.5990           0   -1.02800   1.30000
     27898 MEOH     1285     MEOH     DO1      DRUD    -2.488300        0.4000           0   0.00000   0.00000
     27899 MEOH     1285     MEOH     HO1      HDP1A    0.360000        1.0080           0   0.00000   0.00000
     27900 MEOH     1285     MEOH     HO2      DUMH     0.000000        1.0080           0   0.00000   0.00000
     27901 MEOH     1285     MEOH     H1A      HDA3B    0.080000        1.0080           0   0.00000   0.00000
     27902 MEOH     1285     MEOH     H1B      HDA3B    0.080000        1.0080           0   0.00000   0.00000
     27903 MEOH     1285     MEOH     H1C      HDA3B    0.080000        1.0080           0   0.00000   0.00000
     27904 MEOH     1285     MEOH     LP1A     LPD     -0.230000        0.0000           -1   0.00000   0.00000
     27905 MEOH     1285     MEOH     LP1B     LPD     -0.230000        0.0000           -1   0.00000   0.00000
     27906 MEOH     1286     MEOH     C1       CD33B    2.314100       11.6110           0   -1.00000   1.30000
     27907 MEOH     1286     MEOH     DC1      DRUD    -2.454100        0.4000           0   0.00000   0.00000
     27908 MEOH     1286     MEOH     O1       OD31H    2.488300       15.5990           0   -1.02800   1.30000
     27909 MEOH     1286     MEOH     DO1      DRUD    -2.488300        0.4000           0   0.00000   0.00000
     27910 MEOH     1286     MEOH     HO1      HDP1A    0.360000        1.0080           0   0.00000   0.00000
     27911 MEOH     1286     MEOH     HO2      DUMH     0.000000        1.0080           0   0.00000   0.00000
     27912 MEOH     1286     MEOH     H1A      HDA3B    0.080000        1.0080           0   0.00000   0.00000
     27913 MEOH     1286     MEOH     H1B      HDA3B    0.080000        1.0080           0   0.00000   0.00000
     27914 MEOH     1286     MEOH     H1C      HDA3B    0.080000        1.0080           0   0.00000   0.00000
     27915 MEOH     1286     MEOH     LP1A     LPD     -0.230000        0.0000           -1   0.00000   0.00000
     27916 MEOH     1286     MEOH     LP1B     LPD     -0.230000        0.0000           -1   0.00000   0.00000
     27917 MEOH     1287     MEOH     C1       CD33B    2.314100       11.6110           0   -1.00000   1.30000
     27918 MEOH     1287     MEOH     DC1      DRUD    -2.454100        0.4000           0   0.00000   0.00000
     27919 MEOH     1287     MEOH     O1       OD31H    2.488300       15.5990           0   -1.02800   1.30000
     27920 MEOH     1287     MEOH     DO1      DRUD    -2.488300        0.4000           0   0.00000   0.00000
     27921 MEOH     1287     MEOH     HO1      HDP1A    0.360000        1.0080           0   0.00000   0.00000
     27922 MEOH     1287     MEOH     HO2      DUMH     0.000000        1.0080           0   0.00000   0.00000
     27923 MEOH     1287     MEOH     H1A      HDA3B    0.080000        1.0080           0   0.00000   0.00000
     27924 MEOH     1287     MEOH     H1B      HDA3B    0.080000        1.0080           0   0.00000   0.00000
     27925 MEOH     1287     MEOH     H1C      HDA3B    0.080000        1.0080           0   0.00000   0.00000
     27926 MEOH     1287     MEOH     LP1A     LPD     -0.230000        0.0000           -1   0.00000   0.00000
     27927 MEOH     1287     MEOH     LP1B     LPD     -0.230000        0.0000           -1   0.00000   0.00000
     27928 MEOH     1288     MEOH     C1       CD33B    2.314100       11.6110           0   -1.00000   1.30000
     27929 MEOH     1288     MEOH     DC1      DRUD    -2.454100        0.4000           0   0.00000   0.00000
     27930 MEOH     1288     MEOH     O1       OD31H    2.488300       15.5990           0   -1.02800   1.30000
     27931 MEOH     1288     MEOH     DO1      DRUD    -2.488300        0.4000           0   0.00000   0.00000
     27932 MEOH     1288     MEOH     HO1      HDP1A    0.360000        1.0080           0   0.00000   0.00000
     27933 MEOH     1288     MEOH     HO2      DUMH     0.000000        1.0080           0   0.00000   0.00000
     27934 MEOH     1288     MEOH     H1A      HDA3B    0.080000        1.0080           0   0.00000   0.00000
     27935 MEOH     1288     MEOH     H1B      HDA3B    0.080000        1.0080           0   0.00000   0.00000
     27936 MEOH     1288     MEOH     H1C      HDA3B    0.080000        1.0080           0   0.00000   0.00000
     27937 MEOH     1288     MEOH     LP1A     LPD     -0.230000        0.0000           -1   0.00000   0.00000
     27938 MEOH     1288     MEOH     LP1B     LPD     -0.230000        0.0000           -1   0.00000   0.00000
     27939 MEOH     1289     MEOH     C1       CD33B    2.314100       11.6110           0   -1.00000   1.30000
     27940 MEOH     1289     MEOH     DC1      DRUD    -2.454100        0.4000           0   0.00000   0.00000
     27941 MEOH     1289     MEOH     O1       OD31H    2.488300       15.5990           0   -1.02800   1.30000
     27942 MEOH     1289     MEOH     DO1      DRUD    -2.488300        0.4000           0   0.00000   0.00000
     27943 MEOH     1289     MEOH     HO1      HDP1A    0.360000        1.0080           0   0.00000   0.00000
     27944 MEOH     1289     MEOH     HO2      DUMH     0.000000        1.0080           0   0.00000   0.00000
     27945 MEOH     1289     MEOH     H1A      HDA3B    0.080000        1.0080           0   0.00000   0.00000
     27946 MEOH     1289     MEOH     H1B      HDA3B    0.080000        1.0080           0   0.00000   0.00000
     27947 MEOH     1289     MEOH     H1C      HDA3B    0.080000        1.0080           0   0.00000   0.00000
     27948 MEOH     1289     MEOH     LP1A     LPD     -0.230000        0.0000           -1   0.00000   0.00000
     27949 MEOH     1289     MEOH     LP1B     LPD     -0.230000        0.0000           -1   0.00000   0.00000
     27950 MEOH     1290     MEOH     C1       CD33B    2.314100       11.6110           0   -1.00000   1.30000
     27951 MEOH     1290     MEOH     DC1      DRUD    -2.454100        0.4000           0   0.00000   0.00000
     27952 MEOH     1290     MEOH     O1       OD31H    2.488300       15.5990           0   -1.02800   1.30000
     27953 MEOH     1290     MEOH     DO1      DRUD    -2.488300        0.4000           0   0.00000   0.00000
     27954 MEOH     1290     MEOH     HO1      HDP1A    0.360000        1.0080           0   0.00000   0.00000
     27955 MEOH     1290     MEOH     HO2      DUMH     0.000000        1.0080           0   0.00000   0.00000
     27956 MEOH     1290     MEOH     H1A      HDA3B    0.080000        1.0080           0   0.00000   0.00000
     27957 MEOH     1290     MEOH     H1B      HDA3B    0.080000        1.0080           0   0.00000   0.00000
     27958 MEOH     1290     MEOH     H1C      HDA3B    0.080000        1.0080           0   0.00000   0.00000
     27959 MEOH     1290     MEOH     LP1A     LPD     -0.230000        0.0000           -1   0.00000   0.00000
     27960 MEOH     1290     MEOH     LP1B     LPD     -0.230000        0.0000           -1   0.00000   0.00000
     27961 MEOH     1291     MEOH     C1       CD33B    2.314100       11.6110           0   -1.00000   1.30000
     27962 MEOH     1291     MEOH     DC1      DRUD    -2.454100        0.4000           0   0.00000   0.00000
     27963 MEOH     1291     MEOH     O1       OD31H    2.488300       15.5990           0   -1.02800   1.30000
     27964 MEOH     1291     MEOH     DO1      DRUD    -2.488300        0.4000           0   0.00000   0.00000
     27965 MEOH     1291     MEOH     HO1      HDP1A    0.360000        1.0080           0   0.00000   0.00000
     27966 MEOH     1291     MEOH     HO2      DUMH     0.000000        1.0080           0   0.00000   0.00000
     27967 MEOH     1291     MEOH     H1A      HDA3B    0.080000        1.0080           0   0.00000   0.00000
     27968 MEOH     1291     MEOH     H1B      HDA3B    0.080000        1.0080           0   0.00000   0.00000
     27969 MEOH     1291     MEOH     H1C      HDA3B    0.080000        1.0080           0   0.00000   0.00000
     27970 MEOH     1291     MEOH     LP1A     LPD     -0.230000        0.0000           -1   0.00000   0.00000
     27971 MEOH     1291     MEOH     LP1B     LPD     -0.230000        0.0000           -1   0.00000   0.00000
     27972 MEOH     1292     MEOH     C1       CD33B    2.314100       11.6110           0   -1.00000   1.30000
     27973 MEOH     1292     MEOH     DC1      DRUD    -2.454100        0.4000           0   0.00000   0.00000
     27974 MEOH     1292     MEOH     O1       OD31H    2.488300       15.5990           0   -1.02800   1.30000
     27975 MEOH     1292     MEOH     DO1      DRUD    -2.488300        0.4000           0   0.00000   0.00000
     27976 MEOH     1292     MEOH     HO1      HDP1A    0.360000        1.0080           0   0.00000   0.00000
     27977 MEOH     1292     MEOH     HO2      DUMH     0.000000        1.0080           0   0.00000   0.00000
     27978 MEOH     1292     MEOH     H1A      HDA3B    0.080000        1.0080           0   0.00000   0.00000
     27979 MEOH     1292     MEOH     H1B      HDA3B    0.080000        1.0080           0   0.00000   0.00000
     27980 MEOH     1292     MEOH     H1C      HDA3B    0.080000        1.0080           0   0.00000   0.00000
     27981 MEOH     1292     MEOH     LP1A     LPD     -0.230000        0.0000           -1   0.00000   0.00000
     27982 MEOH     1292     MEOH     LP1B     LPD     -0.230000        0.0000           -1   0.00000   0.00000
     27983 MEOH     1293     MEOH     C1       CD33B    2.314100       11.6110           0   -1.00000   1.30000
     27984 MEOH     1293     MEOH     DC1      DRUD    -2.454100        0.4000           0   0.00000   0.00000
     27985 MEOH     1293     MEOH     O1       OD31H    2.488300       15.5990           0   -1.02800   1.30000
     27986 MEOH     1293     MEOH     DO1      DRUD    -2.488300        0.4000           0   0.00000   0.00000
     27987 MEOH     1293     MEOH     HO1      HDP1A    0.360000        1.0080           0   0.00000   0.00000
     27988 MEOH     1293     MEOH     HO2      DUMH     0.000000        1.0080           0   0.00000   0.00000
     27989 MEOH     1293     MEOH     H1A      HDA3B    0.080000        1.0080           0   0.00000   0.00000
     27990 MEOH     1293     MEOH     H1B      HDA3B    0.080000        1.0080           0   0.00000   0.00000
     27991 MEOH     1293     MEOH     H1C      HDA3B    0.080000        1.0080           0   0.00000   0.00000
     27992 MEOH     1293     MEOH     LP1A     LPD     -0.230000        0.0000           -1   0.00000   0.00000
     27993 MEOH     1293     MEOH     LP1B     LPD     -0.230000        0.0000           -1   0.00000   0.00000
     27994 MEOH     1294     MEOH     C1       CD33B    2.314100       11.6110           0   -1.00000   1.30000
     27995 MEOH     1294     MEOH     DC1      DRUD    -2.454100        0.4000           0   0.00000   0.00000
     27996 MEOH     1294     MEOH     O1       OD31H    2.488300       15.5990           0   -1.02800   1.30000
     27997 MEOH     1294     MEOH     DO1      DRUD    -2.488300        0.4000           0   0.00000   0.00000
     27998 MEOH     1294     MEOH     HO1      HDP1A    0.360000        1.0080           0   0.00000   0.00000
     27999 MEOH     1294     MEOH     HO2      DUMH     0.000000        1.0080           0   0.00000   0.00000
     28000 MEOH     1294     MEOH     H1A      HDA3B    0.080000        1.0080           0   0.00000   0.00000
     28001 MEOH     1294     MEOH     H1B      HDA3B    0.080000        1.0080           0   0.00000   0.00000
     28002 MEOH     1294     MEOH     H1C      HDA3B    0.080000        1.0080           0   0.00000   0.00000
     28003 MEOH     1294     MEOH     LP1A     LPD     -0.230000        0.0000           -1   0.00000   0.00000
     28004 MEOH     1294     MEOH     LP1B     LPD     -0.230000        0.0000           -1   0.00000   0.00000
     28005 MEOH     1295     MEOH     C1       CD33B    2.314100       11.6110           0   -1.00000   1.30000
     28006 MEOH     1295     MEOH     DC1      DRUD    -2.454100        0.4000           0   0.00000   0.00000
     28007 MEOH     1295     MEOH     O1       OD31H    2.488300       15.5990           0   -1.02800   1.30000
     28008 MEOH     1295     MEOH     DO1      DRUD    -2.488300        0.4000           0   0.00000   0.00000
     28009 MEOH     1295     MEOH     HO1      HDP1A    0.360000        1.0080           0   0.00000   0.00000
     28010 MEOH     1295     MEOH     HO2      DUMH     0.000000        1.0080           0   0.00000   0.00000
     28011 MEOH     1295     MEOH     H1A      HDA3B    0.080000        1.0080           0   0.00000   0.00000
     28012 MEOH     1295     MEOH     H1B      HDA3B    0.080000        1.0080           0   0.00000   0.00000
     28013 MEOH     1295     MEOH     H1C      HDA3B    0.080000        1.0080           0   0.00000   0.00000
     28014 MEOH     1295     MEOH     LP1A     LPD     -0.230000        0.0000           -1   0.00000   0.00000
     28015 MEOH     1295     MEOH     LP1B     LPD     -0.230000        0.0000           -1   0.00000   0.00000
     28016 MEOH     1296     MEOH     C1       CD33B    2.314100       11.6110           0   -1.00000   1.30000
     28017 MEOH     1296     MEOH     DC1      DRUD    -2.454100        0.4000           0   0.00000   0.00000
     28018 MEOH     1296     MEOH     O1       OD31H    2.488300       15.5990           0   -1.02800   1.30000
     28019 MEOH     1296     MEOH     DO1      DRUD    -2.488300        0.4000           0   0.00000   0.00000
     28020 MEOH     1296     MEOH     HO1      HDP1A    0.360000        1.0080           0   0.00000   0.00000
     28021 MEOH     1296     MEOH     HO2      DUMH     0.000000        1.0080           0   0.00000   0.00000
     28022 MEOH     1296     MEOH     H1A      HDA3B    0.080000        1.0080           0   0.00000   0.00000
     28023 MEOH     1296     MEOH     H1B      HDA3B    0.080000        1.0080           0   0.00000   0.00000
     28024 MEOH     1296     MEOH     H1C      HDA3B    0.080000        1.0080           0   0.00000   0.00000
     28025 MEOH     1296     MEOH     LP1A     LPD     -0.230000        0.0000           -1   0.00000   0.00000
     28026 MEOH     1296     MEOH     LP1B     LPD     -0.230000        0.0000           -1   0.00000   0.00000
     28027 MEOH     1297     MEOH     C1       CD33B    2.314100       11.6110           0   -1.00000   1.30000
     28028 MEOH     1297     MEOH     DC1      DRUD    -2.454100        0.4000           0   0.00000   0.00000
     28029 MEOH     1297     MEOH     O1       OD31H    2.488300       15.5990           0   -1.02800   1.30000
     28030 MEOH     1297     MEOH     DO1      DRUD    -2.488300        0.4000           0   0.00000   0.00000
     28031 MEOH     1297     MEOH     HO1      HDP1A    0.360000        1.0080           0   0.00000   0.00000
     28032 MEOH     1297     MEOH     HO2      DUMH     0.000000        1.0080           0   0.00000   0.00000
     28033 MEOH     1297     MEOH     H1A      HDA3B    0.080000        1.0080           0   0.00000   0.00000
     28034 MEOH     1297     MEOH     H1B      HDA3B    0.080000        1.0080           0   0.00000   0.00000
     28035 MEOH     1297     MEOH     H1C      HDA3B    0.080000        1.0080           0   0.00000   0.00000
     28036 MEOH     1297     MEOH     LP1A     LPD     -0.230000        0.0000           -1   0.00000   0.00000
     28037 MEOH     1297     MEOH     LP1B     LPD     -0.230000        0.0000           -1   0.00000   0.00000
     28038 MEOH     1298     MEOH     C1       CD33B    2.314100       11.6110           0   -1.00000   1.30000
     28039 MEOH     1298     MEOH     DC1      DRUD    -2.454100        0.4000           0   0.00000   0.00000
     28040 MEOH     1298     MEOH     O1       OD31H    2.488300       15.5990           0   -1.02800   1.30000
     28041 MEOH     1298     MEOH     DO1      DRUD    -2.488300        0.4000           0   0.00000   0.00000
     28042 MEOH     1298     MEOH     HO1      HDP1A    0.360000        1.0080           0   0.00000   0.00000
     28043 MEOH     1298     MEOH     HO2      DUMH     0.000000        1.0080           0   0.00000   0.00000
     28044 MEOH     1298     MEOH     H1A      HDA3B    0.080000        1.0080           0   0.00000   0.00000
     28045 MEOH     1298     MEOH     H1B      HDA3B    0.080000        1.0080           0   0.00000   0.00000
     28046 MEOH     1298     MEOH     H1C      HDA3B    0.080000        1.0080           0   0.00000   0.00000
     28047 MEOH     1298     MEOH     LP1A     LPD     -0.230000        0.0000           -1   0.00000   0.00000
     28048 MEOH     1298     MEOH     LP1B     LPD     -0.230000        0.0000           -1   0.00000   0.00000
     28049 MEOH     1299     MEOH     C1       CD33B    2.314100       11.6110           0   -1.00000   1.30000
     28050 MEOH     1299     MEOH     DC1      DRUD    -2.454100        0.4000           0   0.00000   0.00000
     28051 MEOH     1299     MEOH     O1       OD31H    2.488300       15.5990           0   -1.02800   1.30000
     28052 MEOH     1299     MEOH     DO1      DRUD    -2.488300        0.4000           0   0.00000   0.00000
     28053 MEOH     1299     MEOH     HO1      HDP1A    0.360000        1.0080           0   0.00000   0.00000
     28054 MEOH     1299     MEOH     HO2      DUMH     0.000000        1.0080           0   0.00000   0.00000
     28055 MEOH     1299     MEOH     H1A      HDA3B    0.080000        1.0080           0   0.00000   0.00000
     28056 MEOH     1299     MEOH     H1B      HDA3B    0.080000        1.0080           0   0.00000   0.00000
     28057 MEOH     1299     MEOH     H1C      HDA3B    0.080000        1.0080           0   0.00000   0.00000
     28058 MEOH     1299     MEOH     LP1A     LPD     -0.230000        0.0000           -1   0.00000   0.00000
     28059 MEOH     1299     MEOH     LP1B     LPD     -0.230000        0.0000           -1   0.00000   0.00000
     28060 MEOH     1300     MEOH     C1       CD33B    2.314100       11.6110           0   -1.00000   1.30000
     28061 MEOH     1300     MEOH     DC1      DRUD    -2.454100        0.4000           0   0.00000   0.00000
     28062 MEOH     1300     MEOH     O1       OD31H    2.488300       15.5990           0   -1.02800   1.30000
     28063 MEOH     1300     MEOH     DO1      DRUD    -2.488300        0.4000           0   0.00000   0.00000
     28064 MEOH     1300     MEOH     HO1      HDP1A    0.360000        1.0080           0   0.00000   0.00000
     28065 MEOH     1300     MEOH     HO2      DUMH     0.000000        1.0080           0   0.00000   0.00000
     28066 MEOH     1300     MEOH     H1A      HDA3B    0.080000        1.0080           0   0.00000   0.00000
     28067 MEOH     1300     MEOH     H1B      HDA3B    0.080000        1.0080           0   0.00000   0.00000
     28068 MEOH     1300     MEOH     H1C      HDA3B    0.080000        1.0080           0   0.00000   0.00000
     28069 MEOH     1300     MEOH     LP1A     LPD     -0.230000        0.0000           -1   0.00000   0.00000
     28070 MEOH     1300     MEOH     LP1B     LPD     -0.230000        0.0000           -1   0.00000   0.00000
     28071 MEOH     1301     MEOH     C1       CD33B    2.314100       11.6110           0   -1.00000   1.30000
     28072 MEOH     1301     MEOH     DC1      DRUD    -2.454100        0.4000           0   0.00000   0.00000
     28073 MEOH     1301     MEOH     O1       OD31H    2.488300       15.5990           0   -1.02800   1.30000
     28074 MEOH     1301     MEOH     DO1      DRUD    -2.488300        0.4000           0   0.00000   0.00000
     28075 MEOH     1301     MEOH     HO1      HDP1A    0.360000        1.0080           0   0.00000   0.00000
     28076 MEOH     1301     MEOH     HO2      DUMH     0.000000        1.0080           0   0.00000   0.00000
     28077 MEOH     1301     MEOH     H1A      HDA3B    0.080000        1.0080           0   0.00000   0.00000
     28078 MEOH     1301     MEOH     H1B      HDA3B    0.080000        1.0080           0   0.00000   0.00000
     28079 MEOH     1301     MEOH     H1C      HDA3B    0.080000        1.0080           0   0.00000   0.00000
     28080 MEOH     1301     MEOH     LP1A     LPD     -0.230000        0.0000           -1   0.00000   0.00000
     28081 MEOH     1301     MEOH     LP1B     LPD     -0.230000        0.0000           -1   0.00000   0.00000
     28082 MEOH     1302     MEOH     C1       CD33B    2.314100       11.6110           0   -1.00000   1.30000
     28083 MEOH     1302     MEOH     DC1      DRUD    -2.454100        0.4000           0   0.00000   0.00000
     28084 MEOH     1302     MEOH     O1       OD31H    2.488300       15.5990           0   -1.02800   1.30000
     28085 MEOH     1302     MEOH     DO1      DRUD    -2.488300        0.4000           0   0.00000   0.00000
     28086 MEOH     1302     MEOH     HO1      HDP1A    0.360000        1.0080           0   0.00000   0.00000
     28087 MEOH     1302     MEOH     HO2      DUMH     0.000000        1.0080           0   0.00000   0.00000
     28088 MEOH     1302     MEOH     H1A      HDA3B    0.080000        1.0080           0   0.00000   0.00000
     28089 MEOH     1302     MEOH     H1B      HDA3B    0.080000        1.0080           0   0.00000   0.00000
     28090 MEOH     1302     MEOH     H1C      HDA3B    0.080000        1.0080           0   0.00000   0.00000
     28091 MEOH     1302     MEOH     LP1A     LPD     -0.230000        0.0000           -1   0.00000   0.00000
     28092 MEOH     1302     MEOH     LP1B     LPD     -0.230000        0.0000           -1   0.00000   0.00000
     28093 MEOH     1303     MEOH     C1       CD33B    2.314100       11.6110           0   -1.00000   1.30000
     28094 MEOH     1303     MEOH     DC1      DRUD    -2.454100        0.4000           0   0.00000   0.00000
     28095 MEOH     1303     MEOH     O1       OD31H    2.488300       15.5990           0   -1.02800   1.30000
     28096 MEOH     1303     MEOH     DO1      DRUD    -2.488300        0.4000           0   0.00000   0.00000
     28097 MEOH     1303     MEOH     HO1      HDP1A    0.360000        1.0080           0   0.00000   0.00000
     28098 MEOH     1303     MEOH     HO2      DUMH     0.000000        1.0080           0   0.00000   0.00000
     28099 MEOH     1303     MEOH     H1A      HDA3B    0.080000        1.0080           0   0.00000   0.00000
     28100 MEOH     1303     MEOH     H1B      HDA3B    0.080000        1.0080           0   0.00000   0.00000
     28101 MEOH     1303     MEOH     H1C      HDA3B    0.080000        1.0080           0   0.00000   0.00000
     28102 MEOH     1303     MEOH     LP1A     LPD     -0.230000        0.0000           -1   0.00000   0.00000
     28103 MEOH     1303     MEOH     LP1B     LPD     -0.230000        0.0000           -1   0.00000   0.00000
     28104 MEOH     1304     MEOH     C1       CD33B    2.314100       11.6110           0   -1.00000   1.30000
     28105 MEOH     1304     MEOH     DC1      DRUD    -2.454100        0.4000           0   0.00000   0.00000
     28106 MEOH     1304     MEOH     O1       OD31H    2.488300       15.5990           0   -1.02800   1.30000
     28107 MEOH     1304     MEOH     DO1      DRUD    -2.488300        0.4000           0   0.00000   0.00000
     28108 MEOH     1304     MEOH     HO1      HDP1A    0.360000        1.0080           0   0.00000   0.00000
     28109 MEOH     1304     MEOH     HO2      DUMH     0.000000        1.0080           0   0.00000   0.00000
     28110 MEOH     1304     MEOH     H1A      HDA3B    0.080000        1.0080           0   0.00000   0.00000
     28111 MEOH     1304     MEOH     H1B      HDA3B    0.080000        1.0080           0   0.00000   0.00000
     28112 MEOH     1304     MEOH     H1C      HDA3B    0.080000        1.0080           0   0.00000   0.00000
     28113 MEOH     1304     MEOH     LP1A     LPD     -0.230000        0.0000           -1   0.00000   0.00000
     28114 MEOH     1304     MEOH     LP1B     LPD     -0.230000        0.0000           -1   0.00000   0.00000
     28115 MEOH     1305     MEOH     C1       CD33B    2.314100       11.6110           0   -1.00000   1.30000
     28116 MEOH     1305     MEOH     DC1      DRUD    -2.454100        0.4000           0   0.00000   0.00000
     28117 MEOH     1305     MEOH     O1       OD31H    2.488300       15.5990           0   -1.02800   1.30000
     28118 MEOH     1305     MEOH     DO1      DRUD    -2.488300        0.4000           0   0.00000   0.00000
     28119 MEOH     1305     MEOH     HO1      HDP1A    0.360000        1.0080           0   0.00000   0.00000
     28120 MEOH     1305     MEOH     HO2      DUMH     0.000000        1.0080           0   0.00000   0.00000
     28121 MEOH     1305     MEOH     H1A      HDA3B    0.080000        1.0080           0   0.00000   0.00000
     28122 MEOH     1305     MEOH     H1B      HDA3B    0.080000        1.0080           0   0.00000   0.00000
     28123 MEOH     1305     MEOH     H1C      HDA3B    0.080000        1.0080           0   0.00000   0.00000
     28124 MEOH     1305     MEOH     LP1A     LPD     -0.230000        0.0000           -1   0.00000   0.00000
     28125 MEOH     1305     MEOH     LP1B     LPD     -0.230000        0.0000           -1   0.00000   0.00000
     28126 MEOH     1306     MEOH     C1       CD33B    2.314100       11.6110           0   -1.00000   1.30000
     28127 MEOH     1306     MEOH     DC1      DRUD    -2.454100        0.4000           0   0.00000   0.00000
     28128 MEOH     1306     MEOH     O1       OD31H    2.488300       15.5990           0   -1.02800   1.30000
     28129 MEOH     1306     MEOH     DO1      DRUD    -2.488300        0.4000           0   0.00000   0.00000
     28130 MEOH     1306     MEOH     HO1      HDP1A    0.360000        1.0080           0   0.00000   0.00000
     28131 MEOH     1306     MEOH     HO2      DUMH     0.000000        1.0080           0   0.00000   0.00000
     28132 MEOH     1306     MEOH     H1A      HDA3B    0.080000        1.0080           0   0.00000   0.00000
     28133 MEOH     1306     MEOH     H1B      HDA3B    0.080000        1.0080           0   0.00000   0.00000
     28134 MEOH     1306     MEOH     H1C      HDA3B    0.080000        1.0080           0   0.00000   0.00000
     28135 MEOH     1306     MEOH     LP1A     LPD     -0.230000        0.0000           -1   0.00000   0.00000
     28136 MEOH     1306     MEOH     LP1B     LPD     -0.230000        0.0000           -1   0.00000   0.00000
     28137 MEOH     1307     MEOH     C1       CD33B    2.314100       11.6110           0   -1.00000   1.30000
     28138 MEOH     1307     MEOH     DC1      DRUD    -2.454100        0.4000           0   0.00000   0.00000
     28139 MEOH     1307     MEOH     O1       OD31H    2.488300       15.5990           0   -1.02800   1.30000
     28140 MEOH     1307     MEOH     DO1      DRUD    -2.488300        0.4000           0   0.00000   0.00000
     28141 MEOH     1307     MEOH     HO1      HDP1A    0.360000        1.0080           0   0.00000   0.00000
     28142 MEOH     1307     MEOH     HO2      DUMH     0.000000        1.0080           0   0.00000   0.00000
     28143 MEOH     1307     MEOH     H1A      HDA3B    0.080000        1.0080           0   0.00000   0.00000
     28144 MEOH     1307     MEOH     H1B      HDA3B    0.080000        1.0080           0   0.00000   0.00000
     28145 MEOH     1307     MEOH     H1C      HDA3B    0.080000        1.0080           0   0.00000   0.00000
     28146 MEOH     1307     MEOH     LP1A     LPD     -0.230000        0.0000           -1   0.00000   0.00000
     28147 MEOH     1307     MEOH     LP1B     LPD     -0.230000        0.0000           -1   0.00000   0.00000
     28148 MEOH     1308     MEOH     C1       CD33B    2.314100       11.6110           0   -1.00000   1.30000
     28149 MEOH     1308     MEOH     DC1      DRUD    -2.454100        0.4000           0   0.00000   0.00000
     28150 MEOH     1308     MEOH     O1       OD31H    2.488300       15.5990           0   -1.02800   1.30000
     28151 MEOH     1308     MEOH     DO1      DRUD    -2.488300        0.4000           0   0.00000   0.00000
     28152 MEOH     1308     MEOH     HO1      HDP1A    0.360000        1.0080           0   0.00000   0.00000
     28153 MEOH     1308     MEOH     HO2      DUMH     0.000000        1.0080           0   0.00000   0.00000
     28154 MEOH     1308     MEOH     H1A      HDA3B    0.080000        1.0080           0   0.00000   0.00000
     28155 MEOH     1308     MEOH     H1B      HDA3B    0.080000        1.0080           0   0.00000   0.00000
     28156 MEOH     1308     MEOH     H1C      HDA3B    0.080000        1.0080           0   0.00000   0.00000
     28157 MEOH     1308     MEOH     LP1A     LPD     -0.230000        0.0000           -1   0.00000   0.00000
     28158 MEOH     1308     MEOH     LP1B     LPD     -0.230000        0.0000           -1   0.00000   0.00000
     28159 MEOH     1309     MEOH     C1       CD33B    2.314100       11.6110           0   -1.00000   1.30000
     28160 MEOH     1309     MEOH     DC1      DRUD    -2.454100        0.4000           0   0.00000   0.00000
     28161 MEOH     1309     MEOH     O1       OD31H    2.488300       15.5990           0   -1.02800   1.30000
     28162 MEOH     1309     MEOH     DO1      DRUD    -2.488300        0.4000           0   0.00000   0.00000
     28163 MEOH     1309     MEOH     HO1      HDP1A    0.360000        1.0080           0   0.00000   0.00000
     28164 MEOH     1309     MEOH     HO2      DUMH     0.000000        1.0080           0   0.00000   0.00000
     28165 MEOH     1309     MEOH     H1A      HDA3B    0.080000        1.0080           0   0.00000   0.00000
     28166 MEOH     1309     MEOH     H1B      HDA3B    0.080000        1.0080           0   0.00000   0.00000
     28167 MEOH     1309     MEOH     H1C      HDA3B    0.080000        1.0080           0   0.00000   0.00000
     28168 MEOH     1309     MEOH     LP1A     LPD     -0.230000        0.0000           -1   0.00000   0.00000
     28169 MEOH     1309     MEOH     LP1B     LPD     -0.230000        0.0000           -1   0.00000   0.00000
     28170 MEOH     1310     MEOH     C1       CD33B    2.314100       11.6110           0   -1.00000   1.30000
     28171 MEOH     1310     MEOH     DC1      DRUD    -2.454100        0.4000           0   0.00000   0.00000
     28172 MEOH     1310     MEOH     O1       OD31H    2.488300       15.5990           0   -1.02800   1.30000
     28173 MEOH     1310     MEOH     DO1      DRUD    -2.488300        0.4000           0   0.00000   0.00000
     28174 MEOH     1310     MEOH     HO1      HDP1A    0.360000        1.0080           0   0.00000   0.00000
     28175 MEOH     1310     MEOH     HO2      DUMH     0.000000        1.0080           0   0.00000   0.00000
     28176 MEOH     1310     MEOH     H1A      HDA3B    0.080000        1.0080           0   0.00000   0.00000
     28177 MEOH     1310     MEOH     H1B      HDA3B    0.080000        1.0080           0   0.00000   0.00000
     28178 MEOH     1310     MEOH     H1C      HDA3B    0.080000        1.0080           0   0.00000   0.00000
     28179 MEOH     1310     MEOH     LP1A     LPD     -0.230000        0.0000           -1   0.00000   0.00000
     28180 MEOH     1310     MEOH     LP1B     LPD     -0.230000        0.0000           -1   0.00000   0.00000
     28181 MEOH     1311     MEOH     C1       CD33B    2.314100       11.6110           0   -1.00000   1.30000
     28182 MEOH     1311     MEOH     DC1      DRUD    -2.454100        0.4000           0   0.00000   0.00000
     28183 MEOH     1311     MEOH     O1       OD31H    2.488300       15.5990           0   -1.02800   1.30000
     28184 MEOH     1311     MEOH     DO1      DRUD    -2.488300        0.4000           0   0.00000   0.00000
     28185 MEOH     1311     MEOH     HO1      HDP1A    0.360000        1.0080           0   0.00000   0.00000
     28186 MEOH     1311     MEOH     HO2      DUMH     0.000000        1.0080           0   0.00000   0.00000
     28187 MEOH     1311     MEOH     H1A      HDA3B    0.080000        1.0080           0   0.00000   0.00000
     28188 MEOH     1311     MEOH     H1B      HDA3B    0.080000        1.0080           0   0.00000   0.00000
     28189 MEOH     1311     MEOH     H1C      HDA3B    0.080000        1.0080           0   0.00000   0.00000
     28190 MEOH     1311     MEOH     LP1A     LPD     -0.230000        0.0000           -1   0.00000   0.00000
     28191 MEOH     1311     MEOH     LP1B     LPD     -0.230000        0.0000           -1   0.00000   0.00000
     28192 MEOH     1312     MEOH     C1       CD33B    2.314100       11.6110           0   -1.00000   1.30000
     28193 MEOH     1312     MEOH     DC1      DRUD    -2.454100        0.4000           0   0.00000   0.00000
     28194 MEOH     1312     MEOH     O1       OD31H    2.488300       15.5990           0   -1.02800   1.30000
     28195 MEOH     1312     MEOH     DO1      DRUD    -2.488300        0.4000           0   0.00000   0.00000
     28196 MEOH     1312     MEOH     HO1      HDP1A    0.360000        1.0080           0   0.00000   0.00000
     28197 MEOH     1312     MEOH     HO2      DUMH     0.000000        1.0080           0   0.00000   0.00000
     28198 MEOH     1312     MEOH     H1A      HDA3B    0.080000        1.0080           0   0.00000   0.00000
     28199 MEOH     1312     MEOH     H1B      HDA3B    0.080000        1.0080           0   0.00000   0.00000
     28200 MEOH     1312     MEOH     H1C      HDA3B    0.080000        1.0080           0   0.00000   0.00000
     28201 MEOH     1312     MEOH     LP1A     LPD     -0.230000        0.0000           -1   0.00000   0.00000
     28202 MEOH     1312     MEOH     LP1B     LPD     -0.230000        0.0000           -1   0.00000   0.00000
     28203 MEOH     1313     MEOH     C1       CD33B    2.314100       11.6110           0   -1.00000   1.30000
     28204 MEOH     1313     MEOH     DC1      DRUD    -2.454100        0.4000           0   0.00000   0.00000
     28205 MEOH     1313     MEOH     O1       OD31H    2.488300       15.5990           0   -1.02800   1.30000
     28206 MEOH     1313     MEOH     DO1      DRUD    -2.488300        0.4000           0   0.00000   0.00000
     28207 MEOH     1313     MEOH     HO1      HDP1A    0.360000        1.0080           0   0.00000   0.00000
     28208 MEOH     1313     MEOH     HO2      DUMH     0.000000        1.0080           0   0.00000   0.00000
     28209 MEOH     1313     MEOH     H1A      HDA3B    0.080000        1.0080           0   0.00000   0.00000
     28210 MEOH     1313     MEOH     H1B      HDA3B    0.080000        1.0080           0   0.00000   0.00000
     28211 MEOH     1313     MEOH     H1C      HDA3B    0.080000        1.0080           0   0.00000   0.00000
     28212 MEOH     1313     MEOH     LP1A     LPD     -0.230000        0.0000           -1   0.00000   0.00000
     28213 MEOH     1313     MEOH     LP1B     LPD     -0.230000        0.0000           -1   0.00000   0.00000
     28214 MEOH     1314     MEOH     C1       CD33B    2.314100       11.6110           0   -1.00000   1.30000
     28215 MEOH     1314     MEOH     DC1      DRUD    -2.454100        0.4000           0   0.00000   0.00000
     28216 MEOH     1314     MEOH     O1       OD31H    2.488300       15.5990           0   -1.02800   1.30000
     28217 MEOH     1314     MEOH     DO1      DRUD    -2.488300        0.4000           0   0.00000   0.00000
     28218 MEOH     1314     MEOH     HO1      HDP1A    0.360000        1.0080           0   0.00000   0.00000
     28219 MEOH     1314     MEOH     HO2      DUMH     0.000000        1.0080           0   0.00000   0.00000
     28220 MEOH     1314     MEOH     H1A      HDA3B    0.080000        1.0080           0   0.00000   0.00000
     28221 MEOH     1314     MEOH     H1B      HDA3B    0.080000        1.0080           0   0.00000   0.00000
     28222 MEOH     1314     MEOH     H1C      HDA3B    0.080000        1.0080           0   0.00000   0.00000
     28223 MEOH     1314     MEOH     LP1A     LPD     -0.230000        0.0000           -1   0.00000   0.00000
     28224 MEOH     1314     MEOH     LP1B     LPD     -0.230000        0.0000           -1   0.00000   0.00000
     28225 MEOH     1315     MEOH     C1       CD33B    2.314100       11.6110           0   -1.00000   1.30000
     28226 MEOH     1315     MEOH     DC1      DRUD    -2.454100        0.4000           0   0.00000   0.00000
     28227 MEOH     1315     MEOH     O1       OD31H    2.488300       15.5990           0   -1.02800   1.30000
     28228 MEOH     1315     MEOH     DO1      DRUD    -2.488300        0.4000           0   0.00000   0.00000
     28229 MEOH     1315     MEOH     HO1      HDP1A    0.360000        1.0080           0   0.00000   0.00000
     28230 MEOH     1315     MEOH     HO2      DUMH     0.000000        1.0080           0   0.00000   0.00000
     28231 MEOH     1315     MEOH     H1A      HDA3B    0.080000        1.0080           0   0.00000   0.00000
     28232 MEOH     1315     MEOH     H1B      HDA3B    0.080000        1.0080           0   0.00000   0.00000
     28233 MEOH     1315     MEOH     H1C      HDA3B    0.080000        1.0080           0   0.00000   0.00000
     28234 MEOH     1315     MEOH     LP1A     LPD     -0.230000        0.0000           -1   0.00000   0.00000
     28235 MEOH     1315     MEOH     LP1B     LPD     -0.230000        0.0000           -1   0.00000   0.00000
     28236 MEOH     1316     MEOH     C1       CD33B    2.314100       11.6110           0   -1.00000   1.30000
     28237 MEOH     1316     MEOH     DC1      DRUD    -2.454100        0.4000           0   0.00000   0.00000
     28238 MEOH     1316     MEOH     O1       OD31H    2.488300       15.5990           0   -1.02800   1.30000
     28239 MEOH     1316     MEOH     DO1      DRUD    -2.488300        0.4000           0   0.00000   0.00000
     28240 MEOH     1316     MEOH     HO1      HDP1A    0.360000        1.0080           0   0.00000   0.00000
     28241 MEOH     1316     MEOH     HO2      DUMH     0.000000        1.0080           0   0.00000   0.00000
     28242 MEOH     1316     MEOH     H1A      HDA3B    0.080000        1.0080           0   0.00000   0.00000
     28243 MEOH     1316     MEOH     H1B      HDA3B    0.080000        1.0080           0   0.00000   0.00000
     28244 MEOH     1316     MEOH     H1C      HDA3B    0.080000        1.0080           0   0.00000   0.00000
     28245 MEOH     1316     MEOH     LP1A     LPD     -0.230000        0.0000           -1   0.00000   0.00000
     28246 MEOH     1316     MEOH     LP1B     LPD     -0.230000        0.0000           -1   0.00000   0.00000
     28247 MEOH     1317     MEOH     C1       CD33B    2.314100       11.6110           0   -1.00000   1.30000
     28248 MEOH     1317     MEOH     DC1      DRUD    -2.454100        0.4000           0   0.00000   0.00000
     28249 MEOH     1317     MEOH     O1       OD31H    2.488300       15.5990           0   -1.02800   1.30000
     28250 MEOH     1317     MEOH     DO1      DRUD    -2.488300        0.4000           0   0.00000   0.00000
     28251 MEOH     1317     MEOH     HO1      HDP1A    0.360000        1.0080           0   0.00000   0.00000
     28252 MEOH     1317     MEOH     HO2      DUMH     0.000000        1.0080           0   0.00000   0.00000
     28253 MEOH     1317     MEOH     H1A      HDA3B    0.080000        1.0080           0   0.00000   0.00000
     28254 MEOH     1317     MEOH     H1B      HDA3B    0.080000        1.0080           0   0.00000   0.00000
     28255 MEOH     1317     MEOH     H1C      HDA3B    0.080000        1.0080           0   0.00000   0.00000
     28256 MEOH     1317     MEOH     LP1A     LPD     -0.230000        0.0000           -1   0.00000   0.00000
     28257 MEOH     1317     MEOH     LP1B     LPD     -0.230000        0.0000           -1   0.00000   0.00000
     28258 MEOH     1318     MEOH     C1       CD33B    2.314100       11.6110           0   -1.00000   1.30000
     28259 MEOH     1318     MEOH     DC1      DRUD    -2.454100        0.4000           0   0.00000   0.00000
     28260 MEOH     1318     MEOH     O1       OD31H    2.488300       15.5990           0   -1.02800   1.30000
     28261 MEOH     1318     MEOH     DO1      DRUD    -2.488300        0.4000           0   0.00000   0.00000
     28262 MEOH     1318     MEOH     HO1      HDP1A    0.360000        1.0080           0   0.00000   0.00000
     28263 MEOH     1318     MEOH     HO2      DUMH     0.000000        1.0080           0   0.00000   0.00000
     28264 MEOH     1318     MEOH     H1A      HDA3B    0.080000        1.0080           0   0.00000   0.00000
     28265 MEOH     1318     MEOH     H1B      HDA3B    0.080000        1.0080           0   0.00000   0.00000
     28266 MEOH     1318     MEOH     H1C      HDA3B    0.080000        1.0080           0   0.00000   0.00000
     28267 MEOH     1318     MEOH     LP1A     LPD     -0.230000        0.0000           -1   0.00000   0.00000
     28268 MEOH     1318     MEOH     LP1B     LPD     -0.230000        0.0000           -1   0.00000   0.00000
     28269 MEOH     1319     MEOH     C1       CD33B    2.314100       11.6110           0   -1.00000   1.30000
     28270 MEOH     1319     MEOH     DC1      DRUD    -2.454100        0.4000           0   0.00000   0.00000
     28271 MEOH     1319     MEOH     O1       OD31H    2.488300       15.5990           0   -1.02800   1.30000
     28272 MEOH     1319     MEOH     DO1      DRUD    -2.488300        0.4000           0   0.00000   0.00000
     28273 MEOH     1319     MEOH     HO1      HDP1A    0.360000        1.0080           0   0.00000   0.00000
     28274 MEOH     1319     MEOH     HO2      DUMH     0.000000        1.0080           0   0.00000   0.00000
     28275 MEOH     1319     MEOH     H1A      HDA3B    0.080000        1.0080           0   0.00000   0.00000
     28276 MEOH     1319     MEOH     H1B      HDA3B    0.080000        1.0080           0   0.00000   0.00000
     28277 MEOH     1319     MEOH     H1C      HDA3B    0.080000        1.0080           0   0.00000   0.00000
     28278 MEOH     1319     MEOH     LP1A     LPD     -0.230000        0.0000           -1   0.00000   0.00000
     28279 MEOH     1319     MEOH     LP1B     LPD     -0.230000        0.0000           -1   0.00000   0.00000
     28280 MEOH     1320     MEOH     C1       CD33B    2.314100       11.6110           0   -1.00000   1.30000
     28281 MEOH     1320     MEOH     DC1      DRUD    -2.454100        0.4000           0   0.00000   0.00000
     28282 MEOH     1320     MEOH     O1       OD31H    2.488300       15.5990           0   -1.02800   1.30000
     28283 MEOH     1320     MEOH     DO1      DRUD    -2.488300        0.4000           0   0.00000   0.00000
     28284 MEOH     1320     MEOH     HO1      HDP1A    0.360000        1.0080           0   0.00000   0.00000
     28285 MEOH     1320     MEOH     HO2      DUMH     0.000000        1.0080           0   0.00000   0.00000
     28286 MEOH     1320     MEOH     H1A      HDA3B    0.080000        1.0080           0   0.00000   0.00000
     28287 MEOH     1320     MEOH     H1B      HDA3B    0.080000        1.0080           0   0.00000   0.00000
     28288 MEOH     1320     MEOH     H1C      HDA3B    0.080000        1.0080           0   0.00000   0.00000
     28289 MEOH     1320     MEOH     LP1A     LPD     -0.230000        0.0000           -1   0.00000   0.00000
     28290 MEOH     1320     MEOH     LP1B     LPD     -0.230000        0.0000           -1   0.00000   0.00000
     28291 MEOH     1321     MEOH     C1       CD33B    2.314100       11.6110           0   -1.00000   1.30000
     28292 MEOH     1321     MEOH     DC1      DRUD    -2.454100        0.4000           0   0.00000   0.00000
     28293 MEOH     1321     MEOH     O1       OD31H    2.488300       15.5990           0   -1.02800   1.30000
     28294 MEOH     1321     MEOH     DO1      DRUD    -2.488300        0.4000           0   0.00000   0.00000
     28295 MEOH     1321     MEOH     HO1      HDP1A    0.360000        1.0080           0   0.00000   0.00000
     28296 MEOH     1321     MEOH     HO2      DUMH     0.000000        1.0080           0   0.00000   0.00000
     28297 MEOH     1321     MEOH     H1A      HDA3B    0.080000        1.0080           0   0.00000   0.00000
     28298 MEOH     1321     MEOH     H1B      HDA3B    0.080000        1.0080           0   0.00000   0.00000
     28299 MEOH     1321     MEOH     H1C      HDA3B    0.080000        1.0080           0   0.00000   0.00000
     28300 MEOH     1321     MEOH     LP1A     LPD     -0.230000        0.0000           -1   0.00000   0.00000
     28301 MEOH     1321     MEOH     LP1B     LPD     -0.230000        0.0000           -1   0.00000   0.00000
     28302 MEOH     1322     MEOH     C1       CD33B    2.314100       11.6110           0   -1.00000   1.30000
     28303 MEOH     1322     MEOH     DC1      DRUD    -2.454100        0.4000           0   0.00000   0.00000
     28304 MEOH     1322     MEOH     O1       OD31H    2.488300       15.5990           0   -1.02800   1.30000
     28305 MEOH     1322     MEOH     DO1      DRUD    -2.488300        0.4000           0   0.00000   0.00000
     28306 MEOH     1322     MEOH     HO1      HDP1A    0.360000        1.0080           0   0.00000   0.00000
     28307 MEOH     1322     MEOH     HO2      DUMH     0.000000        1.0080           0   0.00000   0.00000
     28308 MEOH     1322     MEOH     H1A      HDA3B    0.080000        1.0080           0   0.00000   0.00000
     28309 MEOH     1322     MEOH     H1B      HDA3B    0.080000        1.0080           0   0.00000   0.00000
     28310 MEOH     1322     MEOH     H1C      HDA3B    0.080000        1.0080           0   0.00000   0.00000
     28311 MEOH     1322     MEOH     LP1A     LPD     -0.230000        0.0000           -1   0.00000   0.00000
     28312 MEOH     1322     MEOH     LP1B     LPD     -0.230000        0.0000           -1   0.00000   0.00000
     28313 MEOH     1323     MEOH     C1       CD33B    2.314100       11.6110           0   -1.00000   1.30000
     28314 MEOH     1323     MEOH     DC1      DRUD    -2.454100        0.4000           0   0.00000   0.00000
     28315 MEOH     1323     MEOH     O1       OD31H    2.488300       15.5990           0   -1.02800   1.30000
     28316 MEOH     1323     MEOH     DO1      DRUD    -2.488300        0.4000           0   0.00000   0.00000
     28317 MEOH     1323     MEOH     HO1      HDP1A    0.360000        1.0080           0   0.00000   0.00000
     28318 MEOH     1323     MEOH     HO2      DUMH     0.000000        1.0080           0   0.00000   0.00000
     28319 MEOH     1323     MEOH     H1A      HDA3B    0.080000        1.0080           0   0.00000   0.00000
     28320 MEOH     1323     MEOH     H1B      HDA3B    0.080000        1.0080           0   0.00000   0.00000
     28321 MEOH     1323     MEOH     H1C      HDA3B    0.080000        1.0080           0   0.00000   0.00000
     28322 MEOH     1323     MEOH     LP1A     LPD     -0.230000        0.0000           -1   0.00000   0.00000
     28323 MEOH     1323     MEOH     LP1B     LPD     -0.230000        0.0000           -1   0.00000   0.00000
     28324 MEOH     1324     MEOH     C1       CD33B    2.314100       11.6110           0   -1.00000   1.30000
     28325 MEOH     1324     MEOH     DC1      DRUD    -2.454100        0.4000           0   0.00000   0.00000
     28326 MEOH     1324     MEOH     O1       OD31H    2.488300       15.5990           0   -1.02800   1.30000
     28327 MEOH     1324     MEOH     DO1      DRUD    -2.488300        0.4000           0   0.00000   0.00000
     28328 MEOH     1324     MEOH     HO1      HDP1A    0.360000        1.0080           0   0.00000   0.00000
     28329 MEOH     1324     MEOH     HO2      DUMH     0.000000        1.0080           0   0.00000   0.00000
     28330 MEOH     1324     MEOH     H1A      HDA3B    0.080000        1.0080           0   0.00000   0.00000
     28331 MEOH     1324     MEOH     H1B      HDA3B    0.080000        1.0080           0   0.00000   0.00000
     28332 MEOH     1324     MEOH     H1C      HDA3B    0.080000        1.0080           0   0.00000   0.00000
     28333 MEOH     1324     MEOH     LP1A     LPD     -0.230000        0.0000           -1   0.00000   0.00000
     28334 MEOH     1324     MEOH     LP1B     LPD     -0.230000        0.0000           -1   0.00000   0.00000
     28335 MEOH     1325     MEOH     C1       CD33B    2.314100       11.6110           0   -1.00000   1.30000
     28336 MEOH     1325     MEOH     DC1      DRUD    -2.454100        0.4000           0   0.00000   0.00000
     28337 MEOH     1325     MEOH     O1       OD31H    2.488300       15.5990           0   -1.02800   1.30000
     28338 MEOH     1325     MEOH     DO1      DRUD    -2.488300        0.4000           0   0.00000   0.00000
     28339 MEOH     1325     MEOH     HO1      HDP1A    0.360000        1.0080           0   0.00000   0.00000
     28340 MEOH     1325     MEOH     HO2      DUMH     0.000000        1.0080           0   0.00000   0.00000
     28341 MEOH     1325     MEOH     H1A      HDA3B    0.080000        1.0080           0   0.00000   0.00000
     28342 MEOH     1325     MEOH     H1B      HDA3B    0.080000        1.0080           0   0.00000   0.00000
     28343 MEOH     1325     MEOH     H1C      HDA3B    0.080000        1.0080           0   0.00000   0.00000
     28344 MEOH     1325     MEOH     LP1A     LPD     -0.230000        0.0000           -1   0.00000   0.00000
     28345 MEOH     1325     MEOH     LP1B     LPD     -0.230000        0.0000           -1   0.00000   0.00000
     28346 MEOH     1326     MEOH     C1       CD33B    2.314100       11.6110           0   -1.00000   1.30000
     28347 MEOH     1326     MEOH     DC1      DRUD    -2.454100        0.4000           0   0.00000   0.00000
     28348 MEOH     1326     MEOH     O1       OD31H    2.488300       15.5990           0   -1.02800   1.30000
     28349 MEOH     1326     MEOH     DO1      DRUD    -2.488300        0.4000           0   0.00000   0.00000
     28350 MEOH     1326     MEOH     HO1      HDP1A    0.360000        1.0080           0   0.00000   0.00000
     28351 MEOH     1326     MEOH     HO2      DUMH     0.000000        1.0080           0   0.00000   0.00000
     28352 MEOH     1326     MEOH     H1A      HDA3B    0.080000        1.0080           0   0.00000   0.00000
     28353 MEOH     1326     MEOH     H1B      HDA3B    0.080000        1.0080           0   0.00000   0.00000
     28354 MEOH     1326     MEOH     H1C      HDA3B    0.080000        1.0080           0   0.00000   0.00000
     28355 MEOH     1326     MEOH     LP1A     LPD     -0.230000        0.0000           -1   0.00000   0.00000
     28356 MEOH     1326     MEOH     LP1B     LPD     -0.230000        0.0000           -1   0.00000   0.00000
     28357 MEOH     1327     MEOH     C1       CD33B    2.314100       11.6110           0   -1.00000   1.30000
     28358 MEOH     1327     MEOH     DC1      DRUD    -2.454100        0.4000           0   0.00000   0.00000
     28359 MEOH     1327     MEOH     O1       OD31H    2.488300       15.5990           0   -1.02800   1.30000
     28360 MEOH     1327     MEOH     DO1      DRUD    -2.488300        0.4000           0   0.00000   0.00000
     28361 MEOH     1327     MEOH     HO1      HDP1A    0.360000        1.0080           0   0.00000   0.00000
     28362 MEOH     1327     MEOH     HO2      DUMH     0.000000        1.0080           0   0.00000   0.00000
     28363 MEOH     1327     MEOH     H1A      HDA3B    0.080000        1.0080           0   0.00000   0.00000
     28364 MEOH     1327     MEOH     H1B      HDA3B    0.080000        1.0080           0   0.00000   0.00000
     28365 MEOH     1327     MEOH     H1C      HDA3B    0.080000        1.0080           0   0.00000   0.00000
     28366 MEOH     1327     MEOH     LP1A     LPD     -0.230000        0.0000           -1   0.00000   0.00000
     28367 MEOH     1327     MEOH     LP1B     LPD     -0.230000        0.0000           -1   0.00000   0.00000
     28368 MEOH     1328     MEOH     C1       CD33B    2.314100       11.6110           0   -1.00000   1.30000
     28369 MEOH     1328     MEOH     DC1      DRUD    -2.454100        0.4000           0   0.00000   0.00000
     28370 MEOH     1328     MEOH     O1       OD31H    2.488300       15.5990           0   -1.02800   1.30000
     28371 MEOH     1328     MEOH     DO1      DRUD    -2.488300        0.4000           0   0.00000   0.00000
     28372 MEOH     1328     MEOH     HO1      HDP1A    0.360000        1.0080           0   0.00000   0.00000
     28373 MEOH     1328     MEOH     HO2      DUMH     0.000000        1.0080           0   0.00000   0.00000
     28374 MEOH     1328     MEOH     H1A      HDA3B    0.080000        1.0080           0   0.00000   0.00000
     28375 MEOH     1328     MEOH     H1B      HDA3B    0.080000        1.0080           0   0.00000   0.00000
     28376 MEOH     1328     MEOH     H1C      HDA3B    0.080000        1.0080           0   0.00000   0.00000
     28377 MEOH     1328     MEOH     LP1A     LPD     -0.230000        0.0000           -1   0.00000   0.00000
     28378 MEOH     1328     MEOH     LP1B     LPD     -0.230000        0.0000           -1   0.00000   0.00000
     28379 MEOH     1329     MEOH     C1       CD33B    2.314100       11.6110           0   -1.00000   1.30000
     28380 MEOH     1329     MEOH     DC1      DRUD    -2.454100        0.4000           0   0.00000   0.00000
     28381 MEOH     1329     MEOH     O1       OD31H    2.488300       15.5990           0   -1.02800   1.30000
     28382 MEOH     1329     MEOH     DO1      DRUD    -2.488300        0.4000           0   0.00000   0.00000
     28383 MEOH     1329     MEOH     HO1      HDP1A    0.360000        1.0080           0   0.00000   0.00000
     28384 MEOH     1329     MEOH     HO2      DUMH     0.000000        1.0080           0   0.00000   0.00000
     28385 MEOH     1329     MEOH     H1A      HDA3B    0.080000        1.0080           0   0.00000   0.00000
     28386 MEOH     1329     MEOH     H1B      HDA3B    0.080000        1.0080           0   0.00000   0.00000
     28387 MEOH     1329     MEOH     H1C      HDA3B    0.080000        1.0080           0   0.00000   0.00000
     28388 MEOH     1329     MEOH     LP1A     LPD     -0.230000        0.0000           -1   0.00000   0.00000
     28389 MEOH     1329     MEOH     LP1B     LPD     -0.230000        0.0000           -1   0.00000   0.00000
     28390 MEOH     1330     MEOH     C1       CD33B    2.314100       11.6110           0   -1.00000   1.30000
     28391 MEOH     1330     MEOH     DC1      DRUD    -2.454100        0.4000           0   0.00000   0.00000
     28392 MEOH     1330     MEOH     O1       OD31H    2.488300       15.5990           0   -1.02800   1.30000
     28393 MEOH     1330     MEOH     DO1      DRUD    -2.488300        0.4000           0   0.00000   0.00000
     28394 MEOH     1330     MEOH     HO1      HDP1A    0.360000        1.0080           0   0.00000   0.00000
     28395 MEOH     1330     MEOH     HO2      DUMH     0.000000        1.0080           0   0.00000   0.00000
     28396 MEOH     1330     MEOH     H1A      HDA3B    0.080000        1.0080           0   0.00000   0.00000
     28397 MEOH     1330     MEOH     H1B      HDA3B    0.080000        1.0080           0   0.00000   0.00000
     28398 MEOH     1330     MEOH     H1C      HDA3B    0.080000        1.0080           0   0.00000   0.00000
     28399 MEOH     1330     MEOH     LP1A     LPD     -0.230000        0.0000           -1   0.00000   0.00000
     28400 MEOH     1330     MEOH     LP1B     LPD     -0.230000        0.0000           -1   0.00000   0.00000
     28401 MEOH     1331     MEOH     C1       CD33B    2.314100       11.6110           0   -1.00000   1.30000
     28402 MEOH     1331     MEOH     DC1      DRUD    -2.454100        0.4000           0   0.00000   0.00000
     28403 MEOH     1331     MEOH     O1       OD31H    2.488300       15.5990           0   -1.02800   1.30000
     28404 MEOH     1331     MEOH     DO1      DRUD    -2.488300        0.4000           0   0.00000   0.00000
     28405 MEOH     1331     MEOH     HO1      HDP1A    0.360000        1.0080           0   0.00000   0.00000
     28406 MEOH     1331     MEOH     HO2      DUMH     0.000000        1.0080           0   0.00000   0.00000
     28407 MEOH     1331     MEOH     H1A      HDA3B    0.080000        1.0080           0   0.00000   0.00000
     28408 MEOH     1331     MEOH     H1B      HDA3B    0.080000        1.0080           0   0.00000   0.00000
     28409 MEOH     1331     MEOH     H1C      HDA3B    0.080000        1.0080           0   0.00000   0.00000
     28410 MEOH     1331     MEOH     LP1A     LPD     -0.230000        0.0000           -1   0.00000   0.00000
     28411 MEOH     1331     MEOH     LP1B     LPD     -0.230000        0.0000           -1   0.00000   0.00000
     28412 MEOH     1332     MEOH     C1       CD33B    2.314100       11.6110           0   -1.00000   1.30000
     28413 MEOH     1332     MEOH     DC1      DRUD    -2.454100        0.4000           0   0.00000   0.00000
     28414 MEOH     1332     MEOH     O1       OD31H    2.488300       15.5990           0   -1.02800   1.30000
     28415 MEOH     1332     MEOH     DO1      DRUD    -2.488300        0.4000           0   0.00000   0.00000
     28416 MEOH     1332     MEOH     HO1      HDP1A    0.360000        1.0080           0   0.00000   0.00000
     28417 MEOH     1332     MEOH     HO2      DUMH     0.000000        1.0080           0   0.00000   0.00000
     28418 MEOH     1332     MEOH     H1A      HDA3B    0.080000        1.0080           0   0.00000   0.00000
     28419 MEOH     1332     MEOH     H1B      HDA3B    0.080000        1.0080           0   0.00000   0.00000
     28420 MEOH     1332     MEOH     H1C      HDA3B    0.080000        1.0080           0   0.00000   0.00000
     28421 MEOH     1332     MEOH     LP1A     LPD     -0.230000        0.0000           -1   0.00000   0.00000
     28422 MEOH     1332     MEOH     LP1B     LPD     -0.230000        0.0000           -1   0.00000   0.00000
     28423 MEOH     1333     MEOH     C1       CD33B    2.314100       11.6110           0   -1.00000   1.30000
     28424 MEOH     1333     MEOH     DC1      DRUD    -2.454100        0.4000           0   0.00000   0.00000
     28425 MEOH     1333     MEOH     O1       OD31H    2.488300       15.5990           0   -1.02800   1.30000
     28426 MEOH     1333     MEOH     DO1      DRUD    -2.488300        0.4000           0   0.00000   0.00000
     28427 MEOH     1333     MEOH     HO1      HDP1A    0.360000        1.0080           0   0.00000   0.00000
     28428 MEOH     1333     MEOH     HO2      DUMH     0.000000        1.0080           0   0.00000   0.00000
     28429 MEOH     1333     MEOH     H1A      HDA3B    0.080000        1.0080           0   0.00000   0.00000
     28430 MEOH     1333     MEOH     H1B      HDA3B    0.080000        1.0080           0   0.00000   0.00000
     28431 MEOH     1333     MEOH     H1C      HDA3B    0.080000        1.0080           0   0.00000   0.00000
     28432 MEOH     1333     MEOH     LP1A     LPD     -0.230000        0.0000           -1   0.00000   0.00000
     28433 MEOH     1333     MEOH     LP1B     LPD     -0.230000        0.0000           -1   0.00000   0.00000
     28434 MEOH     1334     MEOH     C1       CD33B    2.314100       11.6110           0   -1.00000   1.30000
     28435 MEOH     1334     MEOH     DC1      DRUD    -2.454100        0.4000           0   0.00000   0.00000
     28436 MEOH     1334     MEOH     O1       OD31H    2.488300       15.5990           0   -1.02800   1.30000
     28437 MEOH     1334     MEOH     DO1      DRUD    -2.488300        0.4000           0   0.00000   0.00000
     28438 MEOH     1334     MEOH     HO1      HDP1A    0.360000        1.0080           0   0.00000   0.00000
     28439 MEOH     1334     MEOH     HO2      DUMH     0.000000        1.0080           0   0.00000   0.00000
     28440 MEOH     1334     MEOH     H1A      HDA3B    0.080000        1.0080           0   0.00000   0.00000
     28441 MEOH     1334     MEOH     H1B      HDA3B    0.080000        1.0080           0   0.00000   0.00000
     28442 MEOH     1334     MEOH     H1C      HDA3B    0.080000        1.0080           0   0.00000   0.00000
     28443 MEOH     1334     MEOH     LP1A     LPD     -0.230000        0.0000           -1   0.00000   0.00000
     28444 MEOH     1334     MEOH     LP1B     LPD     -0.230000        0.0000           -1   0.00000   0.00000
     28445 MEOH     1335     MEOH     C1       CD33B    2.314100       11.6110           0   -1.00000   1.30000
     28446 MEOH     1335     MEOH     DC1      DRUD    -2.454100        0.4000           0   0.00000   0.00000
     28447 MEOH     1335     MEOH     O1       OD31H    2.488300       15.5990           0   -1.02800   1.30000
     28448 MEOH     1335     MEOH     DO1      DRUD    -2.488300        0.4000           0   0.00000   0.00000
     28449 MEOH     1335     MEOH     HO1      HDP1A    0.360000        1.0080           0   0.00000   0.00000
     28450 MEOH     1335     MEOH     HO2      DUMH     0.000000        1.0080           0   0.00000   0.00000
     28451 MEOH     1335     MEOH     H1A      HDA3B    0.080000        1.0080           0   0.00000   0.00000
     28452 MEOH     1335     MEOH     H1B      HDA3B    0.080000        1.0080           0   0.00000   0.00000
     28453 MEOH     1335     MEOH     H1C      HDA3B    0.080000        1.0080           0   0.00000   0.00000
     28454 MEOH     1335     MEOH     LP1A     LPD     -0.230000        0.0000           -1   0.00000   0.00000
     28455 MEOH     1335     MEOH     LP1B     LPD     -0.230000        0.0000           -1   0.00000   0.00000
     28456 MEOH     1336     MEOH     C1       CD33B    2.314100       11.6110           0   -1.00000   1.30000
     28457 MEOH     1336     MEOH     DC1      DRUD    -2.454100        0.4000           0   0.00000   0.00000
     28458 MEOH     1336     MEOH     O1       OD31H    2.488300       15.5990           0   -1.02800   1.30000
     28459 MEOH     1336     MEOH     DO1      DRUD    -2.488300        0.4000           0   0.00000   0.00000
     28460 MEOH     1336     MEOH     HO1      HDP1A    0.360000        1.0080           0   0.00000   0.00000
     28461 MEOH     1336     MEOH     HO2      DUMH     0.000000        1.0080           0   0.00000   0.00000
     28462 MEOH     1336     MEOH     H1A      HDA3B    0.080000        1.0080           0   0.00000   0.00000
     28463 MEOH     1336     MEOH     H1B      HDA3B    0.080000        1.0080           0   0.00000   0.00000
     28464 MEOH     1336     MEOH     H1C      HDA3B    0.080000        1.0080           0   0.00000   0.00000
     28465 MEOH     1336     MEOH     LP1A     LPD     -0.230000        0.0000           -1   0.00000   0.00000
     28466 MEOH     1336     MEOH     LP1B     LPD     -0.230000        0.0000           -1   0.00000   0.00000
     28467 MEOH     1337     MEOH     C1       CD33B    2.314100       11.6110           0   -1.00000   1.30000
     28468 MEOH     1337     MEOH     DC1      DRUD    -2.454100        0.4000           0   0.00000   0.00000
     28469 MEOH     1337     MEOH     O1       OD31H    2.488300       15.5990           0   -1.02800   1.30000
     28470 MEOH     1337     MEOH     DO1      DRUD    -2.488300        0.4000           0   0.00000   0.00000
     28471 MEOH     1337     MEOH     HO1      HDP1A    0.360000        1.0080           0   0.00000   0.00000
     28472 MEOH     1337     MEOH     HO2      DUMH     0.000000        1.0080           0   0.00000   0.00000
     28473 MEOH     1337     MEOH     H1A      HDA3B    0.080000        1.0080           0   0.00000   0.00000
     28474 MEOH     1337     MEOH     H1B      HDA3B    0.080000        1.0080           0   0.00000   0.00000
     28475 MEOH     1337     MEOH     H1C      HDA3B    0.080000        1.0080           0   0.00000   0.00000
     28476 MEOH     1337     MEOH     LP1A     LPD     -0.230000        0.0000           -1   0.00000   0.00000
     28477 MEOH     1337     MEOH     LP1B     LPD     -0.230000        0.0000           -1   0.00000   0.00000
     28478 MEOH     1338     MEOH     C1       CD33B    2.314100       11.6110           0   -1.00000   1.30000
     28479 MEOH     1338     MEOH     DC1      DRUD    -2.454100        0.4000           0   0.00000   0.00000
     28480 MEOH     1338     MEOH     O1       OD31H    2.488300       15.5990           0   -1.02800   1.30000
     28481 MEOH     1338     MEOH     DO1      DRUD    -2.488300        0.4000           0   0.00000   0.00000
     28482 MEOH     1338     MEOH     HO1      HDP1A    0.360000        1.0080           0   0.00000   0.00000
     28483 MEOH     1338     MEOH     HO2      DUMH     0.000000        1.0080           0   0.00000   0.00000
     28484 MEOH     1338     MEOH     H1A      HDA3B    0.080000        1.0080           0   0.00000   0.00000
     28485 MEOH     1338     MEOH     H1B      HDA3B    0.080000        1.0080           0   0.00000   0.00000
     28486 MEOH     1338     MEOH     H1C      HDA3B    0.080000        1.0080           0   0.00000   0.00000
     28487 MEOH     1338     MEOH     LP1A     LPD     -0.230000        0.0000           -1   0.00000   0.00000
     28488 MEOH     1338     MEOH     LP1B     LPD     -0.230000        0.0000           -1   0.00000   0.00000
     28489 MEOH     1339     MEOH     C1       CD33B    2.314100       11.6110           0   -1.00000   1.30000
     28490 MEOH     1339     MEOH     DC1      DRUD    -2.454100        0.4000           0   0.00000   0.00000
     28491 MEOH     1339     MEOH     O1       OD31H    2.488300       15.5990           0   -1.02800   1.30000
     28492 MEOH     1339     MEOH     DO1      DRUD    -2.488300        0.4000           0   0.00000   0.00000
     28493 MEOH     1339     MEOH     HO1      HDP1A    0.360000        1.0080           0   0.00000   0.00000
     28494 MEOH     1339     MEOH     HO2      DUMH     0.000000        1.0080           0   0.00000   0.00000
     28495 MEOH     1339     MEOH     H1A      HDA3B    0.080000        1.0080           0   0.00000   0.00000
     28496 MEOH     1339     MEOH     H1B      HDA3B    0.080000        1.0080           0   0.00000   0.00000
     28497 MEOH     1339     MEOH     H1C      HDA3B    0.080000        1.0080           0   0.00000   0.00000
     28498 MEOH     1339     MEOH     LP1A     LPD     -0.230000        0.0000           -1   0.00000   0.00000
     28499 MEOH     1339     MEOH     LP1B     LPD     -0.230000        0.0000           -1   0.00000   0.00000
     28500 MEOH     1340     MEOH     C1       CD33B    2.314100       11.6110           0   -1.00000   1.30000
     28501 MEOH     1340     MEOH     DC1      DRUD    -2.454100        0.4000           0   0.00000   0.00000
     28502 MEOH     1340     MEOH     O1       OD31H    2.488300       15.5990           0   -1.02800   1.30000
     28503 MEOH     1340     MEOH     DO1      DRUD    -2.488300        0.4000           0   0.00000   0.00000
     28504 MEOH     1340     MEOH     HO1      HDP1A    0.360000        1.0080           0   0.00000   0.00000
     28505 MEOH     1340     MEOH     HO2      DUMH     0.000000        1.0080           0   0.00000   0.00000
     28506 MEOH     1340     MEOH     H1A      HDA3B    0.080000        1.0080           0   0.00000   0.00000
     28507 MEOH     1340     MEOH     H1B      HDA3B    0.080000        1.0080           0   0.00000   0.00000
     28508 MEOH     1340     MEOH     H1C      HDA3B    0.080000        1.0080           0   0.00000   0.00000
     28509 MEOH     1340     MEOH     LP1A     LPD     -0.230000        0.0000           -1   0.00000   0.00000
     28510 MEOH     1340     MEOH     LP1B     LPD     -0.230000        0.0000           -1   0.00000   0.00000
     28511 MEOH     1341     MEOH     C1       CD33B    2.314100       11.6110           0   -1.00000   1.30000
     28512 MEOH     1341     MEOH     DC1      DRUD    -2.454100        0.4000           0   0.00000   0.00000
     28513 MEOH     1341     MEOH     O1       OD31H    2.488300       15.5990           0   -1.02800   1.30000
     28514 MEOH     1341     MEOH     DO1      DRUD    -2.488300        0.4000           0   0.00000   0.00000
     28515 MEOH     1341     MEOH     HO1      HDP1A    0.360000        1.0080           0   0.00000   0.00000
     28516 MEOH     1341     MEOH     HO2      DUMH     0.000000        1.0080           0   0.00000   0.00000
     28517 MEOH     1341     MEOH     H1A      HDA3B    0.080000        1.0080           0   0.00000   0.00000
     28518 MEOH     1341     MEOH     H1B      HDA3B    0.080000        1.0080           0   0.00000   0.00000
     28519 MEOH     1341     MEOH     H1C      HDA3B    0.080000        1.0080           0   0.00000   0.00000
     28520 MEOH     1341     MEOH     LP1A     LPD     -0.230000        0.0000           -1   0.00000   0.00000
     28521 MEOH     1341     MEOH     LP1B     LPD     -0.230000        0.0000           -1   0.00000   0.00000
     28522 MEOH     1342     MEOH     C1       CD33B    2.314100       11.6110           0   -1.00000   1.30000
     28523 MEOH     1342     MEOH     DC1      DRUD    -2.454100        0.4000           0   0.00000   0.00000
     28524 MEOH     1342     MEOH     O1       OD31H    2.488300       15.5990           0   -1.02800   1.30000
     28525 MEOH     1342     MEOH     DO1      DRUD    -2.488300        0.4000           0   0.00000   0.00000
     28526 MEOH     1342     MEOH     HO1      HDP1A    0.360000        1.0080           0   0.00000   0.00000
     28527 MEOH     1342     MEOH     HO2      DUMH     0.000000        1.0080           0   0.00000   0.00000
     28528 MEOH     1342     MEOH     H1A      HDA3B    0.080000        1.0080           0   0.00000   0.00000
     28529 MEOH     1342     MEOH     H1B      HDA3B    0.080000        1.0080           0   0.00000   0.00000
     28530 MEOH     1342     MEOH     H1C      HDA3B    0.080000        1.0080           0   0.00000   0.00000
     28531 MEOH     1342     MEOH     LP1A     LPD     -0.230000        0.0000           -1   0.00000   0.00000
     28532 MEOH     1342     MEOH     LP1B     LPD     -0.230000        0.0000           -1   0.00000   0.00000
     28533 MEOH     1343     MEOH     C1       CD33B    2.314100       11.6110           0   -1.00000   1.30000
     28534 MEOH     1343     MEOH     DC1      DRUD    -2.454100        0.4000           0   0.00000   0.00000
     28535 MEOH     1343     MEOH     O1       OD31H    2.488300       15.5990           0   -1.02800   1.30000
     28536 MEOH     1343     MEOH     DO1      DRUD    -2.488300        0.4000           0   0.00000   0.00000
     28537 MEOH     1343     MEOH     HO1      HDP1A    0.360000        1.0080           0   0.00000   0.00000
     28538 MEOH     1343     MEOH     HO2      DUMH     0.000000        1.0080           0   0.00000   0.00000
     28539 MEOH     1343     MEOH     H1A      HDA3B    0.080000        1.0080           0   0.00000   0.00000
     28540 MEOH     1343     MEOH     H1B      HDA3B    0.080000        1.0080           0   0.00000   0.00000
     28541 MEOH     1343     MEOH     H1C      HDA3B    0.080000        1.0080           0   0.00000   0.00000
     28542 MEOH     1343     MEOH     LP1A     LPD     -0.230000        0.0000           -1   0.00000   0.00000
     28543 MEOH     1343     MEOH     LP1B     LPD     -0.230000        0.0000           -1   0.00000   0.00000
     28544 MEOH     1344     MEOH     C1       CD33B    2.314100       11.6110           0   -1.00000   1.30000
     28545 MEOH     1344     MEOH     DC1      DRUD    -2.454100        0.4000           0   0.00000   0.00000
     28546 MEOH     1344     MEOH     O1       OD31H    2.488300       15.5990           0   -1.02800   1.30000
     28547 MEOH     1344     MEOH     DO1      DRUD    -2.488300        0.4000           0   0.00000   0.00000
     28548 MEOH     1344     MEOH     HO1      HDP1A    0.360000        1.0080           0   0.00000   0.00000
     28549 MEOH     1344     MEOH     HO2      DUMH     0.000000        1.0080           0   0.00000   0.00000
     28550 MEOH     1344     MEOH     H1A      HDA3B    0.080000        1.0080           0   0.00000   0.00000
     28551 MEOH     1344     MEOH     H1B      HDA3B    0.080000        1.0080           0   0.00000   0.00000
     28552 MEOH     1344     MEOH     H1C      HDA3B    0.080000        1.0080           0   0.00000   0.00000
     28553 MEOH     1344     MEOH     LP1A     LPD     -0.230000        0.0000           -1   0.00000   0.00000
     28554 MEOH     1344     MEOH     LP1B     LPD     -0.230000        0.0000           -1   0.00000   0.00000
     28555 MEOH     1345     MEOH     C1       CD33B    2.314100       11.6110           0   -1.00000   1.30000
     28556 MEOH     1345     MEOH     DC1      DRUD    -2.454100        0.4000           0   0.00000   0.00000
     28557 MEOH     1345     MEOH     O1       OD31H    2.488300       15.5990           0   -1.02800   1.30000
     28558 MEOH     1345     MEOH     DO1      DRUD    -2.488300        0.4000           0   0.00000   0.00000
     28559 MEOH     1345     MEOH     HO1      HDP1A    0.360000        1.0080           0   0.00000   0.00000
     28560 MEOH     1345     MEOH     HO2      DUMH     0.000000        1.0080           0   0.00000   0.00000
     28561 MEOH     1345     MEOH     H1A      HDA3B    0.080000        1.0080           0   0.00000   0.00000
     28562 MEOH     1345     MEOH     H1B      HDA3B    0.080000        1.0080           0   0.00000   0.00000
     28563 MEOH     1345     MEOH     H1C      HDA3B    0.080000        1.0080           0   0.00000   0.00000
     28564 MEOH     1345     MEOH     LP1A     LPD     -0.230000        0.0000           -1   0.00000   0.00000
     28565 MEOH     1345     MEOH     LP1B     LPD     -0.230000        0.0000           -1   0.00000   0.00000
     28566 MEOH     1346     MEOH     C1       CD33B    2.314100       11.6110           0   -1.00000   1.30000
     28567 MEOH     1346     MEOH     DC1      DRUD    -2.454100        0.4000           0   0.00000   0.00000
     28568 MEOH     1346     MEOH     O1       OD31H    2.488300       15.5990           0   -1.02800   1.30000
     28569 MEOH     1346     MEOH     DO1      DRUD    -2.488300        0.4000           0   0.00000   0.00000
     28570 MEOH     1346     MEOH     HO1      HDP1A    0.360000        1.0080           0   0.00000   0.00000
     28571 MEOH     1346     MEOH     HO2      DUMH     0.000000        1.0080           0   0.00000   0.00000
     28572 MEOH     1346     MEOH     H1A      HDA3B    0.080000        1.0080           0   0.00000   0.00000
     28573 MEOH     1346     MEOH     H1B      HDA3B    0.080000        1.0080           0   0.00000   0.00000
     28574 MEOH     1346     MEOH     H1C      HDA3B    0.080000        1.0080           0   0.00000   0.00000
     28575 MEOH     1346     MEOH     LP1A     LPD     -0.230000        0.0000           -1   0.00000   0.00000
     28576 MEOH     1346     MEOH     LP1B     LPD     -0.230000        0.0000           -1   0.00000   0.00000
     28577 MEOH     1347     MEOH     C1       CD33B    2.314100       11.6110           0   -1.00000   1.30000
     28578 MEOH     1347     MEOH     DC1      DRUD    -2.454100        0.4000           0   0.00000   0.00000
     28579 MEOH     1347     MEOH     O1       OD31H    2.488300       15.5990           0   -1.02800   1.30000
     28580 MEOH     1347     MEOH     DO1      DRUD    -2.488300        0.4000           0   0.00000   0.00000
     28581 MEOH     1347     MEOH     HO1      HDP1A    0.360000        1.0080           0   0.00000   0.00000
     28582 MEOH     1347     MEOH     HO2      DUMH     0.000000        1.0080           0   0.00000   0.00000
     28583 MEOH     1347     MEOH     H1A      HDA3B    0.080000        1.0080           0   0.00000   0.00000
     28584 MEOH     1347     MEOH     H1B      HDA3B    0.080000        1.0080           0   0.00000   0.00000
     28585 MEOH     1347     MEOH     H1C      HDA3B    0.080000        1.0080           0   0.00000   0.00000
     28586 MEOH     1347     MEOH     LP1A     LPD     -0.230000        0.0000           -1   0.00000   0.00000
     28587 MEOH     1347     MEOH     LP1B     LPD     -0.230000        0.0000           -1   0.00000   0.00000
     28588 MEOH     1348     MEOH     C1       CD33B    2.314100       11.6110           0   -1.00000   1.30000
     28589 MEOH     1348     MEOH     DC1      DRUD    -2.454100        0.4000           0   0.00000   0.00000
     28590 MEOH     1348     MEOH     O1       OD31H    2.488300       15.5990           0   -1.02800   1.30000
     28591 MEOH     1348     MEOH     DO1      DRUD    -2.488300        0.4000           0   0.00000   0.00000
     28592 MEOH     1348     MEOH     HO1      HDP1A    0.360000        1.0080           0   0.00000   0.00000
     28593 MEOH     1348     MEOH     HO2      DUMH     0.000000        1.0080           0   0.00000   0.00000
     28594 MEOH     1348     MEOH     H1A      HDA3B    0.080000        1.0080           0   0.00000   0.00000
     28595 MEOH     1348     MEOH     H1B      HDA3B    0.080000        1.0080           0   0.00000   0.00000
     28596 MEOH     1348     MEOH     H1C      HDA3B    0.080000        1.0080           0   0.00000   0.00000
     28597 MEOH     1348     MEOH     LP1A     LPD     -0.230000        0.0000           -1   0.00000   0.00000
     28598 MEOH     1348     MEOH     LP1B     LPD     -0.230000        0.0000           -1   0.00000   0.00000
     28599 MEOH     1349     MEOH     C1       CD33B    2.314100       11.6110           0   -1.00000   1.30000
     28600 MEOH     1349     MEOH     DC1      DRUD    -2.454100        0.4000           0   0.00000   0.00000
     28601 MEOH     1349     MEOH     O1       OD31H    2.488300       15.5990           0   -1.02800   1.30000
     28602 MEOH     1349     MEOH     DO1      DRUD    -2.488300        0.4000           0   0.00000   0.00000
     28603 MEOH     1349     MEOH     HO1      HDP1A    0.360000        1.0080           0   0.00000   0.00000
     28604 MEOH     1349     MEOH     HO2      DUMH     0.000000        1.0080           0   0.00000   0.00000
     28605 MEOH     1349     MEOH     H1A      HDA3B    0.080000        1.0080           0   0.00000   0.00000
     28606 MEOH     1349     MEOH     H1B      HDA3B    0.080000        1.0080           0   0.00000   0.00000
     28607 MEOH     1349     MEOH     H1C      HDA3B    0.080000        1.0080           0   0.00000   0.00000
     28608 MEOH     1349     MEOH     LP1A     LPD     -0.230000        0.0000           -1   0.00000   0.00000
     28609 MEOH     1349     MEOH     LP1B     LPD     -0.230000        0.0000           -1   0.00000   0.00000
     28610 MEOH     1350     MEOH     C1       CD33B    2.314100       11.6110           0   -1.00000   1.30000
     28611 MEOH     1350     MEOH     DC1      DRUD    -2.454100        0.4000           0   0.00000   0.00000
     28612 MEOH     1350     MEOH     O1       OD31H    2.488300       15.5990           0   -1.02800   1.30000
     28613 MEOH     1350     MEOH     DO1      DRUD    -2.488300        0.4000           0   0.00000   0.00000
     28614 MEOH     1350     MEOH     HO1      HDP1A    0.360000        1.0080           0   0.00000   0.00000
     28615 MEOH     1350     MEOH     HO2      DUMH     0.000000        1.0080           0   0.00000   0.00000
     28616 MEOH     1350     MEOH     H1A      HDA3B    0.080000        1.0080           0   0.00000   0.00000
     28617 MEOH     1350     MEOH     H1B      HDA3B    0.080000        1.0080           0   0.00000   0.00000
     28618 MEOH     1350     MEOH     H1C      HDA3B    0.080000        1.0080           0   0.00000   0.00000
     28619 MEOH     1350     MEOH     LP1A     LPD     -0.230000        0.0000           -1   0.00000   0.00000
     28620 MEOH     1350     MEOH     LP1B     LPD     -0.230000        0.0000           -1   0.00000   0.00000
     28621 MEOH     1351     MEOH     C1       CD33B    2.314100       11.6110           0   -1.00000   1.30000
     28622 MEOH     1351     MEOH     DC1      DRUD    -2.454100        0.4000           0   0.00000   0.00000
     28623 MEOH     1351     MEOH     O1       OD31H    2.488300       15.5990           0   -1.02800   1.30000
     28624 MEOH     1351     MEOH     DO1      DRUD    -2.488300        0.4000           0   0.00000   0.00000
     28625 MEOH     1351     MEOH     HO1      HDP1A    0.360000        1.0080           0   0.00000   0.00000
     28626 MEOH     1351     MEOH     HO2      DUMH     0.000000        1.0080           0   0.00000   0.00000
     28627 MEOH     1351     MEOH     H1A      HDA3B    0.080000        1.0080           0   0.00000   0.00000
     28628 MEOH     1351     MEOH     H1B      HDA3B    0.080000        1.0080           0   0.00000   0.00000
     28629 MEOH     1351     MEOH     H1C      HDA3B    0.080000        1.0080           0   0.00000   0.00000
     28630 MEOH     1351     MEOH     LP1A     LPD     -0.230000        0.0000           -1   0.00000   0.00000
     28631 MEOH     1351     MEOH     LP1B     LPD     -0.230000        0.0000           -1   0.00000   0.00000
     28632 MEOH     1352     MEOH     C1       CD33B    2.314100       11.6110           0   -1.00000   1.30000
     28633 MEOH     1352     MEOH     DC1      DRUD    -2.454100        0.4000           0   0.00000   0.00000
     28634 MEOH     1352     MEOH     O1       OD31H    2.488300       15.5990           0   -1.02800   1.30000
     28635 MEOH     1352     MEOH     DO1      DRUD    -2.488300        0.4000           0   0.00000   0.00000
     28636 MEOH     1352     MEOH     HO1      HDP1A    0.360000        1.0080           0   0.00000   0.00000
     28637 MEOH     1352     MEOH     HO2      DUMH     0.000000        1.0080           0   0.00000   0.00000
     28638 MEOH     1352     MEOH     H1A      HDA3B    0.080000        1.0080           0   0.00000   0.00000
     28639 MEOH     1352     MEOH     H1B      HDA3B    0.080000        1.0080           0   0.00000   0.00000
     28640 MEOH     1352     MEOH     H1C      HDA3B    0.080000        1.0080           0   0.00000   0.00000
     28641 MEOH     1352     MEOH     LP1A     LPD     -0.230000        0.0000           -1   0.00000   0.00000
     28642 MEOH     1352     MEOH     LP1B     LPD     -0.230000        0.0000           -1   0.00000   0.00000
     28643 MEOH     1353     MEOH     C1       CD33B    2.314100       11.6110           0   -1.00000   1.30000
     28644 MEOH     1353     MEOH     DC1      DRUD    -2.454100        0.4000           0   0.00000   0.00000
     28645 MEOH     1353     MEOH     O1       OD31H    2.488300       15.5990           0   -1.02800   1.30000
     28646 MEOH     1353     MEOH     DO1      DRUD    -2.488300        0.4000           0   0.00000   0.00000
     28647 MEOH     1353     MEOH     HO1      HDP1A    0.360000        1.0080           0   0.00000   0.00000
     28648 MEOH     1353     MEOH     HO2      DUMH     0.000000        1.0080           0   0.00000   0.00000
     28649 MEOH     1353     MEOH     H1A      HDA3B    0.080000        1.0080           0   0.00000   0.00000
     28650 MEOH     1353     MEOH     H1B      HDA3B    0.080000        1.0080           0   0.00000   0.00000
     28651 MEOH     1353     MEOH     H1C      HDA3B    0.080000        1.0080           0   0.00000   0.00000
     28652 MEOH     1353     MEOH     LP1A     LPD     -0.230000        0.0000           -1   0.00000   0.00000
     28653 MEOH     1353     MEOH     LP1B     LPD     -0.230000        0.0000           -1   0.00000   0.00000
     28654 MEOH     1354     MEOH     C1       CD33B    2.314100       11.6110           0   -1.00000   1.30000
     28655 MEOH     1354     MEOH     DC1      DRUD    -2.454100        0.4000           0   0.00000   0.00000
     28656 MEOH     1354     MEOH     O1       OD31H    2.488300       15.5990           0   -1.02800   1.30000
     28657 MEOH     1354     MEOH     DO1      DRUD    -2.488300        0.4000           0   0.00000   0.00000
     28658 MEOH     1354     MEOH     HO1      HDP1A    0.360000        1.0080           0   0.00000   0.00000
     28659 MEOH     1354     MEOH     HO2      DUMH     0.000000        1.0080           0   0.00000   0.00000
     28660 MEOH     1354     MEOH     H1A      HDA3B    0.080000        1.0080           0   0.00000   0.00000
     28661 MEOH     1354     MEOH     H1B      HDA3B    0.080000        1.0080           0   0.00000   0.00000
     28662 MEOH     1354     MEOH     H1C      HDA3B    0.080000        1.0080           0   0.00000   0.00000
     28663 MEOH     1354     MEOH     LP1A     LPD     -0.230000        0.0000           -1   0.00000   0.00000
     28664 MEOH     1354     MEOH     LP1B     LPD     -0.230000        0.0000           -1   0.00000   0.00000
     28665 MEOH     1355     MEOH     C1       CD33B    2.314100       11.6110           0   -1.00000   1.30000
     28666 MEOH     1355     MEOH     DC1      DRUD    -2.454100        0.4000           0   0.00000   0.00000
     28667 MEOH     1355     MEOH     O1       OD31H    2.488300       15.5990           0   -1.02800   1.30000
     28668 MEOH     1355     MEOH     DO1      DRUD    -2.488300        0.4000           0   0.00000   0.00000
     28669 MEOH     1355     MEOH     HO1      HDP1A    0.360000        1.0080           0   0.00000   0.00000
     28670 MEOH     1355     MEOH     HO2      DUMH     0.000000        1.0080           0   0.00000   0.00000
     28671 MEOH     1355     MEOH     H1A      HDA3B    0.080000        1.0080           0   0.00000   0.00000
     28672 MEOH     1355     MEOH     H1B      HDA3B    0.080000        1.0080           0   0.00000   0.00000
     28673 MEOH     1355     MEOH     H1C      HDA3B    0.080000        1.0080           0   0.00000   0.00000
     28674 MEOH     1355     MEOH     LP1A     LPD     -0.230000        0.0000           -1   0.00000   0.00000
     28675 MEOH     1355     MEOH     LP1B     LPD     -0.230000        0.0000           -1   0.00000   0.00000
     28676 MEOH     1356     MEOH     C1       CD33B    2.314100       11.6110           0   -1.00000   1.30000
     28677 MEOH     1356     MEOH     DC1      DRUD    -2.454100        0.4000           0   0.00000   0.00000
     28678 MEOH     1356     MEOH     O1       OD31H    2.488300       15.5990           0   -1.02800   1.30000
     28679 MEOH     1356     MEOH     DO1      DRUD    -2.488300        0.4000           0   0.00000   0.00000
     28680 MEOH     1356     MEOH     HO1      HDP1A    0.360000        1.0080           0   0.00000   0.00000
     28681 MEOH     1356     MEOH     HO2      DUMH     0.000000        1.0080           0   0.00000   0.00000
     28682 MEOH     1356     MEOH     H1A      HDA3B    0.080000        1.0080           0   0.00000   0.00000
     28683 MEOH     1356     MEOH     H1B      HDA3B    0.080000        1.0080           0   0.00000   0.00000
     28684 MEOH     1356     MEOH     H1C      HDA3B    0.080000        1.0080           0   0.00000   0.00000
     28685 MEOH     1356     MEOH     LP1A     LPD     -0.230000        0.0000           -1   0.00000   0.00000
     28686 MEOH     1356     MEOH     LP1B     LPD     -0.230000        0.0000           -1   0.00000   0.00000
     28687 MEOH     1357     MEOH     C1       CD33B    2.314100       11.6110           0   -1.00000   1.30000
     28688 MEOH     1357     MEOH     DC1      DRUD    -2.454100        0.4000           0   0.00000   0.00000
     28689 MEOH     1357     MEOH     O1       OD31H    2.488300       15.5990           0   -1.02800   1.30000
     28690 MEOH     1357     MEOH     DO1      DRUD    -2.488300        0.4000           0   0.00000   0.00000
     28691 MEOH     1357     MEOH     HO1      HDP1A    0.360000        1.0080           0   0.00000   0.00000
     28692 MEOH     1357     MEOH     HO2      DUMH     0.000000        1.0080           0   0.00000   0.00000
     28693 MEOH     1357     MEOH     H1A      HDA3B    0.080000        1.0080           0   0.00000   0.00000
     28694 MEOH     1357     MEOH     H1B      HDA3B    0.080000        1.0080           0   0.00000   0.00000
     28695 MEOH     1357     MEOH     H1C      HDA3B    0.080000        1.0080           0   0.00000   0.00000
     28696 MEOH     1357     MEOH     LP1A     LPD     -0.230000        0.0000           -1   0.00000   0.00000
     28697 MEOH     1357     MEOH     LP1B     LPD     -0.230000        0.0000           -1   0.00000   0.00000
     28698 MEOH     1358     MEOH     C1       CD33B    2.314100       11.6110           0   -1.00000   1.30000
     28699 MEOH     1358     MEOH     DC1      DRUD    -2.454100        0.4000           0   0.00000   0.00000
     28700 MEOH     1358     MEOH     O1       OD31H    2.488300       15.5990           0   -1.02800   1.30000
     28701 MEOH     1358     MEOH     DO1      DRUD    -2.488300        0.4000           0   0.00000   0.00000
     28702 MEOH     1358     MEOH     HO1      HDP1A    0.360000        1.0080           0   0.00000   0.00000
     28703 MEOH     1358     MEOH     HO2      DUMH     0.000000        1.0080           0   0.00000   0.00000
     28704 MEOH     1358     MEOH     H1A      HDA3B    0.080000        1.0080           0   0.00000   0.00000
     28705 MEOH     1358     MEOH     H1B      HDA3B    0.080000        1.0080           0   0.00000   0.00000
     28706 MEOH     1358     MEOH     H1C      HDA3B    0.080000        1.0080           0   0.00000   0.00000
     28707 MEOH     1358     MEOH     LP1A     LPD     -0.230000        0.0000           -1   0.00000   0.00000
     28708 MEOH     1358     MEOH     LP1B     LPD     -0.230000        0.0000           -1   0.00000   0.00000
     28709 MEOH     1359     MEOH     C1       CD33B    2.314100       11.6110           0   -1.00000   1.30000
     28710 MEOH     1359     MEOH     DC1      DRUD    -2.454100        0.4000           0   0.00000   0.00000
     28711 MEOH     1359     MEOH     O1       OD31H    2.488300       15.5990           0   -1.02800   1.30000
     28712 MEOH     1359     MEOH     DO1      DRUD    -2.488300        0.4000           0   0.00000   0.00000
     28713 MEOH     1359     MEOH     HO1      HDP1A    0.360000        1.0080           0   0.00000   0.00000
     28714 MEOH     1359     MEOH     HO2      DUMH     0.000000        1.0080           0   0.00000   0.00000
     28715 MEOH     1359     MEOH     H1A      HDA3B    0.080000        1.0080           0   0.00000   0.00000
     28716 MEOH     1359     MEOH     H1B      HDA3B    0.080000        1.0080           0   0.00000   0.00000
     28717 MEOH     1359     MEOH     H1C      HDA3B    0.080000        1.0080           0   0.00000   0.00000
     28718 MEOH     1359     MEOH     LP1A     LPD     -0.230000        0.0000           -1   0.00000   0.00000
     28719 MEOH     1359     MEOH     LP1B     LPD     -0.230000        0.0000           -1   0.00000   0.00000
     28720 MEOH     1360     MEOH     C1       CD33B    2.314100       11.6110           0   -1.00000   1.30000
     28721 MEOH     1360     MEOH     DC1      DRUD    -2.454100        0.4000           0   0.00000   0.00000
     28722 MEOH     1360     MEOH     O1       OD31H    2.488300       15.5990           0   -1.02800   1.30000
     28723 MEOH     1360     MEOH     DO1      DRUD    -2.488300        0.4000           0   0.00000   0.00000
     28724 MEOH     1360     MEOH     HO1      HDP1A    0.360000        1.0080           0   0.00000   0.00000
     28725 MEOH     1360     MEOH     HO2      DUMH     0.000000        1.0080           0   0.00000   0.00000
     28726 MEOH     1360     MEOH     H1A      HDA3B    0.080000        1.0080           0   0.00000   0.00000
     28727 MEOH     1360     MEOH     H1B      HDA3B    0.080000        1.0080           0   0.00000   0.00000
     28728 MEOH     1360     MEOH     H1C      HDA3B    0.080000        1.0080           0   0.00000   0.00000
     28729 MEOH     1360     MEOH     LP1A     LPD     -0.230000        0.0000           -1   0.00000   0.00000
     28730 MEOH     1360     MEOH     LP1B     LPD     -0.230000        0.0000           -1   0.00000   0.00000
     28731 MEOH     1361     MEOH     C1       CD33B    2.314100       11.6110           0   -1.00000   1.30000
     28732 MEOH     1361     MEOH     DC1      DRUD    -2.454100        0.4000           0   0.00000   0.00000
     28733 MEOH     1361     MEOH     O1       OD31H    2.488300       15.5990           0   -1.02800   1.30000
     28734 MEOH     1361     MEOH     DO1      DRUD    -2.488300        0.4000           0   0.00000   0.00000
     28735 MEOH     1361     MEOH     HO1      HDP1A    0.360000        1.0080           0   0.00000   0.00000
     28736 MEOH     1361     MEOH     HO2      DUMH     0.000000        1.0080           0   0.00000   0.00000
     28737 MEOH     1361     MEOH     H1A      HDA3B    0.080000        1.0080           0   0.00000   0.00000
     28738 MEOH     1361     MEOH     H1B      HDA3B    0.080000        1.0080           0   0.00000   0.00000
     28739 MEOH     1361     MEOH     H1C      HDA3B    0.080000        1.0080           0   0.00000   0.00000
     28740 MEOH     1361     MEOH     LP1A     LPD     -0.230000        0.0000           -1   0.00000   0.00000
     28741 MEOH     1361     MEOH     LP1B     LPD     -0.230000        0.0000           -1   0.00000   0.00000
     28742 MEOH     1362     MEOH     C1       CD33B    2.314100       11.6110           0   -1.00000   1.30000
     28743 MEOH     1362     MEOH     DC1      DRUD    -2.454100        0.4000           0   0.00000   0.00000
     28744 MEOH     1362     MEOH     O1       OD31H    2.488300       15.5990           0   -1.02800   1.30000
     28745 MEOH     1362     MEOH     DO1      DRUD    -2.488300        0.4000           0   0.00000   0.00000
     28746 MEOH     1362     MEOH     HO1      HDP1A    0.360000        1.0080           0   0.00000   0.00000
     28747 MEOH     1362     MEOH     HO2      DUMH     0.000000        1.0080           0   0.00000   0.00000
     28748 MEOH     1362     MEOH     H1A      HDA3B    0.080000        1.0080           0   0.00000   0.00000
     28749 MEOH     1362     MEOH     H1B      HDA3B    0.080000        1.0080           0   0.00000   0.00000
     28750 MEOH     1362     MEOH     H1C      HDA3B    0.080000        1.0080           0   0.00000   0.00000
     28751 MEOH     1362     MEOH     LP1A     LPD     -0.230000        0.0000           -1   0.00000   0.00000
     28752 MEOH     1362     MEOH     LP1B     LPD     -0.230000        0.0000           -1   0.00000   0.00000
     28753 MEOH     1363     MEOH     C1       CD33B    2.314100       11.6110           0   -1.00000   1.30000
     28754 MEOH     1363     MEOH     DC1      DRUD    -2.454100        0.4000           0   0.00000   0.00000
     28755 MEOH     1363     MEOH     O1       OD31H    2.488300       15.5990           0   -1.02800   1.30000
     28756 MEOH     1363     MEOH     DO1      DRUD    -2.488300        0.4000           0   0.00000   0.00000
     28757 MEOH     1363     MEOH     HO1      HDP1A    0.360000        1.0080           0   0.00000   0.00000
     28758 MEOH     1363     MEOH     HO2      DUMH     0.000000        1.0080           0   0.00000   0.00000
     28759 MEOH     1363     MEOH     H1A      HDA3B    0.080000        1.0080           0   0.00000   0.00000
     28760 MEOH     1363     MEOH     H1B      HDA3B    0.080000        1.0080           0   0.00000   0.00000
     28761 MEOH     1363     MEOH     H1C      HDA3B    0.080000        1.0080           0   0.00000   0.00000
     28762 MEOH     1363     MEOH     LP1A     LPD     -0.230000        0.0000           -1   0.00000   0.00000
     28763 MEOH     1363     MEOH     LP1B     LPD     -0.230000        0.0000           -1   0.00000   0.00000
     28764 MEOH     1364     MEOH     C1       CD33B    2.314100       11.6110           0   -1.00000   1.30000
     28765 MEOH     1364     MEOH     DC1      DRUD    -2.454100        0.4000           0   0.00000   0.00000
     28766 MEOH     1364     MEOH     O1       OD31H    2.488300       15.5990           0   -1.02800   1.30000
     28767 MEOH     1364     MEOH     DO1      DRUD    -2.488300        0.4000           0   0.00000   0.00000
     28768 MEOH     1364     MEOH     HO1      HDP1A    0.360000        1.0080           0   0.00000   0.00000
     28769 MEOH     1364     MEOH     HO2      DUMH     0.000000        1.0080           0   0.00000   0.00000
     28770 MEOH     1364     MEOH     H1A      HDA3B    0.080000        1.0080           0   0.00000   0.00000
     28771 MEOH     1364     MEOH     H1B      HDA3B    0.080000        1.0080           0   0.00000   0.00000
     28772 MEOH     1364     MEOH     H1C      HDA3B    0.080000        1.0080           0   0.00000   0.00000
     28773 MEOH     1364     MEOH     LP1A     LPD     -0.230000        0.0000           -1   0.00000   0.00000
     28774 MEOH     1364     MEOH     LP1B     LPD     -0.230000        0.0000           -1   0.00000   0.00000
     28775 MEOH     1365     MEOH     C1       CD33B    2.314100       11.6110           0   -1.00000   1.30000
     28776 MEOH     1365     MEOH     DC1      DRUD    -2.454100        0.4000           0   0.00000   0.00000
     28777 MEOH     1365     MEOH     O1       OD31H    2.488300       15.5990           0   -1.02800   1.30000
     28778 MEOH     1365     MEOH     DO1      DRUD    -2.488300        0.4000           0   0.00000   0.00000
     28779 MEOH     1365     MEOH     HO1      HDP1A    0.360000        1.0080           0   0.00000   0.00000
     28780 MEOH     1365     MEOH     HO2      DUMH     0.000000        1.0080           0   0.00000   0.00000
     28781 MEOH     1365     MEOH     H1A      HDA3B    0.080000        1.0080           0   0.00000   0.00000
     28782 MEOH     1365     MEOH     H1B      HDA3B    0.080000        1.0080           0   0.00000   0.00000
     28783 MEOH     1365     MEOH     H1C      HDA3B    0.080000        1.0080           0   0.00000   0.00000
     28784 MEOH     1365     MEOH     LP1A     LPD     -0.230000        0.0000           -1   0.00000   0.00000
     28785 MEOH     1365     MEOH     LP1B     LPD     -0.230000        0.0000           -1   0.00000   0.00000
     28786 MEOH     1366     MEOH     C1       CD33B    2.314100       11.6110           0   -1.00000   1.30000
     28787 MEOH     1366     MEOH     DC1      DRUD    -2.454100        0.4000           0   0.00000   0.00000
     28788 MEOH     1366     MEOH     O1       OD31H    2.488300       15.5990           0   -1.02800   1.30000
     28789 MEOH     1366     MEOH     DO1      DRUD    -2.488300        0.4000           0   0.00000   0.00000
     28790 MEOH     1366     MEOH     HO1      HDP1A    0.360000        1.0080           0   0.00000   0.00000
     28791 MEOH     1366     MEOH     HO2      DUMH     0.000000        1.0080           0   0.00000   0.00000
     28792 MEOH     1366     MEOH     H1A      HDA3B    0.080000        1.0080           0   0.00000   0.00000
     28793 MEOH     1366     MEOH     H1B      HDA3B    0.080000        1.0080           0   0.00000   0.00000
     28794 MEOH     1366     MEOH     H1C      HDA3B    0.080000        1.0080           0   0.00000   0.00000
     28795 MEOH     1366     MEOH     LP1A     LPD     -0.230000        0.0000           -1   0.00000   0.00000
     28796 MEOH     1366     MEOH     LP1B     LPD     -0.230000        0.0000           -1   0.00000   0.00000
     28797 MEOH     1367     MEOH     C1       CD33B    2.314100       11.6110           0   -1.00000   1.30000
     28798 MEOH     1367     MEOH     DC1      DRUD    -2.454100        0.4000           0   0.00000   0.00000
     28799 MEOH     1367     MEOH     O1       OD31H    2.488300       15.5990           0   -1.02800   1.30000
     28800 MEOH     1367     MEOH     DO1      DRUD    -2.488300        0.4000           0   0.00000   0.00000
     28801 MEOH     1367     MEOH     HO1      HDP1A    0.360000        1.0080           0   0.00000   0.00000
     28802 MEOH     1367     MEOH     HO2      DUMH     0.000000        1.0080           0   0.00000   0.00000
     28803 MEOH     1367     MEOH     H1A      HDA3B    0.080000        1.0080           0   0.00000   0.00000
     28804 MEOH     1367     MEOH     H1B      HDA3B    0.080000        1.0080           0   0.00000   0.00000
     28805 MEOH     1367     MEOH     H1C      HDA3B    0.080000        1.0080           0   0.00000   0.00000
     28806 MEOH     1367     MEOH     LP1A     LPD     -0.230000        0.0000           -1   0.00000   0.00000
     28807 MEOH     1367     MEOH     LP1B     LPD     -0.230000        0.0000           -1   0.00000   0.00000
     28808 MEOH     1368     MEOH     C1       CD33B    2.314100       11.6110           0   -1.00000   1.30000
     28809 MEOH     1368     MEOH     DC1      DRUD    -2.454100        0.4000           0   0.00000   0.00000
     28810 MEOH     1368     MEOH     O1       OD31H    2.488300       15.5990           0   -1.02800   1.30000
     28811 MEOH     1368     MEOH     DO1      DRUD    -2.488300        0.4000           0   0.00000   0.00000
     28812 MEOH     1368     MEOH     HO1      HDP1A    0.360000        1.0080           0   0.00000   0.00000
     28813 MEOH     1368     MEOH     HO2      DUMH     0.000000        1.0080           0   0.00000   0.00000
     28814 MEOH     1368     MEOH     H1A      HDA3B    0.080000        1.0080           0   0.00000   0.00000
     28815 MEOH     1368     MEOH     H1B      HDA3B    0.080000        1.0080           0   0.00000   0.00000
     28816 MEOH     1368     MEOH     H1C      HDA3B    0.080000        1.0080           0   0.00000   0.00000
     28817 MEOH     1368     MEOH     LP1A     LPD     -0.230000        0.0000           -1   0.00000   0.00000
     28818 MEOH     1368     MEOH     LP1B     LPD     -0.230000        0.0000           -1   0.00000   0.00000
     28819 MEOH     1369     MEOH     C1       CD33B    2.314100       11.6110           0   -1.00000   1.30000
     28820 MEOH     1369     MEOH     DC1      DRUD    -2.454100        0.4000           0   0.00000   0.00000
     28821 MEOH     1369     MEOH     O1       OD31H    2.488300       15.5990           0   -1.02800   1.30000
     28822 MEOH     1369     MEOH     DO1      DRUD    -2.488300        0.4000           0   0.00000   0.00000
     28823 MEOH     1369     MEOH     HO1      HDP1A    0.360000        1.0080           0   0.00000   0.00000
     28824 MEOH     1369     MEOH     HO2      DUMH     0.000000        1.0080           0   0.00000   0.00000
     28825 MEOH     1369     MEOH     H1A      HDA3B    0.080000        1.0080           0   0.00000   0.00000
     28826 MEOH     1369     MEOH     H1B      HDA3B    0.080000        1.0080           0   0.00000   0.00000
     28827 MEOH     1369     MEOH     H1C      HDA3B    0.080000        1.0080           0   0.00000   0.00000
     28828 MEOH     1369     MEOH     LP1A     LPD     -0.230000        0.0000           -1   0.00000   0.00000
     28829 MEOH     1369     MEOH     LP1B     LPD     -0.230000        0.0000           -1   0.00000   0.00000
     28830 MEOH     1370     MEOH     C1       CD33B    2.314100       11.6110           0   -1.00000   1.30000
     28831 MEOH     1370     MEOH     DC1      DRUD    -2.454100        0.4000           0   0.00000   0.00000
     28832 MEOH     1370     MEOH     O1       OD31H    2.488300       15.5990           0   -1.02800   1.30000
     28833 MEOH     1370     MEOH     DO1      DRUD    -2.488300        0.4000           0   0.00000   0.00000
     28834 MEOH     1370     MEOH     HO1      HDP1A    0.360000        1.0080           0   0.00000   0.00000
     28835 MEOH     1370     MEOH     HO2      DUMH     0.000000        1.0080           0   0.00000   0.00000
     28836 MEOH     1370     MEOH     H1A      HDA3B    0.080000        1.0080           0   0.00000   0.00000
     28837 MEOH     1370     MEOH     H1B      HDA3B    0.080000        1.0080           0   0.00000   0.00000
     28838 MEOH     1370     MEOH     H1C      HDA3B    0.080000        1.0080           0   0.00000   0.00000
     28839 MEOH     1370     MEOH     LP1A     LPD     -0.230000        0.0000           -1   0.00000   0.00000
     28840 MEOH     1370     MEOH     LP1B     LPD     -0.230000        0.0000           -1   0.00000   0.00000
     28841 MEOH     1371     MEOH     C1       CD33B    2.314100       11.6110           0   -1.00000   1.30000
     28842 MEOH     1371     MEOH     DC1      DRUD    -2.454100        0.4000           0   0.00000   0.00000
     28843 MEOH     1371     MEOH     O1       OD31H    2.488300       15.5990           0   -1.02800   1.30000
     28844 MEOH     1371     MEOH     DO1      DRUD    -2.488300        0.4000           0   0.00000   0.00000
     28845 MEOH     1371     MEOH     HO1      HDP1A    0.360000        1.0080           0   0.00000   0.00000
     28846 MEOH     1371     MEOH     HO2      DUMH     0.000000        1.0080           0   0.00000   0.00000
     28847 MEOH     1371     MEOH     H1A      HDA3B    0.080000        1.0080           0   0.00000   0.00000
     28848 MEOH     1371     MEOH     H1B      HDA3B    0.080000        1.0080           0   0.00000   0.00000
     28849 MEOH     1371     MEOH     H1C      HDA3B    0.080000        1.0080           0   0.00000   0.00000
     28850 MEOH     1371     MEOH     LP1A     LPD     -0.230000        0.0000           -1   0.00000   0.00000
     28851 MEOH     1371     MEOH     LP1B     LPD     -0.230000        0.0000           -1   0.00000   0.00000
     28852 MEOH     1372     MEOH     C1       CD33B    2.314100       11.6110           0   -1.00000   1.30000
     28853 MEOH     1372     MEOH     DC1      DRUD    -2.454100        0.4000           0   0.00000   0.00000
     28854 MEOH     1372     MEOH     O1       OD31H    2.488300       15.5990           0   -1.02800   1.30000
     28855 MEOH     1372     MEOH     DO1      DRUD    -2.488300        0.4000           0   0.00000   0.00000
     28856 MEOH     1372     MEOH     HO1      HDP1A    0.360000        1.0080           0   0.00000   0.00000
     28857 MEOH     1372     MEOH     HO2      DUMH     0.000000        1.0080           0   0.00000   0.00000
     28858 MEOH     1372     MEOH     H1A      HDA3B    0.080000        1.0080           0   0.00000   0.00000
     28859 MEOH     1372     MEOH     H1B      HDA3B    0.080000        1.0080           0   0.00000   0.00000
     28860 MEOH     1372     MEOH     H1C      HDA3B    0.080000        1.0080           0   0.00000   0.00000
     28861 MEOH     1372     MEOH     LP1A     LPD     -0.230000        0.0000           -1   0.00000   0.00000
     28862 MEOH     1372     MEOH     LP1B     LPD     -0.230000        0.0000           -1   0.00000   0.00000
     28863 MEOH     1373     MEOH     C1       CD33B    2.314100       11.6110           0   -1.00000   1.30000
     28864 MEOH     1373     MEOH     DC1      DRUD    -2.454100        0.4000           0   0.00000   0.00000
     28865 MEOH     1373     MEOH     O1       OD31H    2.488300       15.5990           0   -1.02800   1.30000
     28866 MEOH     1373     MEOH     DO1      DRUD    -2.488300        0.4000           0   0.00000   0.00000
     28867 MEOH     1373     MEOH     HO1      HDP1A    0.360000        1.0080           0   0.00000   0.00000
     28868 MEOH     1373     MEOH     HO2      DUMH     0.000000        1.0080           0   0.00000   0.00000
     28869 MEOH     1373     MEOH     H1A      HDA3B    0.080000        1.0080           0   0.00000   0.00000
     28870 MEOH     1373     MEOH     H1B      HDA3B    0.080000        1.0080           0   0.00000   0.00000
     28871 MEOH     1373     MEOH     H1C      HDA3B    0.080000        1.0080           0   0.00000   0.00000
     28872 MEOH     1373     MEOH     LP1A     LPD     -0.230000        0.0000           -1   0.00000   0.00000
     28873 MEOH     1373     MEOH     LP1B     LPD     -0.230000        0.0000           -1   0.00000   0.00000
     28874 MEOH     1374     MEOH     C1       CD33B    2.314100       11.6110           0   -1.00000   1.30000
     28875 MEOH     1374     MEOH     DC1      DRUD    -2.454100        0.4000           0   0.00000   0.00000
     28876 MEOH     1374     MEOH     O1       OD31H    2.488300       15.5990           0   -1.02800   1.30000
     28877 MEOH     1374     MEOH     DO1      DRUD    -2.488300        0.4000           0   0.00000   0.00000
     28878 MEOH     1374     MEOH     HO1      HDP1A    0.360000        1.0080           0   0.00000   0.00000
     28879 MEOH     1374     MEOH     HO2      DUMH     0.000000        1.0080           0   0.00000   0.00000
     28880 MEOH     1374     MEOH     H1A      HDA3B    0.080000        1.0080           0   0.00000   0.00000
     28881 MEOH     1374     MEOH     H1B      HDA3B    0.080000        1.0080           0   0.00000   0.00000
     28882 MEOH     1374     MEOH     H1C      HDA3B    0.080000        1.0080           0   0.00000   0.00000
     28883 MEOH     1374     MEOH     LP1A     LPD     -0.230000        0.0000           -1   0.00000   0.00000
     28884 MEOH     1374     MEOH     LP1B     LPD     -0.230000        0.0000           -1   0.00000   0.00000
     28885 MEOH     1375     MEOH     C1       CD33B    2.314100       11.6110           0   -1.00000   1.30000
     28886 MEOH     1375     MEOH     DC1      DRUD    -2.454100        0.4000           0   0.00000   0.00000
     28887 MEOH     1375     MEOH     O1       OD31H    2.488300       15.5990           0   -1.02800   1.30000
     28888 MEOH     1375     MEOH     DO1      DRUD    -2.488300        0.4000           0   0.00000   0.00000
     28889 MEOH     1375     MEOH     HO1      HDP1A    0.360000        1.0080           0   0.00000   0.00000
     28890 MEOH     1375     MEOH     HO2      DUMH     0.000000        1.0080           0   0.00000   0.00000
     28891 MEOH     1375     MEOH     H1A      HDA3B    0.080000        1.0080           0   0.00000   0.00000
     28892 MEOH     1375     MEOH     H1B      HDA3B    0.080000        1.0080           0   0.00000   0.00000
     28893 MEOH     1375     MEOH     H1C      HDA3B    0.080000        1.0080           0   0.00000   0.00000
     28894 MEOH     1375     MEOH     LP1A     LPD     -0.230000        0.0000           -1   0.00000   0.00000
     28895 MEOH     1375     MEOH     LP1B     LPD     -0.230000        0.0000           -1   0.00000   0.00000
     28896 MEOH     1376     MEOH     C1       CD33B    2.314100       11.6110           0   -1.00000   1.30000
     28897 MEOH     1376     MEOH     DC1      DRUD    -2.454100        0.4000           0   0.00000   0.00000
     28898 MEOH     1376     MEOH     O1       OD31H    2.488300       15.5990           0   -1.02800   1.30000
     28899 MEOH     1376     MEOH     DO1      DRUD    -2.488300        0.4000           0   0.00000   0.00000
     28900 MEOH     1376     MEOH     HO1      HDP1A    0.360000        1.0080           0   0.00000   0.00000
     28901 MEOH     1376     MEOH     HO2      DUMH     0.000000        1.0080           0   0.00000   0.00000
     28902 MEOH     1376     MEOH     H1A      HDA3B    0.080000        1.0080           0   0.00000   0.00000
     28903 MEOH     1376     MEOH     H1B      HDA3B    0.080000        1.0080           0   0.00000   0.00000
     28904 MEOH     1376     MEOH     H1C      HDA3B    0.080000        1.0080           0   0.00000   0.00000
     28905 MEOH     1376     MEOH     LP1A     LPD     -0.230000        0.0000           -1   0.00000   0.00000
     28906 MEOH     1376     MEOH     LP1B     LPD     -0.230000        0.0000           -1   0.00000   0.00000
     28907 MEOH     1377     MEOH     C1       CD33B    2.314100       11.6110           0   -1.00000   1.30000
     28908 MEOH     1377     MEOH     DC1      DRUD    -2.454100        0.4000           0   0.00000   0.00000
     28909 MEOH     1377     MEOH     O1       OD31H    2.488300       15.5990           0   -1.02800   1.30000
     28910 MEOH     1377     MEOH     DO1      DRUD    -2.488300        0.4000           0   0.00000   0.00000
     28911 MEOH     1377     MEOH     HO1      HDP1A    0.360000        1.0080           0   0.00000   0.00000
     28912 MEOH     1377     MEOH     HO2      DUMH     0.000000        1.0080           0   0.00000   0.00000
     28913 MEOH     1377     MEOH     H1A      HDA3B    0.080000        1.0080           0   0.00000   0.00000
     28914 MEOH     1377     MEOH     H1B      HDA3B    0.080000        1.0080           0   0.00000   0.00000
     28915 MEOH     1377     MEOH     H1C      HDA3B    0.080000        1.0080           0   0.00000   0.00000
     28916 MEOH     1377     MEOH     LP1A     LPD     -0.230000        0.0000           -1   0.00000   0.00000
     28917 MEOH     1377     MEOH     LP1B     LPD     -0.230000        0.0000           -1   0.00000   0.00000
     28918 MEOH     1378     MEOH     C1       CD33B    2.314100       11.6110           0   -1.00000   1.30000
     28919 MEOH     1378     MEOH     DC1      DRUD    -2.454100        0.4000           0   0.00000   0.00000
     28920 MEOH     1378     MEOH     O1       OD31H    2.488300       15.5990           0   -1.02800   1.30000
     28921 MEOH     1378     MEOH     DO1      DRUD    -2.488300        0.4000           0   0.00000   0.00000
     28922 MEOH     1378     MEOH     HO1      HDP1A    0.360000        1.0080           0   0.00000   0.00000
     28923 MEOH     1378     MEOH     HO2      DUMH     0.000000        1.0080           0   0.00000   0.00000
     28924 MEOH     1378     MEOH     H1A      HDA3B    0.080000        1.0080           0   0.00000   0.00000
     28925 MEOH     1378     MEOH     H1B      HDA3B    0.080000        1.0080           0   0.00000   0.00000
     28926 MEOH     1378     MEOH     H1C      HDA3B    0.080000        1.0080           0   0.00000   0.00000
     28927 MEOH     1378     MEOH     LP1A     LPD     -0.230000        0.0000           -1   0.00000   0.00000
     28928 MEOH     1378     MEOH     LP1B     LPD     -0.230000        0.0000           -1   0.00000   0.00000
     28929 MEOH     1379     MEOH     C1       CD33B    2.314100       11.6110           0   -1.00000   1.30000
     28930 MEOH     1379     MEOH     DC1      DRUD    -2.454100        0.4000           0   0.00000   0.00000
     28931 MEOH     1379     MEOH     O1       OD31H    2.488300       15.5990           0   -1.02800   1.30000
     28932 MEOH     1379     MEOH     DO1      DRUD    -2.488300        0.4000           0   0.00000   0.00000
     28933 MEOH     1379     MEOH     HO1      HDP1A    0.360000        1.0080           0   0.00000   0.00000
     28934 MEOH     1379     MEOH     HO2      DUMH     0.000000        1.0080           0   0.00000   0.00000
     28935 MEOH     1379     MEOH     H1A      HDA3B    0.080000        1.0080           0   0.00000   0.00000
     28936 MEOH     1379     MEOH     H1B      HDA3B    0.080000        1.0080           0   0.00000   0.00000
     28937 MEOH     1379     MEOH     H1C      HDA3B    0.080000        1.0080           0   0.00000   0.00000
     28938 MEOH     1379     MEOH     LP1A     LPD     -0.230000        0.0000           -1   0.00000   0.00000
     28939 MEOH     1379     MEOH     LP1B     LPD     -0.230000        0.0000           -1   0.00000   0.00000
     28940 MEOH     1380     MEOH     C1       CD33B    2.314100       11.6110           0   -1.00000   1.30000
     28941 MEOH     1380     MEOH     DC1      DRUD    -2.454100        0.4000           0   0.00000   0.00000
     28942 MEOH     1380     MEOH     O1       OD31H    2.488300       15.5990           0   -1.02800   1.30000
     28943 MEOH     1380     MEOH     DO1      DRUD    -2.488300        0.4000           0   0.00000   0.00000
     28944 MEOH     1380     MEOH     HO1      HDP1A    0.360000        1.0080           0   0.00000   0.00000
     28945 MEOH     1380     MEOH     HO2      DUMH     0.000000        1.0080           0   0.00000   0.00000
     28946 MEOH     1380     MEOH     H1A      HDA3B    0.080000        1.0080           0   0.00000   0.00000
     28947 MEOH     1380     MEOH     H1B      HDA3B    0.080000        1.0080           0   0.00000   0.00000
     28948 MEOH     1380     MEOH     H1C      HDA3B    0.080000        1.0080           0   0.00000   0.00000
     28949 MEOH     1380     MEOH     LP1A     LPD     -0.230000        0.0000           -1   0.00000   0.00000
     28950 MEOH     1380     MEOH     LP1B     LPD     -0.230000        0.0000           -1   0.00000   0.00000
     28951 MEOH     1381     MEOH     C1       CD33B    2.314100       11.6110           0   -1.00000   1.30000
     28952 MEOH     1381     MEOH     DC1      DRUD    -2.454100        0.4000           0   0.00000   0.00000
     28953 MEOH     1381     MEOH     O1       OD31H    2.488300       15.5990           0   -1.02800   1.30000
     28954 MEOH     1381     MEOH     DO1      DRUD    -2.488300        0.4000           0   0.00000   0.00000
     28955 MEOH     1381     MEOH     HO1      HDP1A    0.360000        1.0080           0   0.00000   0.00000
     28956 MEOH     1381     MEOH     HO2      DUMH     0.000000        1.0080           0   0.00000   0.00000
     28957 MEOH     1381     MEOH     H1A      HDA3B    0.080000        1.0080           0   0.00000   0.00000
     28958 MEOH     1381     MEOH     H1B      HDA3B    0.080000        1.0080           0   0.00000   0.00000
     28959 MEOH     1381     MEOH     H1C      HDA3B    0.080000        1.0080           0   0.00000   0.00000
     28960 MEOH     1381     MEOH     LP1A     LPD     -0.230000        0.0000           -1   0.00000   0.00000
     28961 MEOH     1381     MEOH     LP1B     LPD     -0.230000        0.0000           -1   0.00000   0.00000
     28962 MEOH     1382     MEOH     C1       CD33B    2.314100       11.6110           0   -1.00000   1.30000
     28963 MEOH     1382     MEOH     DC1      DRUD    -2.454100        0.4000           0   0.00000   0.00000
     28964 MEOH     1382     MEOH     O1       OD31H    2.488300       15.5990           0   -1.02800   1.30000
     28965 MEOH     1382     MEOH     DO1      DRUD    -2.488300        0.4000           0   0.00000   0.00000
     28966 MEOH     1382     MEOH     HO1      HDP1A    0.360000        1.0080           0   0.00000   0.00000
     28967 MEOH     1382     MEOH     HO2      DUMH     0.000000        1.0080           0   0.00000   0.00000
     28968 MEOH     1382     MEOH     H1A      HDA3B    0.080000        1.0080           0   0.00000   0.00000
     28969 MEOH     1382     MEOH     H1B      HDA3B    0.080000        1.0080           0   0.00000   0.00000
     28970 MEOH     1382     MEOH     H1C      HDA3B    0.080000        1.0080           0   0.00000   0.00000
     28971 MEOH     1382     MEOH     LP1A     LPD     -0.230000        0.0000           -1   0.00000   0.00000
     28972 MEOH     1382     MEOH     LP1B     LPD     -0.230000        0.0000           -1   0.00000   0.00000
     28973 MEOH     1383     MEOH     C1       CD33B    2.314100       11.6110           0   -1.00000   1.30000
     28974 MEOH     1383     MEOH     DC1      DRUD    -2.454100        0.4000           0   0.00000   0.00000
     28975 MEOH     1383     MEOH     O1       OD31H    2.488300       15.5990           0   -1.02800   1.30000
     28976 MEOH     1383     MEOH     DO1      DRUD    -2.488300        0.4000           0   0.00000   0.00000
     28977 MEOH     1383     MEOH     HO1      HDP1A    0.360000        1.0080           0   0.00000   0.00000
     28978 MEOH     1383     MEOH     HO2      DUMH     0.000000        1.0080           0   0.00000   0.00000
     28979 MEOH     1383     MEOH     H1A      HDA3B    0.080000        1.0080           0   0.00000   0.00000
     28980 MEOH     1383     MEOH     H1B      HDA3B    0.080000        1.0080           0   0.00000   0.00000
     28981 MEOH     1383     MEOH     H1C      HDA3B    0.080000        1.0080           0   0.00000   0.00000
     28982 MEOH     1383     MEOH     LP1A     LPD     -0.230000        0.0000           -1   0.00000   0.00000
     28983 MEOH     1383     MEOH     LP1B     LPD     -0.230000        0.0000           -1   0.00000   0.00000
     28984 MEOH     1384     MEOH     C1       CD33B    2.314100       11.6110           0   -1.00000   1.30000
     28985 MEOH     1384     MEOH     DC1      DRUD    -2.454100        0.4000           0   0.00000   0.00000
     28986 MEOH     1384     MEOH     O1       OD31H    2.488300       15.5990           0   -1.02800   1.30000
     28987 MEOH     1384     MEOH     DO1      DRUD    -2.488300        0.4000           0   0.00000   0.00000
     28988 MEOH     1384     MEOH     HO1      HDP1A    0.360000        1.0080           0   0.00000   0.00000
     28989 MEOH     1384     MEOH     HO2      DUMH     0.000000        1.0080           0   0.00000   0.00000
     28990 MEOH     1384     MEOH     H1A      HDA3B    0.080000        1.0080           0   0.00000   0.00000
     28991 MEOH     1384     MEOH     H1B      HDA3B    0.080000        1.0080           0   0.00000   0.00000
     28992 MEOH     1384     MEOH     H1C      HDA3B    0.080000        1.0080           0   0.00000   0.00000
     28993 MEOH     1384     MEOH     LP1A     LPD     -0.230000        0.0000           -1   0.00000   0.00000
     28994 MEOH     1384     MEOH     LP1B     LPD     -0.230000        0.0000           -1   0.00000   0.00000
     28995 MEOH     1385     MEOH     C1       CD33B    2.314100       11.6110           0   -1.00000   1.30000
     28996 MEOH     1385     MEOH     DC1      DRUD    -2.454100        0.4000           0   0.00000   0.00000
     28997 MEOH     1385     MEOH     O1       OD31H    2.488300       15.5990           0   -1.02800   1.30000
     28998 MEOH     1385     MEOH     DO1      DRUD    -2.488300        0.4000           0   0.00000   0.00000
     28999 MEOH     1385     MEOH     HO1      HDP1A    0.360000        1.0080           0   0.00000   0.00000
     29000 MEOH     1385     MEOH     HO2      DUMH     0.000000        1.0080           0   0.00000   0.00000
     29001 MEOH     1385     MEOH     H1A      HDA3B    0.080000        1.0080           0   0.00000   0.00000
     29002 MEOH     1385     MEOH     H1B      HDA3B    0.080000        1.0080           0   0.00000   0.00000
     29003 MEOH     1385     MEOH     H1C      HDA3B    0.080000        1.0080           0   0.00000   0.00000
     29004 MEOH     1385     MEOH     LP1A     LPD     -0.230000        0.0000           -1   0.00000   0.00000
     29005 MEOH     1385     MEOH     LP1B     LPD     -0.230000        0.0000           -1   0.00000   0.00000
     29006 MEOH     1386     MEOH     C1       CD33B    2.314100       11.6110           0   -1.00000   1.30000
     29007 MEOH     1386     MEOH     DC1      DRUD    -2.454100        0.4000           0   0.00000   0.00000
     29008 MEOH     1386     MEOH     O1       OD31H    2.488300       15.5990           0   -1.02800   1.30000
     29009 MEOH     1386     MEOH     DO1      DRUD    -2.488300        0.4000           0   0.00000   0.00000
     29010 MEOH     1386     MEOH     HO1      HDP1A    0.360000        1.0080           0   0.00000   0.00000
     29011 MEOH     1386     MEOH     HO2      DUMH     0.000000        1.0080           0   0.00000   0.00000
     29012 MEOH     1386     MEOH     H1A      HDA3B    0.080000        1.0080           0   0.00000   0.00000
     29013 MEOH     1386     MEOH     H1B      HDA3B    0.080000        1.0080           0   0.00000   0.00000
     29014 MEOH     1386     MEOH     H1C      HDA3B    0.080000        1.0080           0   0.00000   0.00000
     29015 MEOH     1386     MEOH     LP1A     LPD     -0.230000        0.0000           -1   0.00000   0.00000
     29016 MEOH     1386     MEOH     LP1B     LPD     -0.230000        0.0000           -1   0.00000   0.00000
     29017 MEOH     1387     MEOH     C1       CD33B    2.314100       11.6110           0   -1.00000   1.30000
     29018 MEOH     1387     MEOH     DC1      DRUD    -2.454100        0.4000           0   0.00000   0.00000
     29019 MEOH     1387     MEOH     O1       OD31H    2.488300       15.5990           0   -1.02800   1.30000
     29020 MEOH     1387     MEOH     DO1      DRUD    -2.488300        0.4000           0   0.00000   0.00000
     29021 MEOH     1387     MEOH     HO1      HDP1A    0.360000        1.0080           0   0.00000   0.00000
     29022 MEOH     1387     MEOH     HO2      DUMH     0.000000        1.0080           0   0.00000   0.00000
     29023 MEOH     1387     MEOH     H1A      HDA3B    0.080000        1.0080           0   0.00000   0.00000
     29024 MEOH     1387     MEOH     H1B      HDA3B    0.080000        1.0080           0   0.00000   0.00000
     29025 MEOH     1387     MEOH     H1C      HDA3B    0.080000        1.0080           0   0.00000   0.00000
     29026 MEOH     1387     MEOH     LP1A     LPD     -0.230000        0.0000           -1   0.00000   0.00000
     29027 MEOH     1387     MEOH     LP1B     LPD     -0.230000        0.0000           -1   0.00000   0.00000
     29028 MEOH     1388     MEOH     C1       CD33B    2.314100       11.6110           0   -1.00000   1.30000
     29029 MEOH     1388     MEOH     DC1      DRUD    -2.454100        0.4000           0   0.00000   0.00000
     29030 MEOH     1388     MEOH     O1       OD31H    2.488300       15.5990           0   -1.02800   1.30000
     29031 MEOH     1388     MEOH     DO1      DRUD    -2.488300        0.4000           0   0.00000   0.00000
     29032 MEOH     1388     MEOH     HO1      HDP1A    0.360000        1.0080           0   0.00000   0.00000
     29033 MEOH     1388     MEOH     HO2      DUMH     0.000000        1.0080           0   0.00000   0.00000
     29034 MEOH     1388     MEOH     H1A      HDA3B    0.080000        1.0080           0   0.00000   0.00000
     29035 MEOH     1388     MEOH     H1B      HDA3B    0.080000        1.0080           0   0.00000   0.00000
     29036 MEOH     1388     MEOH     H1C      HDA3B    0.080000        1.0080           0   0.00000   0.00000
     29037 MEOH     1388     MEOH     LP1A     LPD     -0.230000        0.0000           -1   0.00000   0.00000
     29038 MEOH     1388     MEOH     LP1B     LPD     -0.230000        0.0000           -1   0.00000   0.00000
     29039 MEOH     1389     MEOH     C1       CD33B    2.314100       11.6110           0   -1.00000   1.30000
     29040 MEOH     1389     MEOH     DC1      DRUD    -2.454100        0.4000           0   0.00000   0.00000
     29041 MEOH     1389     MEOH     O1       OD31H    2.488300       15.5990           0   -1.02800   1.30000
     29042 MEOH     1389     MEOH     DO1      DRUD    -2.488300        0.4000           0   0.00000   0.00000
     29043 MEOH     1389     MEOH     HO1      HDP1A    0.360000        1.0080           0   0.00000   0.00000
     29044 MEOH     1389     MEOH     HO2      DUMH     0.000000        1.0080           0   0.00000   0.00000
     29045 MEOH     1389     MEOH     H1A      HDA3B    0.080000        1.0080           0   0.00000   0.00000
     29046 MEOH     1389     MEOH     H1B      HDA3B    0.080000        1.0080           0   0.00000   0.00000
     29047 MEOH     1389     MEOH     H1C      HDA3B    0.080000        1.0080           0   0.00000   0.00000
     29048 MEOH     1389     MEOH     LP1A     LPD     -0.230000        0.0000           -1   0.00000   0.00000
     29049 MEOH     1389     MEOH     LP1B     LPD     -0.230000        0.0000           -1   0.00000   0.00000
     29050 MEOH     1390     MEOH     C1       CD33B    2.314100       11.6110           0   -1.00000   1.30000
     29051 MEOH     1390     MEOH     DC1      DRUD    -2.454100        0.4000           0   0.00000   0.00000
     29052 MEOH     1390     MEOH     O1       OD31H    2.488300       15.5990           0   -1.02800   1.30000
     29053 MEOH     1390     MEOH     DO1      DRUD    -2.488300        0.4000           0   0.00000   0.00000
     29054 MEOH     1390     MEOH     HO1      HDP1A    0.360000        1.0080           0   0.00000   0.00000
     29055 MEOH     1390     MEOH     HO2      DUMH     0.000000        1.0080           0   0.00000   0.00000
     29056 MEOH     1390     MEOH     H1A      HDA3B    0.080000        1.0080           0   0.00000   0.00000
     29057 MEOH     1390     MEOH     H1B      HDA3B    0.080000        1.0080           0   0.00000   0.00000
     29058 MEOH     1390     MEOH     H1C      HDA3B    0.080000        1.0080           0   0.00000   0.00000
     29059 MEOH     1390     MEOH     LP1A     LPD     -0.230000        0.0000           -1   0.00000   0.00000
     29060 MEOH     1390     MEOH     LP1B     LPD     -0.230000        0.0000           -1   0.00000   0.00000
     29061 MEOH     1391     MEOH     C1       CD33B    2.314100       11.6110           0   -1.00000   1.30000
     29062 MEOH     1391     MEOH     DC1      DRUD    -2.454100        0.4000           0   0.00000   0.00000
     29063 MEOH     1391     MEOH     O1       OD31H    2.488300       15.5990           0   -1.02800   1.30000
     29064 MEOH     1391     MEOH     DO1      DRUD    -2.488300        0.4000           0   0.00000   0.00000
     29065 MEOH     1391     MEOH     HO1      HDP1A    0.360000        1.0080           0   0.00000   0.00000
     29066 MEOH     1391     MEOH     HO2      DUMH     0.000000        1.0080           0   0.00000   0.00000
     29067 MEOH     1391     MEOH     H1A      HDA3B    0.080000        1.0080           0   0.00000   0.00000
     29068 MEOH     1391     MEOH     H1B      HDA3B    0.080000        1.0080           0   0.00000   0.00000
     29069 MEOH     1391     MEOH     H1C      HDA3B    0.080000        1.0080           0   0.00000   0.00000
     29070 MEOH     1391     MEOH     LP1A     LPD     -0.230000        0.0000           -1   0.00000   0.00000
     29071 MEOH     1391     MEOH     LP1B     LPD     -0.230000        0.0000           -1   0.00000   0.00000
     29072 MEOH     1392     MEOH     C1       CD33B    2.314100       11.6110           0   -1.00000   1.30000
     29073 MEOH     1392     MEOH     DC1      DRUD    -2.454100        0.4000           0   0.00000   0.00000
     29074 MEOH     1392     MEOH     O1       OD31H    2.488300       15.5990           0   -1.02800   1.30000
     29075 MEOH     1392     MEOH     DO1      DRUD    -2.488300        0.4000           0   0.00000   0.00000
     29076 MEOH     1392     MEOH     HO1      HDP1A    0.360000        1.0080           0   0.00000   0.00000
     29077 MEOH     1392     MEOH     HO2      DUMH     0.000000        1.0080           0   0.00000   0.00000
     29078 MEOH     1392     MEOH     H1A      HDA3B    0.080000        1.0080           0   0.00000   0.00000
     29079 MEOH     1392     MEOH     H1B      HDA3B    0.080000        1.0080           0   0.00000   0.00000
     29080 MEOH     1392     MEOH     H1C      HDA3B    0.080000        1.0080           0   0.00000   0.00000
     29081 MEOH     1392     MEOH     LP1A     LPD     -0.230000        0.0000           -1   0.00000   0.00000
     29082 MEOH     1392     MEOH     LP1B     LPD     -0.230000        0.0000           -1   0.00000   0.00000
     29083 MEOH     1393     MEOH     C1       CD33B    2.314100       11.6110           0   -1.00000   1.30000
     29084 MEOH     1393     MEOH     DC1      DRUD    -2.454100        0.4000           0   0.00000   0.00000
     29085 MEOH     1393     MEOH     O1       OD31H    2.488300       15.5990           0   -1.02800   1.30000
     29086 MEOH     1393     MEOH     DO1      DRUD    -2.488300        0.4000           0   0.00000   0.00000
     29087 MEOH     1393     MEOH     HO1      HDP1A    0.360000        1.0080           0   0.00000   0.00000
     29088 MEOH     1393     MEOH     HO2      DUMH     0.000000        1.0080           0   0.00000   0.00000
     29089 MEOH     1393     MEOH     H1A      HDA3B    0.080000        1.0080           0   0.00000   0.00000
     29090 MEOH     1393     MEOH     H1B      HDA3B    0.080000        1.0080           0   0.00000   0.00000
     29091 MEOH     1393     MEOH     H1C      HDA3B    0.080000        1.0080           0   0.00000   0.00000
     29092 MEOH     1393     MEOH     LP1A     LPD     -0.230000        0.0000           -1   0.00000   0.00000
     29093 MEOH     1393     MEOH     LP1B     LPD     -0.230000        0.0000           -1   0.00000   0.00000
     29094 MEOH     1394     MEOH     C1       CD33B    2.314100       11.6110           0   -1.00000   1.30000
     29095 MEOH     1394     MEOH     DC1      DRUD    -2.454100        0.4000           0   0.00000   0.00000
     29096 MEOH     1394     MEOH     O1       OD31H    2.488300       15.5990           0   -1.02800   1.30000
     29097 MEOH     1394     MEOH     DO1      DRUD    -2.488300        0.4000           0   0.00000   0.00000
     29098 MEOH     1394     MEOH     HO1      HDP1A    0.360000        1.0080           0   0.00000   0.00000
     29099 MEOH     1394     MEOH     HO2      DUMH     0.000000        1.0080           0   0.00000   0.00000
     29100 MEOH     1394     MEOH     H1A      HDA3B    0.080000        1.0080           0   0.00000   0.00000
     29101 MEOH     1394     MEOH     H1B      HDA3B    0.080000        1.0080           0   0.00000   0.00000
     29102 MEOH     1394     MEOH     H1C      HDA3B    0.080000        1.0080           0   0.00000   0.00000
     29103 MEOH     1394     MEOH     LP1A     LPD     -0.230000        0.0000           -1   0.00000   0.00000
     29104 MEOH     1394     MEOH     LP1B     LPD     -0.230000        0.0000           -1   0.00000   0.00000
     29105 MEOH     1395     MEOH     C1       CD33B    2.314100       11.6110           0   -1.00000   1.30000
     29106 MEOH     1395     MEOH     DC1      DRUD    -2.454100        0.4000           0   0.00000   0.00000
     29107 MEOH     1395     MEOH     O1       OD31H    2.488300       15.5990           0   -1.02800   1.30000
     29108 MEOH     1395     MEOH     DO1      DRUD    -2.488300        0.4000           0   0.00000   0.00000
     29109 MEOH     1395     MEOH     HO1      HDP1A    0.360000        1.0080           0   0.00000   0.00000
     29110 MEOH     1395     MEOH     HO2      DUMH     0.000000        1.0080           0   0.00000   0.00000
     29111 MEOH     1395     MEOH     H1A      HDA3B    0.080000        1.0080           0   0.00000   0.00000
     29112 MEOH     1395     MEOH     H1B      HDA3B    0.080000        1.0080           0   0.00000   0.00000
     29113 MEOH     1395     MEOH     H1C      HDA3B    0.080000        1.0080           0   0.00000   0.00000
     29114 MEOH     1395     MEOH     LP1A     LPD     -0.230000        0.0000           -1   0.00000   0.00000
     29115 MEOH     1395     MEOH     LP1B     LPD     -0.230000        0.0000           -1   0.00000   0.00000
     29116 MEOH     1396     MEOH     C1       CD33B    2.314100       11.6110           0   -1.00000   1.30000
     29117 MEOH     1396     MEOH     DC1      DRUD    -2.454100        0.4000           0   0.00000   0.00000
     29118 MEOH     1396     MEOH     O1       OD31H    2.488300       15.5990           0   -1.02800   1.30000
     29119 MEOH     1396     MEOH     DO1      DRUD    -2.488300        0.4000           0   0.00000   0.00000
     29120 MEOH     1396     MEOH     HO1      HDP1A    0.360000        1.0080           0   0.00000   0.00000
     29121 MEOH     1396     MEOH     HO2      DUMH     0.000000        1.0080           0   0.00000   0.00000
     29122 MEOH     1396     MEOH     H1A      HDA3B    0.080000        1.0080           0   0.00000   0.00000
     29123 MEOH     1396     MEOH     H1B      HDA3B    0.080000        1.0080           0   0.00000   0.00000
     29124 MEOH     1396     MEOH     H1C      HDA3B    0.080000        1.0080           0   0.00000   0.00000
     29125 MEOH     1396     MEOH     LP1A     LPD     -0.230000        0.0000           -1   0.00000   0.00000
     29126 MEOH     1396     MEOH     LP1B     LPD     -0.230000        0.0000           -1   0.00000   0.00000
     29127 MEOH     1397     MEOH     C1       CD33B    2.314100       11.6110           0   -1.00000   1.30000
     29128 MEOH     1397     MEOH     DC1      DRUD    -2.454100        0.4000           0   0.00000   0.00000
     29129 MEOH     1397     MEOH     O1       OD31H    2.488300       15.5990           0   -1.02800   1.30000
     29130 MEOH     1397     MEOH     DO1      DRUD    -2.488300        0.4000           0   0.00000   0.00000
     29131 MEOH     1397     MEOH     HO1      HDP1A    0.360000        1.0080           0   0.00000   0.00000
     29132 MEOH     1397     MEOH     HO2      DUMH     0.000000        1.0080           0   0.00000   0.00000
     29133 MEOH     1397     MEOH     H1A      HDA3B    0.080000        1.0080           0   0.00000   0.00000
     29134 MEOH     1397     MEOH     H1B      HDA3B    0.080000        1.0080           0   0.00000   0.00000
     29135 MEOH     1397     MEOH     H1C      HDA3B    0.080000        1.0080           0   0.00000   0.00000
     29136 MEOH     1397     MEOH     LP1A     LPD     -0.230000        0.0000           -1   0.00000   0.00000
     29137 MEOH     1397     MEOH     LP1B     LPD     -0.230000        0.0000           -1   0.00000   0.00000
     29138 MEOH     1398     MEOH     C1       CD33B    2.314100       11.6110           0   -1.00000   1.30000
     29139 MEOH     1398     MEOH     DC1      DRUD    -2.454100        0.4000           0   0.00000   0.00000
     29140 MEOH     1398     MEOH     O1       OD31H    2.488300       15.5990           0   -1.02800   1.30000
     29141 MEOH     1398     MEOH     DO1      DRUD    -2.488300        0.4000           0   0.00000   0.00000
     29142 MEOH     1398     MEOH     HO1      HDP1A    0.360000        1.0080           0   0.00000   0.00000
     29143 MEOH     1398     MEOH     HO2      DUMH     0.000000        1.0080           0   0.00000   0.00000
     29144 MEOH     1398     MEOH     H1A      HDA3B    0.080000        1.0080           0   0.00000   0.00000
     29145 MEOH     1398     MEOH     H1B      HDA3B    0.080000        1.0080           0   0.00000   0.00000
     29146 MEOH     1398     MEOH     H1C      HDA3B    0.080000        1.0080           0   0.00000   0.00000
     29147 MEOH     1398     MEOH     LP1A     LPD     -0.230000        0.0000           -1   0.00000   0.00000
     29148 MEOH     1398     MEOH     LP1B     LPD     -0.230000        0.0000           -1   0.00000   0.00000
     29149 MEOH     1399     MEOH     C1       CD33B    2.314100       11.6110           0   -1.00000   1.30000
     29150 MEOH     1399     MEOH     DC1      DRUD    -2.454100        0.4000           0   0.00000   0.00000
     29151 MEOH     1399     MEOH     O1       OD31H    2.488300       15.5990           0   -1.02800   1.30000
     29152 MEOH     1399     MEOH     DO1      DRUD    -2.488300        0.4000           0   0.00000   0.00000
     29153 MEOH     1399     MEOH     HO1      HDP1A    0.360000        1.0080           0   0.00000   0.00000
     29154 MEOH     1399     MEOH     HO2      DUMH     0.000000        1.0080           0   0.00000   0.00000
     29155 MEOH     1399     MEOH     H1A      HDA3B    0.080000        1.0080           0   0.00000   0.00000
     29156 MEOH     1399     MEOH     H1B      HDA3B    0.080000        1.0080           0   0.00000   0.00000
     29157 MEOH     1399     MEOH     H1C      HDA3B    0.080000        1.0080           0   0.00000   0.00000
     29158 MEOH     1399     MEOH     LP1A     LPD     -0.230000        0.0000           -1   0.00000   0.00000
     29159 MEOH     1399     MEOH     LP1B     LPD     -0.230000        0.0000           -1   0.00000   0.00000
     29160 MEOH     1400     MEOH     C1       CD33B    2.314100       11.6110           0   -1.00000   1.30000
     29161 MEOH     1400     MEOH     DC1      DRUD    -2.454100        0.4000           0   0.00000   0.00000
     29162 MEOH     1400     MEOH     O1       OD31H    2.488300       15.5990           0   -1.02800   1.30000
     29163 MEOH     1400     MEOH     DO1      DRUD    -2.488300        0.4000           0   0.00000   0.00000
     29164 MEOH     1400     MEOH     HO1      HDP1A    0.360000        1.0080           0   0.00000   0.00000
     29165 MEOH     1400     MEOH     HO2      DUMH     0.000000        1.0080           0   0.00000   0.00000
     29166 MEOH     1400     MEOH     H1A      HDA3B    0.080000        1.0080           0   0.00000   0.00000
     29167 MEOH     1400     MEOH     H1B      HDA3B    0.080000        1.0080           0   0.00000   0.00000
     29168 MEOH     1400     MEOH     H1C      HDA3B    0.080000        1.0080           0   0.00000   0.00000
     29169 MEOH     1400     MEOH     LP1A     LPD     -0.230000        0.0000           -1   0.00000   0.00000
     29170 MEOH     1400     MEOH     LP1B     LPD     -0.230000        0.0000           -1   0.00000   0.00000
     29171 MEOH     1401     MEOH     C1       CD33B    2.314100       11.6110           0   -1.00000   1.30000
     29172 MEOH     1401     MEOH     DC1      DRUD    -2.454100        0.4000           0   0.00000   0.00000
     29173 MEOH     1401     MEOH     O1       OD31H    2.488300       15.5990           0   -1.02800   1.30000
     29174 MEOH     1401     MEOH     DO1      DRUD    -2.488300        0.4000           0   0.00000   0.00000
     29175 MEOH     1401     MEOH     HO1      HDP1A    0.360000        1.0080           0   0.00000   0.00000
     29176 MEOH     1401     MEOH     HO2      DUMH     0.000000        1.0080           0   0.00000   0.00000
     29177 MEOH     1401     MEOH     H1A      HDA3B    0.080000        1.0080           0   0.00000   0.00000
     29178 MEOH     1401     MEOH     H1B      HDA3B    0.080000        1.0080           0   0.00000   0.00000
     29179 MEOH     1401     MEOH     H1C      HDA3B    0.080000        1.0080           0   0.00000   0.00000
     29180 MEOH     1401     MEOH     LP1A     LPD     -0.230000        0.0000           -1   0.00000   0.00000
     29181 MEOH     1401     MEOH     LP1B     LPD     -0.230000        0.0000           -1   0.00000   0.00000
     29182 MEOH     1402     MEOH     C1       CD33B    2.314100       11.6110           0   -1.00000   1.30000
     29183 MEOH     1402     MEOH     DC1      DRUD    -2.454100        0.4000           0   0.00000   0.00000
     29184 MEOH     1402     MEOH     O1       OD31H    2.488300       15.5990           0   -1.02800   1.30000
     29185 MEOH     1402     MEOH     DO1      DRUD    -2.488300        0.4000           0   0.00000   0.00000
     29186 MEOH     1402     MEOH     HO1      HDP1A    0.360000        1.0080           0   0.00000   0.00000
     29187 MEOH     1402     MEOH     HO2      DUMH     0.000000        1.0080           0   0.00000   0.00000
     29188 MEOH     1402     MEOH     H1A      HDA3B    0.080000        1.0080           0   0.00000   0.00000
     29189 MEOH     1402     MEOH     H1B      HDA3B    0.080000        1.0080           0   0.00000   0.00000
     29190 MEOH     1402     MEOH     H1C      HDA3B    0.080000        1.0080           0   0.00000   0.00000
     29191 MEOH     1402     MEOH     LP1A     LPD     -0.230000        0.0000           -1   0.00000   0.00000
     29192 MEOH     1402     MEOH     LP1B     LPD     -0.230000        0.0000           -1   0.00000   0.00000
     29193 MEOH     1403     MEOH     C1       CD33B    2.314100       11.6110           0   -1.00000   1.30000
     29194 MEOH     1403     MEOH     DC1      DRUD    -2.454100        0.4000           0   0.00000   0.00000
     29195 MEOH     1403     MEOH     O1       OD31H    2.488300       15.5990           0   -1.02800   1.30000
     29196 MEOH     1403     MEOH     DO1      DRUD    -2.488300        0.4000           0   0.00000   0.00000
     29197 MEOH     1403     MEOH     HO1      HDP1A    0.360000        1.0080           0   0.00000   0.00000
     29198 MEOH     1403     MEOH     HO2      DUMH     0.000000        1.0080           0   0.00000   0.00000
     29199 MEOH     1403     MEOH     H1A      HDA3B    0.080000        1.0080           0   0.00000   0.00000
     29200 MEOH     1403     MEOH     H1B      HDA3B    0.080000        1.0080           0   0.00000   0.00000
     29201 MEOH     1403     MEOH     H1C      HDA3B    0.080000        1.0080           0   0.00000   0.00000
     29202 MEOH     1403     MEOH     LP1A     LPD     -0.230000        0.0000           -1   0.00000   0.00000
     29203 MEOH     1403     MEOH     LP1B     LPD     -0.230000        0.0000           -1   0.00000   0.00000
     29204 MEOH     1404     MEOH     C1       CD33B    2.314100       11.6110           0   -1.00000   1.30000
     29205 MEOH     1404     MEOH     DC1      DRUD    -2.454100        0.4000           0   0.00000   0.00000
     29206 MEOH     1404     MEOH     O1       OD31H    2.488300       15.5990           0   -1.02800   1.30000
     29207 MEOH     1404     MEOH     DO1      DRUD    -2.488300        0.4000           0   0.00000   0.00000
     29208 MEOH     1404     MEOH     HO1      HDP1A    0.360000        1.0080           0   0.00000   0.00000
     29209 MEOH     1404     MEOH     HO2      DUMH     0.000000        1.0080           0   0.00000   0.00000
     29210 MEOH     1404     MEOH     H1A      HDA3B    0.080000        1.0080           0   0.00000   0.00000
     29211 MEOH     1404     MEOH     H1B      HDA3B    0.080000        1.0080           0   0.00000   0.00000
     29212 MEOH     1404     MEOH     H1C      HDA3B    0.080000        1.0080           0   0.00000   0.00000
     29213 MEOH     1404     MEOH     LP1A     LPD     -0.230000        0.0000           -1   0.00000   0.00000
     29214 MEOH     1404     MEOH     LP1B     LPD     -0.230000        0.0000           -1   0.00000   0.00000
     29215 MEOH     1405     MEOH     C1       CD33B    2.314100       11.6110           0   -1.00000   1.30000
     29216 MEOH     1405     MEOH     DC1      DRUD    -2.454100        0.4000           0   0.00000   0.00000
     29217 MEOH     1405     MEOH     O1       OD31H    2.488300       15.5990           0   -1.02800   1.30000
     29218 MEOH     1405     MEOH     DO1      DRUD    -2.488300        0.4000           0   0.00000   0.00000
     29219 MEOH     1405     MEOH     HO1      HDP1A    0.360000        1.0080           0   0.00000   0.00000
     29220 MEOH     1405     MEOH     HO2      DUMH     0.000000        1.0080           0   0.00000   0.00000
     29221 MEOH     1405     MEOH     H1A      HDA3B    0.080000        1.0080           0   0.00000   0.00000
     29222 MEOH     1405     MEOH     H1B      HDA3B    0.080000        1.0080           0   0.00000   0.00000
     29223 MEOH     1405     MEOH     H1C      HDA3B    0.080000        1.0080           0   0.00000   0.00000
     29224 MEOH     1405     MEOH     LP1A     LPD     -0.230000        0.0000           -1   0.00000   0.00000
     29225 MEOH     1405     MEOH     LP1B     LPD     -0.230000        0.0000           -1   0.00000   0.00000
     29226 MEOH     1406     MEOH     C1       CD33B    2.314100       11.6110           0   -1.00000   1.30000
     29227 MEOH     1406     MEOH     DC1      DRUD    -2.454100        0.4000           0   0.00000   0.00000
     29228 MEOH     1406     MEOH     O1       OD31H    2.488300       15.5990           0   -1.02800   1.30000
     29229 MEOH     1406     MEOH     DO1      DRUD    -2.488300        0.4000           0   0.00000   0.00000
     29230 MEOH     1406     MEOH     HO1      HDP1A    0.360000        1.0080           0   0.00000   0.00000
     29231 MEOH     1406     MEOH     HO2      DUMH     0.000000        1.0080           0   0.00000   0.00000
     29232 MEOH     1406     MEOH     H1A      HDA3B    0.080000        1.0080           0   0.00000   0.00000
     29233 MEOH     1406     MEOH     H1B      HDA3B    0.080000        1.0080           0   0.00000   0.00000
     29234 MEOH     1406     MEOH     H1C      HDA3B    0.080000        1.0080           0   0.00000   0.00000
     29235 MEOH     1406     MEOH     LP1A     LPD     -0.230000        0.0000           -1   0.00000   0.00000
     29236 MEOH     1406     MEOH     LP1B     LPD     -0.230000        0.0000           -1   0.00000   0.00000
     29237 MEOH     1407     MEOH     C1       CD33B    2.314100       11.6110           0   -1.00000   1.30000
     29238 MEOH     1407     MEOH     DC1      DRUD    -2.454100        0.4000           0   0.00000   0.00000
     29239 MEOH     1407     MEOH     O1       OD31H    2.488300       15.5990           0   -1.02800   1.30000
     29240 MEOH     1407     MEOH     DO1      DRUD    -2.488300        0.4000           0   0.00000   0.00000
     29241 MEOH     1407     MEOH     HO1      HDP1A    0.360000        1.0080           0   0.00000   0.00000
     29242 MEOH     1407     MEOH     HO2      DUMH     0.000000        1.0080           0   0.00000   0.00000
     29243 MEOH     1407     MEOH     H1A      HDA3B    0.080000        1.0080           0   0.00000   0.00000
     29244 MEOH     1407     MEOH     H1B      HDA3B    0.080000        1.0080           0   0.00000   0.00000
     29245 MEOH     1407     MEOH     H1C      HDA3B    0.080000        1.0080           0   0.00000   0.00000
     29246 MEOH     1407     MEOH     LP1A     LPD     -0.230000        0.0000           -1   0.00000   0.00000
     29247 MEOH     1407     MEOH     LP1B     LPD     -0.230000        0.0000           -1   0.00000   0.00000
     29248 MEOH     1408     MEOH     C1       CD33B    2.314100       11.6110           0   -1.00000   1.30000
     29249 MEOH     1408     MEOH     DC1      DRUD    -2.454100        0.4000           0   0.00000   0.00000
     29250 MEOH     1408     MEOH     O1       OD31H    2.488300       15.5990           0   -1.02800   1.30000
     29251 MEOH     1408     MEOH     DO1      DRUD    -2.488300        0.4000           0   0.00000   0.00000
     29252 MEOH     1408     MEOH     HO1      HDP1A    0.360000        1.0080           0   0.00000   0.00000
     29253 MEOH     1408     MEOH     HO2      DUMH     0.000000        1.0080           0   0.00000   0.00000
     29254 MEOH     1408     MEOH     H1A      HDA3B    0.080000        1.0080           0   0.00000   0.00000
     29255 MEOH     1408     MEOH     H1B      HDA3B    0.080000        1.0080           0   0.00000   0.00000
     29256 MEOH     1408     MEOH     H1C      HDA3B    0.080000        1.0080           0   0.00000   0.00000
     29257 MEOH     1408     MEOH     LP1A     LPD     -0.230000        0.0000           -1   0.00000   0.00000
     29258 MEOH     1408     MEOH     LP1B     LPD     -0.230000        0.0000           -1   0.00000   0.00000
     29259 MEOH     1409     MEOH     C1       CD33B    2.314100       11.6110           0   -1.00000   1.30000
     29260 MEOH     1409     MEOH     DC1      DRUD    -2.454100        0.4000           0   0.00000   0.00000
     29261 MEOH     1409     MEOH     O1       OD31H    2.488300       15.5990           0   -1.02800   1.30000
     29262 MEOH     1409     MEOH     DO1      DRUD    -2.488300        0.4000           0   0.00000   0.00000
     29263 MEOH     1409     MEOH     HO1      HDP1A    0.360000        1.0080           0   0.00000   0.00000
     29264 MEOH     1409     MEOH     HO2      DUMH     0.000000        1.0080           0   0.00000   0.00000
     29265 MEOH     1409     MEOH     H1A      HDA3B    0.080000        1.0080           0   0.00000   0.00000
     29266 MEOH     1409     MEOH     H1B      HDA3B    0.080000        1.0080           0   0.00000   0.00000
     29267 MEOH     1409     MEOH     H1C      HDA3B    0.080000        1.0080           0   0.00000   0.00000
     29268 MEOH     1409     MEOH     LP1A     LPD     -0.230000        0.0000           -1   0.00000   0.00000
     29269 MEOH     1409     MEOH     LP1B     LPD     -0.230000        0.0000           -1   0.00000   0.00000
     29270 MEOH     1410     MEOH     C1       CD33B    2.314100       11.6110           0   -1.00000   1.30000
     29271 MEOH     1410     MEOH     DC1      DRUD    -2.454100        0.4000           0   0.00000   0.00000
     29272 MEOH     1410     MEOH     O1       OD31H    2.488300       15.5990           0   -1.02800   1.30000
     29273 MEOH     1410     MEOH     DO1      DRUD    -2.488300        0.4000           0   0.00000   0.00000
     29274 MEOH     1410     MEOH     HO1      HDP1A    0.360000        1.0080           0   0.00000   0.00000
     29275 MEOH     1410     MEOH     HO2      DUMH     0.000000        1.0080           0   0.00000   0.00000
     29276 MEOH     1410     MEOH     H1A      HDA3B    0.080000        1.0080           0   0.00000   0.00000
     29277 MEOH     1410     MEOH     H1B      HDA3B    0.080000        1.0080           0   0.00000   0.00000
     29278 MEOH     1410     MEOH     H1C      HDA3B    0.080000        1.0080           0   0.00000   0.00000
     29279 MEOH     1410     MEOH     LP1A     LPD     -0.230000        0.0000           -1   0.00000   0.00000
     29280 MEOH     1410     MEOH     LP1B     LPD     -0.230000        0.0000           -1   0.00000   0.00000
     29281 MEOH     1411     MEOH     C1       CD33B    2.314100       11.6110           0   -1.00000   1.30000
     29282 MEOH     1411     MEOH     DC1      DRUD    -2.454100        0.4000           0   0.00000   0.00000
     29283 MEOH     1411     MEOH     O1       OD31H    2.488300       15.5990           0   -1.02800   1.30000
     29284 MEOH     1411     MEOH     DO1      DRUD    -2.488300        0.4000           0   0.00000   0.00000
     29285 MEOH     1411     MEOH     HO1      HDP1A    0.360000        1.0080           0   0.00000   0.00000
     29286 MEOH     1411     MEOH     HO2      DUMH     0.000000        1.0080           0   0.00000   0.00000
     29287 MEOH     1411     MEOH     H1A      HDA3B    0.080000        1.0080           0   0.00000   0.00000
     29288 MEOH     1411     MEOH     H1B      HDA3B    0.080000        1.0080           0   0.00000   0.00000
     29289 MEOH     1411     MEOH     H1C      HDA3B    0.080000        1.0080           0   0.00000   0.00000
     29290 MEOH     1411     MEOH     LP1A     LPD     -0.230000        0.0000           -1   0.00000   0.00000
     29291 MEOH     1411     MEOH     LP1B     LPD     -0.230000        0.0000           -1   0.00000   0.00000
     29292 MEOH     1412     MEOH     C1       CD33B    2.314100       11.6110           0   -1.00000   1.30000
     29293 MEOH     1412     MEOH     DC1      DRUD    -2.454100        0.4000           0   0.00000   0.00000
     29294 MEOH     1412     MEOH     O1       OD31H    2.488300       15.5990           0   -1.02800   1.30000
     29295 MEOH     1412     MEOH     DO1      DRUD    -2.488300        0.4000           0   0.00000   0.00000
     29296 MEOH     1412     MEOH     HO1      HDP1A    0.360000        1.0080           0   0.00000   0.00000
     29297 MEOH     1412     MEOH     HO2      DUMH     0.000000        1.0080           0   0.00000   0.00000
     29298 MEOH     1412     MEOH     H1A      HDA3B    0.080000        1.0080           0   0.00000   0.00000
     29299 MEOH     1412     MEOH     H1B      HDA3B    0.080000        1.0080           0   0.00000   0.00000
     29300 MEOH     1412     MEOH     H1C      HDA3B    0.080000        1.0080           0   0.00000   0.00000
     29301 MEOH     1412     MEOH     LP1A     LPD     -0.230000        0.0000           -1   0.00000   0.00000
     29302 MEOH     1412     MEOH     LP1B     LPD     -0.230000        0.0000           -1   0.00000   0.00000
     29303 MEOH     1413     MEOH     C1       CD33B    2.314100       11.6110           0   -1.00000   1.30000
     29304 MEOH     1413     MEOH     DC1      DRUD    -2.454100        0.4000           0   0.00000   0.00000
     29305 MEOH     1413     MEOH     O1       OD31H    2.488300       15.5990           0   -1.02800   1.30000
     29306 MEOH     1413     MEOH     DO1      DRUD    -2.488300        0.4000           0   0.00000   0.00000
     29307 MEOH     1413     MEOH     HO1      HDP1A    0.360000        1.0080           0   0.00000   0.00000
     29308 MEOH     1413     MEOH     HO2      DUMH     0.000000        1.0080           0   0.00000   0.00000
     29309 MEOH     1413     MEOH     H1A      HDA3B    0.080000        1.0080           0   0.00000   0.00000
     29310 MEOH     1413     MEOH     H1B      HDA3B    0.080000        1.0080           0   0.00000   0.00000
     29311 MEOH     1413     MEOH     H1C      HDA3B    0.080000        1.0080           0   0.00000   0.00000
     29312 MEOH     1413     MEOH     LP1A     LPD     -0.230000        0.0000           -1   0.00000   0.00000
     29313 MEOH     1413     MEOH     LP1B     LPD     -0.230000        0.0000           -1   0.00000   0.00000
     29314 MEOH     1414     MEOH     C1       CD33B    2.314100       11.6110           0   -1.00000   1.30000
     29315 MEOH     1414     MEOH     DC1      DRUD    -2.454100        0.4000           0   0.00000   0.00000
     29316 MEOH     1414     MEOH     O1       OD31H    2.488300       15.5990           0   -1.02800   1.30000
     29317 MEOH     1414     MEOH     DO1      DRUD    -2.488300        0.4000           0   0.00000   0.00000
     29318 MEOH     1414     MEOH     HO1      HDP1A    0.360000        1.0080           0   0.00000   0.00000
     29319 MEOH     1414     MEOH     HO2      DUMH     0.000000        1.0080           0   0.00000   0.00000
     29320 MEOH     1414     MEOH     H1A      HDA3B    0.080000        1.0080           0   0.00000   0.00000
     29321 MEOH     1414     MEOH     H1B      HDA3B    0.080000        1.0080           0   0.00000   0.00000
     29322 MEOH     1414     MEOH     H1C      HDA3B    0.080000        1.0080           0   0.00000   0.00000
     29323 MEOH     1414     MEOH     LP1A     LPD     -0.230000        0.0000           -1   0.00000   0.00000
     29324 MEOH     1414     MEOH     LP1B     LPD     -0.230000        0.0000           -1   0.00000   0.00000
     29325 MEOH     1415     MEOH     C1       CD33B    2.314100       11.6110           0   -1.00000   1.30000
     29326 MEOH     1415     MEOH     DC1      DRUD    -2.454100        0.4000           0   0.00000   0.00000
     29327 MEOH     1415     MEOH     O1       OD31H    2.488300       15.5990           0   -1.02800   1.30000
     29328 MEOH     1415     MEOH     DO1      DRUD    -2.488300        0.4000           0   0.00000   0.00000
     29329 MEOH     1415     MEOH     HO1      HDP1A    0.360000        1.0080           0   0.00000   0.00000
     29330 MEOH     1415     MEOH     HO2      DUMH     0.000000        1.0080           0   0.00000   0.00000
     29331 MEOH     1415     MEOH     H1A      HDA3B    0.080000        1.0080           0   0.00000   0.00000
     29332 MEOH     1415     MEOH     H1B      HDA3B    0.080000        1.0080           0   0.00000   0.00000
     29333 MEOH     1415     MEOH     H1C      HDA3B    0.080000        1.0080           0   0.00000   0.00000
     29334 MEOH     1415     MEOH     LP1A     LPD     -0.230000        0.0000           -1   0.00000   0.00000
     29335 MEOH     1415     MEOH     LP1B     LPD     -0.230000        0.0000           -1   0.00000   0.00000
     29336 MEOH     1416     MEOH     C1       CD33B    2.314100       11.6110           0   -1.00000   1.30000
     29337 MEOH     1416     MEOH     DC1      DRUD    -2.454100        0.4000           0   0.00000   0.00000
     29338 MEOH     1416     MEOH     O1       OD31H    2.488300       15.5990           0   -1.02800   1.30000
     29339 MEOH     1416     MEOH     DO1      DRUD    -2.488300        0.4000           0   0.00000   0.00000
     29340 MEOH     1416     MEOH     HO1      HDP1A    0.360000        1.0080           0   0.00000   0.00000
     29341 MEOH     1416     MEOH     HO2      DUMH     0.000000        1.0080           0   0.00000   0.00000
     29342 MEOH     1416     MEOH     H1A      HDA3B    0.080000        1.0080           0   0.00000   0.00000
     29343 MEOH     1416     MEOH     H1B      HDA3B    0.080000        1.0080           0   0.00000   0.00000
     29344 MEOH     1416     MEOH     H1C      HDA3B    0.080000        1.0080           0   0.00000   0.00000
     29345 MEOH     1416     MEOH     LP1A     LPD     -0.230000        0.0000           -1   0.00000   0.00000
     29346 MEOH     1416     MEOH     LP1B     LPD     -0.230000        0.0000           -1   0.00000   0.00000
     29347 MEOH     1417     MEOH     C1       CD33B    2.314100       11.6110           0   -1.00000   1.30000
     29348 MEOH     1417     MEOH     DC1      DRUD    -2.454100        0.4000           0   0.00000   0.00000
     29349 MEOH     1417     MEOH     O1       OD31H    2.488300       15.5990           0   -1.02800   1.30000
     29350 MEOH     1417     MEOH     DO1      DRUD    -2.488300        0.4000           0   0.00000   0.00000
     29351 MEOH     1417     MEOH     HO1      HDP1A    0.360000        1.0080           0   0.00000   0.00000
     29352 MEOH     1417     MEOH     HO2      DUMH     0.000000        1.0080           0   0.00000   0.00000
     29353 MEOH     1417     MEOH     H1A      HDA3B    0.080000        1.0080           0   0.00000   0.00000
     29354 MEOH     1417     MEOH     H1B      HDA3B    0.080000        1.0080           0   0.00000   0.00000
     29355 MEOH     1417     MEOH     H1C      HDA3B    0.080000        1.0080           0   0.00000   0.00000
     29356 MEOH     1417     MEOH     LP1A     LPD     -0.230000        0.0000           -1   0.00000   0.00000
     29357 MEOH     1417     MEOH     LP1B     LPD     -0.230000        0.0000           -1   0.00000   0.00000
     29358 MEOH     1418     MEOH     C1       CD33B    2.314100       11.6110           0   -1.00000   1.30000
     29359 MEOH     1418     MEOH     DC1      DRUD    -2.454100        0.4000           0   0.00000   0.00000
     29360 MEOH     1418     MEOH     O1       OD31H    2.488300       15.5990           0   -1.02800   1.30000
     29361 MEOH     1418     MEOH     DO1      DRUD    -2.488300        0.4000           0   0.00000   0.00000
     29362 MEOH     1418     MEOH     HO1      HDP1A    0.360000        1.0080           0   0.00000   0.00000
     29363 MEOH     1418     MEOH     HO2      DUMH     0.000000        1.0080           0   0.00000   0.00000
     29364 MEOH     1418     MEOH     H1A      HDA3B    0.080000        1.0080           0   0.00000   0.00000
     29365 MEOH     1418     MEOH     H1B      HDA3B    0.080000        1.0080           0   0.00000   0.00000
     29366 MEOH     1418     MEOH     H1C      HDA3B    0.080000        1.0080           0   0.00000   0.00000
     29367 MEOH     1418     MEOH     LP1A     LPD     -0.230000        0.0000           -1   0.00000   0.00000
     29368 MEOH     1418     MEOH     LP1B     LPD     -0.230000        0.0000           -1   0.00000   0.00000
     29369 MEOH     1419     MEOH     C1       CD33B    2.314100       11.6110           0   -1.00000   1.30000
     29370 MEOH     1419     MEOH     DC1      DRUD    -2.454100        0.4000           0   0.00000   0.00000
     29371 MEOH     1419     MEOH     O1       OD31H    2.488300       15.5990           0   -1.02800   1.30000
     29372 MEOH     1419     MEOH     DO1      DRUD    -2.488300        0.4000           0   0.00000   0.00000
     29373 MEOH     1419     MEOH     HO1      HDP1A    0.360000        1.0080           0   0.00000   0.00000
     29374 MEOH     1419     MEOH     HO2      DUMH     0.000000        1.0080           0   0.00000   0.00000
     29375 MEOH     1419     MEOH     H1A      HDA3B    0.080000        1.0080           0   0.00000   0.00000
     29376 MEOH     1419     MEOH     H1B      HDA3B    0.080000        1.0080           0   0.00000   0.00000
     29377 MEOH     1419     MEOH     H1C      HDA3B    0.080000        1.0080           0   0.00000   0.00000
     29378 MEOH     1419     MEOH     LP1A     LPD     -0.230000        0.0000           -1   0.00000   0.00000
     29379 MEOH     1419     MEOH     LP1B     LPD     -0.230000        0.0000           -1   0.00000   0.00000
     29380 MEOH     1420     MEOH     C1       CD33B    2.314100       11.6110           0   -1.00000   1.30000
     29381 MEOH     1420     MEOH     DC1      DRUD    -2.454100        0.4000           0   0.00000   0.00000
     29382 MEOH     1420     MEOH     O1       OD31H    2.488300       15.5990           0   -1.02800   1.30000
     29383 MEOH     1420     MEOH     DO1      DRUD    -2.488300        0.4000           0   0.00000   0.00000
     29384 MEOH     1420     MEOH     HO1      HDP1A    0.360000        1.0080           0   0.00000   0.00000
     29385 MEOH     1420     MEOH     HO2      DUMH     0.000000        1.0080           0   0.00000   0.00000
     29386 MEOH     1420     MEOH     H1A      HDA3B    0.080000        1.0080           0   0.00000   0.00000
     29387 MEOH     1420     MEOH     H1B      HDA3B    0.080000        1.0080           0   0.00000   0.00000
     29388 MEOH     1420     MEOH     H1C      HDA3B    0.080000        1.0080           0   0.00000   0.00000
     29389 MEOH     1420     MEOH     LP1A     LPD     -0.230000        0.0000           -1   0.00000   0.00000
     29390 MEOH     1420     MEOH     LP1B     LPD     -0.230000        0.0000           -1   0.00000   0.00000
     29391 MEOH     1421     MEOH     C1       CD33B    2.314100       11.6110           0   -1.00000   1.30000
     29392 MEOH     1421     MEOH     DC1      DRUD    -2.454100        0.4000           0   0.00000   0.00000
     29393 MEOH     1421     MEOH     O1       OD31H    2.488300       15.5990           0   -1.02800   1.30000
     29394 MEOH     1421     MEOH     DO1      DRUD    -2.488300        0.4000           0   0.00000   0.00000
     29395 MEOH     1421     MEOH     HO1      HDP1A    0.360000        1.0080           0   0.00000   0.00000
     29396 MEOH     1421     MEOH     HO2      DUMH     0.000000        1.0080           0   0.00000   0.00000
     29397 MEOH     1421     MEOH     H1A      HDA3B    0.080000        1.0080           0   0.00000   0.00000
     29398 MEOH     1421     MEOH     H1B      HDA3B    0.080000        1.0080           0   0.00000   0.00000
     29399 MEOH     1421     MEOH     H1C      HDA3B    0.080000        1.0080           0   0.00000   0.00000
     29400 MEOH     1421     MEOH     LP1A     LPD     -0.230000        0.0000           -1   0.00000   0.00000
     29401 MEOH     1421     MEOH     LP1B     LPD     -0.230000        0.0000           -1   0.00000   0.00000
     29402 MEOH     1422     MEOH     C1       CD33B    2.314100       11.6110           0   -1.00000   1.30000
     29403 MEOH     1422     MEOH     DC1      DRUD    -2.454100        0.4000           0   0.00000   0.00000
     29404 MEOH     1422     MEOH     O1       OD31H    2.488300       15.5990           0   -1.02800   1.30000
     29405 MEOH     1422     MEOH     DO1      DRUD    -2.488300        0.4000           0   0.00000   0.00000
     29406 MEOH     1422     MEOH     HO1      HDP1A    0.360000        1.0080           0   0.00000   0.00000
     29407 MEOH     1422     MEOH     HO2      DUMH     0.000000        1.0080           0   0.00000   0.00000
     29408 MEOH     1422     MEOH     H1A      HDA3B    0.080000        1.0080           0   0.00000   0.00000
     29409 MEOH     1422     MEOH     H1B      HDA3B    0.080000        1.0080           0   0.00000   0.00000
     29410 MEOH     1422     MEOH     H1C      HDA3B    0.080000        1.0080           0   0.00000   0.00000
     29411 MEOH     1422     MEOH     LP1A     LPD     -0.230000        0.0000           -1   0.00000   0.00000
     29412 MEOH     1422     MEOH     LP1B     LPD     -0.230000        0.0000           -1   0.00000   0.00000
     29413 MEOH     1423     MEOH     C1       CD33B    2.314100       11.6110           0   -1.00000   1.30000
     29414 MEOH     1423     MEOH     DC1      DRUD    -2.454100        0.4000           0   0.00000   0.00000
     29415 MEOH     1423     MEOH     O1       OD31H    2.488300       15.5990           0   -1.02800   1.30000
     29416 MEOH     1423     MEOH     DO1      DRUD    -2.488300        0.4000           0   0.00000   0.00000
     29417 MEOH     1423     MEOH     HO1      HDP1A    0.360000        1.0080           0   0.00000   0.00000
     29418 MEOH     1423     MEOH     HO2      DUMH     0.000000        1.0080           0   0.00000   0.00000
     29419 MEOH     1423     MEOH     H1A      HDA3B    0.080000        1.0080           0   0.00000   0.00000
     29420 MEOH     1423     MEOH     H1B      HDA3B    0.080000        1.0080           0   0.00000   0.00000
     29421 MEOH     1423     MEOH     H1C      HDA3B    0.080000        1.0080           0   0.00000   0.00000
     29422 MEOH     1423     MEOH     LP1A     LPD     -0.230000        0.0000           -1   0.00000   0.00000
     29423 MEOH     1423     MEOH     LP1B     LPD     -0.230000        0.0000           -1   0.00000   0.00000
     29424 MEOH     1424     MEOH     C1       CD33B    2.314100       11.6110           0   -1.00000   1.30000
     29425 MEOH     1424     MEOH     DC1      DRUD    -2.454100        0.4000           0   0.00000   0.00000
     29426 MEOH     1424     MEOH     O1       OD31H    2.488300       15.5990           0   -1.02800   1.30000
     29427 MEOH     1424     MEOH     DO1      DRUD    -2.488300        0.4000           0   0.00000   0.00000
     29428 MEOH     1424     MEOH     HO1      HDP1A    0.360000        1.0080           0   0.00000   0.00000
     29429 MEOH     1424     MEOH     HO2      DUMH     0.000000        1.0080           0   0.00000   0.00000
     29430 MEOH     1424     MEOH     H1A      HDA3B    0.080000        1.0080           0   0.00000   0.00000
     29431 MEOH     1424     MEOH     H1B      HDA3B    0.080000        1.0080           0   0.00000   0.00000
     29432 MEOH     1424     MEOH     H1C      HDA3B    0.080000        1.0080           0   0.00000   0.00000
     29433 MEOH     1424     MEOH     LP1A     LPD     -0.230000        0.0000           -1   0.00000   0.00000
     29434 MEOH     1424     MEOH     LP1B     LPD     -0.230000        0.0000           -1   0.00000   0.00000
     29435 MEOH     1425     MEOH     C1       CD33B    2.314100       11.6110           0   -1.00000   1.30000
     29436 MEOH     1425     MEOH     DC1      DRUD    -2.454100        0.4000           0   0.00000   0.00000
     29437 MEOH     1425     MEOH     O1       OD31H    2.488300       15.5990           0   -1.02800   1.30000
     29438 MEOH     1425     MEOH     DO1      DRUD    -2.488300        0.4000           0   0.00000   0.00000
     29439 MEOH     1425     MEOH     HO1      HDP1A    0.360000        1.0080           0   0.00000   0.00000
     29440 MEOH     1425     MEOH     HO2      DUMH     0.000000        1.0080           0   0.00000   0.00000
     29441 MEOH     1425     MEOH     H1A      HDA3B    0.080000        1.0080           0   0.00000   0.00000
     29442 MEOH     1425     MEOH     H1B      HDA3B    0.080000        1.0080           0   0.00000   0.00000
     29443 MEOH     1425     MEOH     H1C      HDA3B    0.080000        1.0080           0   0.00000   0.00000
     29444 MEOH     1425     MEOH     LP1A     LPD     -0.230000        0.0000           -1   0.00000   0.00000
     29445 MEOH     1425     MEOH     LP1B     LPD     -0.230000        0.0000           -1   0.00000   0.00000
     29446 MEOH     1426     MEOH     C1       CD33B    2.314100       11.6110           0   -1.00000   1.30000
     29447 MEOH     1426     MEOH     DC1      DRUD    -2.454100        0.4000           0   0.00000   0.00000
     29448 MEOH     1426     MEOH     O1       OD31H    2.488300       15.5990           0   -1.02800   1.30000
     29449 MEOH     1426     MEOH     DO1      DRUD    -2.488300        0.4000           0   0.00000   0.00000
     29450 MEOH     1426     MEOH     HO1      HDP1A    0.360000        1.0080           0   0.00000   0.00000
     29451 MEOH     1426     MEOH     HO2      DUMH     0.000000        1.0080           0   0.00000   0.00000
     29452 MEOH     1426     MEOH     H1A      HDA3B    0.080000        1.0080           0   0.00000   0.00000
     29453 MEOH     1426     MEOH     H1B      HDA3B    0.080000        1.0080           0   0.00000   0.00000
     29454 MEOH     1426     MEOH     H1C      HDA3B    0.080000        1.0080           0   0.00000   0.00000
     29455 MEOH     1426     MEOH     LP1A     LPD     -0.230000        0.0000           -1   0.00000   0.00000
     29456 MEOH     1426     MEOH     LP1B     LPD     -0.230000        0.0000           -1   0.00000   0.00000
     29457 MEOH     1427     MEOH     C1       CD33B    2.314100       11.6110           0   -1.00000   1.30000
     29458 MEOH     1427     MEOH     DC1      DRUD    -2.454100        0.4000           0   0.00000   0.00000
     29459 MEOH     1427     MEOH     O1       OD31H    2.488300       15.5990           0   -1.02800   1.30000
     29460 MEOH     1427     MEOH     DO1      DRUD    -2.488300        0.4000           0   0.00000   0.00000
     29461 MEOH     1427     MEOH     HO1      HDP1A    0.360000        1.0080           0   0.00000   0.00000
     29462 MEOH     1427     MEOH     HO2      DUMH     0.000000        1.0080           0   0.00000   0.00000
     29463 MEOH     1427     MEOH     H1A      HDA3B    0.080000        1.0080           0   0.00000   0.00000
     29464 MEOH     1427     MEOH     H1B      HDA3B    0.080000        1.0080           0   0.00000   0.00000
     29465 MEOH     1427     MEOH     H1C      HDA3B    0.080000        1.0080           0   0.00000   0.00000
     29466 MEOH     1427     MEOH     LP1A     LPD     -0.230000        0.0000           -1   0.00000   0.00000
     29467 MEOH     1427     MEOH     LP1B     LPD     -0.230000        0.0000           -1   0.00000   0.00000
     29468 MEOH     1428     MEOH     C1       CD33B    2.314100       11.6110           0   -1.00000   1.30000
     29469 MEOH     1428     MEOH     DC1      DRUD    -2.454100        0.4000           0   0.00000   0.00000
     29470 MEOH     1428     MEOH     O1       OD31H    2.488300       15.5990           0   -1.02800   1.30000
     29471 MEOH     1428     MEOH     DO1      DRUD    -2.488300        0.4000           0   0.00000   0.00000
     29472 MEOH     1428     MEOH     HO1      HDP1A    0.360000        1.0080           0   0.00000   0.00000
     29473 MEOH     1428     MEOH     HO2      DUMH     0.000000        1.0080           0   0.00000   0.00000
     29474 MEOH     1428     MEOH     H1A      HDA3B    0.080000        1.0080           0   0.00000   0.00000
     29475 MEOH     1428     MEOH     H1B      HDA3B    0.080000        1.0080           0   0.00000   0.00000
     29476 MEOH     1428     MEOH     H1C      HDA3B    0.080000        1.0080           0   0.00000   0.00000
     29477 MEOH     1428     MEOH     LP1A     LPD     -0.230000        0.0000           -1   0.00000   0.00000
     29478 MEOH     1428     MEOH     LP1B     LPD     -0.230000        0.0000           -1   0.00000   0.00000
     29479 MEOH     1429     MEOH     C1       CD33B    2.314100       11.6110           0   -1.00000   1.30000
     29480 MEOH     1429     MEOH     DC1      DRUD    -2.454100        0.4000           0   0.00000   0.00000
     29481 MEOH     1429     MEOH     O1       OD31H    2.488300       15.5990           0   -1.02800   1.30000
     29482 MEOH     1429     MEOH     DO1      DRUD    -2.488300        0.4000           0   0.00000   0.00000
     29483 MEOH     1429     MEOH     HO1      HDP1A    0.360000        1.0080           0   0.00000   0.00000
     29484 MEOH     1429     MEOH     HO2      DUMH     0.000000        1.0080           0   0.00000   0.00000
     29485 MEOH     1429     MEOH     H1A      HDA3B    0.080000        1.0080           0   0.00000   0.00000
     29486 MEOH     1429     MEOH     H1B      HDA3B    0.080000        1.0080           0   0.00000   0.00000
     29487 MEOH     1429     MEOH     H1C      HDA3B    0.080000        1.0080           0   0.00000   0.00000
     29488 MEOH     1429     MEOH     LP1A     LPD     -0.230000        0.0000           -1   0.00000   0.00000
     29489 MEOH     1429     MEOH     LP1B     LPD     -0.230000        0.0000           -1   0.00000   0.00000
     29490 MEOH     1430     MEOH     C1       CD33B    2.314100       11.6110           0   -1.00000   1.30000
     29491 MEOH     1430     MEOH     DC1      DRUD    -2.454100        0.4000           0   0.00000   0.00000
     29492 MEOH     1430     MEOH     O1       OD31H    2.488300       15.5990           0   -1.02800   1.30000
     29493 MEOH     1430     MEOH     DO1      DRUD    -2.488300        0.4000           0   0.00000   0.00000
     29494 MEOH     1430     MEOH     HO1      HDP1A    0.360000        1.0080           0   0.00000   0.00000
     29495 MEOH     1430     MEOH     HO2      DUMH     0.000000        1.0080           0   0.00000   0.00000
     29496 MEOH     1430     MEOH     H1A      HDA3B    0.080000        1.0080           0   0.00000   0.00000
     29497 MEOH     1430     MEOH     H1B      HDA3B    0.080000        1.0080           0   0.00000   0.00000
     29498 MEOH     1430     MEOH     H1C      HDA3B    0.080000        1.0080           0   0.00000   0.00000
     29499 MEOH     1430     MEOH     LP1A     LPD     -0.230000        0.0000           -1   0.00000   0.00000
     29500 MEOH     1430     MEOH     LP1B     LPD     -0.230000        0.0000           -1   0.00000   0.00000
     29501 MEOH     1431     MEOH     C1       CD33B    2.314100       11.6110           0   -1.00000   1.30000
     29502 MEOH     1431     MEOH     DC1      DRUD    -2.454100        0.4000           0   0.00000   0.00000
     29503 MEOH     1431     MEOH     O1       OD31H    2.488300       15.5990           0   -1.02800   1.30000
     29504 MEOH     1431     MEOH     DO1      DRUD    -2.488300        0.4000           0   0.00000   0.00000
     29505 MEOH     1431     MEOH     HO1      HDP1A    0.360000        1.0080           0   0.00000   0.00000
     29506 MEOH     1431     MEOH     HO2      DUMH     0.000000        1.0080           0   0.00000   0.00000
     29507 MEOH     1431     MEOH     H1A      HDA3B    0.080000        1.0080           0   0.00000   0.00000
     29508 MEOH     1431     MEOH     H1B      HDA3B    0.080000        1.0080           0   0.00000   0.00000
     29509 MEOH     1431     MEOH     H1C      HDA3B    0.080000        1.0080           0   0.00000   0.00000
     29510 MEOH     1431     MEOH     LP1A     LPD     -0.230000        0.0000           -1   0.00000   0.00000
     29511 MEOH     1431     MEOH     LP1B     LPD     -0.230000        0.0000           -1   0.00000   0.00000
     29512 MEOH     1432     MEOH     C1       CD33B    2.314100       11.6110           0   -1.00000   1.30000
     29513 MEOH     1432     MEOH     DC1      DRUD    -2.454100        0.4000           0   0.00000   0.00000
     29514 MEOH     1432     MEOH     O1       OD31H    2.488300       15.5990           0   -1.02800   1.30000
     29515 MEOH     1432     MEOH     DO1      DRUD    -2.488300        0.4000           0   0.00000   0.00000
     29516 MEOH     1432     MEOH     HO1      HDP1A    0.360000        1.0080           0   0.00000   0.00000
     29517 MEOH     1432     MEOH     HO2      DUMH     0.000000        1.0080           0   0.00000   0.00000
     29518 MEOH     1432     MEOH     H1A      HDA3B    0.080000        1.0080           0   0.00000   0.00000
     29519 MEOH     1432     MEOH     H1B      HDA3B    0.080000        1.0080           0   0.00000   0.00000
     29520 MEOH     1432     MEOH     H1C      HDA3B    0.080000        1.0080           0   0.00000   0.00000
     29521 MEOH     1432     MEOH     LP1A     LPD     -0.230000        0.0000           -1   0.00000   0.00000
     29522 MEOH     1432     MEOH     LP1B     LPD     -0.230000        0.0000           -1   0.00000   0.00000
     29523 MEOH     1433     MEOH     C1       CD33B    2.314100       11.6110           0   -1.00000   1.30000
     29524 MEOH     1433     MEOH     DC1      DRUD    -2.454100        0.4000           0   0.00000   0.00000
     29525 MEOH     1433     MEOH     O1       OD31H    2.488300       15.5990           0   -1.02800   1.30000
     29526 MEOH     1433     MEOH     DO1      DRUD    -2.488300        0.4000           0   0.00000   0.00000
     29527 MEOH     1433     MEOH     HO1      HDP1A    0.360000        1.0080           0   0.00000   0.00000
     29528 MEOH     1433     MEOH     HO2      DUMH     0.000000        1.0080           0   0.00000   0.00000
     29529 MEOH     1433     MEOH     H1A      HDA3B    0.080000        1.0080           0   0.00000   0.00000
     29530 MEOH     1433     MEOH     H1B      HDA3B    0.080000        1.0080           0   0.00000   0.00000
     29531 MEOH     1433     MEOH     H1C      HDA3B    0.080000        1.0080           0   0.00000   0.00000
     29532 MEOH     1433     MEOH     LP1A     LPD     -0.230000        0.0000           -1   0.00000   0.00000
     29533 MEOH     1433     MEOH     LP1B     LPD     -0.230000        0.0000           -1   0.00000   0.00000
     29534 MEOH     1434     MEOH     C1       CD33B    2.314100       11.6110           0   -1.00000   1.30000
     29535 MEOH     1434     MEOH     DC1      DRUD    -2.454100        0.4000           0   0.00000   0.00000
     29536 MEOH     1434     MEOH     O1       OD31H    2.488300       15.5990           0   -1.02800   1.30000
     29537 MEOH     1434     MEOH     DO1      DRUD    -2.488300        0.4000           0   0.00000   0.00000
     29538 MEOH     1434     MEOH     HO1      HDP1A    0.360000        1.0080           0   0.00000   0.00000
     29539 MEOH     1434     MEOH     HO2      DUMH     0.000000        1.0080           0   0.00000   0.00000
     29540 MEOH     1434     MEOH     H1A      HDA3B    0.080000        1.0080           0   0.00000   0.00000
     29541 MEOH     1434     MEOH     H1B      HDA3B    0.080000        1.0080           0   0.00000   0.00000
     29542 MEOH     1434     MEOH     H1C      HDA3B    0.080000        1.0080           0   0.00000   0.00000
     29543 MEOH     1434     MEOH     LP1A     LPD     -0.230000        0.0000           -1   0.00000   0.00000
     29544 MEOH     1434     MEOH     LP1B     LPD     -0.230000        0.0000           -1   0.00000   0.00000
     29545 MEOH     1435     MEOH     C1       CD33B    2.314100       11.6110           0   -1.00000   1.30000
     29546 MEOH     1435     MEOH     DC1      DRUD    -2.454100        0.4000           0   0.00000   0.00000
     29547 MEOH     1435     MEOH     O1       OD31H    2.488300       15.5990           0   -1.02800   1.30000
     29548 MEOH     1435     MEOH     DO1      DRUD    -2.488300        0.4000           0   0.00000   0.00000
     29549 MEOH     1435     MEOH     HO1      HDP1A    0.360000        1.0080           0   0.00000   0.00000
     29550 MEOH     1435     MEOH     HO2      DUMH     0.000000        1.0080           0   0.00000   0.00000
     29551 MEOH     1435     MEOH     H1A      HDA3B    0.080000        1.0080           0   0.00000   0.00000
     29552 MEOH     1435     MEOH     H1B      HDA3B    0.080000        1.0080           0   0.00000   0.00000
     29553 MEOH     1435     MEOH     H1C      HDA3B    0.080000        1.0080           0   0.00000   0.00000
     29554 MEOH     1435     MEOH     LP1A     LPD     -0.230000        0.0000           -1   0.00000   0.00000
     29555 MEOH     1435     MEOH     LP1B     LPD     -0.230000        0.0000           -1   0.00000   0.00000
     29556 MEOH     1436     MEOH     C1       CD33B    2.314100       11.6110           0   -1.00000   1.30000
     29557 MEOH     1436     MEOH     DC1      DRUD    -2.454100        0.4000           0   0.00000   0.00000
     29558 MEOH     1436     MEOH     O1       OD31H    2.488300       15.5990           0   -1.02800   1.30000
     29559 MEOH     1436     MEOH     DO1      DRUD    -2.488300        0.4000           0   0.00000   0.00000
     29560 MEOH     1436     MEOH     HO1      HDP1A    0.360000        1.0080           0   0.00000   0.00000
     29561 MEOH     1436     MEOH     HO2      DUMH     0.000000        1.0080           0   0.00000   0.00000
     29562 MEOH     1436     MEOH     H1A      HDA3B    0.080000        1.0080           0   0.00000   0.00000
     29563 MEOH     1436     MEOH     H1B      HDA3B    0.080000        1.0080           0   0.00000   0.00000
     29564 MEOH     1436     MEOH     H1C      HDA3B    0.080000        1.0080           0   0.00000   0.00000
     29565 MEOH     1436     MEOH     LP1A     LPD     -0.230000        0.0000           -1   0.00000   0.00000
     29566 MEOH     1436     MEOH     LP1B     LPD     -0.230000        0.0000           -1   0.00000   0.00000
     29567 MEOH     1437     MEOH     C1       CD33B    2.314100       11.6110           0   -1.00000   1.30000
     29568 MEOH     1437     MEOH     DC1      DRUD    -2.454100        0.4000           0   0.00000   0.00000
     29569 MEOH     1437     MEOH     O1       OD31H    2.488300       15.5990           0   -1.02800   1.30000
     29570 MEOH     1437     MEOH     DO1      DRUD    -2.488300        0.4000           0   0.00000   0.00000
     29571 MEOH     1437     MEOH     HO1      HDP1A    0.360000        1.0080           0   0.00000   0.00000
     29572 MEOH     1437     MEOH     HO2      DUMH     0.000000        1.0080           0   0.00000   0.00000
     29573 MEOH     1437     MEOH     H1A      HDA3B    0.080000        1.0080           0   0.00000   0.00000
     29574 MEOH     1437     MEOH     H1B      HDA3B    0.080000        1.0080           0   0.00000   0.00000
     29575 MEOH     1437     MEOH     H1C      HDA3B    0.080000        1.0080           0   0.00000   0.00000
     29576 MEOH     1437     MEOH     LP1A     LPD     -0.230000        0.0000           -1   0.00000   0.00000
     29577 MEOH     1437     MEOH     LP1B     LPD     -0.230000        0.0000           -1   0.00000   0.00000
     29578 MEOH     1438     MEOH     C1       CD33B    2.314100       11.6110           0   -1.00000   1.30000
     29579 MEOH     1438     MEOH     DC1      DRUD    -2.454100        0.4000           0   0.00000   0.00000
     29580 MEOH     1438     MEOH     O1       OD31H    2.488300       15.5990           0   -1.02800   1.30000
     29581 MEOH     1438     MEOH     DO1      DRUD    -2.488300        0.4000           0   0.00000   0.00000
     29582 MEOH     1438     MEOH     HO1      HDP1A    0.360000        1.0080           0   0.00000   0.00000
     29583 MEOH     1438     MEOH     HO2      DUMH     0.000000        1.0080           0   0.00000   0.00000
     29584 MEOH     1438     MEOH     H1A      HDA3B    0.080000        1.0080           0   0.00000   0.00000
     29585 MEOH     1438     MEOH     H1B      HDA3B    0.080000        1.0080           0   0.00000   0.00000
     29586 MEOH     1438     MEOH     H1C      HDA3B    0.080000        1.0080           0   0.00000   0.00000
     29587 MEOH     1438     MEOH     LP1A     LPD     -0.230000        0.0000           -1   0.00000   0.00000
     29588 MEOH     1438     MEOH     LP1B     LPD     -0.230000        0.0000           -1   0.00000   0.00000
     29589 MEOH     1439     MEOH     C1       CD33B    2.314100       11.6110           0   -1.00000   1.30000
     29590 MEOH     1439     MEOH     DC1      DRUD    -2.454100        0.4000           0   0.00000   0.00000
     29591 MEOH     1439     MEOH     O1       OD31H    2.488300       15.5990           0   -1.02800   1.30000
     29592 MEOH     1439     MEOH     DO1      DRUD    -2.488300        0.4000           0   0.00000   0.00000
     29593 MEOH     1439     MEOH     HO1      HDP1A    0.360000        1.0080           0   0.00000   0.00000
     29594 MEOH     1439     MEOH     HO2      DUMH     0.000000        1.0080           0   0.00000   0.00000
     29595 MEOH     1439     MEOH     H1A      HDA3B    0.080000        1.0080           0   0.00000   0.00000
     29596 MEOH     1439     MEOH     H1B      HDA3B    0.080000        1.0080           0   0.00000   0.00000
     29597 MEOH     1439     MEOH     H1C      HDA3B    0.080000        1.0080           0   0.00000   0.00000
     29598 MEOH     1439     MEOH     LP1A     LPD     -0.230000        0.0000           -1   0.00000   0.00000
     29599 MEOH     1439     MEOH     LP1B     LPD     -0.230000        0.0000           -1   0.00000   0.00000
     29600 MEOH     1440     MEOH     C1       CD33B    2.314100       11.6110           0   -1.00000   1.30000
     29601 MEOH     1440     MEOH     DC1      DRUD    -2.454100        0.4000           0   0.00000   0.00000
     29602 MEOH     1440     MEOH     O1       OD31H    2.488300       15.5990           0   -1.02800   1.30000
     29603 MEOH     1440     MEOH     DO1      DRUD    -2.488300        0.4000           0   0.00000   0.00000
     29604 MEOH     1440     MEOH     HO1      HDP1A    0.360000        1.0080           0   0.00000   0.00000
     29605 MEOH     1440     MEOH     HO2      DUMH     0.000000        1.0080           0   0.00000   0.00000
     29606 MEOH     1440     MEOH     H1A      HDA3B    0.080000        1.0080           0   0.00000   0.00000
     29607 MEOH     1440     MEOH     H1B      HDA3B    0.080000        1.0080           0   0.00000   0.00000
     29608 MEOH     1440     MEOH     H1C      HDA3B    0.080000        1.0080           0   0.00000   0.00000
     29609 MEOH     1440     MEOH     LP1A     LPD     -0.230000        0.0000           -1   0.00000   0.00000
     29610 MEOH     1440     MEOH     LP1B     LPD     -0.230000        0.0000           -1   0.00000   0.00000
     29611 MEOH     1441     MEOH     C1       CD33B    2.314100       11.6110           0   -1.00000   1.30000
     29612 MEOH     1441     MEOH     DC1      DRUD    -2.454100        0.4000           0   0.00000   0.00000
     29613 MEOH     1441     MEOH     O1       OD31H    2.488300       15.5990           0   -1.02800   1.30000
     29614 MEOH     1441     MEOH     DO1      DRUD    -2.488300        0.4000           0   0.00000   0.00000
     29615 MEOH     1441     MEOH     HO1      HDP1A    0.360000        1.0080           0   0.00000   0.00000
     29616 MEOH     1441     MEOH     HO2      DUMH     0.000000        1.0080           0   0.00000   0.00000
     29617 MEOH     1441     MEOH     H1A      HDA3B    0.080000        1.0080           0   0.00000   0.00000
     29618 MEOH     1441     MEOH     H1B      HDA3B    0.080000        1.0080           0   0.00000   0.00000
     29619 MEOH     1441     MEOH     H1C      HDA3B    0.080000        1.0080           0   0.00000   0.00000
     29620 MEOH     1441     MEOH     LP1A     LPD     -0.230000        0.0000           -1   0.00000   0.00000
     29621 MEOH     1441     MEOH     LP1B     LPD     -0.230000        0.0000           -1   0.00000   0.00000
     29622 MEOH     1442     MEOH     C1       CD33B    2.314100       11.6110           0   -1.00000   1.30000
     29623 MEOH     1442     MEOH     DC1      DRUD    -2.454100        0.4000           0   0.00000   0.00000
     29624 MEOH     1442     MEOH     O1       OD31H    2.488300       15.5990           0   -1.02800   1.30000
     29625 MEOH     1442     MEOH     DO1      DRUD    -2.488300        0.4000           0   0.00000   0.00000
     29626 MEOH     1442     MEOH     HO1      HDP1A    0.360000        1.0080           0   0.00000   0.00000
     29627 MEOH     1442     MEOH     HO2      DUMH     0.000000        1.0080           0   0.00000   0.00000
     29628 MEOH     1442     MEOH     H1A      HDA3B    0.080000        1.0080           0   0.00000   0.00000
     29629 MEOH     1442     MEOH     H1B      HDA3B    0.080000        1.0080           0   0.00000   0.00000
     29630 MEOH     1442     MEOH     H1C      HDA3B    0.080000        1.0080           0   0.00000   0.00000
     29631 MEOH     1442     MEOH     LP1A     LPD     -0.230000        0.0000           -1   0.00000   0.00000
     29632 MEOH     1442     MEOH     LP1B     LPD     -0.230000        0.0000           -1   0.00000   0.00000
     29633 MEOH     1443     MEOH     C1       CD33B    2.314100       11.6110           0   -1.00000   1.30000
     29634 MEOH     1443     MEOH     DC1      DRUD    -2.454100        0.4000           0   0.00000   0.00000
     29635 MEOH     1443     MEOH     O1       OD31H    2.488300       15.5990           0   -1.02800   1.30000
     29636 MEOH     1443     MEOH     DO1      DRUD    -2.488300        0.4000           0   0.00000   0.00000
     29637 MEOH     1443     MEOH     HO1      HDP1A    0.360000        1.0080           0   0.00000   0.00000
     29638 MEOH     1443     MEOH     HO2      DUMH     0.000000        1.0080           0   0.00000   0.00000
     29639 MEOH     1443     MEOH     H1A      HDA3B    0.080000        1.0080           0   0.00000   0.00000
     29640 MEOH     1443     MEOH     H1B      HDA3B    0.080000        1.0080           0   0.00000   0.00000
     29641 MEOH     1443     MEOH     H1C      HDA3B    0.080000        1.0080           0   0.00000   0.00000
     29642 MEOH     1443     MEOH     LP1A     LPD     -0.230000        0.0000           -1   0.00000   0.00000
     29643 MEOH     1443     MEOH     LP1B     LPD     -0.230000        0.0000           -1   0.00000   0.00000
     29644 MEOH     1444     MEOH     C1       CD33B    2.314100       11.6110           0   -1.00000   1.30000
     29645 MEOH     1444     MEOH     DC1      DRUD    -2.454100        0.4000           0   0.00000   0.00000
     29646 MEOH     1444     MEOH     O1       OD31H    2.488300       15.5990           0   -1.02800   1.30000
     29647 MEOH     1444     MEOH     DO1      DRUD    -2.488300        0.4000           0   0.00000   0.00000
     29648 MEOH     1444     MEOH     HO1      HDP1A    0.360000        1.0080           0   0.00000   0.00000
     29649 MEOH     1444     MEOH     HO2      DUMH     0.000000        1.0080           0   0.00000   0.00000
     29650 MEOH     1444     MEOH     H1A      HDA3B    0.080000        1.0080           0   0.00000   0.00000
     29651 MEOH     1444     MEOH     H1B      HDA3B    0.080000        1.0080           0   0.00000   0.00000
     29652 MEOH     1444     MEOH     H1C      HDA3B    0.080000        1.0080           0   0.00000   0.00000
     29653 MEOH     1444     MEOH     LP1A     LPD     -0.230000        0.0000           -1   0.00000   0.00000
     29654 MEOH     1444     MEOH     LP1B     LPD     -0.230000        0.0000           -1   0.00000   0.00000
     29655 MEOH     1445     MEOH     C1       CD33B    2.314100       11.6110           0   -1.00000   1.30000
     29656 MEOH     1445     MEOH     DC1      DRUD    -2.454100        0.4000           0   0.00000   0.00000
     29657 MEOH     1445     MEOH     O1       OD31H    2.488300       15.5990           0   -1.02800   1.30000
     29658 MEOH     1445     MEOH     DO1      DRUD    -2.488300        0.4000           0   0.00000   0.00000
     29659 MEOH     1445     MEOH     HO1      HDP1A    0.360000        1.0080           0   0.00000   0.00000
     29660 MEOH     1445     MEOH     HO2      DUMH     0.000000        1.0080           0   0.00000   0.00000
     29661 MEOH     1445     MEOH     H1A      HDA3B    0.080000        1.0080           0   0.00000   0.00000
     29662 MEOH     1445     MEOH     H1B      HDA3B    0.080000        1.0080           0   0.00000   0.00000
     29663 MEOH     1445     MEOH     H1C      HDA3B    0.080000        1.0080           0   0.00000   0.00000
     29664 MEOH     1445     MEOH     LP1A     LPD     -0.230000        0.0000           -1   0.00000   0.00000
     29665 MEOH     1445     MEOH     LP1B     LPD     -0.230000        0.0000           -1   0.00000   0.00000
     29666 MEOH     1446     MEOH     C1       CD33B    2.314100       11.6110           0   -1.00000   1.30000
     29667 MEOH     1446     MEOH     DC1      DRUD    -2.454100        0.4000           0   0.00000   0.00000
     29668 MEOH     1446     MEOH     O1       OD31H    2.488300       15.5990           0   -1.02800   1.30000
     29669 MEOH     1446     MEOH     DO1      DRUD    -2.488300        0.4000           0   0.00000   0.00000
     29670 MEOH     1446     MEOH     HO1      HDP1A    0.360000        1.0080           0   0.00000   0.00000
     29671 MEOH     1446     MEOH     HO2      DUMH     0.000000        1.0080           0   0.00000   0.00000
     29672 MEOH     1446     MEOH     H1A      HDA3B    0.080000        1.0080           0   0.00000   0.00000
     29673 MEOH     1446     MEOH     H1B      HDA3B    0.080000        1.0080           0   0.00000   0.00000
     29674 MEOH     1446     MEOH     H1C      HDA3B    0.080000        1.0080           0   0.00000   0.00000
     29675 MEOH     1446     MEOH     LP1A     LPD     -0.230000        0.0000           -1   0.00000   0.00000
     29676 MEOH     1446     MEOH     LP1B     LPD     -0.230000        0.0000           -1   0.00000   0.00000
     29677 MEOH     1447     MEOH     C1       CD33B    2.314100       11.6110           0   -1.00000   1.30000
     29678 MEOH     1447     MEOH     DC1      DRUD    -2.454100        0.4000           0   0.00000   0.00000
     29679 MEOH     1447     MEOH     O1       OD31H    2.488300       15.5990           0   -1.02800   1.30000
     29680 MEOH     1447     MEOH     DO1      DRUD    -2.488300        0.4000           0   0.00000   0.00000
     29681 MEOH     1447     MEOH     HO1      HDP1A    0.360000        1.0080           0   0.00000   0.00000
     29682 MEOH     1447     MEOH     HO2      DUMH     0.000000        1.0080           0   0.00000   0.00000
     29683 MEOH     1447     MEOH     H1A      HDA3B    0.080000        1.0080           0   0.00000   0.00000
     29684 MEOH     1447     MEOH     H1B      HDA3B    0.080000        1.0080           0   0.00000   0.00000
     29685 MEOH     1447     MEOH     H1C      HDA3B    0.080000        1.0080           0   0.00000   0.00000
     29686 MEOH     1447     MEOH     LP1A     LPD     -0.230000        0.0000           -1   0.00000   0.00000
     29687 MEOH     1447     MEOH     LP1B     LPD     -0.230000        0.0000           -1   0.00000   0.00000
     29688 MEOH     1448     MEOH     C1       CD33B    2.314100       11.6110           0   -1.00000   1.30000
     29689 MEOH     1448     MEOH     DC1      DRUD    -2.454100        0.4000           0   0.00000   0.00000
     29690 MEOH     1448     MEOH     O1       OD31H    2.488300       15.5990           0   -1.02800   1.30000
     29691 MEOH     1448     MEOH     DO1      DRUD    -2.488300        0.4000           0   0.00000   0.00000
     29692 MEOH     1448     MEOH     HO1      HDP1A    0.360000        1.0080           0   0.00000   0.00000
     29693 MEOH     1448     MEOH     HO2      DUMH     0.000000        1.0080           0   0.00000   0.00000
     29694 MEOH     1448     MEOH     H1A      HDA3B    0.080000        1.0080           0   0.00000   0.00000
     29695 MEOH     1448     MEOH     H1B      HDA3B    0.080000        1.0080           0   0.00000   0.00000
     29696 MEOH     1448     MEOH     H1C      HDA3B    0.080000        1.0080           0   0.00000   0.00000
     29697 MEOH     1448     MEOH     LP1A     LPD     -0.230000        0.0000           -1   0.00000   0.00000
     29698 MEOH     1448     MEOH     LP1B     LPD     -0.230000        0.0000           -1   0.00000   0.00000
     29699 MEOH     1449     MEOH     C1       CD33B    2.314100       11.6110           0   -1.00000   1.30000
     29700 MEOH     1449     MEOH     DC1      DRUD    -2.454100        0.4000           0   0.00000   0.00000
     29701 MEOH     1449     MEOH     O1       OD31H    2.488300       15.5990           0   -1.02800   1.30000
     29702 MEOH     1449     MEOH     DO1      DRUD    -2.488300        0.4000           0   0.00000   0.00000
     29703 MEOH     1449     MEOH     HO1      HDP1A    0.360000        1.0080           0   0.00000   0.00000
     29704 MEOH     1449     MEOH     HO2      DUMH     0.000000        1.0080           0   0.00000   0.00000
     29705 MEOH     1449     MEOH     H1A      HDA3B    0.080000        1.0080           0   0.00000   0.00000
     29706 MEOH     1449     MEOH     H1B      HDA3B    0.080000        1.0080           0   0.00000   0.00000
     29707 MEOH     1449     MEOH     H1C      HDA3B    0.080000        1.0080           0   0.00000   0.00000
     29708 MEOH     1449     MEOH     LP1A     LPD     -0.230000        0.0000           -1   0.00000   0.00000
     29709 MEOH     1449     MEOH     LP1B     LPD     -0.230000        0.0000           -1   0.00000   0.00000
     29710 MEOH     1450     MEOH     C1       CD33B    2.314100       11.6110           0   -1.00000   1.30000
     29711 MEOH     1450     MEOH     DC1      DRUD    -2.454100        0.4000           0   0.00000   0.00000
     29712 MEOH     1450     MEOH     O1       OD31H    2.488300       15.5990           0   -1.02800   1.30000
     29713 MEOH     1450     MEOH     DO1      DRUD    -2.488300        0.4000           0   0.00000   0.00000
     29714 MEOH     1450     MEOH     HO1      HDP1A    0.360000        1.0080           0   0.00000   0.00000
     29715 MEOH     1450     MEOH     HO2      DUMH     0.000000        1.0080           0   0.00000   0.00000
     29716 MEOH     1450     MEOH     H1A      HDA3B    0.080000        1.0080           0   0.00000   0.00000
     29717 MEOH     1450     MEOH     H1B      HDA3B    0.080000        1.0080           0   0.00000   0.00000
     29718 MEOH     1450     MEOH     H1C      HDA3B    0.080000        1.0080           0   0.00000   0.00000
     29719 MEOH     1450     MEOH     LP1A     LPD     -0.230000        0.0000           -1   0.00000   0.00000
     29720 MEOH     1450     MEOH     LP1B     LPD     -0.230000        0.0000           -1   0.00000   0.00000
     29721 MEOH     1451     MEOH     C1       CD33B    2.314100       11.6110           0   -1.00000   1.30000
     29722 MEOH     1451     MEOH     DC1      DRUD    -2.454100        0.4000           0   0.00000   0.00000
     29723 MEOH     1451     MEOH     O1       OD31H    2.488300       15.5990           0   -1.02800   1.30000
     29724 MEOH     1451     MEOH     DO1      DRUD    -2.488300        0.4000           0   0.00000   0.00000
     29725 MEOH     1451     MEOH     HO1      HDP1A    0.360000        1.0080           0   0.00000   0.00000
     29726 MEOH     1451     MEOH     HO2      DUMH     0.000000        1.0080           0   0.00000   0.00000
     29727 MEOH     1451     MEOH     H1A      HDA3B    0.080000        1.0080           0   0.00000   0.00000
     29728 MEOH     1451     MEOH     H1B      HDA3B    0.080000        1.0080           0   0.00000   0.00000
     29729 MEOH     1451     MEOH     H1C      HDA3B    0.080000        1.0080           0   0.00000   0.00000
     29730 MEOH     1451     MEOH     LP1A     LPD     -0.230000        0.0000           -1   0.00000   0.00000
     29731 MEOH     1451     MEOH     LP1B     LPD     -0.230000        0.0000           -1   0.00000   0.00000
     29732 MEOH     1452     MEOH     C1       CD33B    2.314100       11.6110           0   -1.00000   1.30000
     29733 MEOH     1452     MEOH     DC1      DRUD    -2.454100        0.4000           0   0.00000   0.00000
     29734 MEOH     1452     MEOH     O1       OD31H    2.488300       15.5990           0   -1.02800   1.30000
     29735 MEOH     1452     MEOH     DO1      DRUD    -2.488300        0.4000           0   0.00000   0.00000
     29736 MEOH     1452     MEOH     HO1      HDP1A    0.360000        1.0080           0   0.00000   0.00000
     29737 MEOH     1452     MEOH     HO2      DUMH     0.000000        1.0080           0   0.00000   0.00000
     29738 MEOH     1452     MEOH     H1A      HDA3B    0.080000        1.0080           0   0.00000   0.00000
     29739 MEOH     1452     MEOH     H1B      HDA3B    0.080000        1.0080           0   0.00000   0.00000
     29740 MEOH     1452     MEOH     H1C      HDA3B    0.080000        1.0080           0   0.00000   0.00000
     29741 MEOH     1452     MEOH     LP1A     LPD     -0.230000        0.0000           -1   0.00000   0.00000
     29742 MEOH     1452     MEOH     LP1B     LPD     -0.230000        0.0000           -1   0.00000   0.00000
     29743 MEOH     1453     MEOH     C1       CD33B    2.314100       11.6110           0   -1.00000   1.30000
     29744 MEOH     1453     MEOH     DC1      DRUD    -2.454100        0.4000           0   0.00000   0.00000
     29745 MEOH     1453     MEOH     O1       OD31H    2.488300       15.5990           0   -1.02800   1.30000
     29746 MEOH     1453     MEOH     DO1      DRUD    -2.488300        0.4000           0   0.00000   0.00000
     29747 MEOH     1453     MEOH     HO1      HDP1A    0.360000        1.0080           0   0.00000   0.00000
     29748 MEOH     1453     MEOH     HO2      DUMH     0.000000        1.0080           0   0.00000   0.00000
     29749 MEOH     1453     MEOH     H1A      HDA3B    0.080000        1.0080           0   0.00000   0.00000
     29750 MEOH     1453     MEOH     H1B      HDA3B    0.080000        1.0080           0   0.00000   0.00000
     29751 MEOH     1453     MEOH     H1C      HDA3B    0.080000        1.0080           0   0.00000   0.00000
     29752 MEOH     1453     MEOH     LP1A     LPD     -0.230000        0.0000           -1   0.00000   0.00000
     29753 MEOH     1453     MEOH     LP1B     LPD     -0.230000        0.0000           -1   0.00000   0.00000
     29754 MEOH     1454     MEOH     C1       CD33B    2.314100       11.6110           0   -1.00000   1.30000
     29755 MEOH     1454     MEOH     DC1      DRUD    -2.454100        0.4000           0   0.00000   0.00000
     29756 MEOH     1454     MEOH     O1       OD31H    2.488300       15.5990           0   -1.02800   1.30000
     29757 MEOH     1454     MEOH     DO1      DRUD    -2.488300        0.4000           0   0.00000   0.00000
     29758 MEOH     1454     MEOH     HO1      HDP1A    0.360000        1.0080           0   0.00000   0.00000
     29759 MEOH     1454     MEOH     HO2      DUMH     0.000000        1.0080           0   0.00000   0.00000
     29760 MEOH     1454     MEOH     H1A      HDA3B    0.080000        1.0080           0   0.00000   0.00000
     29761 MEOH     1454     MEOH     H1B      HDA3B    0.080000        1.0080           0   0.00000   0.00000
     29762 MEOH     1454     MEOH     H1C      HDA3B    0.080000        1.0080           0   0.00000   0.00000
     29763 MEOH     1454     MEOH     LP1A     LPD     -0.230000        0.0000           -1   0.00000   0.00000
     29764 MEOH     1454     MEOH     LP1B     LPD     -0.230000        0.0000           -1   0.00000   0.00000
     29765 MEOH     1455     MEOH     C1       CD33B    2.314100       11.6110           0   -1.00000   1.30000
     29766 MEOH     1455     MEOH     DC1      DRUD    -2.454100        0.4000           0   0.00000   0.00000
     29767 MEOH     1455     MEOH     O1       OD31H    2.488300       15.5990           0   -1.02800   1.30000
     29768 MEOH     1455     MEOH     DO1      DRUD    -2.488300        0.4000           0   0.00000   0.00000
     29769 MEOH     1455     MEOH     HO1      HDP1A    0.360000        1.0080           0   0.00000   0.00000
     29770 MEOH     1455     MEOH     HO2      DUMH     0.000000        1.0080           0   0.00000   0.00000
     29771 MEOH     1455     MEOH     H1A      HDA3B    0.080000        1.0080           0   0.00000   0.00000
     29772 MEOH     1455     MEOH     H1B      HDA3B    0.080000        1.0080           0   0.00000   0.00000
     29773 MEOH     1455     MEOH     H1C      HDA3B    0.080000        1.0080           0   0.00000   0.00000
     29774 MEOH     1455     MEOH     LP1A     LPD     -0.230000        0.0000           -1   0.00000   0.00000
     29775 MEOH     1455     MEOH     LP1B     LPD     -0.230000        0.0000           -1   0.00000   0.00000
     29776 MEOH     1456     MEOH     C1       CD33B    2.314100       11.6110           0   -1.00000   1.30000
     29777 MEOH     1456     MEOH     DC1      DRUD    -2.454100        0.4000           0   0.00000   0.00000
     29778 MEOH     1456     MEOH     O1       OD31H    2.488300       15.5990           0   -1.02800   1.30000
     29779 MEOH     1456     MEOH     DO1      DRUD    -2.488300        0.4000           0   0.00000   0.00000
     29780 MEOH     1456     MEOH     HO1      HDP1A    0.360000        1.0080           0   0.00000   0.00000
     29781 MEOH     1456     MEOH     HO2      DUMH     0.000000        1.0080           0   0.00000   0.00000
     29782 MEOH     1456     MEOH     H1A      HDA3B    0.080000        1.0080           0   0.00000   0.00000
     29783 MEOH     1456     MEOH     H1B      HDA3B    0.080000        1.0080           0   0.00000   0.00000
     29784 MEOH     1456     MEOH     H1C      HDA3B    0.080000        1.0080           0   0.00000   0.00000
     29785 MEOH     1456     MEOH     LP1A     LPD     -0.230000        0.0000           -1   0.00000   0.00000
     29786 MEOH     1456     MEOH     LP1B     LPD     -0.230000        0.0000           -1   0.00000   0.00000
     29787 MEOH     1457     MEOH     C1       CD33B    2.314100       11.6110           0   -1.00000   1.30000
     29788 MEOH     1457     MEOH     DC1      DRUD    -2.454100        0.4000           0   0.00000   0.00000
     29789 MEOH     1457     MEOH     O1       OD31H    2.488300       15.5990           0   -1.02800   1.30000
     29790 MEOH     1457     MEOH     DO1      DRUD    -2.488300        0.4000           0   0.00000   0.00000
     29791 MEOH     1457     MEOH     HO1      HDP1A    0.360000        1.0080           0   0.00000   0.00000
     29792 MEOH     1457     MEOH     HO2      DUMH     0.000000        1.0080           0   0.00000   0.00000
     29793 MEOH     1457     MEOH     H1A      HDA3B    0.080000        1.0080           0   0.00000   0.00000
     29794 MEOH     1457     MEOH     H1B      HDA3B    0.080000        1.0080           0   0.00000   0.00000
     29795 MEOH     1457     MEOH     H1C      HDA3B    0.080000        1.0080           0   0.00000   0.00000
     29796 MEOH     1457     MEOH     LP1A     LPD     -0.230000        0.0000           -1   0.00000   0.00000
     29797 MEOH     1457     MEOH     LP1B     LPD     -0.230000        0.0000           -1   0.00000   0.00000
     29798 MEOH     1458     MEOH     C1       CD33B    2.314100       11.6110           0   -1.00000   1.30000
     29799 MEOH     1458     MEOH     DC1      DRUD    -2.454100        0.4000           0   0.00000   0.00000
     29800 MEOH     1458     MEOH     O1       OD31H    2.488300       15.5990           0   -1.02800   1.30000
     29801 MEOH     1458     MEOH     DO1      DRUD    -2.488300        0.4000           0   0.00000   0.00000
     29802 MEOH     1458     MEOH     HO1      HDP1A    0.360000        1.0080           0   0.00000   0.00000
     29803 MEOH     1458     MEOH     HO2      DUMH     0.000000        1.0080           0   0.00000   0.00000
     29804 MEOH     1458     MEOH     H1A      HDA3B    0.080000        1.0080           0   0.00000   0.00000
     29805 MEOH     1458     MEOH     H1B      HDA3B    0.080000        1.0080           0   0.00000   0.00000
     29806 MEOH     1458     MEOH     H1C      HDA3B    0.080000        1.0080           0   0.00000   0.00000
     29807 MEOH     1458     MEOH     LP1A     LPD     -0.230000        0.0000           -1   0.00000   0.00000
     29808 MEOH     1458     MEOH     LP1B     LPD     -0.230000        0.0000           -1   0.00000   0.00000
     29809 MEOH     1459     MEOH     C1       CD33B    2.314100       11.6110           0   -1.00000   1.30000
     29810 MEOH     1459     MEOH     DC1      DRUD    -2.454100        0.4000           0   0.00000   0.00000
     29811 MEOH     1459     MEOH     O1       OD31H    2.488300       15.5990           0   -1.02800   1.30000
     29812 MEOH     1459     MEOH     DO1      DRUD    -2.488300        0.4000           0   0.00000   0.00000
     29813 MEOH     1459     MEOH     HO1      HDP1A    0.360000        1.0080           0   0.00000   0.00000
     29814 MEOH     1459     MEOH     HO2      DUMH     0.000000        1.0080           0   0.00000   0.00000
     29815 MEOH     1459     MEOH     H1A      HDA3B    0.080000        1.0080           0   0.00000   0.00000
     29816 MEOH     1459     MEOH     H1B      HDA3B    0.080000        1.0080           0   0.00000   0.00000
     29817 MEOH     1459     MEOH     H1C      HDA3B    0.080000        1.0080           0   0.00000   0.00000
     29818 MEOH     1459     MEOH     LP1A     LPD     -0.230000        0.0000           -1   0.00000   0.00000
     29819 MEOH     1459     MEOH     LP1B     LPD     -0.230000        0.0000           -1   0.00000   0.00000
     29820 MEOH     1460     MEOH     C1       CD33B    2.314100       11.6110           0   -1.00000   1.30000
     29821 MEOH     1460     MEOH     DC1      DRUD    -2.454100        0.4000           0   0.00000   0.00000
     29822 MEOH     1460     MEOH     O1       OD31H    2.488300       15.5990           0   -1.02800   1.30000
     29823 MEOH     1460     MEOH     DO1      DRUD    -2.488300        0.4000           0   0.00000   0.00000
     29824 MEOH     1460     MEOH     HO1      HDP1A    0.360000        1.0080           0   0.00000   0.00000
     29825 MEOH     1460     MEOH     HO2      DUMH     0.000000        1.0080           0   0.00000   0.00000
     29826 MEOH     1460     MEOH     H1A      HDA3B    0.080000        1.0080           0   0.00000   0.00000
     29827 MEOH     1460     MEOH     H1B      HDA3B    0.080000        1.0080           0   0.00000   0.00000
     29828 MEOH     1460     MEOH     H1C      HDA3B    0.080000        1.0080           0   0.00000   0.00000
     29829 MEOH     1460     MEOH     LP1A     LPD     -0.230000        0.0000           -1   0.00000   0.00000
     29830 MEOH     1460     MEOH     LP1B     LPD     -0.230000        0.0000           -1   0.00000   0.00000
     29831 MEOH     1461     MEOH     C1       CD33B    2.314100       11.6110           0   -1.00000   1.30000
     29832 MEOH     1461     MEOH     DC1      DRUD    -2.454100        0.4000           0   0.00000   0.00000
     29833 MEOH     1461     MEOH     O1       OD31H    2.488300       15.5990           0   -1.02800   1.30000
     29834 MEOH     1461     MEOH     DO1      DRUD    -2.488300        0.4000           0   0.00000   0.00000
     29835 MEOH     1461     MEOH     HO1      HDP1A    0.360000        1.0080           0   0.00000   0.00000
     29836 MEOH     1461     MEOH     HO2      DUMH     0.000000        1.0080           0   0.00000   0.00000
     29837 MEOH     1461     MEOH     H1A      HDA3B    0.080000        1.0080           0   0.00000   0.00000
     29838 MEOH     1461     MEOH     H1B      HDA3B    0.080000        1.0080           0   0.00000   0.00000
     29839 MEOH     1461     MEOH     H1C      HDA3B    0.080000        1.0080           0   0.00000   0.00000
     29840 MEOH     1461     MEOH     LP1A     LPD     -0.230000        0.0000           -1   0.00000   0.00000
     29841 MEOH     1461     MEOH     LP1B     LPD     -0.230000        0.0000           -1   0.00000   0.00000
     29842 MEOH     1462     MEOH     C1       CD33B    2.314100       11.6110           0   -1.00000   1.30000
     29843 MEOH     1462     MEOH     DC1      DRUD    -2.454100        0.4000           0   0.00000   0.00000
     29844 MEOH     1462     MEOH     O1       OD31H    2.488300       15.5990           0   -1.02800   1.30000
     29845 MEOH     1462     MEOH     DO1      DRUD    -2.488300        0.4000           0   0.00000   0.00000
     29846 MEOH     1462     MEOH     HO1      HDP1A    0.360000        1.0080           0   0.00000   0.00000
     29847 MEOH     1462     MEOH     HO2      DUMH     0.000000        1.0080           0   0.00000   0.00000
     29848 MEOH     1462     MEOH     H1A      HDA3B    0.080000        1.0080           0   0.00000   0.00000
     29849 MEOH     1462     MEOH     H1B      HDA3B    0.080000        1.0080           0   0.00000   0.00000
     29850 MEOH     1462     MEOH     H1C      HDA3B    0.080000        1.0080           0   0.00000   0.00000
     29851 MEOH     1462     MEOH     LP1A     LPD     -0.230000        0.0000           -1   0.00000   0.00000
     29852 MEOH     1462     MEOH     LP1B     LPD     -0.230000        0.0000           -1   0.00000   0.00000
     29853 MEOH     1463     MEOH     C1       CD33B    2.314100       11.6110           0   -1.00000   1.30000
     29854 MEOH     1463     MEOH     DC1      DRUD    -2.454100        0.4000           0   0.00000   0.00000
     29855 MEOH     1463     MEOH     O1       OD31H    2.488300       15.5990           0   -1.02800   1.30000
     29856 MEOH     1463     MEOH     DO1      DRUD    -2.488300        0.4000           0   0.00000   0.00000
     29857 MEOH     1463     MEOH     HO1      HDP1A    0.360000        1.0080           0   0.00000   0.00000
     29858 MEOH     1463     MEOH     HO2      DUMH     0.000000        1.0080           0   0.00000   0.00000
     29859 MEOH     1463     MEOH     H1A      HDA3B    0.080000        1.0080           0   0.00000   0.00000
     29860 MEOH     1463     MEOH     H1B      HDA3B    0.080000        1.0080           0   0.00000   0.00000
     29861 MEOH     1463     MEOH     H1C      HDA3B    0.080000        1.0080           0   0.00000   0.00000
     29862 MEOH     1463     MEOH     LP1A     LPD     -0.230000        0.0000           -1   0.00000   0.00000
     29863 MEOH     1463     MEOH     LP1B     LPD     -0.230000        0.0000           -1   0.00000   0.00000
     29864 MEOH     1464     MEOH     C1       CD33B    2.314100       11.6110           0   -1.00000   1.30000
     29865 MEOH     1464     MEOH     DC1      DRUD    -2.454100        0.4000           0   0.00000   0.00000
     29866 MEOH     1464     MEOH     O1       OD31H    2.488300       15.5990           0   -1.02800   1.30000
     29867 MEOH     1464     MEOH     DO1      DRUD    -2.488300        0.4000           0   0.00000   0.00000
     29868 MEOH     1464     MEOH     HO1      HDP1A    0.360000        1.0080           0   0.00000   0.00000
     29869 MEOH     1464     MEOH     HO2      DUMH     0.000000        1.0080           0   0.00000   0.00000
     29870 MEOH     1464     MEOH     H1A      HDA3B    0.080000        1.0080           0   0.00000   0.00000
     29871 MEOH     1464     MEOH     H1B      HDA3B    0.080000        1.0080           0   0.00000   0.00000
     29872 MEOH     1464     MEOH     H1C      HDA3B    0.080000        1.0080           0   0.00000   0.00000
     29873 MEOH     1464     MEOH     LP1A     LPD     -0.230000        0.0000           -1   0.00000   0.00000
     29874 MEOH     1464     MEOH     LP1B     LPD     -0.230000        0.0000           -1   0.00000   0.00000
     29875 MEOH     1465     MEOH     C1       CD33B    2.314100       11.6110           0   -1.00000   1.30000
     29876 MEOH     1465     MEOH     DC1      DRUD    -2.454100        0.4000           0   0.00000   0.00000
     29877 MEOH     1465     MEOH     O1       OD31H    2.488300       15.5990           0   -1.02800   1.30000
     29878 MEOH     1465     MEOH     DO1      DRUD    -2.488300        0.4000           0   0.00000   0.00000
     29879 MEOH     1465     MEOH     HO1      HDP1A    0.360000        1.0080           0   0.00000   0.00000
     29880 MEOH     1465     MEOH     HO2      DUMH     0.000000        1.0080           0   0.00000   0.00000
     29881 MEOH     1465     MEOH     H1A      HDA3B    0.080000        1.0080           0   0.00000   0.00000
     29882 MEOH     1465     MEOH     H1B      HDA3B    0.080000        1.0080           0   0.00000   0.00000
     29883 MEOH     1465     MEOH     H1C      HDA3B    0.080000        1.0080           0   0.00000   0.00000
     29884 MEOH     1465     MEOH     LP1A     LPD     -0.230000        0.0000           -1   0.00000   0.00000
     29885 MEOH     1465     MEOH     LP1B     LPD     -0.230000        0.0000           -1   0.00000   0.00000
     29886 MEOH     1466     MEOH     C1       CD33B    2.314100       11.6110           0   -1.00000   1.30000
     29887 MEOH     1466     MEOH     DC1      DRUD    -2.454100        0.4000           0   0.00000   0.00000
     29888 MEOH     1466     MEOH     O1       OD31H    2.488300       15.5990           0   -1.02800   1.30000
     29889 MEOH     1466     MEOH     DO1      DRUD    -2.488300        0.4000           0   0.00000   0.00000
     29890 MEOH     1466     MEOH     HO1      HDP1A    0.360000        1.0080           0   0.00000   0.00000
     29891 MEOH     1466     MEOH     HO2      DUMH     0.000000        1.0080           0   0.00000   0.00000
     29892 MEOH     1466     MEOH     H1A      HDA3B    0.080000        1.0080           0   0.00000   0.00000
     29893 MEOH     1466     MEOH     H1B      HDA3B    0.080000        1.0080           0   0.00000   0.00000
     29894 MEOH     1466     MEOH     H1C      HDA3B    0.080000        1.0080           0   0.00000   0.00000
     29895 MEOH     1466     MEOH     LP1A     LPD     -0.230000        0.0000           -1   0.00000   0.00000
     29896 MEOH     1466     MEOH     LP1B     LPD     -0.230000        0.0000           -1   0.00000   0.00000
     29897 MEOH     1467     MEOH     C1       CD33B    2.314100       11.6110           0   -1.00000   1.30000
     29898 MEOH     1467     MEOH     DC1      DRUD    -2.454100        0.4000           0   0.00000   0.00000
     29899 MEOH     1467     MEOH     O1       OD31H    2.488300       15.5990           0   -1.02800   1.30000
     29900 MEOH     1467     MEOH     DO1      DRUD    -2.488300        0.4000           0   0.00000   0.00000
     29901 MEOH     1467     MEOH     HO1      HDP1A    0.360000        1.0080           0   0.00000   0.00000
     29902 MEOH     1467     MEOH     HO2      DUMH     0.000000        1.0080           0   0.00000   0.00000
     29903 MEOH     1467     MEOH     H1A      HDA3B    0.080000        1.0080           0   0.00000   0.00000
     29904 MEOH     1467     MEOH     H1B      HDA3B    0.080000        1.0080           0   0.00000   0.00000
     29905 MEOH     1467     MEOH     H1C      HDA3B    0.080000        1.0080           0   0.00000   0.00000
     29906 MEOH     1467     MEOH     LP1A     LPD     -0.230000        0.0000           -1   0.00000   0.00000
     29907 MEOH     1467     MEOH     LP1B     LPD     -0.230000        0.0000           -1   0.00000   0.00000
     29908 MEOH     1468     MEOH     C1       CD33B    2.314100       11.6110           0   -1.00000   1.30000
     29909 MEOH     1468     MEOH     DC1      DRUD    -2.454100        0.4000           0   0.00000   0.00000
     29910 MEOH     1468     MEOH     O1       OD31H    2.488300       15.5990           0   -1.02800   1.30000
     29911 MEOH     1468     MEOH     DO1      DRUD    -2.488300        0.4000           0   0.00000   0.00000
     29912 MEOH     1468     MEOH     HO1      HDP1A    0.360000        1.0080           0   0.00000   0.00000
     29913 MEOH     1468     MEOH     HO2      DUMH     0.000000        1.0080           0   0.00000   0.00000
     29914 MEOH     1468     MEOH     H1A      HDA3B    0.080000        1.0080           0   0.00000   0.00000
     29915 MEOH     1468     MEOH     H1B      HDA3B    0.080000        1.0080           0   0.00000   0.00000
     29916 MEOH     1468     MEOH     H1C      HDA3B    0.080000        1.0080           0   0.00000   0.00000
     29917 MEOH     1468     MEOH     LP1A     LPD     -0.230000        0.0000           -1   0.00000   0.00000
     29918 MEOH     1468     MEOH     LP1B     LPD     -0.230000        0.0000           -1   0.00000   0.00000
     29919 MEOH     1469     MEOH     C1       CD33B    2.314100       11.6110           0   -1.00000   1.30000
     29920 MEOH     1469     MEOH     DC1      DRUD    -2.454100        0.4000           0   0.00000   0.00000
     29921 MEOH     1469     MEOH     O1       OD31H    2.488300       15.5990           0   -1.02800   1.30000
     29922 MEOH     1469     MEOH     DO1      DRUD    -2.488300        0.4000           0   0.00000   0.00000
     29923 MEOH     1469     MEOH     HO1      HDP1A    0.360000        1.0080           0   0.00000   0.00000
     29924 MEOH     1469     MEOH     HO2      DUMH     0.000000        1.0080           0   0.00000   0.00000
     29925 MEOH     1469     MEOH     H1A      HDA3B    0.080000        1.0080           0   0.00000   0.00000
     29926 MEOH     1469     MEOH     H1B      HDA3B    0.080000        1.0080           0   0.00000   0.00000
     29927 MEOH     1469     MEOH     H1C      HDA3B    0.080000        1.0080           0   0.00000   0.00000
     29928 MEOH     1469     MEOH     LP1A     LPD     -0.230000        0.0000           -1   0.00000   0.00000
     29929 MEOH     1469     MEOH     LP1B     LPD     -0.230000        0.0000           -1   0.00000   0.00000
     29930 MEOH     1470     MEOH     C1       CD33B    2.314100       11.6110           0   -1.00000   1.30000
     29931 MEOH     1470     MEOH     DC1      DRUD    -2.454100        0.4000           0   0.00000   0.00000
     29932 MEOH     1470     MEOH     O1       OD31H    2.488300       15.5990           0   -1.02800   1.30000
     29933 MEOH     1470     MEOH     DO1      DRUD    -2.488300        0.4000           0   0.00000   0.00000
     29934 MEOH     1470     MEOH     HO1      HDP1A    0.360000        1.0080           0   0.00000   0.00000
     29935 MEOH     1470     MEOH     HO2      DUMH     0.000000        1.0080           0   0.00000   0.00000
     29936 MEOH     1470     MEOH     H1A      HDA3B    0.080000        1.0080           0   0.00000   0.00000
     29937 MEOH     1470     MEOH     H1B      HDA3B    0.080000        1.0080           0   0.00000   0.00000
     29938 MEOH     1470     MEOH     H1C      HDA3B    0.080000        1.0080           0   0.00000   0.00000
     29939 MEOH     1470     MEOH     LP1A     LPD     -0.230000        0.0000           -1   0.00000   0.00000
     29940 MEOH     1470     MEOH     LP1B     LPD     -0.230000        0.0000           -1   0.00000   0.00000
     29941 MEOH     1471     MEOH     C1       CD33B    2.314100       11.6110           0   -1.00000   1.30000
     29942 MEOH     1471     MEOH     DC1      DRUD    -2.454100        0.4000           0   0.00000   0.00000
     29943 MEOH     1471     MEOH     O1       OD31H    2.488300       15.5990           0   -1.02800   1.30000
     29944 MEOH     1471     MEOH     DO1      DRUD    -2.488300        0.4000           0   0.00000   0.00000
     29945 MEOH     1471     MEOH     HO1      HDP1A    0.360000        1.0080           0   0.00000   0.00000
     29946 MEOH     1471     MEOH     HO2      DUMH     0.000000        1.0080           0   0.00000   0.00000
     29947 MEOH     1471     MEOH     H1A      HDA3B    0.080000        1.0080           0   0.00000   0.00000
     29948 MEOH     1471     MEOH     H1B      HDA3B    0.080000        1.0080           0   0.00000   0.00000
     29949 MEOH     1471     MEOH     H1C      HDA3B    0.080000        1.0080           0   0.00000   0.00000
     29950 MEOH     1471     MEOH     LP1A     LPD     -0.230000        0.0000           -1   0.00000   0.00000
     29951 MEOH     1471     MEOH     LP1B     LPD     -0.230000        0.0000           -1   0.00000   0.00000
     29952 MEOH     1472     MEOH     C1       CD33B    2.314100       11.6110           0   -1.00000   1.30000
     29953 MEOH     1472     MEOH     DC1      DRUD    -2.454100        0.4000           0   0.00000   0.00000
     29954 MEOH     1472     MEOH     O1       OD31H    2.488300       15.5990           0   -1.02800   1.30000
     29955 MEOH     1472     MEOH     DO1      DRUD    -2.488300        0.4000           0   0.00000   0.00000
     29956 MEOH     1472     MEOH     HO1      HDP1A    0.360000        1.0080           0   0.00000   0.00000
     29957 MEOH     1472     MEOH     HO2      DUMH     0.000000        1.0080           0   0.00000   0.00000
     29958 MEOH     1472     MEOH     H1A      HDA3B    0.080000        1.0080           0   0.00000   0.00000
     29959 MEOH     1472     MEOH     H1B      HDA3B    0.080000        1.0080           0   0.00000   0.00000
     29960 MEOH     1472     MEOH     H1C      HDA3B    0.080000        1.0080           0   0.00000   0.00000
     29961 MEOH     1472     MEOH     LP1A     LPD     -0.230000        0.0000           -1   0.00000   0.00000
     29962 MEOH     1472     MEOH     LP1B     LPD     -0.230000        0.0000           -1   0.00000   0.00000
     29963 MEOH     1473     MEOH     C1       CD33B    2.314100       11.6110           0   -1.00000   1.30000
     29964 MEOH     1473     MEOH     DC1      DRUD    -2.454100        0.4000           0   0.00000   0.00000
     29965 MEOH     1473     MEOH     O1       OD31H    2.488300       15.5990           0   -1.02800   1.30000
     29966 MEOH     1473     MEOH     DO1      DRUD    -2.488300        0.4000           0   0.00000   0.00000
     29967 MEOH     1473     MEOH     HO1      HDP1A    0.360000        1.0080           0   0.00000   0.00000
     29968 MEOH     1473     MEOH     HO2      DUMH     0.000000        1.0080           0   0.00000   0.00000
     29969 MEOH     1473     MEOH     H1A      HDA3B    0.080000        1.0080           0   0.00000   0.00000
     29970 MEOH     1473     MEOH     H1B      HDA3B    0.080000        1.0080           0   0.00000   0.00000
     29971 MEOH     1473     MEOH     H1C      HDA3B    0.080000        1.0080           0   0.00000   0.00000
     29972 MEOH     1473     MEOH     LP1A     LPD     -0.230000        0.0000           -1   0.00000   0.00000
     29973 MEOH     1473     MEOH     LP1B     LPD     -0.230000        0.0000           -1   0.00000   0.00000
     29974 MEOH     1474     MEOH     C1       CD33B    2.314100       11.6110           0   -1.00000   1.30000
     29975 MEOH     1474     MEOH     DC1      DRUD    -2.454100        0.4000           0   0.00000   0.00000
     29976 MEOH     1474     MEOH     O1       OD31H    2.488300       15.5990           0   -1.02800   1.30000
     29977 MEOH     1474     MEOH     DO1      DRUD    -2.488300        0.4000           0   0.00000   0.00000
     29978 MEOH     1474     MEOH     HO1      HDP1A    0.360000        1.0080           0   0.00000   0.00000
     29979 MEOH     1474     MEOH     HO2      DUMH     0.000000        1.0080           0   0.00000   0.00000
     29980 MEOH     1474     MEOH     H1A      HDA3B    0.080000        1.0080           0   0.00000   0.00000
     29981 MEOH     1474     MEOH     H1B      HDA3B    0.080000        1.0080           0   0.00000   0.00000
     29982 MEOH     1474     MEOH     H1C      HDA3B    0.080000        1.0080           0   0.00000   0.00000
     29983 MEOH     1474     MEOH     LP1A     LPD     -0.230000        0.0000           -1   0.00000   0.00000
     29984 MEOH     1474     MEOH     LP1B     LPD     -0.230000        0.0000           -1   0.00000   0.00000
     29985 MEOH     1475     MEOH     C1       CD33B    2.314100       11.6110           0   -1.00000   1.30000
     29986 MEOH     1475     MEOH     DC1      DRUD    -2.454100        0.4000           0   0.00000   0.00000
     29987 MEOH     1475     MEOH     O1       OD31H    2.488300       15.5990           0   -1.02800   1.30000
     29988 MEOH     1475     MEOH     DO1      DRUD    -2.488300        0.4000           0   0.00000   0.00000
     29989 MEOH     1475     MEOH     HO1      HDP1A    0.360000        1.0080           0   0.00000   0.00000
     29990 MEOH     1475     MEOH     HO2      DUMH     0.000000        1.0080           0   0.00000   0.00000
     29991 MEOH     1475     MEOH     H1A      HDA3B    0.080000        1.0080           0   0.00000   0.00000
     29992 MEOH     1475     MEOH     H1B      HDA3B    0.080000        1.0080           0   0.00000   0.00000
     29993 MEOH     1475     MEOH     H1C      HDA3B    0.080000        1.0080           0   0.00000   0.00000
     29994 MEOH     1475     MEOH     LP1A     LPD     -0.230000        0.0000           -1   0.00000   0.00000
     29995 MEOH     1475     MEOH     LP1B     LPD     -0.230000        0.0000           -1   0.00000   0.00000
     29996 MEOH     1476     MEOH     C1       CD33B    2.314100       11.6110           0   -1.00000   1.30000
     29997 MEOH     1476     MEOH     DC1      DRUD    -2.454100        0.4000           0   0.00000   0.00000
     29998 MEOH     1476     MEOH     O1       OD31H    2.488300       15.5990           0   -1.02800   1.30000
     29999 MEOH     1476     MEOH     DO1      DRUD    -2.488300        0.4000           0   0.00000   0.00000
     30000 MEOH     1476     MEOH     HO1      HDP1A    0.360000        1.0080           0   0.00000   0.00000
     30001 MEOH     1476     MEOH     HO2      DUMH     0.000000        1.0080           0   0.00000   0.00000
     30002 MEOH     1476     MEOH     H1A      HDA3B    0.080000        1.0080           0   0.00000   0.00000
     30003 MEOH     1476     MEOH     H1B      HDA3B    0.080000        1.0080           0   0.00000   0.00000
     30004 MEOH     1476     MEOH     H1C      HDA3B    0.080000        1.0080           0   0.00000   0.00000
     30005 MEOH     1476     MEOH     LP1A     LPD     -0.230000        0.0000           -1   0.00000   0.00000
     30006 MEOH     1476     MEOH     LP1B     LPD     -0.230000        0.0000           -1   0.00000   0.00000
     30007 MEOH     1477     MEOH     C1       CD33B    2.314100       11.6110           0   -1.00000   1.30000
     30008 MEOH     1477     MEOH     DC1      DRUD    -2.454100        0.4000           0   0.00000   0.00000
     30009 MEOH     1477     MEOH     O1       OD31H    2.488300       15.5990           0   -1.02800   1.30000
     30010 MEOH     1477     MEOH     DO1      DRUD    -2.488300        0.4000           0   0.00000   0.00000
     30011 MEOH     1477     MEOH     HO1      HDP1A    0.360000        1.0080           0   0.00000   0.00000
     30012 MEOH     1477     MEOH     HO2      DUMH     0.000000        1.0080           0   0.00000   0.00000
     30013 MEOH     1477     MEOH     H1A      HDA3B    0.080000        1.0080           0   0.00000   0.00000
     30014 MEOH     1477     MEOH     H1B      HDA3B    0.080000        1.0080           0   0.00000   0.00000
     30015 MEOH     1477     MEOH     H1C      HDA3B    0.080000        1.0080           0   0.00000   0.00000
     30016 MEOH     1477     MEOH     LP1A     LPD     -0.230000        0.0000           -1   0.00000   0.00000
     30017 MEOH     1477     MEOH     LP1B     LPD     -0.230000        0.0000           -1   0.00000   0.00000
     30018 MEOH     1478     MEOH     C1       CD33B    2.314100       11.6110           0   -1.00000   1.30000
     30019 MEOH     1478     MEOH     DC1      DRUD    -2.454100        0.4000           0   0.00000   0.00000
     30020 MEOH     1478     MEOH     O1       OD31H    2.488300       15.5990           0   -1.02800   1.30000
     30021 MEOH     1478     MEOH     DO1      DRUD    -2.488300        0.4000           0   0.00000   0.00000
     30022 MEOH     1478     MEOH     HO1      HDP1A    0.360000        1.0080           0   0.00000   0.00000
     30023 MEOH     1478     MEOH     HO2      DUMH     0.000000        1.0080           0   0.00000   0.00000
     30024 MEOH     1478     MEOH     H1A      HDA3B    0.080000        1.0080           0   0.00000   0.00000
     30025 MEOH     1478     MEOH     H1B      HDA3B    0.080000        1.0080           0   0.00000   0.00000
     30026 MEOH     1478     MEOH     H1C      HDA3B    0.080000        1.0080           0   0.00000   0.00000
     30027 MEOH     1478     MEOH     LP1A     LPD     -0.230000        0.0000           -1   0.00000   0.00000
     30028 MEOH     1478     MEOH     LP1B     LPD     -0.230000        0.0000           -1   0.00000   0.00000
     30029 MEOH     1479     MEOH     C1       CD33B    2.314100       11.6110           0   -1.00000   1.30000
     30030 MEOH     1479     MEOH     DC1      DRUD    -2.454100        0.4000           0   0.00000   0.00000
     30031 MEOH     1479     MEOH     O1       OD31H    2.488300       15.5990           0   -1.02800   1.30000
     30032 MEOH     1479     MEOH     DO1      DRUD    -2.488300        0.4000           0   0.00000   0.00000
     30033 MEOH     1479     MEOH     HO1      HDP1A    0.360000        1.0080           0   0.00000   0.00000
     30034 MEOH     1479     MEOH     HO2      DUMH     0.000000        1.0080           0   0.00000   0.00000
     30035 MEOH     1479     MEOH     H1A      HDA3B    0.080000        1.0080           0   0.00000   0.00000
     30036 MEOH     1479     MEOH     H1B      HDA3B    0.080000        1.0080           0   0.00000   0.00000
     30037 MEOH     1479     MEOH     H1C      HDA3B    0.080000        1.0080           0   0.00000   0.00000
     30038 MEOH     1479     MEOH     LP1A     LPD     -0.230000        0.0000           -1   0.00000   0.00000
     30039 MEOH     1479     MEOH     LP1B     LPD     -0.230000        0.0000           -1   0.00000   0.00000
     30040 MEOH     1480     MEOH     C1       CD33B    2.314100       11.6110           0   -1.00000   1.30000
     30041 MEOH     1480     MEOH     DC1      DRUD    -2.454100        0.4000           0   0.00000   0.00000
     30042 MEOH     1480     MEOH     O1       OD31H    2.488300       15.5990           0   -1.02800   1.30000
     30043 MEOH     1480     MEOH     DO1      DRUD    -2.488300        0.4000           0   0.00000   0.00000
     30044 MEOH     1480     MEOH     HO1      HDP1A    0.360000        1.0080           0   0.00000   0.00000
     30045 MEOH     1480     MEOH     HO2      DUMH     0.000000        1.0080           0   0.00000   0.00000
     30046 MEOH     1480     MEOH     H1A      HDA3B    0.080000        1.0080           0   0.00000   0.00000
     30047 MEOH     1480     MEOH     H1B      HDA3B    0.080000        1.0080           0   0.00000   0.00000
     30048 MEOH     1480     MEOH     H1C      HDA3B    0.080000        1.0080           0   0.00000   0.00000
     30049 MEOH     1480     MEOH     LP1A     LPD     -0.230000        0.0000           -1   0.00000   0.00000
     30050 MEOH     1480     MEOH     LP1B     LPD     -0.230000        0.0000           -1   0.00000   0.00000
     30051 MEOH     1481     MEOH     C1       CD33B    2.314100       11.6110           0   -1.00000   1.30000
     30052 MEOH     1481     MEOH     DC1      DRUD    -2.454100        0.4000           0   0.00000   0.00000
     30053 MEOH     1481     MEOH     O1       OD31H    2.488300       15.5990           0   -1.02800   1.30000
     30054 MEOH     1481     MEOH     DO1      DRUD    -2.488300        0.4000           0   0.00000   0.00000
     30055 MEOH     1481     MEOH     HO1      HDP1A    0.360000        1.0080           0   0.00000   0.00000
     30056 MEOH     1481     MEOH     HO2      DUMH     0.000000        1.0080           0   0.00000   0.00000
     30057 MEOH     1481     MEOH     H1A      HDA3B    0.080000        1.0080           0   0.00000   0.00000
     30058 MEOH     1481     MEOH     H1B      HDA3B    0.080000        1.0080           0   0.00000   0.00000
     30059 MEOH     1481     MEOH     H1C      HDA3B    0.080000        1.0080           0   0.00000   0.00000
     30060 MEOH     1481     MEOH     LP1A     LPD     -0.230000        0.0000           -1   0.00000   0.00000
     30061 MEOH     1481     MEOH     LP1B     LPD     -0.230000        0.0000           -1   0.00000   0.00000
     30062 MEOH     1482     MEOH     C1       CD33B    2.314100       11.6110           0   -1.00000   1.30000
     30063 MEOH     1482     MEOH     DC1      DRUD    -2.454100        0.4000           0   0.00000   0.00000
     30064 MEOH     1482     MEOH     O1       OD31H    2.488300       15.5990           0   -1.02800   1.30000
     30065 MEOH     1482     MEOH     DO1      DRUD    -2.488300        0.4000           0   0.00000   0.00000
     30066 MEOH     1482     MEOH     HO1      HDP1A    0.360000        1.0080           0   0.00000   0.00000
     30067 MEOH     1482     MEOH     HO2      DUMH     0.000000        1.0080           0   0.00000   0.00000
     30068 MEOH     1482     MEOH     H1A      HDA3B    0.080000        1.0080           0   0.00000   0.00000
     30069 MEOH     1482     MEOH     H1B      HDA3B    0.080000        1.0080           0   0.00000   0.00000
     30070 MEOH     1482     MEOH     H1C      HDA3B    0.080000        1.0080           0   0.00000   0.00000
     30071 MEOH     1482     MEOH     LP1A     LPD     -0.230000        0.0000           -1   0.00000   0.00000
     30072 MEOH     1482     MEOH     LP1B     LPD     -0.230000        0.0000           -1   0.00000   0.00000
     30073 MEOH     1483     MEOH     C1       CD33B    2.314100       11.6110           0   -1.00000   1.30000
     30074 MEOH     1483     MEOH     DC1      DRUD    -2.454100        0.4000           0   0.00000   0.00000
     30075 MEOH     1483     MEOH     O1       OD31H    2.488300       15.5990           0   -1.02800   1.30000
     30076 MEOH     1483     MEOH     DO1      DRUD    -2.488300        0.4000           0   0.00000   0.00000
     30077 MEOH     1483     MEOH     HO1      HDP1A    0.360000        1.0080           0   0.00000   0.00000
     30078 MEOH     1483     MEOH     HO2      DUMH     0.000000        1.0080           0   0.00000   0.00000
     30079 MEOH     1483     MEOH     H1A      HDA3B    0.080000        1.0080           0   0.00000   0.00000
     30080 MEOH     1483     MEOH     H1B      HDA3B    0.080000        1.0080           0   0.00000   0.00000
     30081 MEOH     1483     MEOH     H1C      HDA3B    0.080000        1.0080           0   0.00000   0.00000
     30082 MEOH     1483     MEOH     LP1A     LPD     -0.230000        0.0000           -1   0.00000   0.00000
     30083 MEOH     1483     MEOH     LP1B     LPD     -0.230000        0.0000           -1   0.00000   0.00000
     30084 MEOH     1484     MEOH     C1       CD33B    2.314100       11.6110           0   -1.00000   1.30000
     30085 MEOH     1484     MEOH     DC1      DRUD    -2.454100        0.4000           0   0.00000   0.00000
     30086 MEOH     1484     MEOH     O1       OD31H    2.488300       15.5990           0   -1.02800   1.30000
     30087 MEOH     1484     MEOH     DO1      DRUD    -2.488300        0.4000           0   0.00000   0.00000
     30088 MEOH     1484     MEOH     HO1      HDP1A    0.360000        1.0080           0   0.00000   0.00000
     30089 MEOH     1484     MEOH     HO2      DUMH     0.000000        1.0080           0   0.00000   0.00000
     30090 MEOH     1484     MEOH     H1A      HDA3B    0.080000        1.0080           0   0.00000   0.00000
     30091 MEOH     1484     MEOH     H1B      HDA3B    0.080000        1.0080           0   0.00000   0.00000
     30092 MEOH     1484     MEOH     H1C      HDA3B    0.080000        1.0080           0   0.00000   0.00000
     30093 MEOH     1484     MEOH     LP1A     LPD     -0.230000        0.0000           -1   0.00000   0.00000
     30094 MEOH     1484     MEOH     LP1B     LPD     -0.230000        0.0000           -1   0.00000   0.00000
     30095 MEOH     1485     MEOH     C1       CD33B    2.314100       11.6110           0   -1.00000   1.30000
     30096 MEOH     1485     MEOH     DC1      DRUD    -2.454100        0.4000           0   0.00000   0.00000
     30097 MEOH     1485     MEOH     O1       OD31H    2.488300       15.5990           0   -1.02800   1.30000
     30098 MEOH     1485     MEOH     DO1      DRUD    -2.488300        0.4000           0   0.00000   0.00000
     30099 MEOH     1485     MEOH     HO1      HDP1A    0.360000        1.0080           0   0.00000   0.00000
     30100 MEOH     1485     MEOH     HO2      DUMH     0.000000        1.0080           0   0.00000   0.00000
     30101 MEOH     1485     MEOH     H1A      HDA3B    0.080000        1.0080           0   0.00000   0.00000
     30102 MEOH     1485     MEOH     H1B      HDA3B    0.080000        1.0080           0   0.00000   0.00000
     30103 MEOH     1485     MEOH     H1C      HDA3B    0.080000        1.0080           0   0.00000   0.00000
     30104 MEOH     1485     MEOH     LP1A     LPD     -0.230000        0.0000           -1   0.00000   0.00000
     30105 MEOH     1485     MEOH     LP1B     LPD     -0.230000        0.0000           -1   0.00000   0.00000
     30106 MEOH     1486     MEOH     C1       CD33B    2.314100       11.6110           0   -1.00000   1.30000
     30107 MEOH     1486     MEOH     DC1      DRUD    -2.454100        0.4000           0   0.00000   0.00000
     30108 MEOH     1486     MEOH     O1       OD31H    2.488300       15.5990           0   -1.02800   1.30000
     30109 MEOH     1486     MEOH     DO1      DRUD    -2.488300        0.4000           0   0.00000   0.00000
     30110 MEOH     1486     MEOH     HO1      HDP1A    0.360000        1.0080           0   0.00000   0.00000
     30111 MEOH     1486     MEOH     HO2      DUMH     0.000000        1.0080           0   0.00000   0.00000
     30112 MEOH     1486     MEOH     H1A      HDA3B    0.080000        1.0080           0   0.00000   0.00000
     30113 MEOH     1486     MEOH     H1B      HDA3B    0.080000        1.0080           0   0.00000   0.00000
     30114 MEOH     1486     MEOH     H1C      HDA3B    0.080000        1.0080           0   0.00000   0.00000
     30115 MEOH     1486     MEOH     LP1A     LPD     -0.230000        0.0000           -1   0.00000   0.00000
     30116 MEOH     1486     MEOH     LP1B     LPD     -0.230000        0.0000           -1   0.00000   0.00000
     30117 MEOH     1487     MEOH     C1       CD33B    2.314100       11.6110           0   -1.00000   1.30000
     30118 MEOH     1487     MEOH     DC1      DRUD    -2.454100        0.4000           0   0.00000   0.00000
     30119 MEOH     1487     MEOH     O1       OD31H    2.488300       15.5990           0   -1.02800   1.30000
     30120 MEOH     1487     MEOH     DO1      DRUD    -2.488300        0.4000           0   0.00000   0.00000
     30121 MEOH     1487     MEOH     HO1      HDP1A    0.360000        1.0080           0   0.00000   0.00000
     30122 MEOH     1487     MEOH     HO2      DUMH     0.000000        1.0080           0   0.00000   0.00000
     30123 MEOH     1487     MEOH     H1A      HDA3B    0.080000        1.0080           0   0.00000   0.00000
     30124 MEOH     1487     MEOH     H1B      HDA3B    0.080000        1.0080           0   0.00000   0.00000
     30125 MEOH     1487     MEOH     H1C      HDA3B    0.080000        1.0080           0   0.00000   0.00000
     30126 MEOH     1487     MEOH     LP1A     LPD     -0.230000        0.0000           -1   0.00000   0.00000
     30127 MEOH     1487     MEOH     LP1B     LPD     -0.230000        0.0000           -1   0.00000   0.00000
     30128 MEOH     1488     MEOH     C1       CD33B    2.314100       11.6110           0   -1.00000   1.30000
     30129 MEOH     1488     MEOH     DC1      DRUD    -2.454100        0.4000           0   0.00000   0.00000
     30130 MEOH     1488     MEOH     O1       OD31H    2.488300       15.5990           0   -1.02800   1.30000
     30131 MEOH     1488     MEOH     DO1      DRUD    -2.488300        0.4000           0   0.00000   0.00000
     30132 MEOH     1488     MEOH     HO1      HDP1A    0.360000        1.0080           0   0.00000   0.00000
     30133 MEOH     1488     MEOH     HO2      DUMH     0.000000        1.0080           0   0.00000   0.00000
     30134 MEOH     1488     MEOH     H1A      HDA3B    0.080000        1.0080           0   0.00000   0.00000
     30135 MEOH     1488     MEOH     H1B      HDA3B    0.080000        1.0080           0   0.00000   0.00000
     30136 MEOH     1488     MEOH     H1C      HDA3B    0.080000        1.0080           0   0.00000   0.00000
     30137 MEOH     1488     MEOH     LP1A     LPD     -0.230000        0.0000           -1   0.00000   0.00000
     30138 MEOH     1488     MEOH     LP1B     LPD     -0.230000        0.0000           -1   0.00000   0.00000
     30139 MEOH     1489     MEOH     C1       CD33B    2.314100       11.6110           0   -1.00000   1.30000
     30140 MEOH     1489     MEOH     DC1      DRUD    -2.454100        0.4000           0   0.00000   0.00000
     30141 MEOH     1489     MEOH     O1       OD31H    2.488300       15.5990           0   -1.02800   1.30000
     30142 MEOH     1489     MEOH     DO1      DRUD    -2.488300        0.4000           0   0.00000   0.00000
     30143 MEOH     1489     MEOH     HO1      HDP1A    0.360000        1.0080           0   0.00000   0.00000
     30144 MEOH     1489     MEOH     HO2      DUMH     0.000000        1.0080           0   0.00000   0.00000
     30145 MEOH     1489     MEOH     H1A      HDA3B    0.080000        1.0080           0   0.00000   0.00000
     30146 MEOH     1489     MEOH     H1B      HDA3B    0.080000        1.0080           0   0.00000   0.00000
     30147 MEOH     1489     MEOH     H1C      HDA3B    0.080000        1.0080           0   0.00000   0.00000
     30148 MEOH     1489     MEOH     LP1A     LPD     -0.230000        0.0000           -1   0.00000   0.00000
     30149 MEOH     1489     MEOH     LP1B     LPD     -0.230000        0.0000           -1   0.00000   0.00000
     30150 MEOH     1490     MEOH     C1       CD33B    2.314100       11.6110           0   -1.00000   1.30000
     30151 MEOH     1490     MEOH     DC1      DRUD    -2.454100        0.4000           0   0.00000   0.00000
     30152 MEOH     1490     MEOH     O1       OD31H    2.488300       15.5990           0   -1.02800   1.30000
     30153 MEOH     1490     MEOH     DO1      DRUD    -2.488300        0.4000           0   0.00000   0.00000
     30154 MEOH     1490     MEOH     HO1      HDP1A    0.360000        1.0080           0   0.00000   0.00000
     30155 MEOH     1490     MEOH     HO2      DUMH     0.000000        1.0080           0   0.00000   0.00000
     30156 MEOH     1490     MEOH     H1A      HDA3B    0.080000        1.0080           0   0.00000   0.00000
     30157 MEOH     1490     MEOH     H1B      HDA3B    0.080000        1.0080           0   0.00000   0.00000
     30158 MEOH     1490     MEOH     H1C      HDA3B    0.080000        1.0080           0   0.00000   0.00000
     30159 MEOH     1490     MEOH     LP1A     LPD     -0.230000        0.0000           -1   0.00000   0.00000
     30160 MEOH     1490     MEOH     LP1B     LPD     -0.230000        0.0000           -1   0.00000   0.00000
     30161 MEOH     1491     MEOH     C1       CD33B    2.314100       11.6110           0   -1.00000   1.30000
     30162 MEOH     1491     MEOH     DC1      DRUD    -2.454100        0.4000           0   0.00000   0.00000
     30163 MEOH     1491     MEOH     O1       OD31H    2.488300       15.5990           0   -1.02800   1.30000
     30164 MEOH     1491     MEOH     DO1      DRUD    -2.488300        0.4000           0   0.00000   0.00000
     30165 MEOH     1491     MEOH     HO1      HDP1A    0.360000        1.0080           0   0.00000   0.00000
     30166 MEOH     1491     MEOH     HO2      DUMH     0.000000        1.0080           0   0.00000   0.00000
     30167 MEOH     1491     MEOH     H1A      HDA3B    0.080000        1.0080           0   0.00000   0.00000
     30168 MEOH     1491     MEOH     H1B      HDA3B    0.080000        1.0080           0   0.00000   0.00000
     30169 MEOH     1491     MEOH     H1C      HDA3B    0.080000        1.0080           0   0.00000   0.00000
     30170 MEOH     1491     MEOH     LP1A     LPD     -0.230000        0.0000           -1   0.00000   0.00000
     30171 MEOH     1491     MEOH     LP1B     LPD     -0.230000        0.0000           -1   0.00000   0.00000
     30172 MEOH     1492     MEOH     C1       CD33B    2.314100       11.6110           0   -1.00000   1.30000
     30173 MEOH     1492     MEOH     DC1      DRUD    -2.454100        0.4000           0   0.00000   0.00000
     30174 MEOH     1492     MEOH     O1       OD31H    2.488300       15.5990           0   -1.02800   1.30000
     30175 MEOH     1492     MEOH     DO1      DRUD    -2.488300        0.4000           0   0.00000   0.00000
     30176 MEOH     1492     MEOH     HO1      HDP1A    0.360000        1.0080           0   0.00000   0.00000
     30177 MEOH     1492     MEOH     HO2      DUMH     0.000000        1.0080           0   0.00000   0.00000
     30178 MEOH     1492     MEOH     H1A      HDA3B    0.080000        1.0080           0   0.00000   0.00000
     30179 MEOH     1492     MEOH     H1B      HDA3B    0.080000        1.0080           0   0.00000   0.00000
     30180 MEOH     1492     MEOH     H1C      HDA3B    0.080000        1.0080           0   0.00000   0.00000
     30181 MEOH     1492     MEOH     LP1A     LPD     -0.230000        0.0000           -1   0.00000   0.00000
     30182 MEOH     1492     MEOH     LP1B     LPD     -0.230000        0.0000           -1   0.00000   0.00000
     30183 MEOH     1493     MEOH     C1       CD33B    2.314100       11.6110           0   -1.00000   1.30000
     30184 MEOH     1493     MEOH     DC1      DRUD    -2.454100        0.4000           0   0.00000   0.00000
     30185 MEOH     1493     MEOH     O1       OD31H    2.488300       15.5990           0   -1.02800   1.30000
     30186 MEOH     1493     MEOH     DO1      DRUD    -2.488300        0.4000           0   0.00000   0.00000
     30187 MEOH     1493     MEOH     HO1      HDP1A    0.360000        1.0080           0   0.00000   0.00000
     30188 MEOH     1493     MEOH     HO2      DUMH     0.000000        1.0080           0   0.00000   0.00000
     30189 MEOH     1493     MEOH     H1A      HDA3B    0.080000        1.0080           0   0.00000   0.00000
     30190 MEOH     1493     MEOH     H1B      HDA3B    0.080000        1.0080           0   0.00000   0.00000
     30191 MEOH     1493     MEOH     H1C      HDA3B    0.080000        1.0080           0   0.00000   0.00000
     30192 MEOH     1493     MEOH     LP1A     LPD     -0.230000        0.0000           -1   0.00000   0.00000
     30193 MEOH     1493     MEOH     LP1B     LPD     -0.230000        0.0000           -1   0.00000   0.00000
     30194 MEOH     1494     MEOH     C1       CD33B    2.314100       11.6110           0   -1.00000   1.30000
     30195 MEOH     1494     MEOH     DC1      DRUD    -2.454100        0.4000           0   0.00000   0.00000
     30196 MEOH     1494     MEOH     O1       OD31H    2.488300       15.5990           0   -1.02800   1.30000
     30197 MEOH     1494     MEOH     DO1      DRUD    -2.488300        0.4000           0   0.00000   0.00000
     30198 MEOH     1494     MEOH     HO1      HDP1A    0.360000        1.0080           0   0.00000   0.00000
     30199 MEOH     1494     MEOH     HO2      DUMH     0.000000        1.0080           0   0.00000   0.00000
     30200 MEOH     1494     MEOH     H1A      HDA3B    0.080000        1.0080           0   0.00000   0.00000
     30201 MEOH     1494     MEOH     H1B      HDA3B    0.080000        1.0080           0   0.00000   0.00000
     30202 MEOH     1494     MEOH     H1C      HDA3B    0.080000        1.0080           0   0.00000   0.00000
     30203 MEOH     1494     MEOH     LP1A     LPD     -0.230000        0.0000           -1   0.00000   0.00000
     30204 MEOH     1494     MEOH     LP1B     LPD     -0.230000        0.0000           -1   0.00000   0.00000
     30205 MEOH     1495     MEOH     C1       CD33B    2.314100       11.6110           0   -1.00000   1.30000
     30206 MEOH     1495     MEOH     DC1      DRUD    -2.454100        0.4000           0   0.00000   0.00000
     30207 MEOH     1495     MEOH     O1       OD31H    2.488300       15.5990           0   -1.02800   1.30000
     30208 MEOH     1495     MEOH     DO1      DRUD    -2.488300        0.4000           0   0.00000   0.00000
     30209 MEOH     1495     MEOH     HO1      HDP1A    0.360000        1.0080           0   0.00000   0.00000
     30210 MEOH     1495     MEOH     HO2      DUMH     0.000000        1.0080           0   0.00000   0.00000
     30211 MEOH     1495     MEOH     H1A      HDA3B    0.080000        1.0080           0   0.00000   0.00000
     30212 MEOH     1495     MEOH     H1B      HDA3B    0.080000        1.0080           0   0.00000   0.00000
     30213 MEOH     1495     MEOH     H1C      HDA3B    0.080000        1.0080           0   0.00000   0.00000
     30214 MEOH     1495     MEOH     LP1A     LPD     -0.230000        0.0000           -1   0.00000   0.00000
     30215 MEOH     1495     MEOH     LP1B     LPD     -0.230000        0.0000           -1   0.00000   0.00000
     30216 MEOH     1496     MEOH     C1       CD33B    2.314100       11.6110           0   -1.00000   1.30000
     30217 MEOH     1496     MEOH     DC1      DRUD    -2.454100        0.4000           0   0.00000   0.00000
     30218 MEOH     1496     MEOH     O1       OD31H    2.488300       15.5990           0   -1.02800   1.30000
     30219 MEOH     1496     MEOH     DO1      DRUD    -2.488300        0.4000           0   0.00000   0.00000
     30220 MEOH     1496     MEOH     HO1      HDP1A    0.360000        1.0080           0   0.00000   0.00000
     30221 MEOH     1496     MEOH     HO2      DUMH     0.000000        1.0080           0   0.00000   0.00000
     30222 MEOH     1496     MEOH     H1A      HDA3B    0.080000        1.0080           0   0.00000   0.00000
     30223 MEOH     1496     MEOH     H1B      HDA3B    0.080000        1.0080           0   0.00000   0.00000
     30224 MEOH     1496     MEOH     H1C      HDA3B    0.080000        1.0080           0   0.00000   0.00000
     30225 MEOH     1496     MEOH     LP1A     LPD     -0.230000        0.0000           -1   0.00000   0.00000
     30226 MEOH     1496     MEOH     LP1B     LPD     -0.230000        0.0000           -1   0.00000   0.00000
     30227 MEOH     1497     MEOH     C1       CD33B    2.314100       11.6110           0   -1.00000   1.30000
     30228 MEOH     1497     MEOH     DC1      DRUD    -2.454100        0.4000           0   0.00000   0.00000
     30229 MEOH     1497     MEOH     O1       OD31H    2.488300       15.5990           0   -1.02800   1.30000
     30230 MEOH     1497     MEOH     DO1      DRUD    -2.488300        0.4000           0   0.00000   0.00000
     30231 MEOH     1497     MEOH     HO1      HDP1A    0.360000        1.0080           0   0.00000   0.00000
     30232 MEOH     1497     MEOH     HO2      DUMH     0.000000        1.0080           0   0.00000   0.00000
     30233 MEOH     1497     MEOH     H1A      HDA3B    0.080000        1.0080           0   0.00000   0.00000
     30234 MEOH     1497     MEOH     H1B      HDA3B    0.080000        1.0080           0   0.00000   0.00000
     30235 MEOH     1497     MEOH     H1C      HDA3B    0.080000        1.0080           0   0.00000   0.00000
     30236 MEOH     1497     MEOH     LP1A     LPD     -0.230000        0.0000           -1   0.00000   0.00000
     30237 MEOH     1497     MEOH     LP1B     LPD     -0.230000        0.0000           -1   0.00000   0.00000
     30238 MEOH     1498     MEOH     C1       CD33B    2.314100       11.6110           0   -1.00000   1.30000
     30239 MEOH     1498     MEOH     DC1      DRUD    -2.454100        0.4000           0   0.00000   0.00000
     30240 MEOH     1498     MEOH     O1       OD31H    2.488300       15.5990           0   -1.02800   1.30000
     30241 MEOH     1498     MEOH     DO1      DRUD    -2.488300        0.4000           0   0.00000   0.00000
     30242 MEOH     1498     MEOH     HO1      HDP1A    0.360000        1.0080           0   0.00000   0.00000
     30243 MEOH     1498     MEOH     HO2      DUMH     0.000000        1.0080           0   0.00000   0.00000
     30244 MEOH     1498     MEOH     H1A      HDA3B    0.080000        1.0080           0   0.00000   0.00000
     30245 MEOH     1498     MEOH     H1B      HDA3B    0.080000        1.0080           0   0.00000   0.00000
     30246 MEOH     1498     MEOH     H1C      HDA3B    0.080000        1.0080           0   0.00000   0.00000
     30247 MEOH     1498     MEOH     LP1A     LPD     -0.230000        0.0000           -1   0.00000   0.00000
     30248 MEOH     1498     MEOH     LP1B     LPD     -0.230000        0.0000           -1   0.00000   0.00000
     30249 MEOH     1499     MEOH     C1       CD33B    2.314100       11.6110           0   -1.00000   1.30000
     30250 MEOH     1499     MEOH     DC1      DRUD    -2.454100        0.4000           0   0.00000   0.00000
     30251 MEOH     1499     MEOH     O1       OD31H    2.488300       15.5990           0   -1.02800   1.30000
     30252 MEOH     1499     MEOH     DO1      DRUD    -2.488300        0.4000           0   0.00000   0.00000
     30253 MEOH     1499     MEOH     HO1      HDP1A    0.360000        1.0080           0   0.00000   0.00000
     30254 MEOH     1499     MEOH     HO2      DUMH     0.000000        1.0080           0   0.00000   0.00000
     30255 MEOH     1499     MEOH     H1A      HDA3B    0.080000        1.0080           0   0.00000   0.00000
     30256 MEOH     1499     MEOH     H1B      HDA3B    0.080000        1.0080           0   0.00000   0.00000
     30257 MEOH     1499     MEOH     H1C      HDA3B    0.080000        1.0080           0   0.00000   0.00000
     30258 MEOH     1499     MEOH     LP1A     LPD     -0.230000        0.0000           -1   0.00000   0.00000
     30259 MEOH     1499     MEOH     LP1B     LPD     -0.230000        0.0000           -1   0.00000   0.00000
     30260 MEOH     1500     MEOH     C1       CD33B    2.314100       11.6110           0   -1.00000   1.30000
     30261 MEOH     1500     MEOH     DC1      DRUD    -2.454100        0.4000           0   0.00000   0.00000
     30262 MEOH     1500     MEOH     O1       OD31H    2.488300       15.5990           0   -1.02800   1.30000
     30263 MEOH     1500     MEOH     DO1      DRUD    -2.488300        0.4000           0   0.00000   0.00000
     30264 MEOH     1500     MEOH     HO1      HDP1A    0.360000        1.0080           0   0.00000   0.00000
     30265 MEOH     1500     MEOH     HO2      DUMH     0.000000        1.0080           0   0.00000   0.00000
     30266 MEOH     1500     MEOH     H1A      HDA3B    0.080000        1.0080           0   0.00000   0.00000
     30267 MEOH     1500     MEOH     H1B      HDA3B    0.080000        1.0080           0   0.00000   0.00000
     30268 MEOH     1500     MEOH     H1C      HDA3B    0.080000        1.0080           0   0.00000   0.00000
     30269 MEOH     1500     MEOH     LP1A     LPD     -0.230000        0.0000           -1   0.00000   0.00000
     30270 MEOH     1500     MEOH     LP1B     LPD     -0.230000        0.0000           -1   0.00000   0.00000
     30271 MEOH     1501     MEOH     C1       CD33B    2.314100       11.6110           0   -1.00000   1.30000
     30272 MEOH     1501     MEOH     DC1      DRUD    -2.454100        0.4000           0   0.00000   0.00000
     30273 MEOH     1501     MEOH     O1       OD31H    2.488300       15.5990           0   -1.02800   1.30000
     30274 MEOH     1501     MEOH     DO1      DRUD    -2.488300        0.4000           0   0.00000   0.00000
     30275 MEOH     1501     MEOH     HO1      HDP1A    0.360000        1.0080           0   0.00000   0.00000
     30276 MEOH     1501     MEOH     HO2      DUMH     0.000000        1.0080           0   0.00000   0.00000
     30277 MEOH     1501     MEOH     H1A      HDA3B    0.080000        1.0080           0   0.00000   0.00000
     30278 MEOH     1501     MEOH     H1B      HDA3B    0.080000        1.0080           0   0.00000   0.00000
     30279 MEOH     1501     MEOH     H1C      HDA3B    0.080000        1.0080           0   0.00000   0.00000
     30280 MEOH     1501     MEOH     LP1A     LPD     -0.230000        0.0000           -1   0.00000   0.00000
     30281 MEOH     1501     MEOH     LP1B     LPD     -0.230000        0.0000           -1   0.00000   0.00000
     30282 MEOH     1502     MEOH     C1       CD33B    2.314100       11.6110           0   -1.00000   1.30000
     30283 MEOH     1502     MEOH     DC1      DRUD    -2.454100        0.4000           0   0.00000   0.00000
     30284 MEOH     1502     MEOH     O1       OD31H    2.488300       15.5990           0   -1.02800   1.30000
     30285 MEOH     1502     MEOH     DO1      DRUD    -2.488300        0.4000           0   0.00000   0.00000
     30286 MEOH     1502     MEOH     HO1      HDP1A    0.360000        1.0080           0   0.00000   0.00000
     30287 MEOH     1502     MEOH     HO2      DUMH     0.000000        1.0080           0   0.00000   0.00000
     30288 MEOH     1502     MEOH     H1A      HDA3B    0.080000        1.0080           0   0.00000   0.00000
     30289 MEOH     1502     MEOH     H1B      HDA3B    0.080000        1.0080           0   0.00000   0.00000
     30290 MEOH     1502     MEOH     H1C      HDA3B    0.080000        1.0080           0   0.00000   0.00000
     30291 MEOH     1502     MEOH     LP1A     LPD     -0.230000        0.0000           -1   0.00000   0.00000
     30292 MEOH     1502     MEOH     LP1B     LPD     -0.230000        0.0000           -1   0.00000   0.00000
     30293 MEOH     1503     MEOH     C1       CD33B    2.314100       11.6110           0   -1.00000   1.30000
     30294 MEOH     1503     MEOH     DC1      DRUD    -2.454100        0.4000           0   0.00000   0.00000
     30295 MEOH     1503     MEOH     O1       OD31H    2.488300       15.5990           0   -1.02800   1.30000
     30296 MEOH     1503     MEOH     DO1      DRUD    -2.488300        0.4000           0   0.00000   0.00000
     30297 MEOH     1503     MEOH     HO1      HDP1A    0.360000        1.0080           0   0.00000   0.00000
     30298 MEOH     1503     MEOH     HO2      DUMH     0.000000        1.0080           0   0.00000   0.00000
     30299 MEOH     1503     MEOH     H1A      HDA3B    0.080000        1.0080           0   0.00000   0.00000
     30300 MEOH     1503     MEOH     H1B      HDA3B    0.080000        1.0080           0   0.00000   0.00000
     30301 MEOH     1503     MEOH     H1C      HDA3B    0.080000        1.0080           0   0.00000   0.00000
     30302 MEOH     1503     MEOH     LP1A     LPD     -0.230000        0.0000           -1   0.00000   0.00000
     30303 MEOH     1503     MEOH     LP1B     LPD     -0.230000        0.0000           -1   0.00000   0.00000
     30304 MEOH     1504     MEOH     C1       CD33B    2.314100       11.6110           0   -1.00000   1.30000
     30305 MEOH     1504     MEOH     DC1      DRUD    -2.454100        0.4000           0   0.00000   0.00000
     30306 MEOH     1504     MEOH     O1       OD31H    2.488300       15.5990           0   -1.02800   1.30000
     30307 MEOH     1504     MEOH     DO1      DRUD    -2.488300        0.4000           0   0.00000   0.00000
     30308 MEOH     1504     MEOH     HO1      HDP1A    0.360000        1.0080           0   0.00000   0.00000
     30309 MEOH     1504     MEOH     HO2      DUMH     0.000000        1.0080           0   0.00000   0.00000
     30310 MEOH     1504     MEOH     H1A      HDA3B    0.080000        1.0080           0   0.00000   0.00000
     30311 MEOH     1504     MEOH     H1B      HDA3B    0.080000        1.0080           0   0.00000   0.00000
     30312 MEOH     1504     MEOH     H1C      HDA3B    0.080000        1.0080           0   0.00000   0.00000
     30313 MEOH     1504     MEOH     LP1A     LPD     -0.230000        0.0000           -1   0.00000   0.00000
     30314 MEOH     1504     MEOH     LP1B     LPD     -0.230000        0.0000           -1   0.00000   0.00000
     30315 MEOH     1505     MEOH     C1       CD33B    2.314100       11.6110           0   -1.00000   1.30000
     30316 MEOH     1505     MEOH     DC1      DRUD    -2.454100        0.4000           0   0.00000   0.00000
     30317 MEOH     1505     MEOH     O1       OD31H    2.488300       15.5990           0   -1.02800   1.30000
     30318 MEOH     1505     MEOH     DO1      DRUD    -2.488300        0.4000           0   0.00000   0.00000
     30319 MEOH     1505     MEOH     HO1      HDP1A    0.360000        1.0080           0   0.00000   0.00000
     30320 MEOH     1505     MEOH     HO2      DUMH     0.000000        1.0080           0   0.00000   0.00000
     30321 MEOH     1505     MEOH     H1A      HDA3B    0.080000        1.0080           0   0.00000   0.00000
     30322 MEOH     1505     MEOH     H1B      HDA3B    0.080000        1.0080           0   0.00000   0.00000
     30323 MEOH     1505     MEOH     H1C      HDA3B    0.080000        1.0080           0   0.00000   0.00000
     30324 MEOH     1505     MEOH     LP1A     LPD     -0.230000        0.0000           -1   0.00000   0.00000
     30325 MEOH     1505     MEOH     LP1B     LPD     -0.230000        0.0000           -1   0.00000   0.00000
     30326 MEOH     1506     MEOH     C1       CD33B    2.314100       11.6110           0   -1.00000   1.30000
     30327 MEOH     1506     MEOH     DC1      DRUD    -2.454100        0.4000           0   0.00000   0.00000
     30328 MEOH     1506     MEOH     O1       OD31H    2.488300       15.5990           0   -1.02800   1.30000
     30329 MEOH     1506     MEOH     DO1      DRUD    -2.488300        0.4000           0   0.00000   0.00000
     30330 MEOH     1506     MEOH     HO1      HDP1A    0.360000        1.0080           0   0.00000   0.00000
     30331 MEOH     1506     MEOH     HO2      DUMH     0.000000        1.0080           0   0.00000   0.00000
     30332 MEOH     1506     MEOH     H1A      HDA3B    0.080000        1.0080           0   0.00000   0.00000
     30333 MEOH     1506     MEOH     H1B      HDA3B    0.080000        1.0080           0   0.00000   0.00000
     30334 MEOH     1506     MEOH     H1C      HDA3B    0.080000        1.0080           0   0.00000   0.00000
     30335 MEOH     1506     MEOH     LP1A     LPD     -0.230000        0.0000           -1   0.00000   0.00000
     30336 MEOH     1506     MEOH     LP1B     LPD     -0.230000        0.0000           -1   0.00000   0.00000
     30337 MEOH     1507     MEOH     C1       CD33B    2.314100       11.6110           0   -1.00000   1.30000
     30338 MEOH     1507     MEOH     DC1      DRUD    -2.454100        0.4000           0   0.00000   0.00000
     30339 MEOH     1507     MEOH     O1       OD31H    2.488300       15.5990           0   -1.02800   1.30000
     30340 MEOH     1507     MEOH     DO1      DRUD    -2.488300        0.4000           0   0.00000   0.00000
     30341 MEOH     1507     MEOH     HO1      HDP1A    0.360000        1.0080           0   0.00000   0.00000
     30342 MEOH     1507     MEOH     HO2      DUMH     0.000000        1.0080           0   0.00000   0.00000
     30343 MEOH     1507     MEOH     H1A      HDA3B    0.080000        1.0080           0   0.00000   0.00000
     30344 MEOH     1507     MEOH     H1B      HDA3B    0.080000        1.0080           0   0.00000   0.00000
     30345 MEOH     1507     MEOH     H1C      HDA3B    0.080000        1.0080           0   0.00000   0.00000
     30346 MEOH     1507     MEOH     LP1A     LPD     -0.230000        0.0000           -1   0.00000   0.00000
     30347 MEOH     1507     MEOH     LP1B     LPD     -0.230000        0.0000           -1   0.00000   0.00000
     30348 MEOH     1508     MEOH     C1       CD33B    2.314100       11.6110           0   -1.00000   1.30000
     30349 MEOH     1508     MEOH     DC1      DRUD    -2.454100        0.4000           0   0.00000   0.00000
     30350 MEOH     1508     MEOH     O1       OD31H    2.488300       15.5990           0   -1.02800   1.30000
     30351 MEOH     1508     MEOH     DO1      DRUD    -2.488300        0.4000           0   0.00000   0.00000
     30352 MEOH     1508     MEOH     HO1      HDP1A    0.360000        1.0080           0   0.00000   0.00000
     30353 MEOH     1508     MEOH     HO2      DUMH     0.000000        1.0080           0   0.00000   0.00000
     30354 MEOH     1508     MEOH     H1A      HDA3B    0.080000        1.0080           0   0.00000   0.00000
     30355 MEOH     1508     MEOH     H1B      HDA3B    0.080000        1.0080           0   0.00000   0.00000
     30356 MEOH     1508     MEOH     H1C      HDA3B    0.080000        1.0080           0   0.00000   0.00000
     30357 MEOH     1508     MEOH     LP1A     LPD     -0.230000        0.0000           -1   0.00000   0.00000
     30358 MEOH     1508     MEOH     LP1B     LPD     -0.230000        0.0000           -1   0.00000   0.00000
     30359 MEOH     1509     MEOH     C1       CD33B    2.314100       11.6110           0   -1.00000   1.30000
     30360 MEOH     1509     MEOH     DC1      DRUD    -2.454100        0.4000           0   0.00000   0.00000
     30361 MEOH     1509     MEOH     O1       OD31H    2.488300       15.5990           0   -1.02800   1.30000
     30362 MEOH     1509     MEOH     DO1      DRUD    -2.488300        0.4000           0   0.00000   0.00000
     30363 MEOH     1509     MEOH     HO1      HDP1A    0.360000        1.0080           0   0.00000   0.00000
     30364 MEOH     1509     MEOH     HO2      DUMH     0.000000        1.0080           0   0.00000   0.00000
     30365 MEOH     1509     MEOH     H1A      HDA3B    0.080000        1.0080           0   0.00000   0.00000
     30366 MEOH     1509     MEOH     H1B      HDA3B    0.080000        1.0080           0   0.00000   0.00000
     30367 MEOH     1509     MEOH     H1C      HDA3B    0.080000        1.0080           0   0.00000   0.00000
     30368 MEOH     1509     MEOH     LP1A     LPD     -0.230000        0.0000           -1   0.00000   0.00000
     30369 MEOH     1509     MEOH     LP1B     LPD     -0.230000        0.0000           -1   0.00000   0.00000
     30370 MEOH     1510     MEOH     C1       CD33B    2.314100       11.6110           0   -1.00000   1.30000
     30371 MEOH     1510     MEOH     DC1      DRUD    -2.454100        0.4000           0   0.00000   0.00000
     30372 MEOH     1510     MEOH     O1       OD31H    2.488300       15.5990           0   -1.02800   1.30000
     30373 MEOH     1510     MEOH     DO1      DRUD    -2.488300        0.4000           0   0.00000   0.00000
     30374 MEOH     1510     MEOH     HO1      HDP1A    0.360000        1.0080           0   0.00000   0.00000
     30375 MEOH     1510     MEOH     HO2      DUMH     0.000000        1.0080           0   0.00000   0.00000
     30376 MEOH     1510     MEOH     H1A      HDA3B    0.080000        1.0080           0   0.00000   0.00000
     30377 MEOH     1510     MEOH     H1B      HDA3B    0.080000        1.0080           0   0.00000   0.00000
     30378 MEOH     1510     MEOH     H1C      HDA3B    0.080000        1.0080           0   0.00000   0.00000
     30379 MEOH     1510     MEOH     LP1A     LPD     -0.230000        0.0000           -1   0.00000   0.00000
     30380 MEOH     1510     MEOH     LP1B     LPD     -0.230000        0.0000           -1   0.00000   0.00000
     30381 MEOH     1511     MEOH     C1       CD33B    2.314100       11.6110           0   -1.00000   1.30000
     30382 MEOH     1511     MEOH     DC1      DRUD    -2.454100        0.4000           0   0.00000   0.00000
     30383 MEOH     1511     MEOH     O1       OD31H    2.488300       15.5990           0   -1.02800   1.30000
     30384 MEOH     1511     MEOH     DO1      DRUD    -2.488300        0.4000           0   0.00000   0.00000
     30385 MEOH     1511     MEOH     HO1      HDP1A    0.360000        1.0080           0   0.00000   0.00000
     30386 MEOH     1511     MEOH     HO2      DUMH     0.000000        1.0080           0   0.00000   0.00000
     30387 MEOH     1511     MEOH     H1A      HDA3B    0.080000        1.0080           0   0.00000   0.00000
     30388 MEOH     1511     MEOH     H1B      HDA3B    0.080000        1.0080           0   0.00000   0.00000
     30389 MEOH     1511     MEOH     H1C      HDA3B    0.080000        1.0080           0   0.00000   0.00000
     30390 MEOH     1511     MEOH     LP1A     LPD     -0.230000        0.0000           -1   0.00000   0.00000
     30391 MEOH     1511     MEOH     LP1B     LPD     -0.230000        0.0000           -1   0.00000   0.00000
     30392 MEOH     1512     MEOH     C1       CD33B    2.314100       11.6110           0   -1.00000   1.30000
     30393 MEOH     1512     MEOH     DC1      DRUD    -2.454100        0.4000           0   0.00000   0.00000
     30394 MEOH     1512     MEOH     O1       OD31H    2.488300       15.5990           0   -1.02800   1.30000
     30395 MEOH     1512     MEOH     DO1      DRUD    -2.488300        0.4000           0   0.00000   0.00000
     30396 MEOH     1512     MEOH     HO1      HDP1A    0.360000        1.0080           0   0.00000   0.00000
     30397 MEOH     1512     MEOH     HO2      DUMH     0.000000        1.0080           0   0.00000   0.00000
     30398 MEOH     1512     MEOH     H1A      HDA3B    0.080000        1.0080           0   0.00000   0.00000
     30399 MEOH     1512     MEOH     H1B      HDA3B    0.080000        1.0080           0   0.00000   0.00000
     30400 MEOH     1512     MEOH     H1C      HDA3B    0.080000        1.0080           0   0.00000   0.00000
     30401 MEOH     1512     MEOH     LP1A     LPD     -0.230000        0.0000           -1   0.00000   0.00000
     30402 MEOH     1512     MEOH     LP1B     LPD     -0.230000        0.0000           -1   0.00000   0.00000
     30403 MEOH     1513     MEOH     C1       CD33B    2.314100       11.6110           0   -1.00000   1.30000
     30404 MEOH     1513     MEOH     DC1      DRUD    -2.454100        0.4000           0   0.00000   0.00000
     30405 MEOH     1513     MEOH     O1       OD31H    2.488300       15.5990           0   -1.02800   1.30000
     30406 MEOH     1513     MEOH     DO1      DRUD    -2.488300        0.4000           0   0.00000   0.00000
     30407 MEOH     1513     MEOH     HO1      HDP1A    0.360000        1.0080           0   0.00000   0.00000
     30408 MEOH     1513     MEOH     HO2      DUMH     0.000000        1.0080           0   0.00000   0.00000
     30409 MEOH     1513     MEOH     H1A      HDA3B    0.080000        1.0080           0   0.00000   0.00000
     30410 MEOH     1513     MEOH     H1B      HDA3B    0.080000        1.0080           0   0.00000   0.00000
     30411 MEOH     1513     MEOH     H1C      HDA3B    0.080000        1.0080           0   0.00000   0.00000
     30412 MEOH     1513     MEOH     LP1A     LPD     -0.230000        0.0000           -1   0.00000   0.00000
     30413 MEOH     1513     MEOH     LP1B     LPD     -0.230000        0.0000           -1   0.00000   0.00000
     30414 MEOH     1514     MEOH     C1       CD33B    2.314100       11.6110           0   -1.00000   1.30000
     30415 MEOH     1514     MEOH     DC1      DRUD    -2.454100        0.4000           0   0.00000   0.00000
     30416 MEOH     1514     MEOH     O1       OD31H    2.488300       15.5990           0   -1.02800   1.30000
     30417 MEOH     1514     MEOH     DO1      DRUD    -2.488300        0.4000           0   0.00000   0.00000
     30418 MEOH     1514     MEOH     HO1      HDP1A    0.360000        1.0080           0   0.00000   0.00000
     30419 MEOH     1514     MEOH     HO2      DUMH     0.000000        1.0080           0   0.00000   0.00000
     30420 MEOH     1514     MEOH     H1A      HDA3B    0.080000        1.0080           0   0.00000   0.00000
     30421 MEOH     1514     MEOH     H1B      HDA3B    0.080000        1.0080           0   0.00000   0.00000
     30422 MEOH     1514     MEOH     H1C      HDA3B    0.080000        1.0080           0   0.00000   0.00000
     30423 MEOH     1514     MEOH     LP1A     LPD     -0.230000        0.0000           -1   0.00000   0.00000
     30424 MEOH     1514     MEOH     LP1B     LPD     -0.230000        0.0000           -1   0.00000   0.00000
     30425 MEOH     1515     MEOH     C1       CD33B    2.314100       11.6110           0   -1.00000   1.30000
     30426 MEOH     1515     MEOH     DC1      DRUD    -2.454100        0.4000           0   0.00000   0.00000
     30427 MEOH     1515     MEOH     O1       OD31H    2.488300       15.5990           0   -1.02800   1.30000
     30428 MEOH     1515     MEOH     DO1      DRUD    -2.488300        0.4000           0   0.00000   0.00000
     30429 MEOH     1515     MEOH     HO1      HDP1A    0.360000        1.0080           0   0.00000   0.00000
     30430 MEOH     1515     MEOH     HO2      DUMH     0.000000        1.0080           0   0.00000   0.00000
     30431 MEOH     1515     MEOH     H1A      HDA3B    0.080000        1.0080           0   0.00000   0.00000
     30432 MEOH     1515     MEOH     H1B      HDA3B    0.080000        1.0080           0   0.00000   0.00000
     30433 MEOH     1515     MEOH     H1C      HDA3B    0.080000        1.0080           0   0.00000   0.00000
     30434 MEOH     1515     MEOH     LP1A     LPD     -0.230000        0.0000           -1   0.00000   0.00000
     30435 MEOH     1515     MEOH     LP1B     LPD     -0.230000        0.0000           -1   0.00000   0.00000
     30436 MEOH     1516     MEOH     C1       CD33B    2.314100       11.6110           0   -1.00000   1.30000
     30437 MEOH     1516     MEOH     DC1      DRUD    -2.454100        0.4000           0   0.00000   0.00000
     30438 MEOH     1516     MEOH     O1       OD31H    2.488300       15.5990           0   -1.02800   1.30000
     30439 MEOH     1516     MEOH     DO1      DRUD    -2.488300        0.4000           0   0.00000   0.00000
     30440 MEOH     1516     MEOH     HO1      HDP1A    0.360000        1.0080           0   0.00000   0.00000
     30441 MEOH     1516     MEOH     HO2      DUMH     0.000000        1.0080           0   0.00000   0.00000
     30442 MEOH     1516     MEOH     H1A      HDA3B    0.080000        1.0080           0   0.00000   0.00000
     30443 MEOH     1516     MEOH     H1B      HDA3B    0.080000        1.0080           0   0.00000   0.00000
     30444 MEOH     1516     MEOH     H1C      HDA3B    0.080000        1.0080           0   0.00000   0.00000
     30445 MEOH     1516     MEOH     LP1A     LPD     -0.230000        0.0000           -1   0.00000   0.00000
     30446 MEOH     1516     MEOH     LP1B     LPD     -0.230000        0.0000           -1   0.00000   0.00000
     30447 MEOH     1517     MEOH     C1       CD33B    2.314100       11.6110           0   -1.00000   1.30000
     30448 MEOH     1517     MEOH     DC1      DRUD    -2.454100        0.4000           0   0.00000   0.00000
     30449 MEOH     1517     MEOH     O1       OD31H    2.488300       15.5990           0   -1.02800   1.30000
     30450 MEOH     1517     MEOH     DO1      DRUD    -2.488300        0.4000           0   0.00000   0.00000
     30451 MEOH     1517     MEOH     HO1      HDP1A    0.360000        1.0080           0   0.00000   0.00000
     30452 MEOH     1517     MEOH     HO2      DUMH     0.000000        1.0080           0   0.00000   0.00000
     30453 MEOH     1517     MEOH     H1A      HDA3B    0.080000        1.0080           0   0.00000   0.00000
     30454 MEOH     1517     MEOH     H1B      HDA3B    0.080000        1.0080           0   0.00000   0.00000
     30455 MEOH     1517     MEOH     H1C      HDA3B    0.080000        1.0080           0   0.00000   0.00000
     30456 MEOH     1517     MEOH     LP1A     LPD     -0.230000        0.0000           -1   0.00000   0.00000
     30457 MEOH     1517     MEOH     LP1B     LPD     -0.230000        0.0000           -1   0.00000   0.00000
     30458 MEOH     1518     MEOH     C1       CD33B    2.314100       11.6110           0   -1.00000   1.30000
     30459 MEOH     1518     MEOH     DC1      DRUD    -2.454100        0.4000           0   0.00000   0.00000
     30460 MEOH     1518     MEOH     O1       OD31H    2.488300       15.5990           0   -1.02800   1.30000
     30461 MEOH     1518     MEOH     DO1      DRUD    -2.488300        0.4000           0   0.00000   0.00000
     30462 MEOH     1518     MEOH     HO1      HDP1A    0.360000        1.0080           0   0.00000   0.00000
     30463 MEOH     1518     MEOH     HO2      DUMH     0.000000        1.0080           0   0.00000   0.00000
     30464 MEOH     1518     MEOH     H1A      HDA3B    0.080000        1.0080           0   0.00000   0.00000
     30465 MEOH     1518     MEOH     H1B      HDA3B    0.080000        1.0080           0   0.00000   0.00000
     30466 MEOH     1518     MEOH     H1C      HDA3B    0.080000        1.0080           0   0.00000   0.00000
     30467 MEOH     1518     MEOH     LP1A     LPD     -0.230000        0.0000           -1   0.00000   0.00000
     30468 MEOH     1518     MEOH     LP1B     LPD     -0.230000        0.0000           -1   0.00000   0.00000
     30469 MEOH     1519     MEOH     C1       CD33B    2.314100       11.6110           0   -1.00000   1.30000
     30470 MEOH     1519     MEOH     DC1      DRUD    -2.454100        0.4000           0   0.00000   0.00000
     30471 MEOH     1519     MEOH     O1       OD31H    2.488300       15.5990           0   -1.02800   1.30000
     30472 MEOH     1519     MEOH     DO1      DRUD    -2.488300        0.4000           0   0.00000   0.00000
     30473 MEOH     1519     MEOH     HO1      HDP1A    0.360000        1.0080           0   0.00000   0.00000
     30474 MEOH     1519     MEOH     HO2      DUMH     0.000000        1.0080           0   0.00000   0.00000
     30475 MEOH     1519     MEOH     H1A      HDA3B    0.080000        1.0080           0   0.00000   0.00000
     30476 MEOH     1519     MEOH     H1B      HDA3B    0.080000        1.0080           0   0.00000   0.00000
     30477 MEOH     1519     MEOH     H1C      HDA3B    0.080000        1.0080           0   0.00000   0.00000
     30478 MEOH     1519     MEOH     LP1A     LPD     -0.230000        0.0000           -1   0.00000   0.00000
     30479 MEOH     1519     MEOH     LP1B     LPD     -0.230000        0.0000           -1   0.00000   0.00000
     30480 MEOH     1520     MEOH     C1       CD33B    2.314100       11.6110           0   -1.00000   1.30000
     30481 MEOH     1520     MEOH     DC1      DRUD    -2.454100        0.4000           0   0.00000   0.00000
     30482 MEOH     1520     MEOH     O1       OD31H    2.488300       15.5990           0   -1.02800   1.30000
     30483 MEOH     1520     MEOH     DO1      DRUD    -2.488300        0.4000           0   0.00000   0.00000
     30484 MEOH     1520     MEOH     HO1      HDP1A    0.360000        1.0080           0   0.00000   0.00000
     30485 MEOH     1520     MEOH     HO2      DUMH     0.000000        1.0080           0   0.00000   0.00000
     30486 MEOH     1520     MEOH     H1A      HDA3B    0.080000        1.0080           0   0.00000   0.00000
     30487 MEOH     1520     MEOH     H1B      HDA3B    0.080000        1.0080           0   0.00000   0.00000
     30488 MEOH     1520     MEOH     H1C      HDA3B    0.080000        1.0080           0   0.00000   0.00000
     30489 MEOH     1520     MEOH     LP1A     LPD     -0.230000        0.0000           -1   0.00000   0.00000
     30490 MEOH     1520     MEOH     LP1B     LPD     -0.230000        0.0000           -1   0.00000   0.00000
     30491 MEOH     1521     MEOH     C1       CD33B    2.314100       11.6110           0   -1.00000   1.30000
     30492 MEOH     1521     MEOH     DC1      DRUD    -2.454100        0.4000           0   0.00000   0.00000
     30493 MEOH     1521     MEOH     O1       OD31H    2.488300       15.5990           0   -1.02800   1.30000
     30494 MEOH     1521     MEOH     DO1      DRUD    -2.488300        0.4000           0   0.00000   0.00000
     30495 MEOH     1521     MEOH     HO1      HDP1A    0.360000        1.0080           0   0.00000   0.00000
     30496 MEOH     1521     MEOH     HO2      DUMH     0.000000        1.0080           0   0.00000   0.00000
     30497 MEOH     1521     MEOH     H1A      HDA3B    0.080000        1.0080           0   0.00000   0.00000
     30498 MEOH     1521     MEOH     H1B      HDA3B    0.080000        1.0080           0   0.00000   0.00000
     30499 MEOH     1521     MEOH     H1C      HDA3B    0.080000        1.0080           0   0.00000   0.00000
     30500 MEOH     1521     MEOH     LP1A     LPD     -0.230000        0.0000           -1   0.00000   0.00000
     30501 MEOH     1521     MEOH     LP1B     LPD     -0.230000        0.0000           -1   0.00000   0.00000
     30502 MEOH     1522     MEOH     C1       CD33B    2.314100       11.6110           0   -1.00000   1.30000
     30503 MEOH     1522     MEOH     DC1      DRUD    -2.454100        0.4000           0   0.00000   0.00000
     30504 MEOH     1522     MEOH     O1       OD31H    2.488300       15.5990           0   -1.02800   1.30000
     30505 MEOH     1522     MEOH     DO1      DRUD    -2.488300        0.4000           0   0.00000   0.00000
     30506 MEOH     1522     MEOH     HO1      HDP1A    0.360000        1.0080           0   0.00000   0.00000
     30507 MEOH     1522     MEOH     HO2      DUMH     0.000000        1.0080           0   0.00000   0.00000
     30508 MEOH     1522     MEOH     H1A      HDA3B    0.080000        1.0080           0   0.00000   0.00000
     30509 MEOH     1522     MEOH     H1B      HDA3B    0.080000        1.0080           0   0.00000   0.00000
     30510 MEOH     1522     MEOH     H1C      HDA3B    0.080000        1.0080           0   0.00000   0.00000
     30511 MEOH     1522     MEOH     LP1A     LPD     -0.230000        0.0000           -1   0.00000   0.00000
     30512 MEOH     1522     MEOH     LP1B     LPD     -0.230000        0.0000           -1   0.00000   0.00000
     30513 MEOH     1523     MEOH     C1       CD33B    2.314100       11.6110           0   -1.00000   1.30000
     30514 MEOH     1523     MEOH     DC1      DRUD    -2.454100        0.4000           0   0.00000   0.00000
     30515 MEOH     1523     MEOH     O1       OD31H    2.488300       15.5990           0   -1.02800   1.30000
     30516 MEOH     1523     MEOH     DO1      DRUD    -2.488300        0.4000           0   0.00000   0.00000
     30517 MEOH     1523     MEOH     HO1      HDP1A    0.360000        1.0080           0   0.00000   0.00000
     30518 MEOH     1523     MEOH     HO2      DUMH     0.000000        1.0080           0   0.00000   0.00000
     30519 MEOH     1523     MEOH     H1A      HDA3B    0.080000        1.0080           0   0.00000   0.00000
     30520 MEOH     1523     MEOH     H1B      HDA3B    0.080000        1.0080           0   0.00000   0.00000
     30521 MEOH     1523     MEOH     H1C      HDA3B    0.080000        1.0080           0   0.00000   0.00000
     30522 MEOH     1523     MEOH     LP1A     LPD     -0.230000        0.0000           -1   0.00000   0.00000
     30523 MEOH     1523     MEOH     LP1B     LPD     -0.230000        0.0000           -1   0.00000   0.00000
     30524 MEOH     1524     MEOH     C1       CD33B    2.314100       11.6110           0   -1.00000   1.30000
     30525 MEOH     1524     MEOH     DC1      DRUD    -2.454100        0.4000           0   0.00000   0.00000
     30526 MEOH     1524     MEOH     O1       OD31H    2.488300       15.5990           0   -1.02800   1.30000
     30527 MEOH     1524     MEOH     DO1      DRUD    -2.488300        0.4000           0   0.00000   0.00000
     30528 MEOH     1524     MEOH     HO1      HDP1A    0.360000        1.0080           0   0.00000   0.00000
     30529 MEOH     1524     MEOH     HO2      DUMH     0.000000        1.0080           0   0.00000   0.00000
     30530 MEOH     1524     MEOH     H1A      HDA3B    0.080000        1.0080           0   0.00000   0.00000
     30531 MEOH     1524     MEOH     H1B      HDA3B    0.080000        1.0080           0   0.00000   0.00000
     30532 MEOH     1524     MEOH     H1C      HDA3B    0.080000        1.0080           0   0.00000   0.00000
     30533 MEOH     1524     MEOH     LP1A     LPD     -0.230000        0.0000           -1   0.00000   0.00000
     30534 MEOH     1524     MEOH     LP1B     LPD     -0.230000        0.0000           -1   0.00000   0.00000
     30535 MEOH     1525     MEOH     C1       CD33B    2.314100       11.6110           0   -1.00000   1.30000
     30536 MEOH     1525     MEOH     DC1      DRUD    -2.454100        0.4000           0   0.00000   0.00000
     30537 MEOH     1525     MEOH     O1       OD31H    2.488300       15.5990           0   -1.02800   1.30000
     30538 MEOH     1525     MEOH     DO1      DRUD    -2.488300        0.4000           0   0.00000   0.00000
     30539 MEOH     1525     MEOH     HO1      HDP1A    0.360000        1.0080           0   0.00000   0.00000
     30540 MEOH     1525     MEOH     HO2      DUMH     0.000000        1.0080           0   0.00000   0.00000
     30541 MEOH     1525     MEOH     H1A      HDA3B    0.080000        1.0080           0   0.00000   0.00000
     30542 MEOH     1525     MEOH     H1B      HDA3B    0.080000        1.0080           0   0.00000   0.00000
     30543 MEOH     1525     MEOH     H1C      HDA3B    0.080000        1.0080           0   0.00000   0.00000
     30544 MEOH     1525     MEOH     LP1A     LPD     -0.230000        0.0000           -1   0.00000   0.00000
     30545 MEOH     1525     MEOH     LP1B     LPD     -0.230000        0.0000           -1   0.00000   0.00000
     30546 MEOH     1526     MEOH     C1       CD33B    2.314100       11.6110           0   -1.00000   1.30000
     30547 MEOH     1526     MEOH     DC1      DRUD    -2.454100        0.4000           0   0.00000   0.00000
     30548 MEOH     1526     MEOH     O1       OD31H    2.488300       15.5990           0   -1.02800   1.30000
     30549 MEOH     1526     MEOH     DO1      DRUD    -2.488300        0.4000           0   0.00000   0.00000
     30550 MEOH     1526     MEOH     HO1      HDP1A    0.360000        1.0080           0   0.00000   0.00000
     30551 MEOH     1526     MEOH     HO2      DUMH     0.000000        1.0080           0   0.00000   0.00000
     30552 MEOH     1526     MEOH     H1A      HDA3B    0.080000        1.0080           0   0.00000   0.00000
     30553 MEOH     1526     MEOH     H1B      HDA3B    0.080000        1.0080           0   0.00000   0.00000
     30554 MEOH     1526     MEOH     H1C      HDA3B    0.080000        1.0080           0   0.00000   0.00000
     30555 MEOH     1526     MEOH     LP1A     LPD     -0.230000        0.0000           -1   0.00000   0.00000
     30556 MEOH     1526     MEOH     LP1B     LPD     -0.230000        0.0000           -1   0.00000   0.00000
     30557 MEOH     1527     MEOH     C1       CD33B    2.314100       11.6110           0   -1.00000   1.30000
     30558 MEOH     1527     MEOH     DC1      DRUD    -2.454100        0.4000           0   0.00000   0.00000
     30559 MEOH     1527     MEOH     O1       OD31H    2.488300       15.5990           0   -1.02800   1.30000
     30560 MEOH     1527     MEOH     DO1      DRUD    -2.488300        0.4000           0   0.00000   0.00000
     30561 MEOH     1527     MEOH     HO1      HDP1A    0.360000        1.0080           0   0.00000   0.00000
     30562 MEOH     1527     MEOH     HO2      DUMH     0.000000        1.0080           0   0.00000   0.00000
     30563 MEOH     1527     MEOH     H1A      HDA3B    0.080000        1.0080           0   0.00000   0.00000
     30564 MEOH     1527     MEOH     H1B      HDA3B    0.080000        1.0080           0   0.00000   0.00000
     30565 MEOH     1527     MEOH     H1C      HDA3B    0.080000        1.0080           0   0.00000   0.00000
     30566 MEOH     1527     MEOH     LP1A     LPD     -0.230000        0.0000           -1   0.00000   0.00000
     30567 MEOH     1527     MEOH     LP1B     LPD     -0.230000        0.0000           -1   0.00000   0.00000
     30568 MEOH     1528     MEOH     C1       CD33B    2.314100       11.6110           0   -1.00000   1.30000
     30569 MEOH     1528     MEOH     DC1      DRUD    -2.454100        0.4000           0   0.00000   0.00000
     30570 MEOH     1528     MEOH     O1       OD31H    2.488300       15.5990           0   -1.02800   1.30000
     30571 MEOH     1528     MEOH     DO1      DRUD    -2.488300        0.4000           0   0.00000   0.00000
     30572 MEOH     1528     MEOH     HO1      HDP1A    0.360000        1.0080           0   0.00000   0.00000
     30573 MEOH     1528     MEOH     HO2      DUMH     0.000000        1.0080           0   0.00000   0.00000
     30574 MEOH     1528     MEOH     H1A      HDA3B    0.080000        1.0080           0   0.00000   0.00000
     30575 MEOH     1528     MEOH     H1B      HDA3B    0.080000        1.0080           0   0.00000   0.00000
     30576 MEOH     1528     MEOH     H1C      HDA3B    0.080000        1.0080           0   0.00000   0.00000
     30577 MEOH     1528     MEOH     LP1A     LPD     -0.230000        0.0000           -1   0.00000   0.00000
     30578 MEOH     1528     MEOH     LP1B     LPD     -0.230000        0.0000           -1   0.00000   0.00000
     30579 MEOH     1529     MEOH     C1       CD33B    2.314100       11.6110           0   -1.00000   1.30000
     30580 MEOH     1529     MEOH     DC1      DRUD    -2.454100        0.4000           0   0.00000   0.00000
     30581 MEOH     1529     MEOH     O1       OD31H    2.488300       15.5990           0   -1.02800   1.30000
     30582 MEOH     1529     MEOH     DO1      DRUD    -2.488300        0.4000           0   0.00000   0.00000
     30583 MEOH     1529     MEOH     HO1      HDP1A    0.360000        1.0080           0   0.00000   0.00000
     30584 MEOH     1529     MEOH     HO2      DUMH     0.000000        1.0080           0   0.00000   0.00000
     30585 MEOH     1529     MEOH     H1A      HDA3B    0.080000        1.0080           0   0.00000   0.00000
     30586 MEOH     1529     MEOH     H1B      HDA3B    0.080000        1.0080           0   0.00000   0.00000
     30587 MEOH     1529     MEOH     H1C      HDA3B    0.080000        1.0080           0   0.00000   0.00000
     30588 MEOH     1529     MEOH     LP1A     LPD     -0.230000        0.0000           -1   0.00000   0.00000
     30589 MEOH     1529     MEOH     LP1B     LPD     -0.230000        0.0000           -1   0.00000   0.00000
     30590 MEOH     1530     MEOH     C1       CD33B    2.314100       11.6110           0   -1.00000   1.30000
     30591 MEOH     1530     MEOH     DC1      DRUD    -2.454100        0.4000           0   0.00000   0.00000
     30592 MEOH     1530     MEOH     O1       OD31H    2.488300       15.5990           0   -1.02800   1.30000
     30593 MEOH     1530     MEOH     DO1      DRUD    -2.488300        0.4000           0   0.00000   0.00000
     30594 MEOH     1530     MEOH     HO1      HDP1A    0.360000        1.0080           0   0.00000   0.00000
     30595 MEOH     1530     MEOH     HO2      DUMH     0.000000        1.0080           0   0.00000   0.00000
     30596 MEOH     1530     MEOH     H1A      HDA3B    0.080000        1.0080           0   0.00000   0.00000
     30597 MEOH     1530     MEOH     H1B      HDA3B    0.080000        1.0080           0   0.00000   0.00000
     30598 MEOH     1530     MEOH     H1C      HDA3B    0.080000        1.0080           0   0.00000   0.00000
     30599 MEOH     1530     MEOH     LP1A     LPD     -0.230000        0.0000           -1   0.00000   0.00000
     30600 MEOH     1530     MEOH     LP1B     LPD     -0.230000        0.0000           -1   0.00000   0.00000
     30601 MEOH     1531     MEOH     C1       CD33B    2.314100       11.6110           0   -1.00000   1.30000
     30602 MEOH     1531     MEOH     DC1      DRUD    -2.454100        0.4000           0   0.00000   0.00000
     30603 MEOH     1531     MEOH     O1       OD31H    2.488300       15.5990           0   -1.02800   1.30000
     30604 MEOH     1531     MEOH     DO1      DRUD    -2.488300        0.4000           0   0.00000   0.00000
     30605 MEOH     1531     MEOH     HO1      HDP1A    0.360000        1.0080           0   0.00000   0.00000
     30606 MEOH     1531     MEOH     HO2      DUMH     0.000000        1.0080           0   0.00000   0.00000
     30607 MEOH     1531     MEOH     H1A      HDA3B    0.080000        1.0080           0   0.00000   0.00000
     30608 MEOH     1531     MEOH     H1B      HDA3B    0.080000        1.0080           0   0.00000   0.00000
     30609 MEOH     1531     MEOH     H1C      HDA3B    0.080000        1.0080           0   0.00000   0.00000
     30610 MEOH     1531     MEOH     LP1A     LPD     -0.230000        0.0000           -1   0.00000   0.00000
     30611 MEOH     1531     MEOH     LP1B     LPD     -0.230000        0.0000           -1   0.00000   0.00000
     30612 MEOH     1532     MEOH     C1       CD33B    2.314100       11.6110           0   -1.00000   1.30000
     30613 MEOH     1532     MEOH     DC1      DRUD    -2.454100        0.4000           0   0.00000   0.00000
     30614 MEOH     1532     MEOH     O1       OD31H    2.488300       15.5990           0   -1.02800   1.30000
     30615 MEOH     1532     MEOH     DO1      DRUD    -2.488300        0.4000           0   0.00000   0.00000
     30616 MEOH     1532     MEOH     HO1      HDP1A    0.360000        1.0080           0   0.00000   0.00000
     30617 MEOH     1532     MEOH     HO2      DUMH     0.000000        1.0080           0   0.00000   0.00000
     30618 MEOH     1532     MEOH     H1A      HDA3B    0.080000        1.0080           0   0.00000   0.00000
     30619 MEOH     1532     MEOH     H1B      HDA3B    0.080000        1.0080           0   0.00000   0.00000
     30620 MEOH     1532     MEOH     H1C      HDA3B    0.080000        1.0080           0   0.00000   0.00000
     30621 MEOH     1532     MEOH     LP1A     LPD     -0.230000        0.0000           -1   0.00000   0.00000
     30622 MEOH     1532     MEOH     LP1B     LPD     -0.230000        0.0000           -1   0.00000   0.00000
     30623 MEOH     1533     MEOH     C1       CD33B    2.314100       11.6110           0   -1.00000   1.30000
     30624 MEOH     1533     MEOH     DC1      DRUD    -2.454100        0.4000           0   0.00000   0.00000
     30625 MEOH     1533     MEOH     O1       OD31H    2.488300       15.5990           0   -1.02800   1.30000
     30626 MEOH     1533     MEOH     DO1      DRUD    -2.488300        0.4000           0   0.00000   0.00000
     30627 MEOH     1533     MEOH     HO1      HDP1A    0.360000        1.0080           0   0.00000   0.00000
     30628 MEOH     1533     MEOH     HO2      DUMH     0.000000        1.0080           0   0.00000   0.00000
     30629 MEOH     1533     MEOH     H1A      HDA3B    0.080000        1.0080           0   0.00000   0.00000
     30630 MEOH     1533     MEOH     H1B      HDA3B    0.080000        1.0080           0   0.00000   0.00000
     30631 MEOH     1533     MEOH     H1C      HDA3B    0.080000        1.0080           0   0.00000   0.00000
     30632 MEOH     1533     MEOH     LP1A     LPD     -0.230000        0.0000           -1   0.00000   0.00000
     30633 MEOH     1533     MEOH     LP1B     LPD     -0.230000        0.0000           -1   0.00000   0.00000
     30634 MEOH     1534     MEOH     C1       CD33B    2.314100       11.6110           0   -1.00000   1.30000
     30635 MEOH     1534     MEOH     DC1      DRUD    -2.454100        0.4000           0   0.00000   0.00000
     30636 MEOH     1534     MEOH     O1       OD31H    2.488300       15.5990           0   -1.02800   1.30000
     30637 MEOH     1534     MEOH     DO1      DRUD    -2.488300        0.4000           0   0.00000   0.00000
     30638 MEOH     1534     MEOH     HO1      HDP1A    0.360000        1.0080           0   0.00000   0.00000
     30639 MEOH     1534     MEOH     HO2      DUMH     0.000000        1.0080           0   0.00000   0.00000
     30640 MEOH     1534     MEOH     H1A      HDA3B    0.080000        1.0080           0   0.00000   0.00000
     30641 MEOH     1534     MEOH     H1B      HDA3B    0.080000        1.0080           0   0.00000   0.00000
     30642 MEOH     1534     MEOH     H1C      HDA3B    0.080000        1.0080           0   0.00000   0.00000
     30643 MEOH     1534     MEOH     LP1A     LPD     -0.230000        0.0000           -1   0.00000   0.00000
     30644 MEOH     1534     MEOH     LP1B     LPD     -0.230000        0.0000           -1   0.00000   0.00000
     30645 MEOH     1535     MEOH     C1       CD33B    2.314100       11.6110           0   -1.00000   1.30000
     30646 MEOH     1535     MEOH     DC1      DRUD    -2.454100        0.4000           0   0.00000   0.00000
     30647 MEOH     1535     MEOH     O1       OD31H    2.488300       15.5990           0   -1.02800   1.30000
     30648 MEOH     1535     MEOH     DO1      DRUD    -2.488300        0.4000           0   0.00000   0.00000
     30649 MEOH     1535     MEOH     HO1      HDP1A    0.360000        1.0080           0   0.00000   0.00000
     30650 MEOH     1535     MEOH     HO2      DUMH     0.000000        1.0080           0   0.00000   0.00000
     30651 MEOH     1535     MEOH     H1A      HDA3B    0.080000        1.0080           0   0.00000   0.00000
     30652 MEOH     1535     MEOH     H1B      HDA3B    0.080000        1.0080           0   0.00000   0.00000
     30653 MEOH     1535     MEOH     H1C      HDA3B    0.080000        1.0080           0   0.00000   0.00000
     30654 MEOH     1535     MEOH     LP1A     LPD     -0.230000        0.0000           -1   0.00000   0.00000
     30655 MEOH     1535     MEOH     LP1B     LPD     -0.230000        0.0000           -1   0.00000   0.00000
     30656 MEOH     1536     MEOH     C1       CD33B    2.314100       11.6110           0   -1.00000   1.30000
     30657 MEOH     1536     MEOH     DC1      DRUD    -2.454100        0.4000           0   0.00000   0.00000
     30658 MEOH     1536     MEOH     O1       OD31H    2.488300       15.5990           0   -1.02800   1.30000
     30659 MEOH     1536     MEOH     DO1      DRUD    -2.488300        0.4000           0   0.00000   0.00000
     30660 MEOH     1536     MEOH     HO1      HDP1A    0.360000        1.0080           0   0.00000   0.00000
     30661 MEOH     1536     MEOH     HO2      DUMH     0.000000        1.0080           0   0.00000   0.00000
     30662 MEOH     1536     MEOH     H1A      HDA3B    0.080000        1.0080           0   0.00000   0.00000
     30663 MEOH     1536     MEOH     H1B      HDA3B    0.080000        1.0080           0   0.00000   0.00000
     30664 MEOH     1536     MEOH     H1C      HDA3B    0.080000        1.0080           0   0.00000   0.00000
     30665 MEOH     1536     MEOH     LP1A     LPD     -0.230000        0.0000           -1   0.00000   0.00000
     30666 MEOH     1536     MEOH     LP1B     LPD     -0.230000        0.0000           -1   0.00000   0.00000
     30667 MEOH     1537     MEOH     C1       CD33B    2.314100       11.6110           0   -1.00000   1.30000
     30668 MEOH     1537     MEOH     DC1      DRUD    -2.454100        0.4000           0   0.00000   0.00000
     30669 MEOH     1537     MEOH     O1       OD31H    2.488300       15.5990           0   -1.02800   1.30000
     30670 MEOH     1537     MEOH     DO1      DRUD    -2.488300        0.4000           0   0.00000   0.00000
     30671 MEOH     1537     MEOH     HO1      HDP1A    0.360000        1.0080           0   0.00000   0.00000
     30672 MEOH     1537     MEOH     HO2      DUMH     0.000000        1.0080           0   0.00000   0.00000
     30673 MEOH     1537     MEOH     H1A      HDA3B    0.080000        1.0080           0   0.00000   0.00000
     30674 MEOH     1537     MEOH     H1B      HDA3B    0.080000        1.0080           0   0.00000   0.00000
     30675 MEOH     1537     MEOH     H1C      HDA3B    0.080000        1.0080           0   0.00000   0.00000
     30676 MEOH     1537     MEOH     LP1A     LPD     -0.230000        0.0000           -1   0.00000   0.00000
     30677 MEOH     1537     MEOH     LP1B     LPD     -0.230000        0.0000           -1   0.00000   0.00000
     30678 MEOH     1538     MEOH     C1       CD33B    2.314100       11.6110           0   -1.00000   1.30000
     30679 MEOH     1538     MEOH     DC1      DRUD    -2.454100        0.4000           0   0.00000   0.00000
     30680 MEOH     1538     MEOH     O1       OD31H    2.488300       15.5990           0   -1.02800   1.30000
     30681 MEOH     1538     MEOH     DO1      DRUD    -2.488300        0.4000           0   0.00000   0.00000
     30682 MEOH     1538     MEOH     HO1      HDP1A    0.360000        1.0080           0   0.00000   0.00000
     30683 MEOH     1538     MEOH     HO2      DUMH     0.000000        1.0080           0   0.00000   0.00000
     30684 MEOH     1538     MEOH     H1A      HDA3B    0.080000        1.0080           0   0.00000   0.00000
     30685 MEOH     1538     MEOH     H1B      HDA3B    0.080000        1.0080           0   0.00000   0.00000
     30686 MEOH     1538     MEOH     H1C      HDA3B    0.080000        1.0080           0   0.00000   0.00000
     30687 MEOH     1538     MEOH     LP1A     LPD     -0.230000        0.0000           -1   0.00000   0.00000
     30688 MEOH     1538     MEOH     LP1B     LPD     -0.230000        0.0000           -1   0.00000   0.00000
     30689 MEOH     1539     MEOH     C1       CD33B    2.314100       11.6110           0   -1.00000   1.30000
     30690 MEOH     1539     MEOH     DC1      DRUD    -2.454100        0.4000           0   0.00000   0.00000
     30691 MEOH     1539     MEOH     O1       OD31H    2.488300       15.5990           0   -1.02800   1.30000
     30692 MEOH     1539     MEOH     DO1      DRUD    -2.488300        0.4000           0   0.00000   0.00000
     30693 MEOH     1539     MEOH     HO1      HDP1A    0.360000        1.0080           0   0.00000   0.00000
     30694 MEOH     1539     MEOH     HO2      DUMH     0.000000        1.0080           0   0.00000   0.00000
     30695 MEOH     1539     MEOH     H1A      HDA3B    0.080000        1.0080           0   0.00000   0.00000
     30696 MEOH     1539     MEOH     H1B      HDA3B    0.080000        1.0080           0   0.00000   0.00000
     30697 MEOH     1539     MEOH     H1C      HDA3B    0.080000        1.0080           0   0.00000   0.00000
     30698 MEOH     1539     MEOH     LP1A     LPD     -0.230000        0.0000           -1   0.00000   0.00000
     30699 MEOH     1539     MEOH     LP1B     LPD     -0.230000        0.0000           -1   0.00000   0.00000
     30700 MEOH     1540     MEOH     C1       CD33B    2.314100       11.6110           0   -1.00000   1.30000
     30701 MEOH     1540     MEOH     DC1      DRUD    -2.454100        0.4000           0   0.00000   0.00000
     30702 MEOH     1540     MEOH     O1       OD31H    2.488300       15.5990           0   -1.02800   1.30000
     30703 MEOH     1540     MEOH     DO1      DRUD    -2.488300        0.4000           0   0.00000   0.00000
     30704 MEOH     1540     MEOH     HO1      HDP1A    0.360000        1.0080           0   0.00000   0.00000
     30705 MEOH     1540     MEOH     HO2      DUMH     0.000000        1.0080           0   0.00000   0.00000
     30706 MEOH     1540     MEOH     H1A      HDA3B    0.080000        1.0080           0   0.00000   0.00000
     30707 MEOH     1540     MEOH     H1B      HDA3B    0.080000        1.0080           0   0.00000   0.00000
     30708 MEOH     1540     MEOH     H1C      HDA3B    0.080000        1.0080           0   0.00000   0.00000
     30709 MEOH     1540     MEOH     LP1A     LPD     -0.230000        0.0000           -1   0.00000   0.00000
     30710 MEOH     1540     MEOH     LP1B     LPD     -0.230000        0.0000           -1   0.00000   0.00000
     30711 MEOH     1541     MEOH     C1       CD33B    2.314100       11.6110           0   -1.00000   1.30000
     30712 MEOH     1541     MEOH     DC1      DRUD    -2.454100        0.4000           0   0.00000   0.00000
     30713 MEOH     1541     MEOH     O1       OD31H    2.488300       15.5990           0   -1.02800   1.30000
     30714 MEOH     1541     MEOH     DO1      DRUD    -2.488300        0.4000           0   0.00000   0.00000
     30715 MEOH     1541     MEOH     HO1      HDP1A    0.360000        1.0080           0   0.00000   0.00000
     30716 MEOH     1541     MEOH     HO2      DUMH     0.000000        1.0080           0   0.00000   0.00000
     30717 MEOH     1541     MEOH     H1A      HDA3B    0.080000        1.0080           0   0.00000   0.00000
     30718 MEOH     1541     MEOH     H1B      HDA3B    0.080000        1.0080           0   0.00000   0.00000
     30719 MEOH     1541     MEOH     H1C      HDA3B    0.080000        1.0080           0   0.00000   0.00000
     30720 MEOH     1541     MEOH     LP1A     LPD     -0.230000        0.0000           -1   0.00000   0.00000
     30721 MEOH     1541     MEOH     LP1B     LPD     -0.230000        0.0000           -1   0.00000   0.00000
     30722 MEOH     1542     MEOH     C1       CD33B    2.314100       11.6110           0   -1.00000   1.30000
     30723 MEOH     1542     MEOH     DC1      DRUD    -2.454100        0.4000           0   0.00000   0.00000
     30724 MEOH     1542     MEOH     O1       OD31H    2.488300       15.5990           0   -1.02800   1.30000
     30725 MEOH     1542     MEOH     DO1      DRUD    -2.488300        0.4000           0   0.00000   0.00000
     30726 MEOH     1542     MEOH     HO1      HDP1A    0.360000        1.0080           0   0.00000   0.00000
     30727 MEOH     1542     MEOH     HO2      DUMH     0.000000        1.0080           0   0.00000   0.00000
     30728 MEOH     1542     MEOH     H1A      HDA3B    0.080000        1.0080           0   0.00000   0.00000
     30729 MEOH     1542     MEOH     H1B      HDA3B    0.080000        1.0080           0   0.00000   0.00000
     30730 MEOH     1542     MEOH     H1C      HDA3B    0.080000        1.0080           0   0.00000   0.00000
     30731 MEOH     1542     MEOH     LP1A     LPD     -0.230000        0.0000           -1   0.00000   0.00000
     30732 MEOH     1542     MEOH     LP1B     LPD     -0.230000        0.0000           -1   0.00000   0.00000
     30733 MEOH     1543     MEOH     C1       CD33B    2.314100       11.6110           0   -1.00000   1.30000
     30734 MEOH     1543     MEOH     DC1      DRUD    -2.454100        0.4000           0   0.00000   0.00000
     30735 MEOH     1543     MEOH     O1       OD31H    2.488300       15.5990           0   -1.02800   1.30000
     30736 MEOH     1543     MEOH     DO1      DRUD    -2.488300        0.4000           0   0.00000   0.00000
     30737 MEOH     1543     MEOH     HO1      HDP1A    0.360000        1.0080           0   0.00000   0.00000
     30738 MEOH     1543     MEOH     HO2      DUMH     0.000000        1.0080           0   0.00000   0.00000
     30739 MEOH     1543     MEOH     H1A      HDA3B    0.080000        1.0080           0   0.00000   0.00000
     30740 MEOH     1543     MEOH     H1B      HDA3B    0.080000        1.0080           0   0.00000   0.00000
     30741 MEOH     1543     MEOH     H1C      HDA3B    0.080000        1.0080           0   0.00000   0.00000
     30742 MEOH     1543     MEOH     LP1A     LPD     -0.230000        0.0000           -1   0.00000   0.00000
     30743 MEOH     1543     MEOH     LP1B     LPD     -0.230000        0.0000           -1   0.00000   0.00000
     30744 MEOH     1544     MEOH     C1       CD33B    2.314100       11.6110           0   -1.00000   1.30000
     30745 MEOH     1544     MEOH     DC1      DRUD    -2.454100        0.4000           0   0.00000   0.00000
     30746 MEOH     1544     MEOH     O1       OD31H    2.488300       15.5990           0   -1.02800   1.30000
     30747 MEOH     1544     MEOH     DO1      DRUD    -2.488300        0.4000           0   0.00000   0.00000
     30748 MEOH     1544     MEOH     HO1      HDP1A    0.360000        1.0080           0   0.00000   0.00000
     30749 MEOH     1544     MEOH     HO2      DUMH     0.000000        1.0080           0   0.00000   0.00000
     30750 MEOH     1544     MEOH     H1A      HDA3B    0.080000        1.0080           0   0.00000   0.00000
     30751 MEOH     1544     MEOH     H1B      HDA3B    0.080000        1.0080           0   0.00000   0.00000
     30752 MEOH     1544     MEOH     H1C      HDA3B    0.080000        1.0080           0   0.00000   0.00000
     30753 MEOH     1544     MEOH     LP1A     LPD     -0.230000        0.0000           -1   0.00000   0.00000
     30754 MEOH     1544     MEOH     LP1B     LPD     -0.230000        0.0000           -1   0.00000   0.00000
     30755 MEOH     1545     MEOH     C1       CD33B    2.314100       11.6110           0   -1.00000   1.30000
     30756 MEOH     1545     MEOH     DC1      DRUD    -2.454100        0.4000           0   0.00000   0.00000
     30757 MEOH     1545     MEOH     O1       OD31H    2.488300       15.5990           0   -1.02800   1.30000
     30758 MEOH     1545     MEOH     DO1      DRUD    -2.488300        0.4000           0   0.00000   0.00000
     30759 MEOH     1545     MEOH     HO1      HDP1A    0.360000        1.0080           0   0.00000   0.00000
     30760 MEOH     1545     MEOH     HO2      DUMH     0.000000        1.0080           0   0.00000   0.00000
     30761 MEOH     1545     MEOH     H1A      HDA3B    0.080000        1.0080           0   0.00000   0.00000
     30762 MEOH     1545     MEOH     H1B      HDA3B    0.080000        1.0080           0   0.00000   0.00000
     30763 MEOH     1545     MEOH     H1C      HDA3B    0.080000        1.0080           0   0.00000   0.00000
     30764 MEOH     1545     MEOH     LP1A     LPD     -0.230000        0.0000           -1   0.00000   0.00000
     30765 MEOH     1545     MEOH     LP1B     LPD     -0.230000        0.0000           -1   0.00000   0.00000
     30766 MEOH     1546     MEOH     C1       CD33B    2.314100       11.6110           0   -1.00000   1.30000
     30767 MEOH     1546     MEOH     DC1      DRUD    -2.454100        0.4000           0   0.00000   0.00000
     30768 MEOH     1546     MEOH     O1       OD31H    2.488300       15.5990           0   -1.02800   1.30000
     30769 MEOH     1546     MEOH     DO1      DRUD    -2.488300        0.4000           0   0.00000   0.00000
     30770 MEOH     1546     MEOH     HO1      HDP1A    0.360000        1.0080           0   0.00000   0.00000
     30771 MEOH     1546     MEOH     HO2      DUMH     0.000000        1.0080           0   0.00000   0.00000
     30772 MEOH     1546     MEOH     H1A      HDA3B    0.080000        1.0080           0   0.00000   0.00000
     30773 MEOH     1546     MEOH     H1B      HDA3B    0.080000        1.0080           0   0.00000   0.00000
     30774 MEOH     1546     MEOH     H1C      HDA3B    0.080000        1.0080           0   0.00000   0.00000
     30775 MEOH     1546     MEOH     LP1A     LPD     -0.230000        0.0000           -1   0.00000   0.00000
     30776 MEOH     1546     MEOH     LP1B     LPD     -0.230000        0.0000           -1   0.00000   0.00000
     30777 MEOH     1547     MEOH     C1       CD33B    2.314100       11.6110           0   -1.00000   1.30000
     30778 MEOH     1547     MEOH     DC1      DRUD    -2.454100        0.4000           0   0.00000   0.00000
     30779 MEOH     1547     MEOH     O1       OD31H    2.488300       15.5990           0   -1.02800   1.30000
     30780 MEOH     1547     MEOH     DO1      DRUD    -2.488300        0.4000           0   0.00000   0.00000
     30781 MEOH     1547     MEOH     HO1      HDP1A    0.360000        1.0080           0   0.00000   0.00000
     30782 MEOH     1547     MEOH     HO2      DUMH     0.000000        1.0080           0   0.00000   0.00000
     30783 MEOH     1547     MEOH     H1A      HDA3B    0.080000        1.0080           0   0.00000   0.00000
     30784 MEOH     1547     MEOH     H1B      HDA3B    0.080000        1.0080           0   0.00000   0.00000
     30785 MEOH     1547     MEOH     H1C      HDA3B    0.080000        1.0080           0   0.00000   0.00000
     30786 MEOH     1547     MEOH     LP1A     LPD     -0.230000        0.0000           -1   0.00000   0.00000
     30787 MEOH     1547     MEOH     LP1B     LPD     -0.230000        0.0000           -1   0.00000   0.00000
     30788 MEOH     1548     MEOH     C1       CD33B    2.314100       11.6110           0   -1.00000   1.30000
     30789 MEOH     1548     MEOH     DC1      DRUD    -2.454100        0.4000           0   0.00000   0.00000
     30790 MEOH     1548     MEOH     O1       OD31H    2.488300       15.5990           0   -1.02800   1.30000
     30791 MEOH     1548     MEOH     DO1      DRUD    -2.488300        0.4000           0   0.00000   0.00000
     30792 MEOH     1548     MEOH     HO1      HDP1A    0.360000        1.0080           0   0.00000   0.00000
     30793 MEOH     1548     MEOH     HO2      DUMH     0.000000        1.0080           0   0.00000   0.00000
     30794 MEOH     1548     MEOH     H1A      HDA3B    0.080000        1.0080           0   0.00000   0.00000
     30795 MEOH     1548     MEOH     H1B      HDA3B    0.080000        1.0080           0   0.00000   0.00000
     30796 MEOH     1548     MEOH     H1C      HDA3B    0.080000        1.0080           0   0.00000   0.00000
     30797 MEOH     1548     MEOH     LP1A     LPD     -0.230000        0.0000           -1   0.00000   0.00000
     30798 MEOH     1548     MEOH     LP1B     LPD     -0.230000        0.0000           -1   0.00000   0.00000
     30799 MEOH     1549     MEOH     C1       CD33B    2.314100       11.6110           0   -1.00000   1.30000
     30800 MEOH     1549     MEOH     DC1      DRUD    -2.454100        0.4000           0   0.00000   0.00000
     30801 MEOH     1549     MEOH     O1       OD31H    2.488300       15.5990           0   -1.02800   1.30000
     30802 MEOH     1549     MEOH     DO1      DRUD    -2.488300        0.4000           0   0.00000   0.00000
     30803 MEOH     1549     MEOH     HO1      HDP1A    0.360000        1.0080           0   0.00000   0.00000
     30804 MEOH     1549     MEOH     HO2      DUMH     0.000000        1.0080           0   0.00000   0.00000
     30805 MEOH     1549     MEOH     H1A      HDA3B    0.080000        1.0080           0   0.00000   0.00000
     30806 MEOH     1549     MEOH     H1B      HDA3B    0.080000        1.0080           0   0.00000   0.00000
     30807 MEOH     1549     MEOH     H1C      HDA3B    0.080000        1.0080           0   0.00000   0.00000
     30808 MEOH     1549     MEOH     LP1A     LPD     -0.230000        0.0000           -1   0.00000   0.00000
     30809 MEOH     1549     MEOH     LP1B     LPD     -0.230000        0.0000           -1   0.00000   0.00000
     30810 MEOH     1550     MEOH     C1       CD33B    2.314100       11.6110           0   -1.00000   1.30000
     30811 MEOH     1550     MEOH     DC1      DRUD    -2.454100        0.4000           0   0.00000   0.00000
     30812 MEOH     1550     MEOH     O1       OD31H    2.488300       15.5990           0   -1.02800   1.30000
     30813 MEOH     1550     MEOH     DO1      DRUD    -2.488300        0.4000           0   0.00000   0.00000
     30814 MEOH     1550     MEOH     HO1      HDP1A    0.360000        1.0080           0   0.00000   0.00000
     30815 MEOH     1550     MEOH     HO2      DUMH     0.000000        1.0080           0   0.00000   0.00000
     30816 MEOH     1550     MEOH     H1A      HDA3B    0.080000        1.0080           0   0.00000   0.00000
     30817 MEOH     1550     MEOH     H1B      HDA3B    0.080000        1.0080           0   0.00000   0.00000
     30818 MEOH     1550     MEOH     H1C      HDA3B    0.080000        1.0080           0   0.00000   0.00000
     30819 MEOH     1550     MEOH     LP1A     LPD     -0.230000        0.0000           -1   0.00000   0.00000
     30820 MEOH     1550     MEOH     LP1B     LPD     -0.230000        0.0000           -1   0.00000   0.00000
     30821 MEOH     1551     MEOH     C1       CD33B    2.314100       11.6110           0   -1.00000   1.30000
     30822 MEOH     1551     MEOH     DC1      DRUD    -2.454100        0.4000           0   0.00000   0.00000
     30823 MEOH     1551     MEOH     O1       OD31H    2.488300       15.5990           0   -1.02800   1.30000
     30824 MEOH     1551     MEOH     DO1      DRUD    -2.488300        0.4000           0   0.00000   0.00000
     30825 MEOH     1551     MEOH     HO1      HDP1A    0.360000        1.0080           0   0.00000   0.00000
     30826 MEOH     1551     MEOH     HO2      DUMH     0.000000        1.0080           0   0.00000   0.00000
     30827 MEOH     1551     MEOH     H1A      HDA3B    0.080000        1.0080           0   0.00000   0.00000
     30828 MEOH     1551     MEOH     H1B      HDA3B    0.080000        1.0080           0   0.00000   0.00000
     30829 MEOH     1551     MEOH     H1C      HDA3B    0.080000        1.0080           0   0.00000   0.00000
     30830 MEOH     1551     MEOH     LP1A     LPD     -0.230000        0.0000           -1   0.00000   0.00000
     30831 MEOH     1551     MEOH     LP1B     LPD     -0.230000        0.0000           -1   0.00000   0.00000
     30832 MEOH     1552     MEOH     C1       CD33B    2.314100       11.6110           0   -1.00000   1.30000
     30833 MEOH     1552     MEOH     DC1      DRUD    -2.454100        0.4000           0   0.00000   0.00000
     30834 MEOH     1552     MEOH     O1       OD31H    2.488300       15.5990           0   -1.02800   1.30000
     30835 MEOH     1552     MEOH     DO1      DRUD    -2.488300        0.4000           0   0.00000   0.00000
     30836 MEOH     1552     MEOH     HO1      HDP1A    0.360000        1.0080           0   0.00000   0.00000
     30837 MEOH     1552     MEOH     HO2      DUMH     0.000000        1.0080           0   0.00000   0.00000
     30838 MEOH     1552     MEOH     H1A      HDA3B    0.080000        1.0080           0   0.00000   0.00000
     30839 MEOH     1552     MEOH     H1B      HDA3B    0.080000        1.0080           0   0.00000   0.00000
     30840 MEOH     1552     MEOH     H1C      HDA3B    0.080000        1.0080           0   0.00000   0.00000
     30841 MEOH     1552     MEOH     LP1A     LPD     -0.230000        0.0000           -1   0.00000   0.00000
     30842 MEOH     1552     MEOH     LP1B     LPD     -0.230000        0.0000           -1   0.00000   0.00000
     30843 MEOH     1553     MEOH     C1       CD33B    2.314100       11.6110           0   -1.00000   1.30000
     30844 MEOH     1553     MEOH     DC1      DRUD    -2.454100        0.4000           0   0.00000   0.00000
     30845 MEOH     1553     MEOH     O1       OD31H    2.488300       15.5990           0   -1.02800   1.30000
     30846 MEOH     1553     MEOH     DO1      DRUD    -2.488300        0.4000           0   0.00000   0.00000
     30847 MEOH     1553     MEOH     HO1      HDP1A    0.360000        1.0080           0   0.00000   0.00000
     30848 MEOH     1553     MEOH     HO2      DUMH     0.000000        1.0080           0   0.00000   0.00000
     30849 MEOH     1553     MEOH     H1A      HDA3B    0.080000        1.0080           0   0.00000   0.00000
     30850 MEOH     1553     MEOH     H1B      HDA3B    0.080000        1.0080           0   0.00000   0.00000
     30851 MEOH     1553     MEOH     H1C      HDA3B    0.080000        1.0080           0   0.00000   0.00000
     30852 MEOH     1553     MEOH     LP1A     LPD     -0.230000        0.0000           -1   0.00000   0.00000
     30853 MEOH     1553     MEOH     LP1B     LPD     -0.230000        0.0000           -1   0.00000   0.00000
     30854 MEOH     1554     MEOH     C1       CD33B    2.314100       11.6110           0   -1.00000   1.30000
     30855 MEOH     1554     MEOH     DC1      DRUD    -2.454100        0.4000           0   0.00000   0.00000
     30856 MEOH     1554     MEOH     O1       OD31H    2.488300       15.5990           0   -1.02800   1.30000
     30857 MEOH     1554     MEOH     DO1      DRUD    -2.488300        0.4000           0   0.00000   0.00000
     30858 MEOH     1554     MEOH     HO1      HDP1A    0.360000        1.0080           0   0.00000   0.00000
     30859 MEOH     1554     MEOH     HO2      DUMH     0.000000        1.0080           0   0.00000   0.00000
     30860 MEOH     1554     MEOH     H1A      HDA3B    0.080000        1.0080           0   0.00000   0.00000
     30861 MEOH     1554     MEOH     H1B      HDA3B    0.080000        1.0080           0   0.00000   0.00000
     30862 MEOH     1554     MEOH     H1C      HDA3B    0.080000        1.0080           0   0.00000   0.00000
     30863 MEOH     1554     MEOH     LP1A     LPD     -0.230000        0.0000           -1   0.00000   0.00000
     30864 MEOH     1554     MEOH     LP1B     LPD     -0.230000        0.0000           -1   0.00000   0.00000
     30865 MEOH     1555     MEOH     C1       CD33B    2.314100       11.6110           0   -1.00000   1.30000
     30866 MEOH     1555     MEOH     DC1      DRUD    -2.454100        0.4000           0   0.00000   0.00000
     30867 MEOH     1555     MEOH     O1       OD31H    2.488300       15.5990           0   -1.02800   1.30000
     30868 MEOH     1555     MEOH     DO1      DRUD    -2.488300        0.4000           0   0.00000   0.00000
     30869 MEOH     1555     MEOH     HO1      HDP1A    0.360000        1.0080           0   0.00000   0.00000
     30870 MEOH     1555     MEOH     HO2      DUMH     0.000000        1.0080           0   0.00000   0.00000
     30871 MEOH     1555     MEOH     H1A      HDA3B    0.080000        1.0080           0   0.00000   0.00000
     30872 MEOH     1555     MEOH     H1B      HDA3B    0.080000        1.0080           0   0.00000   0.00000
     30873 MEOH     1555     MEOH     H1C      HDA3B    0.080000        1.0080           0   0.00000   0.00000
     30874 MEOH     1555     MEOH     LP1A     LPD     -0.230000        0.0000           -1   0.00000   0.00000
     30875 MEOH     1555     MEOH     LP1B     LPD     -0.230000        0.0000           -1   0.00000   0.00000
     30876 MEOH     1556     MEOH     C1       CD33B    2.314100       11.6110           0   -1.00000   1.30000
     30877 MEOH     1556     MEOH     DC1      DRUD    -2.454100        0.4000           0   0.00000   0.00000
     30878 MEOH     1556     MEOH     O1       OD31H    2.488300       15.5990           0   -1.02800   1.30000
     30879 MEOH     1556     MEOH     DO1      DRUD    -2.488300        0.4000           0   0.00000   0.00000
     30880 MEOH     1556     MEOH     HO1      HDP1A    0.360000        1.0080           0   0.00000   0.00000
     30881 MEOH     1556     MEOH     HO2      DUMH     0.000000        1.0080           0   0.00000   0.00000
     30882 MEOH     1556     MEOH     H1A      HDA3B    0.080000        1.0080           0   0.00000   0.00000
     30883 MEOH     1556     MEOH     H1B      HDA3B    0.080000        1.0080           0   0.00000   0.00000
     30884 MEOH     1556     MEOH     H1C      HDA3B    0.080000        1.0080           0   0.00000   0.00000
     30885 MEOH     1556     MEOH     LP1A     LPD     -0.230000        0.0000           -1   0.00000   0.00000
     30886 MEOH     1556     MEOH     LP1B     LPD     -0.230000        0.0000           -1   0.00000   0.00000
     30887 MEOH     1557     MEOH     C1       CD33B    2.314100       11.6110           0   -1.00000   1.30000
     30888 MEOH     1557     MEOH     DC1      DRUD    -2.454100        0.4000           0   0.00000   0.00000
     30889 MEOH     1557     MEOH     O1       OD31H    2.488300       15.5990           0   -1.02800   1.30000
     30890 MEOH     1557     MEOH     DO1      DRUD    -2.488300        0.4000           0   0.00000   0.00000
     30891 MEOH     1557     MEOH     HO1      HDP1A    0.360000        1.0080           0   0.00000   0.00000
     30892 MEOH     1557     MEOH     HO2      DUMH     0.000000        1.0080           0   0.00000   0.00000
     30893 MEOH     1557     MEOH     H1A      HDA3B    0.080000        1.0080           0   0.00000   0.00000
     30894 MEOH     1557     MEOH     H1B      HDA3B    0.080000        1.0080           0   0.00000   0.00000
     30895 MEOH     1557     MEOH     H1C      HDA3B    0.080000        1.0080           0   0.00000   0.00000
     30896 MEOH     1557     MEOH     LP1A     LPD     -0.230000        0.0000           -1   0.00000   0.00000
     30897 MEOH     1557     MEOH     LP1B     LPD     -0.230000        0.0000           -1   0.00000   0.00000
     30898 MEOH     1558     MEOH     C1       CD33B    2.314100       11.6110           0   -1.00000   1.30000
     30899 MEOH     1558     MEOH     DC1      DRUD    -2.454100        0.4000           0   0.00000   0.00000
     30900 MEOH     1558     MEOH     O1       OD31H    2.488300       15.5990           0   -1.02800   1.30000
     30901 MEOH     1558     MEOH     DO1      DRUD    -2.488300        0.4000           0   0.00000   0.00000
     30902 MEOH     1558     MEOH     HO1      HDP1A    0.360000        1.0080           0   0.00000   0.00000
     30903 MEOH     1558     MEOH     HO2      DUMH     0.000000        1.0080           0   0.00000   0.00000
     30904 MEOH     1558     MEOH     H1A      HDA3B    0.080000        1.0080           0   0.00000   0.00000
     30905 MEOH     1558     MEOH     H1B      HDA3B    0.080000        1.0080           0   0.00000   0.00000
     30906 MEOH     1558     MEOH     H1C      HDA3B    0.080000        1.0080           0   0.00000   0.00000
     30907 MEOH     1558     MEOH     LP1A     LPD     -0.230000        0.0000           -1   0.00000   0.00000
     30908 MEOH     1558     MEOH     LP1B     LPD     -0.230000        0.0000           -1   0.00000   0.00000
     30909 MEOH     1559     MEOH     C1       CD33B    2.314100       11.6110           0   -1.00000   1.30000
     30910 MEOH     1559     MEOH     DC1      DRUD    -2.454100        0.4000           0   0.00000   0.00000
     30911 MEOH     1559     MEOH     O1       OD31H    2.488300       15.5990           0   -1.02800   1.30000
     30912 MEOH     1559     MEOH     DO1      DRUD    -2.488300        0.4000           0   0.00000   0.00000
     30913 MEOH     1559     MEOH     HO1      HDP1A    0.360000        1.0080           0   0.00000   0.00000
     30914 MEOH     1559     MEOH     HO2      DUMH     0.000000        1.0080           0   0.00000   0.00000
     30915 MEOH     1559     MEOH     H1A      HDA3B    0.080000        1.0080           0   0.00000   0.00000
     30916 MEOH     1559     MEOH     H1B      HDA3B    0.080000        1.0080           0   0.00000   0.00000
     30917 MEOH     1559     MEOH     H1C      HDA3B    0.080000        1.0080           0   0.00000   0.00000
     30918 MEOH     1559     MEOH     LP1A     LPD     -0.230000        0.0000           -1   0.00000   0.00000
     30919 MEOH     1559     MEOH     LP1B     LPD     -0.230000        0.0000           -1   0.00000   0.00000
     30920 MEOH     1560     MEOH     C1       CD33B    2.314100       11.6110           0   -1.00000   1.30000
     30921 MEOH     1560     MEOH     DC1      DRUD    -2.454100        0.4000           0   0.00000   0.00000
     30922 MEOH     1560     MEOH     O1       OD31H    2.488300       15.5990           0   -1.02800   1.30000
     30923 MEOH     1560     MEOH     DO1      DRUD    -2.488300        0.4000           0   0.00000   0.00000
     30924 MEOH     1560     MEOH     HO1      HDP1A    0.360000        1.0080           0   0.00000   0.00000
     30925 MEOH     1560     MEOH     HO2      DUMH     0.000000        1.0080           0   0.00000   0.00000
     30926 MEOH     1560     MEOH     H1A      HDA3B    0.080000        1.0080           0   0.00000   0.00000
     30927 MEOH     1560     MEOH     H1B      HDA3B    0.080000        1.0080           0   0.00000   0.00000
     30928 MEOH     1560     MEOH     H1C      HDA3B    0.080000        1.0080           0   0.00000   0.00000
     30929 MEOH     1560     MEOH     LP1A     LPD     -0.230000        0.0000           -1   0.00000   0.00000
     30930 MEOH     1560     MEOH     LP1B     LPD     -0.230000        0.0000           -1   0.00000   0.00000
     30931 MEOH     1561     MEOH     C1       CD33B    2.314100       11.6110           0   -1.00000   1.30000
     30932 MEOH     1561     MEOH     DC1      DRUD    -2.454100        0.4000           0   0.00000   0.00000
     30933 MEOH     1561     MEOH     O1       OD31H    2.488300       15.5990           0   -1.02800   1.30000
     30934 MEOH     1561     MEOH     DO1      DRUD    -2.488300        0.4000           0   0.00000   0.00000
     30935 MEOH     1561     MEOH     HO1      HDP1A    0.360000        1.0080           0   0.00000   0.00000
     30936 MEOH     1561     MEOH     HO2      DUMH     0.000000        1.0080           0   0.00000   0.00000
     30937 MEOH     1561     MEOH     H1A      HDA3B    0.080000        1.0080           0   0.00000   0.00000
     30938 MEOH     1561     MEOH     H1B      HDA3B    0.080000        1.0080           0   0.00000   0.00000
     30939 MEOH     1561     MEOH     H1C      HDA3B    0.080000        1.0080           0   0.00000   0.00000
     30940 MEOH     1561     MEOH     LP1A     LPD     -0.230000        0.0000           -1   0.00000   0.00000
     30941 MEOH     1561     MEOH     LP1B     LPD     -0.230000        0.0000           -1   0.00000   0.00000
     30942 MEOH     1562     MEOH     C1       CD33B    2.314100       11.6110           0   -1.00000   1.30000
     30943 MEOH     1562     MEOH     DC1      DRUD    -2.454100        0.4000           0   0.00000   0.00000
     30944 MEOH     1562     MEOH     O1       OD31H    2.488300       15.5990           0   -1.02800   1.30000
     30945 MEOH     1562     MEOH     DO1      DRUD    -2.488300        0.4000           0   0.00000   0.00000
     30946 MEOH     1562     MEOH     HO1      HDP1A    0.360000        1.0080           0   0.00000   0.00000
     30947 MEOH     1562     MEOH     HO2      DUMH     0.000000        1.0080           0   0.00000   0.00000
     30948 MEOH     1562     MEOH     H1A      HDA3B    0.080000        1.0080           0   0.00000   0.00000
     30949 MEOH     1562     MEOH     H1B      HDA3B    0.080000        1.0080           0   0.00000   0.00000
     30950 MEOH     1562     MEOH     H1C      HDA3B    0.080000        1.0080           0   0.00000   0.00000
     30951 MEOH     1562     MEOH     LP1A     LPD     -0.230000        0.0000           -1   0.00000   0.00000
     30952 MEOH     1562     MEOH     LP1B     LPD     -0.230000        0.0000           -1   0.00000   0.00000
     30953 MEOH     1563     MEOH     C1       CD33B    2.314100       11.6110           0   -1.00000   1.30000
     30954 MEOH     1563     MEOH     DC1      DRUD    -2.454100        0.4000           0   0.00000   0.00000
     30955 MEOH     1563     MEOH     O1       OD31H    2.488300       15.5990           0   -1.02800   1.30000
     30956 MEOH     1563     MEOH     DO1      DRUD    -2.488300        0.4000           0   0.00000   0.00000
     30957 MEOH     1563     MEOH     HO1      HDP1A    0.360000        1.0080           0   0.00000   0.00000
     30958 MEOH     1563     MEOH     HO2      DUMH     0.000000        1.0080           0   0.00000   0.00000
     30959 MEOH     1563     MEOH     H1A      HDA3B    0.080000        1.0080           0   0.00000   0.00000
     30960 MEOH     1563     MEOH     H1B      HDA3B    0.080000        1.0080           0   0.00000   0.00000
     30961 MEOH     1563     MEOH     H1C      HDA3B    0.080000        1.0080           0   0.00000   0.00000
     30962 MEOH     1563     MEOH     LP1A     LPD     -0.230000        0.0000           -1   0.00000   0.00000
     30963 MEOH     1563     MEOH     LP1B     LPD     -0.230000        0.0000           -1   0.00000   0.00000
     30964 MEOH     1564     MEOH     C1       CD33B    2.314100       11.6110           0   -1.00000   1.30000
     30965 MEOH     1564     MEOH     DC1      DRUD    -2.454100        0.4000           0   0.00000   0.00000
     30966 MEOH     1564     MEOH     O1       OD31H    2.488300       15.5990           0   -1.02800   1.30000
     30967 MEOH     1564     MEOH     DO1      DRUD    -2.488300        0.4000           0   0.00000   0.00000
     30968 MEOH     1564     MEOH     HO1      HDP1A    0.360000        1.0080           0   0.00000   0.00000
     30969 MEOH     1564     MEOH     HO2      DUMH     0.000000        1.0080           0   0.00000   0.00000
     30970 MEOH     1564     MEOH     H1A      HDA3B    0.080000        1.0080           0   0.00000   0.00000
     30971 MEOH     1564     MEOH     H1B      HDA3B    0.080000        1.0080           0   0.00000   0.00000
     30972 MEOH     1564     MEOH     H1C      HDA3B    0.080000        1.0080           0   0.00000   0.00000
     30973 MEOH     1564     MEOH     LP1A     LPD     -0.230000        0.0000           -1   0.00000   0.00000
     30974 MEOH     1564     MEOH     LP1B     LPD     -0.230000        0.0000           -1   0.00000   0.00000
     30975 MEOH     1565     MEOH     C1       CD33B    2.314100       11.6110           0   -1.00000   1.30000
     30976 MEOH     1565     MEOH     DC1      DRUD    -2.454100        0.4000           0   0.00000   0.00000
     30977 MEOH     1565     MEOH     O1       OD31H    2.488300       15.5990           0   -1.02800   1.30000
     30978 MEOH     1565     MEOH     DO1      DRUD    -2.488300        0.4000           0   0.00000   0.00000
     30979 MEOH     1565     MEOH     HO1      HDP1A    0.360000        1.0080           0   0.00000   0.00000
     30980 MEOH     1565     MEOH     HO2      DUMH     0.000000        1.0080           0   0.00000   0.00000
     30981 MEOH     1565     MEOH     H1A      HDA3B    0.080000        1.0080           0   0.00000   0.00000
     30982 MEOH     1565     MEOH     H1B      HDA3B    0.080000        1.0080           0   0.00000   0.00000
     30983 MEOH     1565     MEOH     H1C      HDA3B    0.080000        1.0080           0   0.00000   0.00000
     30984 MEOH     1565     MEOH     LP1A     LPD     -0.230000        0.0000           -1   0.00000   0.00000
     30985 MEOH     1565     MEOH     LP1B     LPD     -0.230000        0.0000           -1   0.00000   0.00000
     30986 MEOH     1566     MEOH     C1       CD33B    2.314100       11.6110           0   -1.00000   1.30000
     30987 MEOH     1566     MEOH     DC1      DRUD    -2.454100        0.4000           0   0.00000   0.00000
     30988 MEOH     1566     MEOH     O1       OD31H    2.488300       15.5990           0   -1.02800   1.30000
     30989 MEOH     1566     MEOH     DO1      DRUD    -2.488300        0.4000           0   0.00000   0.00000
     30990 MEOH     1566     MEOH     HO1      HDP1A    0.360000        1.0080           0   0.00000   0.00000
     30991 MEOH     1566     MEOH     HO2      DUMH     0.000000        1.0080           0   0.00000   0.00000
     30992 MEOH     1566     MEOH     H1A      HDA3B    0.080000        1.0080           0   0.00000   0.00000
     30993 MEOH     1566     MEOH     H1B      HDA3B    0.080000        1.0080           0   0.00000   0.00000
     30994 MEOH     1566     MEOH     H1C      HDA3B    0.080000        1.0080           0   0.00000   0.00000
     30995 MEOH     1566     MEOH     LP1A     LPD     -0.230000        0.0000           -1   0.00000   0.00000
     30996 MEOH     1566     MEOH     LP1B     LPD     -0.230000        0.0000           -1   0.00000   0.00000
     30997 MEOH     1567     MEOH     C1       CD33B    2.314100       11.6110           0   -1.00000   1.30000
     30998 MEOH     1567     MEOH     DC1      DRUD    -2.454100        0.4000           0   0.00000   0.00000
     30999 MEOH     1567     MEOH     O1       OD31H    2.488300       15.5990           0   -1.02800   1.30000
     31000 MEOH     1567     MEOH     DO1      DRUD    -2.488300        0.4000           0   0.00000   0.00000
     31001 MEOH     1567     MEOH     HO1      HDP1A    0.360000        1.0080           0   0.00000   0.00000
     31002 MEOH     1567     MEOH     HO2      DUMH     0.000000        1.0080           0   0.00000   0.00000
     31003 MEOH     1567     MEOH     H1A      HDA3B    0.080000        1.0080           0   0.00000   0.00000
     31004 MEOH     1567     MEOH     H1B      HDA3B    0.080000        1.0080           0   0.00000   0.00000
     31005 MEOH     1567     MEOH     H1C      HDA3B    0.080000        1.0080           0   0.00000   0.00000
     31006 MEOH     1567     MEOH     LP1A     LPD     -0.230000        0.0000           -1   0.00000   0.00000
     31007 MEOH     1567     MEOH     LP1B     LPD     -0.230000        0.0000           -1   0.00000   0.00000
     31008 MEOH     1568     MEOH     C1       CD33B    2.314100       11.6110           0   -1.00000   1.30000
     31009 MEOH     1568     MEOH     DC1      DRUD    -2.454100        0.4000           0   0.00000   0.00000
     31010 MEOH     1568     MEOH     O1       OD31H    2.488300       15.5990           0   -1.02800   1.30000
     31011 MEOH     1568     MEOH     DO1      DRUD    -2.488300        0.4000           0   0.00000   0.00000
     31012 MEOH     1568     MEOH     HO1      HDP1A    0.360000        1.0080           0   0.00000   0.00000
     31013 MEOH     1568     MEOH     HO2      DUMH     0.000000        1.0080           0   0.00000   0.00000
     31014 MEOH     1568     MEOH     H1A      HDA3B    0.080000        1.0080           0   0.00000   0.00000
     31015 MEOH     1568     MEOH     H1B      HDA3B    0.080000        1.0080           0   0.00000   0.00000
     31016 MEOH     1568     MEOH     H1C      HDA3B    0.080000        1.0080           0   0.00000   0.00000
     31017 MEOH     1568     MEOH     LP1A     LPD     -0.230000        0.0000           -1   0.00000   0.00000
     31018 MEOH     1568     MEOH     LP1B     LPD     -0.230000        0.0000           -1   0.00000   0.00000
     31019 MEOH     1569     MEOH     C1       CD33B    2.314100       11.6110           0   -1.00000   1.30000
     31020 MEOH     1569     MEOH     DC1      DRUD    -2.454100        0.4000           0   0.00000   0.00000
     31021 MEOH     1569     MEOH     O1       OD31H    2.488300       15.5990           0   -1.02800   1.30000
     31022 MEOH     1569     MEOH     DO1      DRUD    -2.488300        0.4000           0   0.00000   0.00000
     31023 MEOH     1569     MEOH     HO1      HDP1A    0.360000        1.0080           0   0.00000   0.00000
     31024 MEOH     1569     MEOH     HO2      DUMH     0.000000        1.0080           0   0.00000   0.00000
     31025 MEOH     1569     MEOH     H1A      HDA3B    0.080000        1.0080           0   0.00000   0.00000
     31026 MEOH     1569     MEOH     H1B      HDA3B    0.080000        1.0080           0   0.00000   0.00000
     31027 MEOH     1569     MEOH     H1C      HDA3B    0.080000        1.0080           0   0.00000   0.00000
     31028 MEOH     1569     MEOH     LP1A     LPD     -0.230000        0.0000           -1   0.00000   0.00000
     31029 MEOH     1569     MEOH     LP1B     LPD     -0.230000        0.0000           -1   0.00000   0.00000
     31030 MEOH     1570     MEOH     C1       CD33B    2.314100       11.6110           0   -1.00000   1.30000
     31031 MEOH     1570     MEOH     DC1      DRUD    -2.454100        0.4000           0   0.00000   0.00000
     31032 MEOH     1570     MEOH     O1       OD31H    2.488300       15.5990           0   -1.02800   1.30000
     31033 MEOH     1570     MEOH     DO1      DRUD    -2.488300        0.4000           0   0.00000   0.00000
     31034 MEOH     1570     MEOH     HO1      HDP1A    0.360000        1.0080           0   0.00000   0.00000
     31035 MEOH     1570     MEOH     HO2      DUMH     0.000000        1.0080           0   0.00000   0.00000
     31036 MEOH     1570     MEOH     H1A      HDA3B    0.080000        1.0080           0   0.00000   0.00000
     31037 MEOH     1570     MEOH     H1B      HDA3B    0.080000        1.0080           0   0.00000   0.00000
     31038 MEOH     1570     MEOH     H1C      HDA3B    0.080000        1.0080           0   0.00000   0.00000
     31039 MEOH     1570     MEOH     LP1A     LPD     -0.230000        0.0000           -1   0.00000   0.00000
     31040 MEOH     1570     MEOH     LP1B     LPD     -0.230000        0.0000           -1   0.00000   0.00000
     31041 MEOH     1571     MEOH     C1       CD33B    2.314100       11.6110           0   -1.00000   1.30000
     31042 MEOH     1571     MEOH     DC1      DRUD    -2.454100        0.4000           0   0.00000   0.00000
     31043 MEOH     1571     MEOH     O1       OD31H    2.488300       15.5990           0   -1.02800   1.30000
     31044 MEOH     1571     MEOH     DO1      DRUD    -2.488300        0.4000           0   0.00000   0.00000
     31045 MEOH     1571     MEOH     HO1      HDP1A    0.360000        1.0080           0   0.00000   0.00000
     31046 MEOH     1571     MEOH     HO2      DUMH     0.000000        1.0080           0   0.00000   0.00000
     31047 MEOH     1571     MEOH     H1A      HDA3B    0.080000        1.0080           0   0.00000   0.00000
     31048 MEOH     1571     MEOH     H1B      HDA3B    0.080000        1.0080           0   0.00000   0.00000
     31049 MEOH     1571     MEOH     H1C      HDA3B    0.080000        1.0080           0   0.00000   0.00000
     31050 MEOH     1571     MEOH     LP1A     LPD     -0.230000        0.0000           -1   0.00000   0.00000
     31051 MEOH     1571     MEOH     LP1B     LPD     -0.230000        0.0000           -1   0.00000   0.00000
     31052 MEOH     1572     MEOH     C1       CD33B    2.314100       11.6110           0   -1.00000   1.30000
     31053 MEOH     1572     MEOH     DC1      DRUD    -2.454100        0.4000           0   0.00000   0.00000
     31054 MEOH     1572     MEOH     O1       OD31H    2.488300       15.5990           0   -1.02800   1.30000
     31055 MEOH     1572     MEOH     DO1      DRUD    -2.488300        0.4000           0   0.00000   0.00000
     31056 MEOH     1572     MEOH     HO1      HDP1A    0.360000        1.0080           0   0.00000   0.00000
     31057 MEOH     1572     MEOH     HO2      DUMH     0.000000        1.0080           0   0.00000   0.00000
     31058 MEOH     1572     MEOH     H1A      HDA3B    0.080000        1.0080           0   0.00000   0.00000
     31059 MEOH     1572     MEOH     H1B      HDA3B    0.080000        1.0080           0   0.00000   0.00000
     31060 MEOH     1572     MEOH     H1C      HDA3B    0.080000        1.0080           0   0.00000   0.00000
     31061 MEOH     1572     MEOH     LP1A     LPD     -0.230000        0.0000           -1   0.00000   0.00000
     31062 MEOH     1572     MEOH     LP1B     LPD     -0.230000        0.0000           -1   0.00000   0.00000
     31063 MEOH     1573     MEOH     C1       CD33B    2.314100       11.6110           0   -1.00000   1.30000
     31064 MEOH     1573     MEOH     DC1      DRUD    -2.454100        0.4000           0   0.00000   0.00000
     31065 MEOH     1573     MEOH     O1       OD31H    2.488300       15.5990           0   -1.02800   1.30000
     31066 MEOH     1573     MEOH     DO1      DRUD    -2.488300        0.4000           0   0.00000   0.00000
     31067 MEOH     1573     MEOH     HO1      HDP1A    0.360000        1.0080           0   0.00000   0.00000
     31068 MEOH     1573     MEOH     HO2      DUMH     0.000000        1.0080           0   0.00000   0.00000
     31069 MEOH     1573     MEOH     H1A      HDA3B    0.080000        1.0080           0   0.00000   0.00000
     31070 MEOH     1573     MEOH     H1B      HDA3B    0.080000        1.0080           0   0.00000   0.00000
     31071 MEOH     1573     MEOH     H1C      HDA3B    0.080000        1.0080           0   0.00000   0.00000
     31072 MEOH     1573     MEOH     LP1A     LPD     -0.230000        0.0000           -1   0.00000   0.00000
     31073 MEOH     1573     MEOH     LP1B     LPD     -0.230000        0.0000           -1   0.00000   0.00000
     31074 MEOH     1574     MEOH     C1       CD33B    2.314100       11.6110           0   -1.00000   1.30000
     31075 MEOH     1574     MEOH     DC1      DRUD    -2.454100        0.4000           0   0.00000   0.00000
     31076 MEOH     1574     MEOH     O1       OD31H    2.488300       15.5990           0   -1.02800   1.30000
     31077 MEOH     1574     MEOH     DO1      DRUD    -2.488300        0.4000           0   0.00000   0.00000
     31078 MEOH     1574     MEOH     HO1      HDP1A    0.360000        1.0080           0   0.00000   0.00000
     31079 MEOH     1574     MEOH     HO2      DUMH     0.000000        1.0080           0   0.00000   0.00000
     31080 MEOH     1574     MEOH     H1A      HDA3B    0.080000        1.0080           0   0.00000   0.00000
     31081 MEOH     1574     MEOH     H1B      HDA3B    0.080000        1.0080           0   0.00000   0.00000
     31082 MEOH     1574     MEOH     H1C      HDA3B    0.080000        1.0080           0   0.00000   0.00000
     31083 MEOH     1574     MEOH     LP1A     LPD     -0.230000        0.0000           -1   0.00000   0.00000
     31084 MEOH     1574     MEOH     LP1B     LPD     -0.230000        0.0000           -1   0.00000   0.00000
     31085 MEOH     1575     MEOH     C1       CD33B    2.314100       11.6110           0   -1.00000   1.30000
     31086 MEOH     1575     MEOH     DC1      DRUD    -2.454100        0.4000           0   0.00000   0.00000
     31087 MEOH     1575     MEOH     O1       OD31H    2.488300       15.5990           0   -1.02800   1.30000
     31088 MEOH     1575     MEOH     DO1      DRUD    -2.488300        0.4000           0   0.00000   0.00000
     31089 MEOH     1575     MEOH     HO1      HDP1A    0.360000        1.0080           0   0.00000   0.00000
     31090 MEOH     1575     MEOH     HO2      DUMH     0.000000        1.0080           0   0.00000   0.00000
     31091 MEOH     1575     MEOH     H1A      HDA3B    0.080000        1.0080           0   0.00000   0.00000
     31092 MEOH     1575     MEOH     H1B      HDA3B    0.080000        1.0080           0   0.00000   0.00000
     31093 MEOH     1575     MEOH     H1C      HDA3B    0.080000        1.0080           0   0.00000   0.00000
     31094 MEOH     1575     MEOH     LP1A     LPD     -0.230000        0.0000           -1   0.00000   0.00000
     31095 MEOH     1575     MEOH     LP1B     LPD     -0.230000        0.0000           -1   0.00000   0.00000
     31096 MEOH     1576     MEOH     C1       CD33B    2.314100       11.6110           0   -1.00000   1.30000
     31097 MEOH     1576     MEOH     DC1      DRUD    -2.454100        0.4000           0   0.00000   0.00000
     31098 MEOH     1576     MEOH     O1       OD31H    2.488300       15.5990           0   -1.02800   1.30000
     31099 MEOH     1576     MEOH     DO1      DRUD    -2.488300        0.4000           0   0.00000   0.00000
     31100 MEOH     1576     MEOH     HO1      HDP1A    0.360000        1.0080           0   0.00000   0.00000
     31101 MEOH     1576     MEOH     HO2      DUMH     0.000000        1.0080           0   0.00000   0.00000
     31102 MEOH     1576     MEOH     H1A      HDA3B    0.080000        1.0080           0   0.00000   0.00000
     31103 MEOH     1576     MEOH     H1B      HDA3B    0.080000        1.0080           0   0.00000   0.00000
     31104 MEOH     1576     MEOH     H1C      HDA3B    0.080000        1.0080           0   0.00000   0.00000
     31105 MEOH     1576     MEOH     LP1A     LPD     -0.230000        0.0000           -1   0.00000   0.00000
     31106 MEOH     1576     MEOH     LP1B     LPD     -0.230000        0.0000           -1   0.00000   0.00000
     31107 MEOH     1577     MEOH     C1       CD33B    2.314100       11.6110           0   -1.00000   1.30000
     31108 MEOH     1577     MEOH     DC1      DRUD    -2.454100        0.4000           0   0.00000   0.00000
     31109 MEOH     1577     MEOH     O1       OD31H    2.488300       15.5990           0   -1.02800   1.30000
     31110 MEOH     1577     MEOH     DO1      DRUD    -2.488300        0.4000           0   0.00000   0.00000
     31111 MEOH     1577     MEOH     HO1      HDP1A    0.360000        1.0080           0   0.00000   0.00000
     31112 MEOH     1577     MEOH     HO2      DUMH     0.000000        1.0080           0   0.00000   0.00000
     31113 MEOH     1577     MEOH     H1A      HDA3B    0.080000        1.0080           0   0.00000   0.00000
     31114 MEOH     1577     MEOH     H1B      HDA3B    0.080000        1.0080           0   0.00000   0.00000
     31115 MEOH     1577     MEOH     H1C      HDA3B    0.080000        1.0080           0   0.00000   0.00000
     31116 MEOH     1577     MEOH     LP1A     LPD     -0.230000        0.0000           -1   0.00000   0.00000
     31117 MEOH     1577     MEOH     LP1B     LPD     -0.230000        0.0000           -1   0.00000   0.00000
     31118 MEOH     1578     MEOH     C1       CD33B    2.314100       11.6110           0   -1.00000   1.30000
     31119 MEOH     1578     MEOH     DC1      DRUD    -2.454100        0.4000           0   0.00000   0.00000
     31120 MEOH     1578     MEOH     O1       OD31H    2.488300       15.5990           0   -1.02800   1.30000
     31121 MEOH     1578     MEOH     DO1      DRUD    -2.488300        0.4000           0   0.00000   0.00000
     31122 MEOH     1578     MEOH     HO1      HDP1A    0.360000        1.0080           0   0.00000   0.00000
     31123 MEOH     1578     MEOH     HO2      DUMH     0.000000        1.0080           0   0.00000   0.00000
     31124 MEOH     1578     MEOH     H1A      HDA3B    0.080000        1.0080           0   0.00000   0.00000
     31125 MEOH     1578     MEOH     H1B      HDA3B    0.080000        1.0080           0   0.00000   0.00000
     31126 MEOH     1578     MEOH     H1C      HDA3B    0.080000        1.0080           0   0.00000   0.00000
     31127 MEOH     1578     MEOH     LP1A     LPD     -0.230000        0.0000           -1   0.00000   0.00000
     31128 MEOH     1578     MEOH     LP1B     LPD     -0.230000        0.0000           -1   0.00000   0.00000
     31129 MEOH     1579     MEOH     C1       CD33B    2.314100       11.6110           0   -1.00000   1.30000
     31130 MEOH     1579     MEOH     DC1      DRUD    -2.454100        0.4000           0   0.00000   0.00000
     31131 MEOH     1579     MEOH     O1       OD31H    2.488300       15.5990           0   -1.02800   1.30000
     31132 MEOH     1579     MEOH     DO1      DRUD    -2.488300        0.4000           0   0.00000   0.00000
     31133 MEOH     1579     MEOH     HO1      HDP1A    0.360000        1.0080           0   0.00000   0.00000
     31134 MEOH     1579     MEOH     HO2      DUMH     0.000000        1.0080           0   0.00000   0.00000
     31135 MEOH     1579     MEOH     H1A      HDA3B    0.080000        1.0080           0   0.00000   0.00000
     31136 MEOH     1579     MEOH     H1B      HDA3B    0.080000        1.0080           0   0.00000   0.00000
     31137 MEOH     1579     MEOH     H1C      HDA3B    0.080000        1.0080           0   0.00000   0.00000
     31138 MEOH     1579     MEOH     LP1A     LPD     -0.230000        0.0000           -1   0.00000   0.00000
     31139 MEOH     1579     MEOH     LP1B     LPD     -0.230000        0.0000           -1   0.00000   0.00000
     31140 MEOH     1580     MEOH     C1       CD33B    2.314100       11.6110           0   -1.00000   1.30000
     31141 MEOH     1580     MEOH     DC1      DRUD    -2.454100        0.4000           0   0.00000   0.00000
     31142 MEOH     1580     MEOH     O1       OD31H    2.488300       15.5990           0   -1.02800   1.30000
     31143 MEOH     1580     MEOH     DO1      DRUD    -2.488300        0.4000           0   0.00000   0.00000
     31144 MEOH     1580     MEOH     HO1      HDP1A    0.360000        1.0080           0   0.00000   0.00000
     31145 MEOH     1580     MEOH     HO2      DUMH     0.000000        1.0080           0   0.00000   0.00000
     31146 MEOH     1580     MEOH     H1A      HDA3B    0.080000        1.0080           0   0.00000   0.00000
     31147 MEOH     1580     MEOH     H1B      HDA3B    0.080000        1.0080           0   0.00000   0.00000
     31148 MEOH     1580     MEOH     H1C      HDA3B    0.080000        1.0080           0   0.00000   0.00000
     31149 MEOH     1580     MEOH     LP1A     LPD     -0.230000        0.0000           -1   0.00000   0.00000
     31150 MEOH     1580     MEOH     LP1B     LPD     -0.230000        0.0000           -1   0.00000   0.00000
     31151 MEOH     1581     MEOH     C1       CD33B    2.314100       11.6110           0   -1.00000   1.30000
     31152 MEOH     1581     MEOH     DC1      DRUD    -2.454100        0.4000           0   0.00000   0.00000
     31153 MEOH     1581     MEOH     O1       OD31H    2.488300       15.5990           0   -1.02800   1.30000
     31154 MEOH     1581     MEOH     DO1      DRUD    -2.488300        0.4000           0   0.00000   0.00000
     31155 MEOH     1581     MEOH     HO1      HDP1A    0.360000        1.0080           0   0.00000   0.00000
     31156 MEOH     1581     MEOH     HO2      DUMH     0.000000        1.0080           0   0.00000   0.00000
     31157 MEOH     1581     MEOH     H1A      HDA3B    0.080000        1.0080           0   0.00000   0.00000
     31158 MEOH     1581     MEOH     H1B      HDA3B    0.080000        1.0080           0   0.00000   0.00000
     31159 MEOH     1581     MEOH     H1C      HDA3B    0.080000        1.0080           0   0.00000   0.00000
     31160 MEOH     1581     MEOH     LP1A     LPD     -0.230000        0.0000           -1   0.00000   0.00000
     31161 MEOH     1581     MEOH     LP1B     LPD     -0.230000        0.0000           -1   0.00000   0.00000
     31162 MEOH     1582     MEOH     C1       CD33B    2.314100       11.6110           0   -1.00000   1.30000
     31163 MEOH     1582     MEOH     DC1      DRUD    -2.454100        0.4000           0   0.00000   0.00000
     31164 MEOH     1582     MEOH     O1       OD31H    2.488300       15.5990           0   -1.02800   1.30000
     31165 MEOH     1582     MEOH     DO1      DRUD    -2.488300        0.4000           0   0.00000   0.00000
     31166 MEOH     1582     MEOH     HO1      HDP1A    0.360000        1.0080           0   0.00000   0.00000
     31167 MEOH     1582     MEOH     HO2      DUMH     0.000000        1.0080           0   0.00000   0.00000
     31168 MEOH     1582     MEOH     H1A      HDA3B    0.080000        1.0080           0   0.00000   0.00000
     31169 MEOH     1582     MEOH     H1B      HDA3B    0.080000        1.0080           0   0.00000   0.00000
     31170 MEOH     1582     MEOH     H1C      HDA3B    0.080000        1.0080           0   0.00000   0.00000
     31171 MEOH     1582     MEOH     LP1A     LPD     -0.230000        0.0000           -1   0.00000   0.00000
     31172 MEOH     1582     MEOH     LP1B     LPD     -0.230000        0.0000           -1   0.00000   0.00000
     31173 MEOH     1583     MEOH     C1       CD33B    2.314100       11.6110           0   -1.00000   1.30000
     31174 MEOH     1583     MEOH     DC1      DRUD    -2.454100        0.4000           0   0.00000   0.00000
     31175 MEOH     1583     MEOH     O1       OD31H    2.488300       15.5990           0   -1.02800   1.30000
     31176 MEOH     1583     MEOH     DO1      DRUD    -2.488300        0.4000           0   0.00000   0.00000
     31177 MEOH     1583     MEOH     HO1      HDP1A    0.360000        1.0080           0   0.00000   0.00000
     31178 MEOH     1583     MEOH     HO2      DUMH     0.000000        1.0080           0   0.00000   0.00000
     31179 MEOH     1583     MEOH     H1A      HDA3B    0.080000        1.0080           0   0.00000   0.00000
     31180 MEOH     1583     MEOH     H1B      HDA3B    0.080000        1.0080           0   0.00000   0.00000
     31181 MEOH     1583     MEOH     H1C      HDA3B    0.080000        1.0080           0   0.00000   0.00000
     31182 MEOH     1583     MEOH     LP1A     LPD     -0.230000        0.0000           -1   0.00000   0.00000
     31183 MEOH     1583     MEOH     LP1B     LPD     -0.230000        0.0000           -1   0.00000   0.00000
     31184 MEOH     1584     MEOH     C1       CD33B    2.314100       11.6110           0   -1.00000   1.30000
     31185 MEOH     1584     MEOH     DC1      DRUD    -2.454100        0.4000           0   0.00000   0.00000
     31186 MEOH     1584     MEOH     O1       OD31H    2.488300       15.5990           0   -1.02800   1.30000
     31187 MEOH     1584     MEOH     DO1      DRUD    -2.488300        0.4000           0   0.00000   0.00000
     31188 MEOH     1584     MEOH     HO1      HDP1A    0.360000        1.0080           0   0.00000   0.00000
     31189 MEOH     1584     MEOH     HO2      DUMH     0.000000        1.0080           0   0.00000   0.00000
     31190 MEOH     1584     MEOH     H1A      HDA3B    0.080000        1.0080           0   0.00000   0.00000
     31191 MEOH     1584     MEOH     H1B      HDA3B    0.080000        1.0080           0   0.00000   0.00000
     31192 MEOH     1584     MEOH     H1C      HDA3B    0.080000        1.0080           0   0.00000   0.00000
     31193 MEOH     1584     MEOH     LP1A     LPD     -0.230000        0.0000           -1   0.00000   0.00000
     31194 MEOH     1584     MEOH     LP1B     LPD     -0.230000        0.0000           -1   0.00000   0.00000
     31195 MEOH     1585     MEOH     C1       CD33B    2.314100       11.6110           0   -1.00000   1.30000
     31196 MEOH     1585     MEOH     DC1      DRUD    -2.454100        0.4000           0   0.00000   0.00000
     31197 MEOH     1585     MEOH     O1       OD31H    2.488300       15.5990           0   -1.02800   1.30000
     31198 MEOH     1585     MEOH     DO1      DRUD    -2.488300        0.4000           0   0.00000   0.00000
     31199 MEOH     1585     MEOH     HO1      HDP1A    0.360000        1.0080           0   0.00000   0.00000
     31200 MEOH     1585     MEOH     HO2      DUMH     0.000000        1.0080           0   0.00000   0.00000
     31201 MEOH     1585     MEOH     H1A      HDA3B    0.080000        1.0080           0   0.00000   0.00000
     31202 MEOH     1585     MEOH     H1B      HDA3B    0.080000        1.0080           0   0.00000   0.00000
     31203 MEOH     1585     MEOH     H1C      HDA3B    0.080000        1.0080           0   0.00000   0.00000
     31204 MEOH     1585     MEOH     LP1A     LPD     -0.230000        0.0000           -1   0.00000   0.00000
     31205 MEOH     1585     MEOH     LP1B     LPD     -0.230000        0.0000           -1   0.00000   0.00000
     31206 MEOH     1586     MEOH     C1       CD33B    2.314100       11.6110           0   -1.00000   1.30000
     31207 MEOH     1586     MEOH     DC1      DRUD    -2.454100        0.4000           0   0.00000   0.00000
     31208 MEOH     1586     MEOH     O1       OD31H    2.488300       15.5990           0   -1.02800   1.30000
     31209 MEOH     1586     MEOH     DO1      DRUD    -2.488300        0.4000           0   0.00000   0.00000
     31210 MEOH     1586     MEOH     HO1      HDP1A    0.360000        1.0080           0   0.00000   0.00000
     31211 MEOH     1586     MEOH     HO2      DUMH     0.000000        1.0080           0   0.00000   0.00000
     31212 MEOH     1586     MEOH     H1A      HDA3B    0.080000        1.0080           0   0.00000   0.00000
     31213 MEOH     1586     MEOH     H1B      HDA3B    0.080000        1.0080           0   0.00000   0.00000
     31214 MEOH     1586     MEOH     H1C      HDA3B    0.080000        1.0080           0   0.00000   0.00000
     31215 MEOH     1586     MEOH     LP1A     LPD     -0.230000        0.0000           -1   0.00000   0.00000
     31216 MEOH     1586     MEOH     LP1B     LPD     -0.230000        0.0000           -1   0.00000   0.00000
     31217 MEOH     1587     MEOH     C1       CD33B    2.314100       11.6110           0   -1.00000   1.30000
     31218 MEOH     1587     MEOH     DC1      DRUD    -2.454100        0.4000           0   0.00000   0.00000
     31219 MEOH     1587     MEOH     O1       OD31H    2.488300       15.5990           0   -1.02800   1.30000
     31220 MEOH     1587     MEOH     DO1      DRUD    -2.488300        0.4000           0   0.00000   0.00000
     31221 MEOH     1587     MEOH     HO1      HDP1A    0.360000        1.0080           0   0.00000   0.00000
     31222 MEOH     1587     MEOH     HO2      DUMH     0.000000        1.0080           0   0.00000   0.00000
     31223 MEOH     1587     MEOH     H1A      HDA3B    0.080000        1.0080           0   0.00000   0.00000
     31224 MEOH     1587     MEOH     H1B      HDA3B    0.080000        1.0080           0   0.00000   0.00000
     31225 MEOH     1587     MEOH     H1C      HDA3B    0.080000        1.0080           0   0.00000   0.00000
     31226 MEOH     1587     MEOH     LP1A     LPD     -0.230000        0.0000           -1   0.00000   0.00000
     31227 MEOH     1587     MEOH     LP1B     LPD     -0.230000        0.0000           -1   0.00000   0.00000
     31228 MEOH     1588     MEOH     C1       CD33B    2.314100       11.6110           0   -1.00000   1.30000
     31229 MEOH     1588     MEOH     DC1      DRUD    -2.454100        0.4000           0   0.00000   0.00000
     31230 MEOH     1588     MEOH     O1       OD31H    2.488300       15.5990           0   -1.02800   1.30000
     31231 MEOH     1588     MEOH     DO1      DRUD    -2.488300        0.4000           0   0.00000   0.00000
     31232 MEOH     1588     MEOH     HO1      HDP1A    0.360000        1.0080           0   0.00000   0.00000
     31233 MEOH     1588     MEOH     HO2      DUMH     0.000000        1.0080           0   0.00000   0.00000
     31234 MEOH     1588     MEOH     H1A      HDA3B    0.080000        1.0080           0   0.00000   0.00000
     31235 MEOH     1588     MEOH     H1B      HDA3B    0.080000        1.0080           0   0.00000   0.00000
     31236 MEOH     1588     MEOH     H1C      HDA3B    0.080000        1.0080           0   0.00000   0.00000
     31237 MEOH     1588     MEOH     LP1A     LPD     -0.230000        0.0000           -1   0.00000   0.00000
     31238 MEOH     1588     MEOH     LP1B     LPD     -0.230000        0.0000           -1   0.00000   0.00000
     31239 MEOH     1589     MEOH     C1       CD33B    2.314100       11.6110           0   -1.00000   1.30000
     31240 MEOH     1589     MEOH     DC1      DRUD    -2.454100        0.4000           0   0.00000   0.00000
     31241 MEOH     1589     MEOH     O1       OD31H    2.488300       15.5990           0   -1.02800   1.30000
     31242 MEOH     1589     MEOH     DO1      DRUD    -2.488300        0.4000           0   0.00000   0.00000
     31243 MEOH     1589     MEOH     HO1      HDP1A    0.360000        1.0080           0   0.00000   0.00000
     31244 MEOH     1589     MEOH     HO2      DUMH     0.000000        1.0080           0   0.00000   0.00000
     31245 MEOH     1589     MEOH     H1A      HDA3B    0.080000        1.0080           0   0.00000   0.00000
     31246 MEOH     1589     MEOH     H1B      HDA3B    0.080000        1.0080           0   0.00000   0.00000
     31247 MEOH     1589     MEOH     H1C      HDA3B    0.080000        1.0080           0   0.00000   0.00000
     31248 MEOH     1589     MEOH     LP1A     LPD     -0.230000        0.0000           -1   0.00000   0.00000
     31249 MEOH     1589     MEOH     LP1B     LPD     -0.230000        0.0000           -1   0.00000   0.00000
     31250 MEOH     1590     MEOH     C1       CD33B    2.314100       11.6110           0   -1.00000   1.30000
     31251 MEOH     1590     MEOH     DC1      DRUD    -2.454100        0.4000           0   0.00000   0.00000
     31252 MEOH     1590     MEOH     O1       OD31H    2.488300       15.5990           0   -1.02800   1.30000
     31253 MEOH     1590     MEOH     DO1      DRUD    -2.488300        0.4000           0   0.00000   0.00000
     31254 MEOH     1590     MEOH     HO1      HDP1A    0.360000        1.0080           0   0.00000   0.00000
     31255 MEOH     1590     MEOH     HO2      DUMH     0.000000        1.0080           0   0.00000   0.00000
     31256 MEOH     1590     MEOH     H1A      HDA3B    0.080000        1.0080           0   0.00000   0.00000
     31257 MEOH     1590     MEOH     H1B      HDA3B    0.080000        1.0080           0   0.00000   0.00000
     31258 MEOH     1590     MEOH     H1C      HDA3B    0.080000        1.0080           0   0.00000   0.00000
     31259 MEOH     1590     MEOH     LP1A     LPD     -0.230000        0.0000           -1   0.00000   0.00000
     31260 MEOH     1590     MEOH     LP1B     LPD     -0.230000        0.0000           -1   0.00000   0.00000
     31261 MEOH     1591     MEOH     C1       CD33B    2.314100       11.6110           0   -1.00000   1.30000
     31262 MEOH     1591     MEOH     DC1      DRUD    -2.454100        0.4000           0   0.00000   0.00000
     31263 MEOH     1591     MEOH     O1       OD31H    2.488300       15.5990           0   -1.02800   1.30000
     31264 MEOH     1591     MEOH     DO1      DRUD    -2.488300        0.4000           0   0.00000   0.00000
     31265 MEOH     1591     MEOH     HO1      HDP1A    0.360000        1.0080           0   0.00000   0.00000
     31266 MEOH     1591     MEOH     HO2      DUMH     0.000000        1.0080           0   0.00000   0.00000
     31267 MEOH     1591     MEOH     H1A      HDA3B    0.080000        1.0080           0   0.00000   0.00000
     31268 MEOH     1591     MEOH     H1B      HDA3B    0.080000        1.0080           0   0.00000   0.00000
     31269 MEOH     1591     MEOH     H1C      HDA3B    0.080000        1.0080           0   0.00000   0.00000
     31270 MEOH     1591     MEOH     LP1A     LPD     -0.230000        0.0000           -1   0.00000   0.00000
     31271 MEOH     1591     MEOH     LP1B     LPD     -0.230000        0.0000           -1   0.00000   0.00000
     31272 MEOH     1592     MEOH     C1       CD33B    2.314100       11.6110           0   -1.00000   1.30000
     31273 MEOH     1592     MEOH     DC1      DRUD    -2.454100        0.4000           0   0.00000   0.00000
     31274 MEOH     1592     MEOH     O1       OD31H    2.488300       15.5990           0   -1.02800   1.30000
     31275 MEOH     1592     MEOH     DO1      DRUD    -2.488300        0.4000           0   0.00000   0.00000
     31276 MEOH     1592     MEOH     HO1      HDP1A    0.360000        1.0080           0   0.00000   0.00000
     31277 MEOH     1592     MEOH     HO2      DUMH     0.000000        1.0080           0   0.00000   0.00000
     31278 MEOH     1592     MEOH     H1A      HDA3B    0.080000        1.0080           0   0.00000   0.00000
     31279 MEOH     1592     MEOH     H1B      HDA3B    0.080000        1.0080           0   0.00000   0.00000
     31280 MEOH     1592     MEOH     H1C      HDA3B    0.080000        1.0080           0   0.00000   0.00000
     31281 MEOH     1592     MEOH     LP1A     LPD     -0.230000        0.0000           -1   0.00000   0.00000
     31282 MEOH     1592     MEOH     LP1B     LPD     -0.230000        0.0000           -1   0.00000   0.00000
     31283 MEOH     1593     MEOH     C1       CD33B    2.314100       11.6110           0   -1.00000   1.30000
     31284 MEOH     1593     MEOH     DC1      DRUD    -2.454100        0.4000           0   0.00000   0.00000
     31285 MEOH     1593     MEOH     O1       OD31H    2.488300       15.5990           0   -1.02800   1.30000
     31286 MEOH     1593     MEOH     DO1      DRUD    -2.488300        0.4000           0   0.00000   0.00000
     31287 MEOH     1593     MEOH     HO1      HDP1A    0.360000        1.0080           0   0.00000   0.00000
     31288 MEOH     1593     MEOH     HO2      DUMH     0.000000        1.0080           0   0.00000   0.00000
     31289 MEOH     1593     MEOH     H1A      HDA3B    0.080000        1.0080           0   0.00000   0.00000
     31290 MEOH     1593     MEOH     H1B      HDA3B    0.080000        1.0080           0   0.00000   0.00000
     31291 MEOH     1593     MEOH     H1C      HDA3B    0.080000        1.0080           0   0.00000   0.00000
     31292 MEOH     1593     MEOH     LP1A     LPD     -0.230000        0.0000           -1   0.00000   0.00000
     31293 MEOH     1593     MEOH     LP1B     LPD     -0.230000        0.0000           -1   0.00000   0.00000
     31294 MEOH     1594     MEOH     C1       CD33B    2.314100       11.6110           0   -1.00000   1.30000
     31295 MEOH     1594     MEOH     DC1      DRUD    -2.454100        0.4000           0   0.00000   0.00000
     31296 MEOH     1594     MEOH     O1       OD31H    2.488300       15.5990           0   -1.02800   1.30000
     31297 MEOH     1594     MEOH     DO1      DRUD    -2.488300        0.4000           0   0.00000   0.00000
     31298 MEOH     1594     MEOH     HO1      HDP1A    0.360000        1.0080           0   0.00000   0.00000
     31299 MEOH     1594     MEOH     HO2      DUMH     0.000000        1.0080           0   0.00000   0.00000
     31300 MEOH     1594     MEOH     H1A      HDA3B    0.080000        1.0080           0   0.00000   0.00000
     31301 MEOH     1594     MEOH     H1B      HDA3B    0.080000        1.0080           0   0.00000   0.00000
     31302 MEOH     1594     MEOH     H1C      HDA3B    0.080000        1.0080           0   0.00000   0.00000
     31303 MEOH     1594     MEOH     LP1A     LPD     -0.230000        0.0000           -1   0.00000   0.00000
     31304 MEOH     1594     MEOH     LP1B     LPD     -0.230000        0.0000           -1   0.00000   0.00000
     31305 MEOH     1595     MEOH     C1       CD33B    2.314100       11.6110           0   -1.00000   1.30000
     31306 MEOH     1595     MEOH     DC1      DRUD    -2.454100        0.4000           0   0.00000   0.00000
     31307 MEOH     1595     MEOH     O1       OD31H    2.488300       15.5990           0   -1.02800   1.30000
     31308 MEOH     1595     MEOH     DO1      DRUD    -2.488300        0.4000           0   0.00000   0.00000
     31309 MEOH     1595     MEOH     HO1      HDP1A    0.360000        1.0080           0   0.00000   0.00000
     31310 MEOH     1595     MEOH     HO2      DUMH     0.000000        1.0080           0   0.00000   0.00000
     31311 MEOH     1595     MEOH     H1A      HDA3B    0.080000        1.0080           0   0.00000   0.00000
     31312 MEOH     1595     MEOH     H1B      HDA3B    0.080000        1.0080           0   0.00000   0.00000
     31313 MEOH     1595     MEOH     H1C      HDA3B    0.080000        1.0080           0   0.00000   0.00000
     31314 MEOH     1595     MEOH     LP1A     LPD     -0.230000        0.0000           -1   0.00000   0.00000
     31315 MEOH     1595     MEOH     LP1B     LPD     -0.230000        0.0000           -1   0.00000   0.00000
     31316 MEOH     1596     MEOH     C1       CD33B    2.314100       11.6110           0   -1.00000   1.30000
     31317 MEOH     1596     MEOH     DC1      DRUD    -2.454100        0.4000           0   0.00000   0.00000
     31318 MEOH     1596     MEOH     O1       OD31H    2.488300       15.5990           0   -1.02800   1.30000
     31319 MEOH     1596     MEOH     DO1      DRUD    -2.488300        0.4000           0   0.00000   0.00000
     31320 MEOH     1596     MEOH     HO1      HDP1A    0.360000        1.0080           0   0.00000   0.00000
     31321 MEOH     1596     MEOH     HO2      DUMH     0.000000        1.0080           0   0.00000   0.00000
     31322 MEOH     1596     MEOH     H1A      HDA3B    0.080000        1.0080           0   0.00000   0.00000
     31323 MEOH     1596     MEOH     H1B      HDA3B    0.080000        1.0080           0   0.00000   0.00000
     31324 MEOH     1596     MEOH     H1C      HDA3B    0.080000        1.0080           0   0.00000   0.00000
     31325 MEOH     1596     MEOH     LP1A     LPD     -0.230000        0.0000           -1   0.00000   0.00000
     31326 MEOH     1596     MEOH     LP1B     LPD     -0.230000        0.0000           -1   0.00000   0.00000
     31327 MEOH     1597     MEOH     C1       CD33B    2.314100       11.6110           0   -1.00000   1.30000
     31328 MEOH     1597     MEOH     DC1      DRUD    -2.454100        0.4000           0   0.00000   0.00000
     31329 MEOH     1597     MEOH     O1       OD31H    2.488300       15.5990           0   -1.02800   1.30000
     31330 MEOH     1597     MEOH     DO1      DRUD    -2.488300        0.4000           0   0.00000   0.00000
     31331 MEOH     1597     MEOH     HO1      HDP1A    0.360000        1.0080           0   0.00000   0.00000
     31332 MEOH     1597     MEOH     HO2      DUMH     0.000000        1.0080           0   0.00000   0.00000
     31333 MEOH     1597     MEOH     H1A      HDA3B    0.080000        1.0080           0   0.00000   0.00000
     31334 MEOH     1597     MEOH     H1B      HDA3B    0.080000        1.0080           0   0.00000   0.00000
     31335 MEOH     1597     MEOH     H1C      HDA3B    0.080000        1.0080           0   0.00000   0.00000
     31336 MEOH     1597     MEOH     LP1A     LPD     -0.230000        0.0000           -1   0.00000   0.00000
     31337 MEOH     1597     MEOH     LP1B     LPD     -0.230000        0.0000           -1   0.00000   0.00000
     31338 MEOH     1598     MEOH     C1       CD33B    2.314100       11.6110           0   -1.00000   1.30000
     31339 MEOH     1598     MEOH     DC1      DRUD    -2.454100        0.4000           0   0.00000   0.00000
     31340 MEOH     1598     MEOH     O1       OD31H    2.488300       15.5990           0   -1.02800   1.30000
     31341 MEOH     1598     MEOH     DO1      DRUD    -2.488300        0.4000           0   0.00000   0.00000
     31342 MEOH     1598     MEOH     HO1      HDP1A    0.360000        1.0080           0   0.00000   0.00000
     31343 MEOH     1598     MEOH     HO2      DUMH     0.000000        1.0080           0   0.00000   0.00000
     31344 MEOH     1598     MEOH     H1A      HDA3B    0.080000        1.0080           0   0.00000   0.00000
     31345 MEOH     1598     MEOH     H1B      HDA3B    0.080000        1.0080           0   0.00000   0.00000
     31346 MEOH     1598     MEOH     H1C      HDA3B    0.080000        1.0080           0   0.00000   0.00000
     31347 MEOH     1598     MEOH     LP1A     LPD     -0.230000        0.0000           -1   0.00000   0.00000
     31348 MEOH     1598     MEOH     LP1B     LPD     -0.230000        0.0000           -1   0.00000   0.00000
     31349 MEOH     1599     MEOH     C1       CD33B    2.314100       11.6110           0   -1.00000   1.30000
     31350 MEOH     1599     MEOH     DC1      DRUD    -2.454100        0.4000           0   0.00000   0.00000
     31351 MEOH     1599     MEOH     O1       OD31H    2.488300       15.5990           0   -1.02800   1.30000
     31352 MEOH     1599     MEOH     DO1      DRUD    -2.488300        0.4000           0   0.00000   0.00000
     31353 MEOH     1599     MEOH     HO1      HDP1A    0.360000        1.0080           0   0.00000   0.00000
     31354 MEOH     1599     MEOH     HO2      DUMH     0.000000        1.0080           0   0.00000   0.00000
     31355 MEOH     1599     MEOH     H1A      HDA3B    0.080000        1.0080           0   0.00000   0.00000
     31356 MEOH     1599     MEOH     H1B      HDA3B    0.080000        1.0080           0   0.00000   0.00000
     31357 MEOH     1599     MEOH     H1C      HDA3B    0.080000        1.0080           0   0.00000   0.00000
     31358 MEOH     1599     MEOH     LP1A     LPD     -0.230000        0.0000           -1   0.00000   0.00000
     31359 MEOH     1599     MEOH     LP1B     LPD     -0.230000        0.0000           -1   0.00000   0.00000
     31360 MEOH     1600     MEOH     C1       CD33B    2.314100       11.6110           0   -1.00000   1.30000
     31361 MEOH     1600     MEOH     DC1      DRUD    -2.454100        0.4000           0   0.00000   0.00000
     31362 MEOH     1600     MEOH     O1       OD31H    2.488300       15.5990           0   -1.02800   1.30000
     31363 MEOH     1600     MEOH     DO1      DRUD    -2.488300        0.4000           0   0.00000   0.00000
     31364 MEOH     1600     MEOH     HO1      HDP1A    0.360000        1.0080           0   0.00000   0.00000
     31365 MEOH     1600     MEOH     HO2      DUMH     0.000000        1.0080           0   0.00000   0.00000
     31366 MEOH     1600     MEOH     H1A      HDA3B    0.080000        1.0080           0   0.00000   0.00000
     31367 MEOH     1600     MEOH     H1B      HDA3B    0.080000        1.0080           0   0.00000   0.00000
     31368 MEOH     1600     MEOH     H1C      HDA3B    0.080000        1.0080           0   0.00000   0.00000
     31369 MEOH     1600     MEOH     LP1A     LPD     -0.230000        0.0000           -1   0.00000   0.00000
     31370 MEOH     1600     MEOH     LP1B     LPD     -0.230000        0.0000           -1   0.00000   0.00000
     31371 MEOH     1601     MEOH     C1       CD33B    2.314100       11.6110           0   -1.00000   1.30000
     31372 MEOH     1601     MEOH     DC1      DRUD    -2.454100        0.4000           0   0.00000   0.00000
     31373 MEOH     1601     MEOH     O1       OD31H    2.488300       15.5990           0   -1.02800   1.30000
     31374 MEOH     1601     MEOH     DO1      DRUD    -2.488300        0.4000           0   0.00000   0.00000
     31375 MEOH     1601     MEOH     HO1      HDP1A    0.360000        1.0080           0   0.00000   0.00000
     31376 MEOH     1601     MEOH     HO2      DUMH     0.000000        1.0080           0   0.00000   0.00000
     31377 MEOH     1601     MEOH     H1A      HDA3B    0.080000        1.0080           0   0.00000   0.00000
     31378 MEOH     1601     MEOH     H1B      HDA3B    0.080000        1.0080           0   0.00000   0.00000
     31379 MEOH     1601     MEOH     H1C      HDA3B    0.080000        1.0080           0   0.00000   0.00000
     31380 MEOH     1601     MEOH     LP1A     LPD     -0.230000        0.0000           -1   0.00000   0.00000
     31381 MEOH     1601     MEOH     LP1B     LPD     -0.230000        0.0000           -1   0.00000   0.00000
     31382 MEOH     1602     MEOH     C1       CD33B    2.314100       11.6110           0   -1.00000   1.30000
     31383 MEOH     1602     MEOH     DC1      DRUD    -2.454100        0.4000           0   0.00000   0.00000
     31384 MEOH     1602     MEOH     O1       OD31H    2.488300       15.5990           0   -1.02800   1.30000
     31385 MEOH     1602     MEOH     DO1      DRUD    -2.488300        0.4000           0   0.00000   0.00000
     31386 MEOH     1602     MEOH     HO1      HDP1A    0.360000        1.0080           0   0.00000   0.00000
     31387 MEOH     1602     MEOH     HO2      DUMH     0.000000        1.0080           0   0.00000   0.00000
     31388 MEOH     1602     MEOH     H1A      HDA3B    0.080000        1.0080           0   0.00000   0.00000
     31389 MEOH     1602     MEOH     H1B      HDA3B    0.080000        1.0080           0   0.00000   0.00000
     31390 MEOH     1602     MEOH     H1C      HDA3B    0.080000        1.0080           0   0.00000   0.00000
     31391 MEOH     1602     MEOH     LP1A     LPD     -0.230000        0.0000           -1   0.00000   0.00000
     31392 MEOH     1602     MEOH     LP1B     LPD     -0.230000        0.0000           -1   0.00000   0.00000
     31393 MEOH     1603     MEOH     C1       CD33B    2.314100       11.6110           0   -1.00000   1.30000
     31394 MEOH     1603     MEOH     DC1      DRUD    -2.454100        0.4000           0   0.00000   0.00000
     31395 MEOH     1603     MEOH     O1       OD31H    2.488300       15.5990           0   -1.02800   1.30000
     31396 MEOH     1603     MEOH     DO1      DRUD    -2.488300        0.4000           0   0.00000   0.00000
     31397 MEOH     1603     MEOH     HO1      HDP1A    0.360000        1.0080           0   0.00000   0.00000
     31398 MEOH     1603     MEOH     HO2      DUMH     0.000000        1.0080           0   0.00000   0.00000
     31399 MEOH     1603     MEOH     H1A      HDA3B    0.080000        1.0080           0   0.00000   0.00000
     31400 MEOH     1603     MEOH     H1B      HDA3B    0.080000        1.0080           0   0.00000   0.00000
     31401 MEOH     1603     MEOH     H1C      HDA3B    0.080000        1.0080           0   0.00000   0.00000
     31402 MEOH     1603     MEOH     LP1A     LPD     -0.230000        0.0000           -1   0.00000   0.00000
     31403 MEOH     1603     MEOH     LP1B     LPD     -0.230000        0.0000           -1   0.00000   0.00000
     31404 MEOH     1604     MEOH     C1       CD33B    2.314100       11.6110           0   -1.00000   1.30000
     31405 MEOH     1604     MEOH     DC1      DRUD    -2.454100        0.4000           0   0.00000   0.00000
     31406 MEOH     1604     MEOH     O1       OD31H    2.488300       15.5990           0   -1.02800   1.30000
     31407 MEOH     1604     MEOH     DO1      DRUD    -2.488300        0.4000           0   0.00000   0.00000
     31408 MEOH     1604     MEOH     HO1      HDP1A    0.360000        1.0080           0   0.00000   0.00000
     31409 MEOH     1604     MEOH     HO2      DUMH     0.000000        1.0080           0   0.00000   0.00000
     31410 MEOH     1604     MEOH     H1A      HDA3B    0.080000        1.0080           0   0.00000   0.00000
     31411 MEOH     1604     MEOH     H1B      HDA3B    0.080000        1.0080           0   0.00000   0.00000
     31412 MEOH     1604     MEOH     H1C      HDA3B    0.080000        1.0080           0   0.00000   0.00000
     31413 MEOH     1604     MEOH     LP1A     LPD     -0.230000        0.0000           -1   0.00000   0.00000
     31414 MEOH     1604     MEOH     LP1B     LPD     -0.230000        0.0000           -1   0.00000   0.00000
     31415 MEOH     1605     MEOH     C1       CD33B    2.314100       11.6110           0   -1.00000   1.30000
     31416 MEOH     1605     MEOH     DC1      DRUD    -2.454100        0.4000           0   0.00000   0.00000
     31417 MEOH     1605     MEOH     O1       OD31H    2.488300       15.5990           0   -1.02800   1.30000
     31418 MEOH     1605     MEOH     DO1      DRUD    -2.488300        0.4000           0   0.00000   0.00000
     31419 MEOH     1605     MEOH     HO1      HDP1A    0.360000        1.0080           0   0.00000   0.00000
     31420 MEOH     1605     MEOH     HO2      DUMH     0.000000        1.0080           0   0.00000   0.00000
     31421 MEOH     1605     MEOH     H1A      HDA3B    0.080000        1.0080           0   0.00000   0.00000
     31422 MEOH     1605     MEOH     H1B      HDA3B    0.080000        1.0080           0   0.00000   0.00000
     31423 MEOH     1605     MEOH     H1C      HDA3B    0.080000        1.0080           0   0.00000   0.00000
     31424 MEOH     1605     MEOH     LP1A     LPD     -0.230000        0.0000           -1   0.00000   0.00000
     31425 MEOH     1605     MEOH     LP1B     LPD     -0.230000        0.0000           -1   0.00000   0.00000
     31426 MEOH     1606     MEOH     C1       CD33B    2.314100       11.6110           0   -1.00000   1.30000
     31427 MEOH     1606     MEOH     DC1      DRUD    -2.454100        0.4000           0   0.00000   0.00000
     31428 MEOH     1606     MEOH     O1       OD31H    2.488300       15.5990           0   -1.02800   1.30000
     31429 MEOH     1606     MEOH     DO1      DRUD    -2.488300        0.4000           0   0.00000   0.00000
     31430 MEOH     1606     MEOH     HO1      HDP1A    0.360000        1.0080           0   0.00000   0.00000
     31431 MEOH     1606     MEOH     HO2      DUMH     0.000000        1.0080           0   0.00000   0.00000
     31432 MEOH     1606     MEOH     H1A      HDA3B    0.080000        1.0080           0   0.00000   0.00000
     31433 MEOH     1606     MEOH     H1B      HDA3B    0.080000        1.0080           0   0.00000   0.00000
     31434 MEOH     1606     MEOH     H1C      HDA3B    0.080000        1.0080           0   0.00000   0.00000
     31435 MEOH     1606     MEOH     LP1A     LPD     -0.230000        0.0000           -1   0.00000   0.00000
     31436 MEOH     1606     MEOH     LP1B     LPD     -0.230000        0.0000           -1   0.00000   0.00000
     31437 MEOH     1607     MEOH     C1       CD33B    2.314100       11.6110           0   -1.00000   1.30000
     31438 MEOH     1607     MEOH     DC1      DRUD    -2.454100        0.4000           0   0.00000   0.00000
     31439 MEOH     1607     MEOH     O1       OD31H    2.488300       15.5990           0   -1.02800   1.30000
     31440 MEOH     1607     MEOH     DO1      DRUD    -2.488300        0.4000           0   0.00000   0.00000
     31441 MEOH     1607     MEOH     HO1      HDP1A    0.360000        1.0080           0   0.00000   0.00000
     31442 MEOH     1607     MEOH     HO2      DUMH     0.000000        1.0080           0   0.00000   0.00000
     31443 MEOH     1607     MEOH     H1A      HDA3B    0.080000        1.0080           0   0.00000   0.00000
     31444 MEOH     1607     MEOH     H1B      HDA3B    0.080000        1.0080           0   0.00000   0.00000
     31445 MEOH     1607     MEOH     H1C      HDA3B    0.080000        1.0080           0   0.00000   0.00000
     31446 MEOH     1607     MEOH     LP1A     LPD     -0.230000        0.0000           -1   0.00000   0.00000
     31447 MEOH     1607     MEOH     LP1B     LPD     -0.230000        0.0000           -1   0.00000   0.00000
     31448 MEOH     1608     MEOH     C1       CD33B    2.314100       11.6110           0   -1.00000   1.30000
     31449 MEOH     1608     MEOH     DC1      DRUD    -2.454100        0.4000           0   0.00000   0.00000
     31450 MEOH     1608     MEOH     O1       OD31H    2.488300       15.5990           0   -1.02800   1.30000
     31451 MEOH     1608     MEOH     DO1      DRUD    -2.488300        0.4000           0   0.00000   0.00000
     31452 MEOH     1608     MEOH     HO1      HDP1A    0.360000        1.0080           0   0.00000   0.00000
     31453 MEOH     1608     MEOH     HO2      DUMH     0.000000        1.0080           0   0.00000   0.00000
     31454 MEOH     1608     MEOH     H1A      HDA3B    0.080000        1.0080           0   0.00000   0.00000
     31455 MEOH     1608     MEOH     H1B      HDA3B    0.080000        1.0080           0   0.00000   0.00000
     31456 MEOH     1608     MEOH     H1C      HDA3B    0.080000        1.0080           0   0.00000   0.00000
     31457 MEOH     1608     MEOH     LP1A     LPD     -0.230000        0.0000           -1   0.00000   0.00000
     31458 MEOH     1608     MEOH     LP1B     LPD     -0.230000        0.0000           -1   0.00000   0.00000
     31459 MEOH     1609     MEOH     C1       CD33B    2.314100       11.6110           0   -1.00000   1.30000
     31460 MEOH     1609     MEOH     DC1      DRUD    -2.454100        0.4000           0   0.00000   0.00000
     31461 MEOH     1609     MEOH     O1       OD31H    2.488300       15.5990           0   -1.02800   1.30000
     31462 MEOH     1609     MEOH     DO1      DRUD    -2.488300        0.4000           0   0.00000   0.00000
     31463 MEOH     1609     MEOH     HO1      HDP1A    0.360000        1.0080           0   0.00000   0.00000
     31464 MEOH     1609     MEOH     HO2      DUMH     0.000000        1.0080           0   0.00000   0.00000
     31465 MEOH     1609     MEOH     H1A      HDA3B    0.080000        1.0080           0   0.00000   0.00000
     31466 MEOH     1609     MEOH     H1B      HDA3B    0.080000        1.0080           0   0.00000   0.00000
     31467 MEOH     1609     MEOH     H1C      HDA3B    0.080000        1.0080           0   0.00000   0.00000
     31468 MEOH     1609     MEOH     LP1A     LPD     -0.230000        0.0000           -1   0.00000   0.00000
     31469 MEOH     1609     MEOH     LP1B     LPD     -0.230000        0.0000           -1   0.00000   0.00000
     31470 MEOH     1610     MEOH     C1       CD33B    2.314100       11.6110           0   -1.00000   1.30000
     31471 MEOH     1610     MEOH     DC1      DRUD    -2.454100        0.4000           0   0.00000   0.00000
     31472 MEOH     1610     MEOH     O1       OD31H    2.488300       15.5990           0   -1.02800   1.30000
     31473 MEOH     1610     MEOH     DO1      DRUD    -2.488300        0.4000           0   0.00000   0.00000
     31474 MEOH     1610     MEOH     HO1      HDP1A    0.360000        1.0080           0   0.00000   0.00000
     31475 MEOH     1610     MEOH     HO2      DUMH     0.000000        1.0080           0   0.00000   0.00000
     31476 MEOH     1610     MEOH     H1A      HDA3B    0.080000        1.0080           0   0.00000   0.00000
     31477 MEOH     1610     MEOH     H1B      HDA3B    0.080000        1.0080           0   0.00000   0.00000
     31478 MEOH     1610     MEOH     H1C      HDA3B    0.080000        1.0080           0   0.00000   0.00000
     31479 MEOH     1610     MEOH     LP1A     LPD     -0.230000        0.0000           -1   0.00000   0.00000
     31480 MEOH     1610     MEOH     LP1B     LPD     -0.230000        0.0000           -1   0.00000   0.00000
     31481 MEOH     1611     MEOH     C1       CD33B    2.314100       11.6110           0   -1.00000   1.30000
     31482 MEOH     1611     MEOH     DC1      DRUD    -2.454100        0.4000           0   0.00000   0.00000
     31483 MEOH     1611     MEOH     O1       OD31H    2.488300       15.5990           0   -1.02800   1.30000
     31484 MEOH     1611     MEOH     DO1      DRUD    -2.488300        0.4000           0   0.00000   0.00000
     31485 MEOH     1611     MEOH     HO1      HDP1A    0.360000        1.0080           0   0.00000   0.00000
     31486 MEOH     1611     MEOH     HO2      DUMH     0.000000        1.0080           0   0.00000   0.00000
     31487 MEOH     1611     MEOH     H1A      HDA3B    0.080000        1.0080           0   0.00000   0.00000
     31488 MEOH     1611     MEOH     H1B      HDA3B    0.080000        1.0080           0   0.00000   0.00000
     31489 MEOH     1611     MEOH     H1C      HDA3B    0.080000        1.0080           0   0.00000   0.00000
     31490 MEOH     1611     MEOH     LP1A     LPD     -0.230000        0.0000           -1   0.00000   0.00000
     31491 MEOH     1611     MEOH     LP1B     LPD     -0.230000        0.0000           -1   0.00000   0.00000
     31492 MEOH     1612     MEOH     C1       CD33B    2.314100       11.6110           0   -1.00000   1.30000
     31493 MEOH     1612     MEOH     DC1      DRUD    -2.454100        0.4000           0   0.00000   0.00000
     31494 MEOH     1612     MEOH     O1       OD31H    2.488300       15.5990           0   -1.02800   1.30000
     31495 MEOH     1612     MEOH     DO1      DRUD    -2.488300        0.4000           0   0.00000   0.00000
     31496 MEOH     1612     MEOH     HO1      HDP1A    0.360000        1.0080           0   0.00000   0.00000
     31497 MEOH     1612     MEOH     HO2      DUMH     0.000000        1.0080           0   0.00000   0.00000
     31498 MEOH     1612     MEOH     H1A      HDA3B    0.080000        1.0080           0   0.00000   0.00000
     31499 MEOH     1612     MEOH     H1B      HDA3B    0.080000        1.0080           0   0.00000   0.00000
     31500 MEOH     1612     MEOH     H1C      HDA3B    0.080000        1.0080           0   0.00000   0.00000
     31501 MEOH     1612     MEOH     LP1A     LPD     -0.230000        0.0000           -1   0.00000   0.00000
     31502 MEOH     1612     MEOH     LP1B     LPD     -0.230000        0.0000           -1   0.00000   0.00000
     31503 MEOH     1613     MEOH     C1       CD33B    2.314100       11.6110           0   -1.00000   1.30000
     31504 MEOH     1613     MEOH     DC1      DRUD    -2.454100        0.4000           0   0.00000   0.00000
     31505 MEOH     1613     MEOH     O1       OD31H    2.488300       15.5990           0   -1.02800   1.30000
     31506 MEOH     1613     MEOH     DO1      DRUD    -2.488300        0.4000           0   0.00000   0.00000
     31507 MEOH     1613     MEOH     HO1      HDP1A    0.360000        1.0080           0   0.00000   0.00000
     31508 MEOH     1613     MEOH     HO2      DUMH     0.000000        1.0080           0   0.00000   0.00000
     31509 MEOH     1613     MEOH     H1A      HDA3B    0.080000        1.0080           0   0.00000   0.00000
     31510 MEOH     1613     MEOH     H1B      HDA3B    0.080000        1.0080           0   0.00000   0.00000
     31511 MEOH     1613     MEOH     H1C      HDA3B    0.080000        1.0080           0   0.00000   0.00000
     31512 MEOH     1613     MEOH     LP1A     LPD     -0.230000        0.0000           -1   0.00000   0.00000
     31513 MEOH     1613     MEOH     LP1B     LPD     -0.230000        0.0000           -1   0.00000   0.00000
     31514 MEOH     1614     MEOH     C1       CD33B    2.314100       11.6110           0   -1.00000   1.30000
     31515 MEOH     1614     MEOH     DC1      DRUD    -2.454100        0.4000           0   0.00000   0.00000
     31516 MEOH     1614     MEOH     O1       OD31H    2.488300       15.5990           0   -1.02800   1.30000
     31517 MEOH     1614     MEOH     DO1      DRUD    -2.488300        0.4000           0   0.00000   0.00000
     31518 MEOH     1614     MEOH     HO1      HDP1A    0.360000        1.0080           0   0.00000   0.00000
     31519 MEOH     1614     MEOH     HO2      DUMH     0.000000        1.0080           0   0.00000   0.00000
     31520 MEOH     1614     MEOH     H1A      HDA3B    0.080000        1.0080           0   0.00000   0.00000
     31521 MEOH     1614     MEOH     H1B      HDA3B    0.080000        1.0080           0   0.00000   0.00000
     31522 MEOH     1614     MEOH     H1C      HDA3B    0.080000        1.0080           0   0.00000   0.00000
     31523 MEOH     1614     MEOH     LP1A     LPD     -0.230000        0.0000           -1   0.00000   0.00000
     31524 MEOH     1614     MEOH     LP1B     LPD     -0.230000        0.0000           -1   0.00000   0.00000
     31525 MEOH     1615     MEOH     C1       CD33B    2.314100       11.6110           0   -1.00000   1.30000
     31526 MEOH     1615     MEOH     DC1      DRUD    -2.454100        0.4000           0   0.00000   0.00000
     31527 MEOH     1615     MEOH     O1       OD31H    2.488300       15.5990           0   -1.02800   1.30000
     31528 MEOH     1615     MEOH     DO1      DRUD    -2.488300        0.4000           0   0.00000   0.00000
     31529 MEOH     1615     MEOH     HO1      HDP1A    0.360000        1.0080           0   0.00000   0.00000
     31530 MEOH     1615     MEOH     HO2      DUMH     0.000000        1.0080           0   0.00000   0.00000
     31531 MEOH     1615     MEOH     H1A      HDA3B    0.080000        1.0080           0   0.00000   0.00000
     31532 MEOH     1615     MEOH     H1B      HDA3B    0.080000        1.0080           0   0.00000   0.00000
     31533 MEOH     1615     MEOH     H1C      HDA3B    0.080000        1.0080           0   0.00000   0.00000
     31534 MEOH     1615     MEOH     LP1A     LPD     -0.230000        0.0000           -1   0.00000   0.00000
     31535 MEOH     1615     MEOH     LP1B     LPD     -0.230000        0.0000           -1   0.00000   0.00000
     31536 MEOH     1616     MEOH     C1       CD33B    2.314100       11.6110           0   -1.00000   1.30000
     31537 MEOH     1616     MEOH     DC1      DRUD    -2.454100        0.4000           0   0.00000   0.00000
     31538 MEOH     1616     MEOH     O1       OD31H    2.488300       15.5990           0   -1.02800   1.30000
     31539 MEOH     1616     MEOH     DO1      DRUD    -2.488300        0.4000           0   0.00000   0.00000
     31540 MEOH     1616     MEOH     HO1      HDP1A    0.360000        1.0080           0   0.00000   0.00000
     31541 MEOH     1616     MEOH     HO2      DUMH     0.000000        1.0080           0   0.00000   0.00000
     31542 MEOH     1616     MEOH     H1A      HDA3B    0.080000        1.0080           0   0.00000   0.00000
     31543 MEOH     1616     MEOH     H1B      HDA3B    0.080000        1.0080           0   0.00000   0.00000
     31544 MEOH     1616     MEOH     H1C      HDA3B    0.080000        1.0080           0   0.00000   0.00000
     31545 MEOH     1616     MEOH     LP1A     LPD     -0.230000        0.0000           -1   0.00000   0.00000
     31546 MEOH     1616     MEOH     LP1B     LPD     -0.230000        0.0000           -1   0.00000   0.00000
     31547 MEOH     1617     MEOH     C1       CD33B    2.314100       11.6110           0   -1.00000   1.30000
     31548 MEOH     1617     MEOH     DC1      DRUD    -2.454100        0.4000           0   0.00000   0.00000
     31549 MEOH     1617     MEOH     O1       OD31H    2.488300       15.5990           0   -1.02800   1.30000
     31550 MEOH     1617     MEOH     DO1      DRUD    -2.488300        0.4000           0   0.00000   0.00000
     31551 MEOH     1617     MEOH     HO1      HDP1A    0.360000        1.0080           0   0.00000   0.00000
     31552 MEOH     1617     MEOH     HO2      DUMH     0.000000        1.0080           0   0.00000   0.00000
     31553 MEOH     1617     MEOH     H1A      HDA3B    0.080000        1.0080           0   0.00000   0.00000
     31554 MEOH     1617     MEOH     H1B      HDA3B    0.080000        1.0080           0   0.00000   0.00000
     31555 MEOH     1617     MEOH     H1C      HDA3B    0.080000        1.0080           0   0.00000   0.00000
     31556 MEOH     1617     MEOH     LP1A     LPD     -0.230000        0.0000           -1   0.00000   0.00000
     31557 MEOH     1617     MEOH     LP1B     LPD     -0.230000        0.0000           -1   0.00000   0.00000
     31558 MEOH     1618     MEOH     C1       CD33B    2.314100       11.6110           0   -1.00000   1.30000
     31559 MEOH     1618     MEOH     DC1      DRUD    -2.454100        0.4000           0   0.00000   0.00000
     31560 MEOH     1618     MEOH     O1       OD31H    2.488300       15.5990           0   -1.02800   1.30000
     31561 MEOH     1618     MEOH     DO1      DRUD    -2.488300        0.4000           0   0.00000   0.00000
     31562 MEOH     1618     MEOH     HO1      HDP1A    0.360000        1.0080           0   0.00000   0.00000
     31563 MEOH     1618     MEOH     HO2      DUMH     0.000000        1.0080           0   0.00000   0.00000
     31564 MEOH     1618     MEOH     H1A      HDA3B    0.080000        1.0080           0   0.00000   0.00000
     31565 MEOH     1618     MEOH     H1B      HDA3B    0.080000        1.0080           0   0.00000   0.00000
     31566 MEOH     1618     MEOH     H1C      HDA3B    0.080000        1.0080           0   0.00000   0.00000
     31567 MEOH     1618     MEOH     LP1A     LPD     -0.230000        0.0000           -1   0.00000   0.00000
     31568 MEOH     1618     MEOH     LP1B     LPD     -0.230000        0.0000           -1   0.00000   0.00000
     31569 MEOH     1619     MEOH     C1       CD33B    2.314100       11.6110           0   -1.00000   1.30000
     31570 MEOH     1619     MEOH     DC1      DRUD    -2.454100        0.4000           0   0.00000   0.00000
     31571 MEOH     1619     MEOH     O1       OD31H    2.488300       15.5990           0   -1.02800   1.30000
     31572 MEOH     1619     MEOH     DO1      DRUD    -2.488300        0.4000           0   0.00000   0.00000
     31573 MEOH     1619     MEOH     HO1      HDP1A    0.360000        1.0080           0   0.00000   0.00000
     31574 MEOH     1619     MEOH     HO2      DUMH     0.000000        1.0080           0   0.00000   0.00000
     31575 MEOH     1619     MEOH     H1A      HDA3B    0.080000        1.0080           0   0.00000   0.00000
     31576 MEOH     1619     MEOH     H1B      HDA3B    0.080000        1.0080           0   0.00000   0.00000
     31577 MEOH     1619     MEOH     H1C      HDA3B    0.080000        1.0080           0   0.00000   0.00000
     31578 MEOH     1619     MEOH     LP1A     LPD     -0.230000        0.0000           -1   0.00000   0.00000
     31579 MEOH     1619     MEOH     LP1B     LPD     -0.230000        0.0000           -1   0.00000   0.00000
     31580 MEOH     1620     MEOH     C1       CD33B    2.314100       11.6110           0   -1.00000   1.30000
     31581 MEOH     1620     MEOH     DC1      DRUD    -2.454100        0.4000           0   0.00000   0.00000
     31582 MEOH     1620     MEOH     O1       OD31H    2.488300       15.5990           0   -1.02800   1.30000
     31583 MEOH     1620     MEOH     DO1      DRUD    -2.488300        0.4000           0   0.00000   0.00000
     31584 MEOH     1620     MEOH     HO1      HDP1A    0.360000        1.0080           0   0.00000   0.00000
     31585 MEOH     1620     MEOH     HO2      DUMH     0.000000        1.0080           0   0.00000   0.00000
     31586 MEOH     1620     MEOH     H1A      HDA3B    0.080000        1.0080           0   0.00000   0.00000
     31587 MEOH     1620     MEOH     H1B      HDA3B    0.080000        1.0080           0   0.00000   0.00000
     31588 MEOH     1620     MEOH     H1C      HDA3B    0.080000        1.0080           0   0.00000   0.00000
     31589 MEOH     1620     MEOH     LP1A     LPD     -0.230000        0.0000           -1   0.00000   0.00000
     31590 MEOH     1620     MEOH     LP1B     LPD     -0.230000        0.0000           -1   0.00000   0.00000
     31591 MEOH     1621     MEOH     C1       CD33B    2.314100       11.6110           0   -1.00000   1.30000
     31592 MEOH     1621     MEOH     DC1      DRUD    -2.454100        0.4000           0   0.00000   0.00000
     31593 MEOH     1621     MEOH     O1       OD31H    2.488300       15.5990           0   -1.02800   1.30000
     31594 MEOH     1621     MEOH     DO1      DRUD    -2.488300        0.4000           0   0.00000   0.00000
     31595 MEOH     1621     MEOH     HO1      HDP1A    0.360000        1.0080           0   0.00000   0.00000
     31596 MEOH     1621     MEOH     HO2      DUMH     0.000000        1.0080           0   0.00000   0.00000
     31597 MEOH     1621     MEOH     H1A      HDA3B    0.080000        1.0080           0   0.00000   0.00000
     31598 MEOH     1621     MEOH     H1B      HDA3B    0.080000        1.0080           0   0.00000   0.00000
     31599 MEOH     1621     MEOH     H1C      HDA3B    0.080000        1.0080           0   0.00000   0.00000
     31600 MEOH     1621     MEOH     LP1A     LPD     -0.230000        0.0000           -1   0.00000   0.00000
     31601 MEOH     1621     MEOH     LP1B     LPD     -0.230000        0.0000           -1   0.00000   0.00000
     31602 MEOH     1622     MEOH     C1       CD33B    2.314100       11.6110           0   -1.00000   1.30000
     31603 MEOH     1622     MEOH     DC1      DRUD    -2.454100        0.4000           0   0.00000   0.00000
     31604 MEOH     1622     MEOH     O1       OD31H    2.488300       15.5990           0   -1.02800   1.30000
     31605 MEOH     1622     MEOH     DO1      DRUD    -2.488300        0.4000           0   0.00000   0.00000
     31606 MEOH     1622     MEOH     HO1      HDP1A    0.360000        1.0080           0   0.00000   0.00000
     31607 MEOH     1622     MEOH     HO2      DUMH     0.000000        1.0080           0   0.00000   0.00000
     31608 MEOH     1622     MEOH     H1A      HDA3B    0.080000        1.0080           0   0.00000   0.00000
     31609 MEOH     1622     MEOH     H1B      HDA3B    0.080000        1.0080           0   0.00000   0.00000
     31610 MEOH     1622     MEOH     H1C      HDA3B    0.080000        1.0080           0   0.00000   0.00000
     31611 MEOH     1622     MEOH     LP1A     LPD     -0.230000        0.0000           -1   0.00000   0.00000
     31612 MEOH     1622     MEOH     LP1B     LPD     -0.230000        0.0000           -1   0.00000   0.00000
     31613 MEOH     1623     MEOH     C1       CD33B    2.314100       11.6110           0   -1.00000   1.30000
     31614 MEOH     1623     MEOH     DC1      DRUD    -2.454100        0.4000           0   0.00000   0.00000
     31615 MEOH     1623     MEOH     O1       OD31H    2.488300       15.5990           0   -1.02800   1.30000
     31616 MEOH     1623     MEOH     DO1      DRUD    -2.488300        0.4000           0   0.00000   0.00000
     31617 MEOH     1623     MEOH     HO1      HDP1A    0.360000        1.0080           0   0.00000   0.00000
     31618 MEOH     1623     MEOH     HO2      DUMH     0.000000        1.0080           0   0.00000   0.00000
     31619 MEOH     1623     MEOH     H1A      HDA3B    0.080000        1.0080           0   0.00000   0.00000
     31620 MEOH     1623     MEOH     H1B      HDA3B    0.080000        1.0080           0   0.00000   0.00000
     31621 MEOH     1623     MEOH     H1C      HDA3B    0.080000        1.0080           0   0.00000   0.00000
     31622 MEOH     1623     MEOH     LP1A     LPD     -0.230000        0.0000           -1   0.00000   0.00000
     31623 MEOH     1623     MEOH     LP1B     LPD     -0.230000        0.0000           -1   0.00000   0.00000
     31624 MEOH     1624     MEOH     C1       CD33B    2.314100       11.6110           0   -1.00000   1.30000
     31625 MEOH     1624     MEOH     DC1      DRUD    -2.454100        0.4000           0   0.00000   0.00000
     31626 MEOH     1624     MEOH     O1       OD31H    2.488300       15.5990           0   -1.02800   1.30000
     31627 MEOH     1624     MEOH     DO1      DRUD    -2.488300        0.4000           0   0.00000   0.00000
     31628 MEOH     1624     MEOH     HO1      HDP1A    0.360000        1.0080           0   0.00000   0.00000
     31629 MEOH     1624     MEOH     HO2      DUMH     0.000000        1.0080           0   0.00000   0.00000
     31630 MEOH     1624     MEOH     H1A      HDA3B    0.080000        1.0080           0   0.00000   0.00000
     31631 MEOH     1624     MEOH     H1B      HDA3B    0.080000        1.0080           0   0.00000   0.00000
     31632 MEOH     1624     MEOH     H1C      HDA3B    0.080000        1.0080           0   0.00000   0.00000
     31633 MEOH     1624     MEOH     LP1A     LPD     -0.230000        0.0000           -1   0.00000   0.00000
     31634 MEOH     1624     MEOH     LP1B     LPD     -0.230000        0.0000           -1   0.00000   0.00000
     31635 MEOH     1625     MEOH     C1       CD33B    2.314100       11.6110           0   -1.00000   1.30000
     31636 MEOH     1625     MEOH     DC1      DRUD    -2.454100        0.4000           0   0.00000   0.00000
     31637 MEOH     1625     MEOH     O1       OD31H    2.488300       15.5990           0   -1.02800   1.30000
     31638 MEOH     1625     MEOH     DO1      DRUD    -2.488300        0.4000           0   0.00000   0.00000
     31639 MEOH     1625     MEOH     HO1      HDP1A    0.360000        1.0080           0   0.00000   0.00000
     31640 MEOH     1625     MEOH     HO2      DUMH     0.000000        1.0080           0   0.00000   0.00000
     31641 MEOH     1625     MEOH     H1A      HDA3B    0.080000        1.0080           0   0.00000   0.00000
     31642 MEOH     1625     MEOH     H1B      HDA3B    0.080000        1.0080           0   0.00000   0.00000
     31643 MEOH     1625     MEOH     H1C      HDA3B    0.080000        1.0080           0   0.00000   0.00000
     31644 MEOH     1625     MEOH     LP1A     LPD     -0.230000        0.0000           -1   0.00000   0.00000
     31645 MEOH     1625     MEOH     LP1B     LPD     -0.230000        0.0000           -1   0.00000   0.00000
     31646 MEOH     1626     MEOH     C1       CD33B    2.314100       11.6110           0   -1.00000   1.30000
     31647 MEOH     1626     MEOH     DC1      DRUD    -2.454100        0.4000           0   0.00000   0.00000
     31648 MEOH     1626     MEOH     O1       OD31H    2.488300       15.5990           0   -1.02800   1.30000
     31649 MEOH     1626     MEOH     DO1      DRUD    -2.488300        0.4000           0   0.00000   0.00000
     31650 MEOH     1626     MEOH     HO1      HDP1A    0.360000        1.0080           0   0.00000   0.00000
     31651 MEOH     1626     MEOH     HO2      DUMH     0.000000        1.0080           0   0.00000   0.00000
     31652 MEOH     1626     MEOH     H1A      HDA3B    0.080000        1.0080           0   0.00000   0.00000
     31653 MEOH     1626     MEOH     H1B      HDA3B    0.080000        1.0080           0   0.00000   0.00000
     31654 MEOH     1626     MEOH     H1C      HDA3B    0.080000        1.0080           0   0.00000   0.00000
     31655 MEOH     1626     MEOH     LP1A     LPD     -0.230000        0.0000           -1   0.00000   0.00000
     31656 MEOH     1626     MEOH     LP1B     LPD     -0.230000        0.0000           -1   0.00000   0.00000
     31657 MEOH     1627     MEOH     C1       CD33B    2.314100       11.6110           0   -1.00000   1.30000
     31658 MEOH     1627     MEOH     DC1      DRUD    -2.454100        0.4000           0   0.00000   0.00000
     31659 MEOH     1627     MEOH     O1       OD31H    2.488300       15.5990           0   -1.02800   1.30000
     31660 MEOH     1627     MEOH     DO1      DRUD    -2.488300        0.4000           0   0.00000   0.00000
     31661 MEOH     1627     MEOH     HO1      HDP1A    0.360000        1.0080           0   0.00000   0.00000
     31662 MEOH     1627     MEOH     HO2      DUMH     0.000000        1.0080           0   0.00000   0.00000
     31663 MEOH     1627     MEOH     H1A      HDA3B    0.080000        1.0080           0   0.00000   0.00000
     31664 MEOH     1627     MEOH     H1B      HDA3B    0.080000        1.0080           0   0.00000   0.00000
     31665 MEOH     1627     MEOH     H1C      HDA3B    0.080000        1.0080           0   0.00000   0.00000
     31666 MEOH     1627     MEOH     LP1A     LPD     -0.230000        0.0000           -1   0.00000   0.00000
     31667 MEOH     1627     MEOH     LP1B     LPD     -0.230000        0.0000           -1   0.00000   0.00000
     31668 MEOH     1628     MEOH     C1       CD33B    2.314100       11.6110           0   -1.00000   1.30000
     31669 MEOH     1628     MEOH     DC1      DRUD    -2.454100        0.4000           0   0.00000   0.00000
     31670 MEOH     1628     MEOH     O1       OD31H    2.488300       15.5990           0   -1.02800   1.30000
     31671 MEOH     1628     MEOH     DO1      DRUD    -2.488300        0.4000           0   0.00000   0.00000
     31672 MEOH     1628     MEOH     HO1      HDP1A    0.360000        1.0080           0   0.00000   0.00000
     31673 MEOH     1628     MEOH     HO2      DUMH     0.000000        1.0080           0   0.00000   0.00000
     31674 MEOH     1628     MEOH     H1A      HDA3B    0.080000        1.0080           0   0.00000   0.00000
     31675 MEOH     1628     MEOH     H1B      HDA3B    0.080000        1.0080           0   0.00000   0.00000
     31676 MEOH     1628     MEOH     H1C      HDA3B    0.080000        1.0080           0   0.00000   0.00000
     31677 MEOH     1628     MEOH     LP1A     LPD     -0.230000        0.0000           -1   0.00000   0.00000
     31678 MEOH     1628     MEOH     LP1B     LPD     -0.230000        0.0000           -1   0.00000   0.00000
     31679 MEOH     1629     MEOH     C1       CD33B    2.314100       11.6110           0   -1.00000   1.30000
     31680 MEOH     1629     MEOH     DC1      DRUD    -2.454100        0.4000           0   0.00000   0.00000
     31681 MEOH     1629     MEOH     O1       OD31H    2.488300       15.5990           0   -1.02800   1.30000
     31682 MEOH     1629     MEOH     DO1      DRUD    -2.488300        0.4000           0   0.00000   0.00000
     31683 MEOH     1629     MEOH     HO1      HDP1A    0.360000        1.0080           0   0.00000   0.00000
     31684 MEOH     1629     MEOH     HO2      DUMH     0.000000        1.0080           0   0.00000   0.00000
     31685 MEOH     1629     MEOH     H1A      HDA3B    0.080000        1.0080           0   0.00000   0.00000
     31686 MEOH     1629     MEOH     H1B      HDA3B    0.080000        1.0080           0   0.00000   0.00000
     31687 MEOH     1629     MEOH     H1C      HDA3B    0.080000        1.0080           0   0.00000   0.00000
     31688 MEOH     1629     MEOH     LP1A     LPD     -0.230000        0.0000           -1   0.00000   0.00000
     31689 MEOH     1629     MEOH     LP1B     LPD     -0.230000        0.0000           -1   0.00000   0.00000
     31690 MEOH     1630     MEOH     C1       CD33B    2.314100       11.6110           0   -1.00000   1.30000
     31691 MEOH     1630     MEOH     DC1      DRUD    -2.454100        0.4000           0   0.00000   0.00000
     31692 MEOH     1630     MEOH     O1       OD31H    2.488300       15.5990           0   -1.02800   1.30000
     31693 MEOH     1630     MEOH     DO1      DRUD    -2.488300        0.4000           0   0.00000   0.00000
     31694 MEOH     1630     MEOH     HO1      HDP1A    0.360000        1.0080           0   0.00000   0.00000
     31695 MEOH     1630     MEOH     HO2      DUMH     0.000000        1.0080           0   0.00000   0.00000
     31696 MEOH     1630     MEOH     H1A      HDA3B    0.080000        1.0080           0   0.00000   0.00000
     31697 MEOH     1630     MEOH     H1B      HDA3B    0.080000        1.0080           0   0.00000   0.00000
     31698 MEOH     1630     MEOH     H1C      HDA3B    0.080000        1.0080           0   0.00000   0.00000
     31699 MEOH     1630     MEOH     LP1A     LPD     -0.230000        0.0000           -1   0.00000   0.00000
     31700 MEOH     1630     MEOH     LP1B     LPD     -0.230000        0.0000           -1   0.00000   0.00000
     31701 MEOH     1631     MEOH     C1       CD33B    2.314100       11.6110           0   -1.00000   1.30000
     31702 MEOH     1631     MEOH     DC1      DRUD    -2.454100        0.4000           0   0.00000   0.00000
     31703 MEOH     1631     MEOH     O1       OD31H    2.488300       15.5990           0   -1.02800   1.30000
     31704 MEOH     1631     MEOH     DO1      DRUD    -2.488300        0.4000           0   0.00000   0.00000
     31705 MEOH     1631     MEOH     HO1      HDP1A    0.360000        1.0080           0   0.00000   0.00000
     31706 MEOH     1631     MEOH     HO2      DUMH     0.000000        1.0080           0   0.00000   0.00000
     31707 MEOH     1631     MEOH     H1A      HDA3B    0.080000        1.0080           0   0.00000   0.00000
     31708 MEOH     1631     MEOH     H1B      HDA3B    0.080000        1.0080           0   0.00000   0.00000
     31709 MEOH     1631     MEOH     H1C      HDA3B    0.080000        1.0080           0   0.00000   0.00000
     31710 MEOH     1631     MEOH     LP1A     LPD     -0.230000        0.0000           -1   0.00000   0.00000
     31711 MEOH     1631     MEOH     LP1B     LPD     -0.230000        0.0000           -1   0.00000   0.00000
     31712 MEOH     1632     MEOH     C1       CD33B    2.314100       11.6110           0   -1.00000   1.30000
     31713 MEOH     1632     MEOH     DC1      DRUD    -2.454100        0.4000           0   0.00000   0.00000
     31714 MEOH     1632     MEOH     O1       OD31H    2.488300       15.5990           0   -1.02800   1.30000
     31715 MEOH     1632     MEOH     DO1      DRUD    -2.488300        0.4000           0   0.00000   0.00000
     31716 MEOH     1632     MEOH     HO1      HDP1A    0.360000        1.0080           0   0.00000   0.00000
     31717 MEOH     1632     MEOH     HO2      DUMH     0.000000        1.0080           0   0.00000   0.00000
     31718 MEOH     1632     MEOH     H1A      HDA3B    0.080000        1.0080           0   0.00000   0.00000
     31719 MEOH     1632     MEOH     H1B      HDA3B    0.080000        1.0080           0   0.00000   0.00000
     31720 MEOH     1632     MEOH     H1C      HDA3B    0.080000        1.0080           0   0.00000   0.00000
     31721 MEOH     1632     MEOH     LP1A     LPD     -0.230000        0.0000           -1   0.00000   0.00000
     31722 MEOH     1632     MEOH     LP1B     LPD     -0.230000        0.0000           -1   0.00000   0.00000
     31723 MEOH     1633     MEOH     C1       CD33B    2.314100       11.6110           0   -1.00000   1.30000
     31724 MEOH     1633     MEOH     DC1      DRUD    -2.454100        0.4000           0   0.00000   0.00000
     31725 MEOH     1633     MEOH     O1       OD31H    2.488300       15.5990           0   -1.02800   1.30000
     31726 MEOH     1633     MEOH     DO1      DRUD    -2.488300        0.4000           0   0.00000   0.00000
     31727 MEOH     1633     MEOH     HO1      HDP1A    0.360000        1.0080           0   0.00000   0.00000
     31728 MEOH     1633     MEOH     HO2      DUMH     0.000000        1.0080           0   0.00000   0.00000
     31729 MEOH     1633     MEOH     H1A      HDA3B    0.080000        1.0080           0   0.00000   0.00000
     31730 MEOH     1633     MEOH     H1B      HDA3B    0.080000        1.0080           0   0.00000   0.00000
     31731 MEOH     1633     MEOH     H1C      HDA3B    0.080000        1.0080           0   0.00000   0.00000
     31732 MEOH     1633     MEOH     LP1A     LPD     -0.230000        0.0000           -1   0.00000   0.00000
     31733 MEOH     1633     MEOH     LP1B     LPD     -0.230000        0.0000           -1   0.00000   0.00000
     31734 MEOH     1634     MEOH     C1       CD33B    2.314100       11.6110           0   -1.00000   1.30000
     31735 MEOH     1634     MEOH     DC1      DRUD    -2.454100        0.4000           0   0.00000   0.00000
     31736 MEOH     1634     MEOH     O1       OD31H    2.488300       15.5990           0   -1.02800   1.30000
     31737 MEOH     1634     MEOH     DO1      DRUD    -2.488300        0.4000           0   0.00000   0.00000
     31738 MEOH     1634     MEOH     HO1      HDP1A    0.360000        1.0080           0   0.00000   0.00000
     31739 MEOH     1634     MEOH     HO2      DUMH     0.000000        1.0080           0   0.00000   0.00000
     31740 MEOH     1634     MEOH     H1A      HDA3B    0.080000        1.0080           0   0.00000   0.00000
     31741 MEOH     1634     MEOH     H1B      HDA3B    0.080000        1.0080           0   0.00000   0.00000
     31742 MEOH     1634     MEOH     H1C      HDA3B    0.080000        1.0080           0   0.00000   0.00000
     31743 MEOH     1634     MEOH     LP1A     LPD     -0.230000        0.0000           -1   0.00000   0.00000
     31744 MEOH     1634     MEOH     LP1B     LPD     -0.230000        0.0000           -1   0.00000   0.00000
     31745 MEOH     1635     MEOH     C1       CD33B    2.314100       11.6110           0   -1.00000   1.30000
     31746 MEOH     1635     MEOH     DC1      DRUD    -2.454100        0.4000           0   0.00000   0.00000
     31747 MEOH     1635     MEOH     O1       OD31H    2.488300       15.5990           0   -1.02800   1.30000
     31748 MEOH     1635     MEOH     DO1      DRUD    -2.488300        0.4000           0   0.00000   0.00000
     31749 MEOH     1635     MEOH     HO1      HDP1A    0.360000        1.0080           0   0.00000   0.00000
     31750 MEOH     1635     MEOH     HO2      DUMH     0.000000        1.0080           0   0.00000   0.00000
     31751 MEOH     1635     MEOH     H1A      HDA3B    0.080000        1.0080           0   0.00000   0.00000
     31752 MEOH     1635     MEOH     H1B      HDA3B    0.080000        1.0080           0   0.00000   0.00000
     31753 MEOH     1635     MEOH     H1C      HDA3B    0.080000        1.0080           0   0.00000   0.00000
     31754 MEOH     1635     MEOH     LP1A     LPD     -0.230000        0.0000           -1   0.00000   0.00000
     31755 MEOH     1635     MEOH     LP1B     LPD     -0.230000        0.0000           -1   0.00000   0.00000
     31756 MEOH     1636     MEOH     C1       CD33B    2.314100       11.6110           0   -1.00000   1.30000
     31757 MEOH     1636     MEOH     DC1      DRUD    -2.454100        0.4000           0   0.00000   0.00000
     31758 MEOH     1636     MEOH     O1       OD31H    2.488300       15.5990           0   -1.02800   1.30000
     31759 MEOH     1636     MEOH     DO1      DRUD    -2.488300        0.4000           0   0.00000   0.00000
     31760 MEOH     1636     MEOH     HO1      HDP1A    0.360000        1.0080           0   0.00000   0.00000
     31761 MEOH     1636     MEOH     HO2      DUMH     0.000000        1.0080           0   0.00000   0.00000
     31762 MEOH     1636     MEOH     H1A      HDA3B    0.080000        1.0080           0   0.00000   0.00000
     31763 MEOH     1636     MEOH     H1B      HDA3B    0.080000        1.0080           0   0.00000   0.00000
     31764 MEOH     1636     MEOH     H1C      HDA3B    0.080000        1.0080           0   0.00000   0.00000
     31765 MEOH     1636     MEOH     LP1A     LPD     -0.230000        0.0000           -1   0.00000   0.00000
     31766 MEOH     1636     MEOH     LP1B     LPD     -0.230000        0.0000           -1   0.00000   0.00000
     31767 MEOH     1637     MEOH     C1       CD33B    2.314100       11.6110           0   -1.00000   1.30000
     31768 MEOH     1637     MEOH     DC1      DRUD    -2.454100        0.4000           0   0.00000   0.00000
     31769 MEOH     1637     MEOH     O1       OD31H    2.488300       15.5990           0   -1.02800   1.30000
     31770 MEOH     1637     MEOH     DO1      DRUD    -2.488300        0.4000           0   0.00000   0.00000
     31771 MEOH     1637     MEOH     HO1      HDP1A    0.360000        1.0080           0   0.00000   0.00000
     31772 MEOH     1637     MEOH     HO2      DUMH     0.000000        1.0080           0   0.00000   0.00000
     31773 MEOH     1637     MEOH     H1A      HDA3B    0.080000        1.0080           0   0.00000   0.00000
     31774 MEOH     1637     MEOH     H1B      HDA3B    0.080000        1.0080           0   0.00000   0.00000
     31775 MEOH     1637     MEOH     H1C      HDA3B    0.080000        1.0080           0   0.00000   0.00000
     31776 MEOH     1637     MEOH     LP1A     LPD     -0.230000        0.0000           -1   0.00000   0.00000
     31777 MEOH     1637     MEOH     LP1B     LPD     -0.230000        0.0000           -1   0.00000   0.00000
     31778 MEOH     1638     MEOH     C1       CD33B    2.314100       11.6110           0   -1.00000   1.30000
     31779 MEOH     1638     MEOH     DC1      DRUD    -2.454100        0.4000           0   0.00000   0.00000
     31780 MEOH     1638     MEOH     O1       OD31H    2.488300       15.5990           0   -1.02800   1.30000
     31781 MEOH     1638     MEOH     DO1      DRUD    -2.488300        0.4000           0   0.00000   0.00000
     31782 MEOH     1638     MEOH     HO1      HDP1A    0.360000        1.0080           0   0.00000   0.00000
     31783 MEOH     1638     MEOH     HO2      DUMH     0.000000        1.0080           0   0.00000   0.00000
     31784 MEOH     1638     MEOH     H1A      HDA3B    0.080000        1.0080           0   0.00000   0.00000
     31785 MEOH     1638     MEOH     H1B      HDA3B    0.080000        1.0080           0   0.00000   0.00000
     31786 MEOH     1638     MEOH     H1C      HDA3B    0.080000        1.0080           0   0.00000   0.00000
     31787 MEOH     1638     MEOH     LP1A     LPD     -0.230000        0.0000           -1   0.00000   0.00000
     31788 MEOH     1638     MEOH     LP1B     LPD     -0.230000        0.0000           -1   0.00000   0.00000
     31789 MEOH     1639     MEOH     C1       CD33B    2.314100       11.6110           0   -1.00000   1.30000
     31790 MEOH     1639     MEOH     DC1      DRUD    -2.454100        0.4000           0   0.00000   0.00000
     31791 MEOH     1639     MEOH     O1       OD31H    2.488300       15.5990           0   -1.02800   1.30000
     31792 MEOH     1639     MEOH     DO1      DRUD    -2.488300        0.4000           0   0.00000   0.00000
     31793 MEOH     1639     MEOH     HO1      HDP1A    0.360000        1.0080           0   0.00000   0.00000
     31794 MEOH     1639     MEOH     HO2      DUMH     0.000000        1.0080           0   0.00000   0.00000
     31795 MEOH     1639     MEOH     H1A      HDA3B    0.080000        1.0080           0   0.00000   0.00000
     31796 MEOH     1639     MEOH     H1B      HDA3B    0.080000        1.0080           0   0.00000   0.00000
     31797 MEOH     1639     MEOH     H1C      HDA3B    0.080000        1.0080           0   0.00000   0.00000
     31798 MEOH     1639     MEOH     LP1A     LPD     -0.230000        0.0000           -1   0.00000   0.00000
     31799 MEOH     1639     MEOH     LP1B     LPD     -0.230000        0.0000           -1   0.00000   0.00000
     31800 MEOH     1640     MEOH     C1       CD33B    2.314100       11.6110           0   -1.00000   1.30000
     31801 MEOH     1640     MEOH     DC1      DRUD    -2.454100        0.4000           0   0.00000   0.00000
     31802 MEOH     1640     MEOH     O1       OD31H    2.488300       15.5990           0   -1.02800   1.30000
     31803 MEOH     1640     MEOH     DO1      DRUD    -2.488300        0.4000           0   0.00000   0.00000
     31804 MEOH     1640     MEOH     HO1      HDP1A    0.360000        1.0080           0   0.00000   0.00000
     31805 MEOH     1640     MEOH     HO2      DUMH     0.000000        1.0080           0   0.00000   0.00000
     31806 MEOH     1640     MEOH     H1A      HDA3B    0.080000        1.0080           0   0.00000   0.00000
     31807 MEOH     1640     MEOH     H1B      HDA3B    0.080000        1.0080           0   0.00000   0.00000
     31808 MEOH     1640     MEOH     H1C      HDA3B    0.080000        1.0080           0   0.00000   0.00000
     31809 MEOH     1640     MEOH     LP1A     LPD     -0.230000        0.0000           -1   0.00000   0.00000
     31810 MEOH     1640     MEOH     LP1B     LPD     -0.230000        0.0000           -1   0.00000   0.00000
     31811 MEOH     1641     MEOH     C1       CD33B    2.314100       11.6110           0   -1.00000   1.30000
     31812 MEOH     1641     MEOH     DC1      DRUD    -2.454100        0.4000           0   0.00000   0.00000
     31813 MEOH     1641     MEOH     O1       OD31H    2.488300       15.5990           0   -1.02800   1.30000
     31814 MEOH     1641     MEOH     DO1      DRUD    -2.488300        0.4000           0   0.00000   0.00000
     31815 MEOH     1641     MEOH     HO1      HDP1A    0.360000        1.0080           0   0.00000   0.00000
     31816 MEOH     1641     MEOH     HO2      DUMH     0.000000        1.0080           0   0.00000   0.00000
     31817 MEOH     1641     MEOH     H1A      HDA3B    0.080000        1.0080           0   0.00000   0.00000
     31818 MEOH     1641     MEOH     H1B      HDA3B    0.080000        1.0080           0   0.00000   0.00000
     31819 MEOH     1641     MEOH     H1C      HDA3B    0.080000        1.0080           0   0.00000   0.00000
     31820 MEOH     1641     MEOH     LP1A     LPD     -0.230000        0.0000           -1   0.00000   0.00000
     31821 MEOH     1641     MEOH     LP1B     LPD     -0.230000        0.0000           -1   0.00000   0.00000
     31822 MEOH     1642     MEOH     C1       CD33B    2.314100       11.6110           0   -1.00000   1.30000
     31823 MEOH     1642     MEOH     DC1      DRUD    -2.454100        0.4000           0   0.00000   0.00000
     31824 MEOH     1642     MEOH     O1       OD31H    2.488300       15.5990           0   -1.02800   1.30000
     31825 MEOH     1642     MEOH     DO1      DRUD    -2.488300        0.4000           0   0.00000   0.00000
     31826 MEOH     1642     MEOH     HO1      HDP1A    0.360000        1.0080           0   0.00000   0.00000
     31827 MEOH     1642     MEOH     HO2      DUMH     0.000000        1.0080           0   0.00000   0.00000
     31828 MEOH     1642     MEOH     H1A      HDA3B    0.080000        1.0080           0   0.00000   0.00000
     31829 MEOH     1642     MEOH     H1B      HDA3B    0.080000        1.0080           0   0.00000   0.00000
     31830 MEOH     1642     MEOH     H1C      HDA3B    0.080000        1.0080           0   0.00000   0.00000
     31831 MEOH     1642     MEOH     LP1A     LPD     -0.230000        0.0000           -1   0.00000   0.00000
     31832 MEOH     1642     MEOH     LP1B     LPD     -0.230000        0.0000           -1   0.00000   0.00000
     31833 MEOH     1643     MEOH     C1       CD33B    2.314100       11.6110           0   -1.00000   1.30000
     31834 MEOH     1643     MEOH     DC1      DRUD    -2.454100        0.4000           0   0.00000   0.00000
     31835 MEOH     1643     MEOH     O1       OD31H    2.488300       15.5990           0   -1.02800   1.30000
     31836 MEOH     1643     MEOH     DO1      DRUD    -2.488300        0.4000           0   0.00000   0.00000
     31837 MEOH     1643     MEOH     HO1      HDP1A    0.360000        1.0080           0   0.00000   0.00000
     31838 MEOH     1643     MEOH     HO2      DUMH     0.000000        1.0080           0   0.00000   0.00000
     31839 MEOH     1643     MEOH     H1A      HDA3B    0.080000        1.0080           0   0.00000   0.00000
     31840 MEOH     1643     MEOH     H1B      HDA3B    0.080000        1.0080           0   0.00000   0.00000
     31841 MEOH     1643     MEOH     H1C      HDA3B    0.080000        1.0080           0   0.00000   0.00000
     31842 MEOH     1643     MEOH     LP1A     LPD     -0.230000        0.0000           -1   0.00000   0.00000
     31843 MEOH     1643     MEOH     LP1B     LPD     -0.230000        0.0000           -1   0.00000   0.00000
     31844 MEOH     1644     MEOH     C1       CD33B    2.314100       11.6110           0   -1.00000   1.30000
     31845 MEOH     1644     MEOH     DC1      DRUD    -2.454100        0.4000           0   0.00000   0.00000
     31846 MEOH     1644     MEOH     O1       OD31H    2.488300       15.5990           0   -1.02800   1.30000
     31847 MEOH     1644     MEOH     DO1      DRUD    -2.488300        0.4000           0   0.00000   0.00000
     31848 MEOH     1644     MEOH     HO1      HDP1A    0.360000        1.0080           0   0.00000   0.00000
     31849 MEOH     1644     MEOH     HO2      DUMH     0.000000        1.0080           0   0.00000   0.00000
     31850 MEOH     1644     MEOH     H1A      HDA3B    0.080000        1.0080           0   0.00000   0.00000
     31851 MEOH     1644     MEOH     H1B      HDA3B    0.080000        1.0080           0   0.00000   0.00000
     31852 MEOH     1644     MEOH     H1C      HDA3B    0.080000        1.0080           0   0.00000   0.00000
     31853 MEOH     1644     MEOH     LP1A     LPD     -0.230000        0.0000           -1   0.00000   0.00000
     31854 MEOH     1644     MEOH     LP1B     LPD     -0.230000        0.0000           -1   0.00000   0.00000
     31855 MEOH     1645     MEOH     C1       CD33B    2.314100       11.6110           0   -1.00000   1.30000
     31856 MEOH     1645     MEOH     DC1      DRUD    -2.454100        0.4000           0   0.00000   0.00000
     31857 MEOH     1645     MEOH     O1       OD31H    2.488300       15.5990           0   -1.02800   1.30000
     31858 MEOH     1645     MEOH     DO1      DRUD    -2.488300        0.4000           0   0.00000   0.00000
     31859 MEOH     1645     MEOH     HO1      HDP1A    0.360000        1.0080           0   0.00000   0.00000
     31860 MEOH     1645     MEOH     HO2      DUMH     0.000000        1.0080           0   0.00000   0.00000
     31861 MEOH     1645     MEOH     H1A      HDA3B    0.080000        1.0080           0   0.00000   0.00000
     31862 MEOH     1645     MEOH     H1B      HDA3B    0.080000        1.0080           0   0.00000   0.00000
     31863 MEOH     1645     MEOH     H1C      HDA3B    0.080000        1.0080           0   0.00000   0.00000
     31864 MEOH     1645     MEOH     LP1A     LPD     -0.230000        0.0000           -1   0.00000   0.00000
     31865 MEOH     1645     MEOH     LP1B     LPD     -0.230000        0.0000           -1   0.00000   0.00000
     31866 MEOH     1646     MEOH     C1       CD33B    2.314100       11.6110           0   -1.00000   1.30000
     31867 MEOH     1646     MEOH     DC1      DRUD    -2.454100        0.4000           0   0.00000   0.00000
     31868 MEOH     1646     MEOH     O1       OD31H    2.488300       15.5990           0   -1.02800   1.30000
     31869 MEOH     1646     MEOH     DO1      DRUD    -2.488300        0.4000           0   0.00000   0.00000
     31870 MEOH     1646     MEOH     HO1      HDP1A    0.360000        1.0080           0   0.00000   0.00000
     31871 MEOH     1646     MEOH     HO2      DUMH     0.000000        1.0080           0   0.00000   0.00000
     31872 MEOH     1646     MEOH     H1A      HDA3B    0.080000        1.0080           0   0.00000   0.00000
     31873 MEOH     1646     MEOH     H1B      HDA3B    0.080000        1.0080           0   0.00000   0.00000
     31874 MEOH     1646     MEOH     H1C      HDA3B    0.080000        1.0080           0   0.00000   0.00000
     31875 MEOH     1646     MEOH     LP1A     LPD     -0.230000        0.0000           -1   0.00000   0.00000
     31876 MEOH     1646     MEOH     LP1B     LPD     -0.230000        0.0000           -1   0.00000   0.00000
     31877 MEOH     1647     MEOH     C1       CD33B    2.314100       11.6110           0   -1.00000   1.30000
     31878 MEOH     1647     MEOH     DC1      DRUD    -2.454100        0.4000           0   0.00000   0.00000
     31879 MEOH     1647     MEOH     O1       OD31H    2.488300       15.5990           0   -1.02800   1.30000
     31880 MEOH     1647     MEOH     DO1      DRUD    -2.488300        0.4000           0   0.00000   0.00000
     31881 MEOH     1647     MEOH     HO1      HDP1A    0.360000        1.0080           0   0.00000   0.00000
     31882 MEOH     1647     MEOH     HO2      DUMH     0.000000        1.0080           0   0.00000   0.00000
     31883 MEOH     1647     MEOH     H1A      HDA3B    0.080000        1.0080           0   0.00000   0.00000
     31884 MEOH     1647     MEOH     H1B      HDA3B    0.080000        1.0080           0   0.00000   0.00000
     31885 MEOH     1647     MEOH     H1C      HDA3B    0.080000        1.0080           0   0.00000   0.00000
     31886 MEOH     1647     MEOH     LP1A     LPD     -0.230000        0.0000           -1   0.00000   0.00000
     31887 MEOH     1647     MEOH     LP1B     LPD     -0.230000        0.0000           -1   0.00000   0.00000
     31888 MEOH     1648     MEOH     C1       CD33B    2.314100       11.6110           0   -1.00000   1.30000
     31889 MEOH     1648     MEOH     DC1      DRUD    -2.454100        0.4000           0   0.00000   0.00000
     31890 MEOH     1648     MEOH     O1       OD31H    2.488300       15.5990           0   -1.02800   1.30000
     31891 MEOH     1648     MEOH     DO1      DRUD    -2.488300        0.4000           0   0.00000   0.00000
     31892 MEOH     1648     MEOH     HO1      HDP1A    0.360000        1.0080           0   0.00000   0.00000
     31893 MEOH     1648     MEOH     HO2      DUMH     0.000000        1.0080           0   0.00000   0.00000
     31894 MEOH     1648     MEOH     H1A      HDA3B    0.080000        1.0080           0   0.00000   0.00000
     31895 MEOH     1648     MEOH     H1B      HDA3B    0.080000        1.0080           0   0.00000   0.00000
     31896 MEOH     1648     MEOH     H1C      HDA3B    0.080000        1.0080           0   0.00000   0.00000
     31897 MEOH     1648     MEOH     LP1A     LPD     -0.230000        0.0000           -1   0.00000   0.00000
     31898 MEOH     1648     MEOH     LP1B     LPD     -0.230000        0.0000           -1   0.00000   0.00000
     31899 MEOH     1649     MEOH     C1       CD33B    2.314100       11.6110           0   -1.00000   1.30000
     31900 MEOH     1649     MEOH     DC1      DRUD    -2.454100        0.4000           0   0.00000   0.00000
     31901 MEOH     1649     MEOH     O1       OD31H    2.488300       15.5990           0   -1.02800   1.30000
     31902 MEOH     1649     MEOH     DO1      DRUD    -2.488300        0.4000           0   0.00000   0.00000
     31903 MEOH     1649     MEOH     HO1      HDP1A    0.360000        1.0080           0   0.00000   0.00000
     31904 MEOH     1649     MEOH     HO2      DUMH     0.000000        1.0080           0   0.00000   0.00000
     31905 MEOH     1649     MEOH     H1A      HDA3B    0.080000        1.0080           0   0.00000   0.00000
     31906 MEOH     1649     MEOH     H1B      HDA3B    0.080000        1.0080           0   0.00000   0.00000
     31907 MEOH     1649     MEOH     H1C      HDA3B    0.080000        1.0080           0   0.00000   0.00000
     31908 MEOH     1649     MEOH     LP1A     LPD     -0.230000        0.0000           -1   0.00000   0.00000
     31909 MEOH     1649     MEOH     LP1B     LPD     -0.230000        0.0000           -1   0.00000   0.00000
     31910 MEOH     1650     MEOH     C1       CD33B    2.314100       11.6110           0   -1.00000   1.30000
     31911 MEOH     1650     MEOH     DC1      DRUD    -2.454100        0.4000           0   0.00000   0.00000
     31912 MEOH     1650     MEOH     O1       OD31H    2.488300       15.5990           0   -1.02800   1.30000
     31913 MEOH     1650     MEOH     DO1      DRUD    -2.488300        0.4000           0   0.00000   0.00000
     31914 MEOH     1650     MEOH     HO1      HDP1A    0.360000        1.0080           0   0.00000   0.00000
     31915 MEOH     1650     MEOH     HO2      DUMH     0.000000        1.0080           0   0.00000   0.00000
     31916 MEOH     1650     MEOH     H1A      HDA3B    0.080000        1.0080           0   0.00000   0.00000
     31917 MEOH     1650     MEOH     H1B      HDA3B    0.080000        1.0080           0   0.00000   0.00000
     31918 MEOH     1650     MEOH     H1C      HDA3B    0.080000        1.0080           0   0.00000   0.00000
     31919 MEOH     1650     MEOH     LP1A     LPD     -0.230000        0.0000           -1   0.00000   0.00000
     31920 MEOH     1650     MEOH     LP1B     LPD     -0.230000        0.0000           -1   0.00000   0.00000
     31921 MEOH     1651     MEOH     C1       CD33B    2.314100       11.6110           0   -1.00000   1.30000
     31922 MEOH     1651     MEOH     DC1      DRUD    -2.454100        0.4000           0   0.00000   0.00000
     31923 MEOH     1651     MEOH     O1       OD31H    2.488300       15.5990           0   -1.02800   1.30000
     31924 MEOH     1651     MEOH     DO1      DRUD    -2.488300        0.4000           0   0.00000   0.00000
     31925 MEOH     1651     MEOH     HO1      HDP1A    0.360000        1.0080           0   0.00000   0.00000
     31926 MEOH     1651     MEOH     HO2      DUMH     0.000000        1.0080           0   0.00000   0.00000
     31927 MEOH     1651     MEOH     H1A      HDA3B    0.080000        1.0080           0   0.00000   0.00000
     31928 MEOH     1651     MEOH     H1B      HDA3B    0.080000        1.0080           0   0.00000   0.00000
     31929 MEOH     1651     MEOH     H1C      HDA3B    0.080000        1.0080           0   0.00000   0.00000
     31930 MEOH     1651     MEOH     LP1A     LPD     -0.230000        0.0000           -1   0.00000   0.00000
     31931 MEOH     1651     MEOH     LP1B     LPD     -0.230000        0.0000           -1   0.00000   0.00000
     31932 MEOH     1652     MEOH     C1       CD33B    2.314100       11.6110           0   -1.00000   1.30000
     31933 MEOH     1652     MEOH     DC1      DRUD    -2.454100        0.4000           0   0.00000   0.00000
     31934 MEOH     1652     MEOH     O1       OD31H    2.488300       15.5990           0   -1.02800   1.30000
     31935 MEOH     1652     MEOH     DO1      DRUD    -2.488300        0.4000           0   0.00000   0.00000
     31936 MEOH     1652     MEOH     HO1      HDP1A    0.360000        1.0080           0   0.00000   0.00000
     31937 MEOH     1652     MEOH     HO2      DUMH     0.000000        1.0080           0   0.00000   0.00000
     31938 MEOH     1652     MEOH     H1A      HDA3B    0.080000        1.0080           0   0.00000   0.00000
     31939 MEOH     1652     MEOH     H1B      HDA3B    0.080000        1.0080           0   0.00000   0.00000
     31940 MEOH     1652     MEOH     H1C      HDA3B    0.080000        1.0080           0   0.00000   0.00000
     31941 MEOH     1652     MEOH     LP1A     LPD     -0.230000        0.0000           -1   0.00000   0.00000
     31942 MEOH     1652     MEOH     LP1B     LPD     -0.230000        0.0000           -1   0.00000   0.00000
     31943 MEOH     1653     MEOH     C1       CD33B    2.314100       11.6110           0   -1.00000   1.30000
     31944 MEOH     1653     MEOH     DC1      DRUD    -2.454100        0.4000           0   0.00000   0.00000
     31945 MEOH     1653     MEOH     O1       OD31H    2.488300       15.5990           0   -1.02800   1.30000
     31946 MEOH     1653     MEOH     DO1      DRUD    -2.488300        0.4000           0   0.00000   0.00000
     31947 MEOH     1653     MEOH     HO1      HDP1A    0.360000        1.0080           0   0.00000   0.00000
     31948 MEOH     1653     MEOH     HO2      DUMH     0.000000        1.0080           0   0.00000   0.00000
     31949 MEOH     1653     MEOH     H1A      HDA3B    0.080000        1.0080           0   0.00000   0.00000
     31950 MEOH     1653     MEOH     H1B      HDA3B    0.080000        1.0080           0   0.00000   0.00000
     31951 MEOH     1653     MEOH     H1C      HDA3B    0.080000        1.0080           0   0.00000   0.00000
     31952 MEOH     1653     MEOH     LP1A     LPD     -0.230000        0.0000           -1   0.00000   0.00000
     31953 MEOH     1653     MEOH     LP1B     LPD     -0.230000        0.0000           -1   0.00000   0.00000
     31954 MEOH     1654     MEOH     C1       CD33B    2.314100       11.6110           0   -1.00000   1.30000
     31955 MEOH     1654     MEOH     DC1      DRUD    -2.454100        0.4000           0   0.00000   0.00000
     31956 MEOH     1654     MEOH     O1       OD31H    2.488300       15.5990           0   -1.02800   1.30000
     31957 MEOH     1654     MEOH     DO1      DRUD    -2.488300        0.4000           0   0.00000   0.00000
     31958 MEOH     1654     MEOH     HO1      HDP1A    0.360000        1.0080           0   0.00000   0.00000
     31959 MEOH     1654     MEOH     HO2      DUMH     0.000000        1.0080           0   0.00000   0.00000
     31960 MEOH     1654     MEOH     H1A      HDA3B    0.080000        1.0080           0   0.00000   0.00000
     31961 MEOH     1654     MEOH     H1B      HDA3B    0.080000        1.0080           0   0.00000   0.00000
     31962 MEOH     1654     MEOH     H1C      HDA3B    0.080000        1.0080           0   0.00000   0.00000
     31963 MEOH     1654     MEOH     LP1A     LPD     -0.230000        0.0000           -1   0.00000   0.00000
     31964 MEOH     1654     MEOH     LP1B     LPD     -0.230000        0.0000           -1   0.00000   0.00000
     31965 MEOH     1655     MEOH     C1       CD33B    2.314100       11.6110           0   -1.00000   1.30000
     31966 MEOH     1655     MEOH     DC1      DRUD    -2.454100        0.4000           0   0.00000   0.00000
     31967 MEOH     1655     MEOH     O1       OD31H    2.488300       15.5990           0   -1.02800   1.30000
     31968 MEOH     1655     MEOH     DO1      DRUD    -2.488300        0.4000           0   0.00000   0.00000
     31969 MEOH     1655     MEOH     HO1      HDP1A    0.360000        1.0080           0   0.00000   0.00000
     31970 MEOH     1655     MEOH     HO2      DUMH     0.000000        1.0080           0   0.00000   0.00000
     31971 MEOH     1655     MEOH     H1A      HDA3B    0.080000        1.0080           0   0.00000   0.00000
     31972 MEOH     1655     MEOH     H1B      HDA3B    0.080000        1.0080           0   0.00000   0.00000
     31973 MEOH     1655     MEOH     H1C      HDA3B    0.080000        1.0080           0   0.00000   0.00000
     31974 MEOH     1655     MEOH     LP1A     LPD     -0.230000        0.0000           -1   0.00000   0.00000
     31975 MEOH     1655     MEOH     LP1B     LPD     -0.230000        0.0000           -1   0.00000   0.00000
     31976 MEOH     1656     MEOH     C1       CD33B    2.314100       11.6110           0   -1.00000   1.30000
     31977 MEOH     1656     MEOH     DC1      DRUD    -2.454100        0.4000           0   0.00000   0.00000
     31978 MEOH     1656     MEOH     O1       OD31H    2.488300       15.5990           0   -1.02800   1.30000
     31979 MEOH     1656     MEOH     DO1      DRUD    -2.488300        0.4000           0   0.00000   0.00000
     31980 MEOH     1656     MEOH     HO1      HDP1A    0.360000        1.0080           0   0.00000   0.00000
     31981 MEOH     1656     MEOH     HO2      DUMH     0.000000        1.0080           0   0.00000   0.00000
     31982 MEOH     1656     MEOH     H1A      HDA3B    0.080000        1.0080           0   0.00000   0.00000
     31983 MEOH     1656     MEOH     H1B      HDA3B    0.080000        1.0080           0   0.00000   0.00000
     31984 MEOH     1656     MEOH     H1C      HDA3B    0.080000        1.0080           0   0.00000   0.00000
     31985 MEOH     1656     MEOH     LP1A     LPD     -0.230000        0.0000           -1   0.00000   0.00000
     31986 MEOH     1656     MEOH     LP1B     LPD     -0.230000        0.0000           -1   0.00000   0.00000
     31987 MEOH     1657     MEOH     C1       CD33B    2.314100       11.6110           0   -1.00000   1.30000
     31988 MEOH     1657     MEOH     DC1      DRUD    -2.454100        0.4000           0   0.00000   0.00000
     31989 MEOH     1657     MEOH     O1       OD31H    2.488300       15.5990           0   -1.02800   1.30000
     31990 MEOH     1657     MEOH     DO1      DRUD    -2.488300        0.4000           0   0.00000   0.00000
     31991 MEOH     1657     MEOH     HO1      HDP1A    0.360000        1.0080           0   0.00000   0.00000
     31992 MEOH     1657     MEOH     HO2      DUMH     0.000000        1.0080           0   0.00000   0.00000
     31993 MEOH     1657     MEOH     H1A      HDA3B    0.080000        1.0080           0   0.00000   0.00000
     31994 MEOH     1657     MEOH     H1B      HDA3B    0.080000        1.0080           0   0.00000   0.00000
     31995 MEOH     1657     MEOH     H1C      HDA3B    0.080000        1.0080           0   0.00000   0.00000
     31996 MEOH     1657     MEOH     LP1A     LPD     -0.230000        0.0000           -1   0.00000   0.00000
     31997 MEOH     1657     MEOH     LP1B     LPD     -0.230000        0.0000           -1   0.00000   0.00000
     31998 MEOH     1658     MEOH     C1       CD33B    2.314100       11.6110           0   -1.00000   1.30000
     31999 MEOH     1658     MEOH     DC1      DRUD    -2.454100        0.4000           0   0.00000   0.00000
     32000 MEOH     1658     MEOH     O1       OD31H    2.488300       15.5990           0   -1.02800   1.30000
     32001 MEOH     1658     MEOH     DO1      DRUD    -2.488300        0.4000           0   0.00000   0.00000
     32002 MEOH     1658     MEOH     HO1      HDP1A    0.360000        1.0080           0   0.00000   0.00000
     32003 MEOH     1658     MEOH     HO2      DUMH     0.000000        1.0080           0   0.00000   0.00000
     32004 MEOH     1658     MEOH     H1A      HDA3B    0.080000        1.0080           0   0.00000   0.00000
     32005 MEOH     1658     MEOH     H1B      HDA3B    0.080000        1.0080           0   0.00000   0.00000
     32006 MEOH     1658     MEOH     H1C      HDA3B    0.080000        1.0080           0   0.00000   0.00000
     32007 MEOH     1658     MEOH     LP1A     LPD     -0.230000        0.0000           -1   0.00000   0.00000
     32008 MEOH     1658     MEOH     LP1B     LPD     -0.230000        0.0000           -1   0.00000   0.00000
     32009 MEOH     1659     MEOH     C1       CD33B    2.314100       11.6110           0   -1.00000   1.30000
     32010 MEOH     1659     MEOH     DC1      DRUD    -2.454100        0.4000           0   0.00000   0.00000
     32011 MEOH     1659     MEOH     O1       OD31H    2.488300       15.5990           0   -1.02800   1.30000
     32012 MEOH     1659     MEOH     DO1      DRUD    -2.488300        0.4000           0   0.00000   0.00000
     32013 MEOH     1659     MEOH     HO1      HDP1A    0.360000        1.0080           0   0.00000   0.00000
     32014 MEOH     1659     MEOH     HO2      DUMH     0.000000        1.0080           0   0.00000   0.00000
     32015 MEOH     1659     MEOH     H1A      HDA3B    0.080000        1.0080           0   0.00000   0.00000
     32016 MEOH     1659     MEOH     H1B      HDA3B    0.080000        1.0080           0   0.00000   0.00000
     32017 MEOH     1659     MEOH     H1C      HDA3B    0.080000        1.0080           0   0.00000   0.00000
     32018 MEOH     1659     MEOH     LP1A     LPD     -0.230000        0.0000           -1   0.00000   0.00000
     32019 MEOH     1659     MEOH     LP1B     LPD     -0.230000        0.0000           -1   0.00000   0.00000
     32020 MEOH     1660     MEOH     C1       CD33B    2.314100       11.6110           0   -1.00000   1.30000
     32021 MEOH     1660     MEOH     DC1      DRUD    -2.454100        0.4000           0   0.00000   0.00000
     32022 MEOH     1660     MEOH     O1       OD31H    2.488300       15.5990           0   -1.02800   1.30000
     32023 MEOH     1660     MEOH     DO1      DRUD    -2.488300        0.4000           0   0.00000   0.00000
     32024 MEOH     1660     MEOH     HO1      HDP1A    0.360000        1.0080           0   0.00000   0.00000
     32025 MEOH     1660     MEOH     HO2      DUMH     0.000000        1.0080           0   0.00000   0.00000
     32026 MEOH     1660     MEOH     H1A      HDA3B    0.080000        1.0080           0   0.00000   0.00000
     32027 MEOH     1660     MEOH     H1B      HDA3B    0.080000        1.0080           0   0.00000   0.00000
     32028 MEOH     1660     MEOH     H1C      HDA3B    0.080000        1.0080           0   0.00000   0.00000
     32029 MEOH     1660     MEOH     LP1A     LPD     -0.230000        0.0000           -1   0.00000   0.00000
     32030 MEOH     1660     MEOH     LP1B     LPD     -0.230000        0.0000           -1   0.00000   0.00000
     32031 MEOH     1661     MEOH     C1       CD33B    2.314100       11.6110           0   -1.00000   1.30000
     32032 MEOH     1661     MEOH     DC1      DRUD    -2.454100        0.4000           0   0.00000   0.00000
     32033 MEOH     1661     MEOH     O1       OD31H    2.488300       15.5990           0   -1.02800   1.30000
     32034 MEOH     1661     MEOH     DO1      DRUD    -2.488300        0.4000           0   0.00000   0.00000
     32035 MEOH     1661     MEOH     HO1      HDP1A    0.360000        1.0080           0   0.00000   0.00000
     32036 MEOH     1661     MEOH     HO2      DUMH     0.000000        1.0080           0   0.00000   0.00000
     32037 MEOH     1661     MEOH     H1A      HDA3B    0.080000        1.0080           0   0.00000   0.00000
     32038 MEOH     1661     MEOH     H1B      HDA3B    0.080000        1.0080           0   0.00000   0.00000
     32039 MEOH     1661     MEOH     H1C      HDA3B    0.080000        1.0080           0   0.00000   0.00000
     32040 MEOH     1661     MEOH     LP1A     LPD     -0.230000        0.0000           -1   0.00000   0.00000
     32041 MEOH     1661     MEOH     LP1B     LPD     -0.230000        0.0000           -1   0.00000   0.00000
     32042 MEOH     1662     MEOH     C1       CD33B    2.314100       11.6110           0   -1.00000   1.30000
     32043 MEOH     1662     MEOH     DC1      DRUD    -2.454100        0.4000           0   0.00000   0.00000
     32044 MEOH     1662     MEOH     O1       OD31H    2.488300       15.5990           0   -1.02800   1.30000
     32045 MEOH     1662     MEOH     DO1      DRUD    -2.488300        0.4000           0   0.00000   0.00000
     32046 MEOH     1662     MEOH     HO1      HDP1A    0.360000        1.0080           0   0.00000   0.00000
     32047 MEOH     1662     MEOH     HO2      DUMH     0.000000        1.0080           0   0.00000   0.00000
     32048 MEOH     1662     MEOH     H1A      HDA3B    0.080000        1.0080           0   0.00000   0.00000
     32049 MEOH     1662     MEOH     H1B      HDA3B    0.080000        1.0080           0   0.00000   0.00000
     32050 MEOH     1662     MEOH     H1C      HDA3B    0.080000        1.0080           0   0.00000   0.00000
     32051 MEOH     1662     MEOH     LP1A     LPD     -0.230000        0.0000           -1   0.00000   0.00000
     32052 MEOH     1662     MEOH     LP1B     LPD     -0.230000        0.0000           -1   0.00000   0.00000
     32053 MEOH     1663     MEOH     C1       CD33B    2.314100       11.6110           0   -1.00000   1.30000
     32054 MEOH     1663     MEOH     DC1      DRUD    -2.454100        0.4000           0   0.00000   0.00000
     32055 MEOH     1663     MEOH     O1       OD31H    2.488300       15.5990           0   -1.02800   1.30000
     32056 MEOH     1663     MEOH     DO1      DRUD    -2.488300        0.4000           0   0.00000   0.00000
     32057 MEOH     1663     MEOH     HO1      HDP1A    0.360000        1.0080           0   0.00000   0.00000
     32058 MEOH     1663     MEOH     HO2      DUMH     0.000000        1.0080           0   0.00000   0.00000
     32059 MEOH     1663     MEOH     H1A      HDA3B    0.080000        1.0080           0   0.00000   0.00000
     32060 MEOH     1663     MEOH     H1B      HDA3B    0.080000        1.0080           0   0.00000   0.00000
     32061 MEOH     1663     MEOH     H1C      HDA3B    0.080000        1.0080           0   0.00000   0.00000
     32062 MEOH     1663     MEOH     LP1A     LPD     -0.230000        0.0000           -1   0.00000   0.00000
     32063 MEOH     1663     MEOH     LP1B     LPD     -0.230000        0.0000           -1   0.00000   0.00000
     32064 MEOH     1664     MEOH     C1       CD33B    2.314100       11.6110           0   -1.00000   1.30000
     32065 MEOH     1664     MEOH     DC1      DRUD    -2.454100        0.4000           0   0.00000   0.00000
     32066 MEOH     1664     MEOH     O1       OD31H    2.488300       15.5990           0   -1.02800   1.30000
     32067 MEOH     1664     MEOH     DO1      DRUD    -2.488300        0.4000           0   0.00000   0.00000
     32068 MEOH     1664     MEOH     HO1      HDP1A    0.360000        1.0080           0   0.00000   0.00000
     32069 MEOH     1664     MEOH     HO2      DUMH     0.000000        1.0080           0   0.00000   0.00000
     32070 MEOH     1664     MEOH     H1A      HDA3B    0.080000        1.0080           0   0.00000   0.00000
     32071 MEOH     1664     MEOH     H1B      HDA3B    0.080000        1.0080           0   0.00000   0.00000
     32072 MEOH     1664     MEOH     H1C      HDA3B    0.080000        1.0080           0   0.00000   0.00000
     32073 MEOH     1664     MEOH     LP1A     LPD     -0.230000        0.0000           -1   0.00000   0.00000
     32074 MEOH     1664     MEOH     LP1B     LPD     -0.230000        0.0000           -1   0.00000   0.00000
     32075 MEOH     1665     MEOH     C1       CD33B    2.314100       11.6110           0   -1.00000   1.30000
     32076 MEOH     1665     MEOH     DC1      DRUD    -2.454100        0.4000           0   0.00000   0.00000
     32077 MEOH     1665     MEOH     O1       OD31H    2.488300       15.5990           0   -1.02800   1.30000
     32078 MEOH     1665     MEOH     DO1      DRUD    -2.488300        0.4000           0   0.00000   0.00000
     32079 MEOH     1665     MEOH     HO1      HDP1A    0.360000        1.0080           0   0.00000   0.00000
     32080 MEOH     1665     MEOH     HO2      DUMH     0.000000        1.0080           0   0.00000   0.00000
     32081 MEOH     1665     MEOH     H1A      HDA3B    0.080000        1.0080           0   0.00000   0.00000
     32082 MEOH     1665     MEOH     H1B      HDA3B    0.080000        1.0080           0   0.00000   0.00000
     32083 MEOH     1665     MEOH     H1C      HDA3B    0.080000        1.0080           0   0.00000   0.00000
     32084 MEOH     1665     MEOH     LP1A     LPD     -0.230000        0.0000           -1   0.00000   0.00000
     32085 MEOH     1665     MEOH     LP1B     LPD     -0.230000        0.0000           -1   0.00000   0.00000
     32086 MEOH     1666     MEOH     C1       CD33B    2.314100       11.6110           0   -1.00000   1.30000
     32087 MEOH     1666     MEOH     DC1      DRUD    -2.454100        0.4000           0   0.00000   0.00000
     32088 MEOH     1666     MEOH     O1       OD31H    2.488300       15.5990           0   -1.02800   1.30000
     32089 MEOH     1666     MEOH     DO1      DRUD    -2.488300        0.4000           0   0.00000   0.00000
     32090 MEOH     1666     MEOH     HO1      HDP1A    0.360000        1.0080           0   0.00000   0.00000
     32091 MEOH     1666     MEOH     HO2      DUMH     0.000000        1.0080           0   0.00000   0.00000
     32092 MEOH     1666     MEOH     H1A      HDA3B    0.080000        1.0080           0   0.00000   0.00000
     32093 MEOH     1666     MEOH     H1B      HDA3B    0.080000        1.0080           0   0.00000   0.00000
     32094 MEOH     1666     MEOH     H1C      HDA3B    0.080000        1.0080           0   0.00000   0.00000
     32095 MEOH     1666     MEOH     LP1A     LPD     -0.230000        0.0000           -1   0.00000   0.00000
     32096 MEOH     1666     MEOH     LP1B     LPD     -0.230000        0.0000           -1   0.00000   0.00000
     32097 MEOH     1667     MEOH     C1       CD33B    2.314100       11.6110           0   -1.00000   1.30000
     32098 MEOH     1667     MEOH     DC1      DRUD    -2.454100        0.4000           0   0.00000   0.00000
     32099 MEOH     1667     MEOH     O1       OD31H    2.488300       15.5990           0   -1.02800   1.30000
     32100 MEOH     1667     MEOH     DO1      DRUD    -2.488300        0.4000           0   0.00000   0.00000
     32101 MEOH     1667     MEOH     HO1      HDP1A    0.360000        1.0080           0   0.00000   0.00000
     32102 MEOH     1667     MEOH     HO2      DUMH     0.000000        1.0080           0   0.00000   0.00000
     32103 MEOH     1667     MEOH     H1A      HDA3B    0.080000        1.0080           0   0.00000   0.00000
     32104 MEOH     1667     MEOH     H1B      HDA3B    0.080000        1.0080           0   0.00000   0.00000
     32105 MEOH     1667     MEOH     H1C      HDA3B    0.080000        1.0080           0   0.00000   0.00000
     32106 MEOH     1667     MEOH     LP1A     LPD     -0.230000        0.0000           -1   0.00000   0.00000
     32107 MEOH     1667     MEOH     LP1B     LPD     -0.230000        0.0000           -1   0.00000   0.00000
     32108 MEOH     1668     MEOH     C1       CD33B    2.314100       11.6110           0   -1.00000   1.30000
     32109 MEOH     1668     MEOH     DC1      DRUD    -2.454100        0.4000           0   0.00000   0.00000
     32110 MEOH     1668     MEOH     O1       OD31H    2.488300       15.5990           0   -1.02800   1.30000
     32111 MEOH     1668     MEOH     DO1      DRUD    -2.488300        0.4000           0   0.00000   0.00000
     32112 MEOH     1668     MEOH     HO1      HDP1A    0.360000        1.0080           0   0.00000   0.00000
     32113 MEOH     1668     MEOH     HO2      DUMH     0.000000        1.0080           0   0.00000   0.00000
     32114 MEOH     1668     MEOH     H1A      HDA3B    0.080000        1.0080           0   0.00000   0.00000
     32115 MEOH     1668     MEOH     H1B      HDA3B    0.080000        1.0080           0   0.00000   0.00000
     32116 MEOH     1668     MEOH     H1C      HDA3B    0.080000        1.0080           0   0.00000   0.00000
     32117 MEOH     1668     MEOH     LP1A     LPD     -0.230000        0.0000           -1   0.00000   0.00000
     32118 MEOH     1668     MEOH     LP1B     LPD     -0.230000        0.0000           -1   0.00000   0.00000
     32119 MEOH     1669     MEOH     C1       CD33B    2.314100       11.6110           0   -1.00000   1.30000
     32120 MEOH     1669     MEOH     DC1      DRUD    -2.454100        0.4000           0   0.00000   0.00000
     32121 MEOH     1669     MEOH     O1       OD31H    2.488300       15.5990           0   -1.02800   1.30000
     32122 MEOH     1669     MEOH     DO1      DRUD    -2.488300        0.4000           0   0.00000   0.00000
     32123 MEOH     1669     MEOH     HO1      HDP1A    0.360000        1.0080           0   0.00000   0.00000
     32124 MEOH     1669     MEOH     HO2      DUMH     0.000000        1.0080           0   0.00000   0.00000
     32125 MEOH     1669     MEOH     H1A      HDA3B    0.080000        1.0080           0   0.00000   0.00000
     32126 MEOH     1669     MEOH     H1B      HDA3B    0.080000        1.0080           0   0.00000   0.00000
     32127 MEOH     1669     MEOH     H1C      HDA3B    0.080000        1.0080           0   0.00000   0.00000
     32128 MEOH     1669     MEOH     LP1A     LPD     -0.230000        0.0000           -1   0.00000   0.00000
     32129 MEOH     1669     MEOH     LP1B     LPD     -0.230000        0.0000           -1   0.00000   0.00000
     32130 MEOH     1670     MEOH     C1       CD33B    2.314100       11.6110           0   -1.00000   1.30000
     32131 MEOH     1670     MEOH     DC1      DRUD    -2.454100        0.4000           0   0.00000   0.00000
     32132 MEOH     1670     MEOH     O1       OD31H    2.488300       15.5990           0   -1.02800   1.30000
     32133 MEOH     1670     MEOH     DO1      DRUD    -2.488300        0.4000           0   0.00000   0.00000
     32134 MEOH     1670     MEOH     HO1      HDP1A    0.360000        1.0080           0   0.00000   0.00000
     32135 MEOH     1670     MEOH     HO2      DUMH     0.000000        1.0080           0   0.00000   0.00000
     32136 MEOH     1670     MEOH     H1A      HDA3B    0.080000        1.0080           0   0.00000   0.00000
     32137 MEOH     1670     MEOH     H1B      HDA3B    0.080000        1.0080           0   0.00000   0.00000
     32138 MEOH     1670     MEOH     H1C      HDA3B    0.080000        1.0080           0   0.00000   0.00000
     32139 MEOH     1670     MEOH     LP1A     LPD     -0.230000        0.0000           -1   0.00000   0.00000
     32140 MEOH     1670     MEOH     LP1B     LPD     -0.230000        0.0000           -1   0.00000   0.00000
     32141 MEOH     1671     MEOH     C1       CD33B    2.314100       11.6110           0   -1.00000   1.30000
     32142 MEOH     1671     MEOH     DC1      DRUD    -2.454100        0.4000           0   0.00000   0.00000
     32143 MEOH     1671     MEOH     O1       OD31H    2.488300       15.5990           0   -1.02800   1.30000
     32144 MEOH     1671     MEOH     DO1      DRUD    -2.488300        0.4000           0   0.00000   0.00000
     32145 MEOH     1671     MEOH     HO1      HDP1A    0.360000        1.0080           0   0.00000   0.00000
     32146 MEOH     1671     MEOH     HO2      DUMH     0.000000        1.0080           0   0.00000   0.00000
     32147 MEOH     1671     MEOH     H1A      HDA3B    0.080000        1.0080           0   0.00000   0.00000
     32148 MEOH     1671     MEOH     H1B      HDA3B    0.080000        1.0080           0   0.00000   0.00000
     32149 MEOH     1671     MEOH     H1C      HDA3B    0.080000        1.0080           0   0.00000   0.00000
     32150 MEOH     1671     MEOH     LP1A     LPD     -0.230000        0.0000           -1   0.00000   0.00000
     32151 MEOH     1671     MEOH     LP1B     LPD     -0.230000        0.0000           -1   0.00000   0.00000
     32152 MEOH     1672     MEOH     C1       CD33B    2.314100       11.6110           0   -1.00000   1.30000
     32153 MEOH     1672     MEOH     DC1      DRUD    -2.454100        0.4000           0   0.00000   0.00000
     32154 MEOH     1672     MEOH     O1       OD31H    2.488300       15.5990           0   -1.02800   1.30000
     32155 MEOH     1672     MEOH     DO1      DRUD    -2.488300        0.4000           0   0.00000   0.00000
     32156 MEOH     1672     MEOH     HO1      HDP1A    0.360000        1.0080           0   0.00000   0.00000
     32157 MEOH     1672     MEOH     HO2      DUMH     0.000000        1.0080           0   0.00000   0.00000
     32158 MEOH     1672     MEOH     H1A      HDA3B    0.080000        1.0080           0   0.00000   0.00000
     32159 MEOH     1672     MEOH     H1B      HDA3B    0.080000        1.0080           0   0.00000   0.00000
     32160 MEOH     1672     MEOH     H1C      HDA3B    0.080000        1.0080           0   0.00000   0.00000
     32161 MEOH     1672     MEOH     LP1A     LPD     -0.230000        0.0000           -1   0.00000   0.00000
     32162 MEOH     1672     MEOH     LP1B     LPD     -0.230000        0.0000           -1   0.00000   0.00000
     32163 MEOH     1673     MEOH     C1       CD33B    2.314100       11.6110           0   -1.00000   1.30000
     32164 MEOH     1673     MEOH     DC1      DRUD    -2.454100        0.4000           0   0.00000   0.00000
     32165 MEOH     1673     MEOH     O1       OD31H    2.488300       15.5990           0   -1.02800   1.30000
     32166 MEOH     1673     MEOH     DO1      DRUD    -2.488300        0.4000           0   0.00000   0.00000
     32167 MEOH     1673     MEOH     HO1      HDP1A    0.360000        1.0080           0   0.00000   0.00000
     32168 MEOH     1673     MEOH     HO2      DUMH     0.000000        1.0080           0   0.00000   0.00000
     32169 MEOH     1673     MEOH     H1A      HDA3B    0.080000        1.0080           0   0.00000   0.00000
     32170 MEOH     1673     MEOH     H1B      HDA3B    0.080000        1.0080           0   0.00000   0.00000
     32171 MEOH     1673     MEOH     H1C      HDA3B    0.080000        1.0080           0   0.00000   0.00000
     32172 MEOH     1673     MEOH     LP1A     LPD     -0.230000        0.0000           -1   0.00000   0.00000
     32173 MEOH     1673     MEOH     LP1B     LPD     -0.230000        0.0000           -1   0.00000   0.00000
     32174 MEOH     1674     MEOH     C1       CD33B    2.314100       11.6110           0   -1.00000   1.30000
     32175 MEOH     1674     MEOH     DC1      DRUD    -2.454100        0.4000           0   0.00000   0.00000
     32176 MEOH     1674     MEOH     O1       OD31H    2.488300       15.5990           0   -1.02800   1.30000
     32177 MEOH     1674     MEOH     DO1      DRUD    -2.488300        0.4000           0   0.00000   0.00000
     32178 MEOH     1674     MEOH     HO1      HDP1A    0.360000        1.0080           0   0.00000   0.00000
     32179 MEOH     1674     MEOH     HO2      DUMH     0.000000        1.0080           0   0.00000   0.00000
     32180 MEOH     1674     MEOH     H1A      HDA3B    0.080000        1.0080           0   0.00000   0.00000
     32181 MEOH     1674     MEOH     H1B      HDA3B    0.080000        1.0080           0   0.00000   0.00000
     32182 MEOH     1674     MEOH     H1C      HDA3B    0.080000        1.0080           0   0.00000   0.00000
     32183 MEOH     1674     MEOH     LP1A     LPD     -0.230000        0.0000           -1   0.00000   0.00000
     32184 MEOH     1674     MEOH     LP1B     LPD     -0.230000        0.0000           -1   0.00000   0.00000
     32185 MEOH     1675     MEOH     C1       CD33B    2.314100       11.6110           0   -1.00000   1.30000
     32186 MEOH     1675     MEOH     DC1      DRUD    -2.454100        0.4000           0   0.00000   0.00000
     32187 MEOH     1675     MEOH     O1       OD31H    2.488300       15.5990           0   -1.02800   1.30000
     32188 MEOH     1675     MEOH     DO1      DRUD    -2.488300        0.4000           0   0.00000   0.00000
     32189 MEOH     1675     MEOH     HO1      HDP1A    0.360000        1.0080           0   0.00000   0.00000
     32190 MEOH     1675     MEOH     HO2      DUMH     0.000000        1.0080           0   0.00000   0.00000
     32191 MEOH     1675     MEOH     H1A      HDA3B    0.080000        1.0080           0   0.00000   0.00000
     32192 MEOH     1675     MEOH     H1B      HDA3B    0.080000        1.0080           0   0.00000   0.00000
     32193 MEOH     1675     MEOH     H1C      HDA3B    0.080000        1.0080           0   0.00000   0.00000
     32194 MEOH     1675     MEOH     LP1A     LPD     -0.230000        0.0000           -1   0.00000   0.00000
     32195 MEOH     1675     MEOH     LP1B     LPD     -0.230000        0.0000           -1   0.00000   0.00000
     32196 MEOH     1676     MEOH     C1       CD33B    2.314100       11.6110           0   -1.00000   1.30000
     32197 MEOH     1676     MEOH     DC1      DRUD    -2.454100        0.4000           0   0.00000   0.00000
     32198 MEOH     1676     MEOH     O1       OD31H    2.488300       15.5990           0   -1.02800   1.30000
     32199 MEOH     1676     MEOH     DO1      DRUD    -2.488300        0.4000           0   0.00000   0.00000
     32200 MEOH     1676     MEOH     HO1      HDP1A    0.360000        1.0080           0   0.00000   0.00000
     32201 MEOH     1676     MEOH     HO2      DUMH     0.000000        1.0080           0   0.00000   0.00000
     32202 MEOH     1676     MEOH     H1A      HDA3B    0.080000        1.0080           0   0.00000   0.00000
     32203 MEOH     1676     MEOH     H1B      HDA3B    0.080000        1.0080           0   0.00000   0.00000
     32204 MEOH     1676     MEOH     H1C      HDA3B    0.080000        1.0080           0   0.00000   0.00000
     32205 MEOH     1676     MEOH     LP1A     LPD     -0.230000        0.0000           -1   0.00000   0.00000
     32206 MEOH     1676     MEOH     LP1B     LPD     -0.230000        0.0000           -1   0.00000   0.00000
     32207 MEOH     1677     MEOH     C1       CD33B    2.314100       11.6110           0   -1.00000   1.30000
     32208 MEOH     1677     MEOH     DC1      DRUD    -2.454100        0.4000           0   0.00000   0.00000
     32209 MEOH     1677     MEOH     O1       OD31H    2.488300       15.5990           0   -1.02800   1.30000
     32210 MEOH     1677     MEOH     DO1      DRUD    -2.488300        0.4000           0   0.00000   0.00000
     32211 MEOH     1677     MEOH     HO1      HDP1A    0.360000        1.0080           0   0.00000   0.00000
     32212 MEOH     1677     MEOH     HO2      DUMH     0.000000        1.0080           0   0.00000   0.00000
     32213 MEOH     1677     MEOH     H1A      HDA3B    0.080000        1.0080           0   0.00000   0.00000
     32214 MEOH     1677     MEOH     H1B      HDA3B    0.080000        1.0080           0   0.00000   0.00000
     32215 MEOH     1677     MEOH     H1C      HDA3B    0.080000        1.0080           0   0.00000   0.00000
     32216 MEOH     1677     MEOH     LP1A     LPD     -0.230000        0.0000           -1   0.00000   0.00000
     32217 MEOH     1677     MEOH     LP1B     LPD     -0.230000        0.0000           -1   0.00000   0.00000
     32218 MEOH     1678     MEOH     C1       CD33B    2.314100       11.6110           0   -1.00000   1.30000
     32219 MEOH     1678     MEOH     DC1      DRUD    -2.454100        0.4000           0   0.00000   0.00000
     32220 MEOH     1678     MEOH     O1       OD31H    2.488300       15.5990           0   -1.02800   1.30000
     32221 MEOH     1678     MEOH     DO1      DRUD    -2.488300        0.4000           0   0.00000   0.00000
     32222 MEOH     1678     MEOH     HO1      HDP1A    0.360000        1.0080           0   0.00000   0.00000
     32223 MEOH     1678     MEOH     HO2      DUMH     0.000000        1.0080           0   0.00000   0.00000
     32224 MEOH     1678     MEOH     H1A      HDA3B    0.080000        1.0080           0   0.00000   0.00000
     32225 MEOH     1678     MEOH     H1B      HDA3B    0.080000        1.0080           0   0.00000   0.00000
     32226 MEOH     1678     MEOH     H1C      HDA3B    0.080000        1.0080           0   0.00000   0.00000
     32227 MEOH     1678     MEOH     LP1A     LPD     -0.230000        0.0000           -1   0.00000   0.00000
     32228 MEOH     1678     MEOH     LP1B     LPD     -0.230000        0.0000           -1   0.00000   0.00000
     32229 MEOH     1679     MEOH     C1       CD33B    2.314100       11.6110           0   -1.00000   1.30000
     32230 MEOH     1679     MEOH     DC1      DRUD    -2.454100        0.4000           0   0.00000   0.00000
     32231 MEOH     1679     MEOH     O1       OD31H    2.488300       15.5990           0   -1.02800   1.30000
     32232 MEOH     1679     MEOH     DO1      DRUD    -2.488300        0.4000           0   0.00000   0.00000
     32233 MEOH     1679     MEOH     HO1      HDP1A    0.360000        1.0080           0   0.00000   0.00000
     32234 MEOH     1679     MEOH     HO2      DUMH     0.000000        1.0080           0   0.00000   0.00000
     32235 MEOH     1679     MEOH     H1A      HDA3B    0.080000        1.0080           0   0.00000   0.00000
     32236 MEOH     1679     MEOH     H1B      HDA3B    0.080000        1.0080           0   0.00000   0.00000
     32237 MEOH     1679     MEOH     H1C      HDA3B    0.080000        1.0080           0   0.00000   0.00000
     32238 MEOH     1679     MEOH     LP1A     LPD     -0.230000        0.0000           -1   0.00000   0.00000
     32239 MEOH     1679     MEOH     LP1B     LPD     -0.230000        0.0000           -1   0.00000   0.00000
     32240 MEOH     1680     MEOH     C1       CD33B    2.314100       11.6110           0   -1.00000   1.30000
     32241 MEOH     1680     MEOH     DC1      DRUD    -2.454100        0.4000           0   0.00000   0.00000
     32242 MEOH     1680     MEOH     O1       OD31H    2.488300       15.5990           0   -1.02800   1.30000
     32243 MEOH     1680     MEOH     DO1      DRUD    -2.488300        0.4000           0   0.00000   0.00000
     32244 MEOH     1680     MEOH     HO1      HDP1A    0.360000        1.0080           0   0.00000   0.00000
     32245 MEOH     1680     MEOH     HO2      DUMH     0.000000        1.0080           0   0.00000   0.00000
     32246 MEOH     1680     MEOH     H1A      HDA3B    0.080000        1.0080           0   0.00000   0.00000
     32247 MEOH     1680     MEOH     H1B      HDA3B    0.080000        1.0080           0   0.00000   0.00000
     32248 MEOH     1680     MEOH     H1C      HDA3B    0.080000        1.0080           0   0.00000   0.00000
     32249 MEOH     1680     MEOH     LP1A     LPD     -0.230000        0.0000           -1   0.00000   0.00000
     32250 MEOH     1680     MEOH     LP1B     LPD     -0.230000        0.0000           -1   0.00000   0.00000
     32251 MEOH     1681     MEOH     C1       CD33B    2.314100       11.6110           0   -1.00000   1.30000
     32252 MEOH     1681     MEOH     DC1      DRUD    -2.454100        0.4000           0   0.00000   0.00000
     32253 MEOH     1681     MEOH     O1       OD31H    2.488300       15.5990           0   -1.02800   1.30000
     32254 MEOH     1681     MEOH     DO1      DRUD    -2.488300        0.4000           0   0.00000   0.00000
     32255 MEOH     1681     MEOH     HO1      HDP1A    0.360000        1.0080           0   0.00000   0.00000
     32256 MEOH     1681     MEOH     HO2      DUMH     0.000000        1.0080           0   0.00000   0.00000
     32257 MEOH     1681     MEOH     H1A      HDA3B    0.080000        1.0080           0   0.00000   0.00000
     32258 MEOH     1681     MEOH     H1B      HDA3B    0.080000        1.0080           0   0.00000   0.00000
     32259 MEOH     1681     MEOH     H1C      HDA3B    0.080000        1.0080           0   0.00000   0.00000
     32260 MEOH     1681     MEOH     LP1A     LPD     -0.230000        0.0000           -1   0.00000   0.00000
     32261 MEOH     1681     MEOH     LP1B     LPD     -0.230000        0.0000           -1   0.00000   0.00000
     32262 MEOH     1682     MEOH     C1       CD33B    2.314100       11.6110           0   -1.00000   1.30000
     32263 MEOH     1682     MEOH     DC1      DRUD    -2.454100        0.4000           0   0.00000   0.00000
     32264 MEOH     1682     MEOH     O1       OD31H    2.488300       15.5990           0   -1.02800   1.30000
     32265 MEOH     1682     MEOH     DO1      DRUD    -2.488300        0.4000           0   0.00000   0.00000
     32266 MEOH     1682     MEOH     HO1      HDP1A    0.360000        1.0080           0   0.00000   0.00000
     32267 MEOH     1682     MEOH     HO2      DUMH     0.000000        1.0080           0   0.00000   0.00000
     32268 MEOH     1682     MEOH     H1A      HDA3B    0.080000        1.0080           0   0.00000   0.00000
     32269 MEOH     1682     MEOH     H1B      HDA3B    0.080000        1.0080           0   0.00000   0.00000
     32270 MEOH     1682     MEOH     H1C      HDA3B    0.080000        1.0080           0   0.00000   0.00000
     32271 MEOH     1682     MEOH     LP1A     LPD     -0.230000        0.0000           -1   0.00000   0.00000
     32272 MEOH     1682     MEOH     LP1B     LPD     -0.230000        0.0000           -1   0.00000   0.00000
     32273 MEOH     1683     MEOH     C1       CD33B    2.314100       11.6110           0   -1.00000   1.30000
     32274 MEOH     1683     MEOH     DC1      DRUD    -2.454100        0.4000           0   0.00000   0.00000
     32275 MEOH     1683     MEOH     O1       OD31H    2.488300       15.5990           0   -1.02800   1.30000
     32276 MEOH     1683     MEOH     DO1      DRUD    -2.488300        0.4000           0   0.00000   0.00000
     32277 MEOH     1683     MEOH     HO1      HDP1A    0.360000        1.0080           0   0.00000   0.00000
     32278 MEOH     1683     MEOH     HO2      DUMH     0.000000        1.0080           0   0.00000   0.00000
     32279 MEOH     1683     MEOH     H1A      HDA3B    0.080000        1.0080           0   0.00000   0.00000
     32280 MEOH     1683     MEOH     H1B      HDA3B    0.080000        1.0080           0   0.00000   0.00000
     32281 MEOH     1683     MEOH     H1C      HDA3B    0.080000        1.0080           0   0.00000   0.00000
     32282 MEOH     1683     MEOH     LP1A     LPD     -0.230000        0.0000           -1   0.00000   0.00000
     32283 MEOH     1683     MEOH     LP1B     LPD     -0.230000        0.0000           -1   0.00000   0.00000
     32284 MEOH     1684     MEOH     C1       CD33B    2.314100       11.6110           0   -1.00000   1.30000
     32285 MEOH     1684     MEOH     DC1      DRUD    -2.454100        0.4000           0   0.00000   0.00000
     32286 MEOH     1684     MEOH     O1       OD31H    2.488300       15.5990           0   -1.02800   1.30000
     32287 MEOH     1684     MEOH     DO1      DRUD    -2.488300        0.4000           0   0.00000   0.00000
     32288 MEOH     1684     MEOH     HO1      HDP1A    0.360000        1.0080           0   0.00000   0.00000
     32289 MEOH     1684     MEOH     HO2      DUMH     0.000000        1.0080           0   0.00000   0.00000
     32290 MEOH     1684     MEOH     H1A      HDA3B    0.080000        1.0080           0   0.00000   0.00000
     32291 MEOH     1684     MEOH     H1B      HDA3B    0.080000        1.0080           0   0.00000   0.00000
     32292 MEOH     1684     MEOH     H1C      HDA3B    0.080000        1.0080           0   0.00000   0.00000
     32293 MEOH     1684     MEOH     LP1A     LPD     -0.230000        0.0000           -1   0.00000   0.00000
     32294 MEOH     1684     MEOH     LP1B     LPD     -0.230000        0.0000           -1   0.00000   0.00000
     32295 MEOH     1685     MEOH     C1       CD33B    2.314100       11.6110           0   -1.00000   1.30000
     32296 MEOH     1685     MEOH     DC1      DRUD    -2.454100        0.4000           0   0.00000   0.00000
     32297 MEOH     1685     MEOH     O1       OD31H    2.488300       15.5990           0   -1.02800   1.30000
     32298 MEOH     1685     MEOH     DO1      DRUD    -2.488300        0.4000           0   0.00000   0.00000
     32299 MEOH     1685     MEOH     HO1      HDP1A    0.360000        1.0080           0   0.00000   0.00000
     32300 MEOH     1685     MEOH     HO2      DUMH     0.000000        1.0080           0   0.00000   0.00000
     32301 MEOH     1685     MEOH     H1A      HDA3B    0.080000        1.0080           0   0.00000   0.00000
     32302 MEOH     1685     MEOH     H1B      HDA3B    0.080000        1.0080           0   0.00000   0.00000
     32303 MEOH     1685     MEOH     H1C      HDA3B    0.080000        1.0080           0   0.00000   0.00000
     32304 MEOH     1685     MEOH     LP1A     LPD     -0.230000        0.0000           -1   0.00000   0.00000
     32305 MEOH     1685     MEOH     LP1B     LPD     -0.230000        0.0000           -1   0.00000   0.00000
     32306 MEOH     1686     MEOH     C1       CD33B    2.314100       11.6110           0   -1.00000   1.30000
     32307 MEOH     1686     MEOH     DC1      DRUD    -2.454100        0.4000           0   0.00000   0.00000
     32308 MEOH     1686     MEOH     O1       OD31H    2.488300       15.5990           0   -1.02800   1.30000
     32309 MEOH     1686     MEOH     DO1      DRUD    -2.488300        0.4000           0   0.00000   0.00000
     32310 MEOH     1686     MEOH     HO1      HDP1A    0.360000        1.0080           0   0.00000   0.00000
     32311 MEOH     1686     MEOH     HO2      DUMH     0.000000        1.0080           0   0.00000   0.00000
     32312 MEOH     1686     MEOH     H1A      HDA3B    0.080000        1.0080           0   0.00000   0.00000
     32313 MEOH     1686     MEOH     H1B      HDA3B    0.080000        1.0080           0   0.00000   0.00000
     32314 MEOH     1686     MEOH     H1C      HDA3B    0.080000        1.0080           0   0.00000   0.00000
     32315 MEOH     1686     MEOH     LP1A     LPD     -0.230000        0.0000           -1   0.00000   0.00000
     32316 MEOH     1686     MEOH     LP1B     LPD     -0.230000        0.0000           -1   0.00000   0.00000
     32317 MEOH     1687     MEOH     C1       CD33B    2.314100       11.6110           0   -1.00000   1.30000
     32318 MEOH     1687     MEOH     DC1      DRUD    -2.454100        0.4000           0   0.00000   0.00000
     32319 MEOH     1687     MEOH     O1       OD31H    2.488300       15.5990           0   -1.02800   1.30000
     32320 MEOH     1687     MEOH     DO1      DRUD    -2.488300        0.4000           0   0.00000   0.00000
     32321 MEOH     1687     MEOH     HO1      HDP1A    0.360000        1.0080           0   0.00000   0.00000
     32322 MEOH     1687     MEOH     HO2      DUMH     0.000000        1.0080           0   0.00000   0.00000
     32323 MEOH     1687     MEOH     H1A      HDA3B    0.080000        1.0080           0   0.00000   0.00000
     32324 MEOH     1687     MEOH     H1B      HDA3B    0.080000        1.0080           0   0.00000   0.00000
     32325 MEOH     1687     MEOH     H1C      HDA3B    0.080000        1.0080           0   0.00000   0.00000
     32326 MEOH     1687     MEOH     LP1A     LPD     -0.230000        0.0000           -1   0.00000   0.00000
     32327 MEOH     1687     MEOH     LP1B     LPD     -0.230000        0.0000           -1   0.00000   0.00000
     32328 MEOH     1688     MEOH     C1       CD33B    2.314100       11.6110           0   -1.00000   1.30000
     32329 MEOH     1688     MEOH     DC1      DRUD    -2.454100        0.4000           0   0.00000   0.00000
     32330 MEOH     1688     MEOH     O1       OD31H    2.488300       15.5990           0   -1.02800   1.30000
     32331 MEOH     1688     MEOH     DO1      DRUD    -2.488300        0.4000           0   0.00000   0.00000
     32332 MEOH     1688     MEOH     HO1      HDP1A    0.360000        1.0080           0   0.00000   0.00000
     32333 MEOH     1688     MEOH     HO2      DUMH     0.000000        1.0080           0   0.00000   0.00000
     32334 MEOH     1688     MEOH     H1A      HDA3B    0.080000        1.0080           0   0.00000   0.00000
     32335 MEOH     1688     MEOH     H1B      HDA3B    0.080000        1.0080           0   0.00000   0.00000
     32336 MEOH     1688     MEOH     H1C      HDA3B    0.080000        1.0080           0   0.00000   0.00000
     32337 MEOH     1688     MEOH     LP1A     LPD     -0.230000        0.0000           -1   0.00000   0.00000
     32338 MEOH     1688     MEOH     LP1B     LPD     -0.230000        0.0000           -1   0.00000   0.00000
     32339 MEOH     1689     MEOH     C1       CD33B    2.314100       11.6110           0   -1.00000   1.30000
     32340 MEOH     1689     MEOH     DC1      DRUD    -2.454100        0.4000           0   0.00000   0.00000
     32341 MEOH     1689     MEOH     O1       OD31H    2.488300       15.5990           0   -1.02800   1.30000
     32342 MEOH     1689     MEOH     DO1      DRUD    -2.488300        0.4000           0   0.00000   0.00000
     32343 MEOH     1689     MEOH     HO1      HDP1A    0.360000        1.0080           0   0.00000   0.00000
     32344 MEOH     1689     MEOH     HO2      DUMH     0.000000        1.0080           0   0.00000   0.00000
     32345 MEOH     1689     MEOH     H1A      HDA3B    0.080000        1.0080           0   0.00000   0.00000
     32346 MEOH     1689     MEOH     H1B      HDA3B    0.080000        1.0080           0   0.00000   0.00000
     32347 MEOH     1689     MEOH     H1C      HDA3B    0.080000        1.0080           0   0.00000   0.00000
     32348 MEOH     1689     MEOH     LP1A     LPD     -0.230000        0.0000           -1   0.00000   0.00000
     32349 MEOH     1689     MEOH     LP1B     LPD     -0.230000        0.0000           -1   0.00000   0.00000
     32350 MEOH     1690     MEOH     C1       CD33B    2.314100       11.6110           0   -1.00000   1.30000
     32351 MEOH     1690     MEOH     DC1      DRUD    -2.454100        0.4000           0   0.00000   0.00000
     32352 MEOH     1690     MEOH     O1       OD31H    2.488300       15.5990           0   -1.02800   1.30000
     32353 MEOH     1690     MEOH     DO1      DRUD    -2.488300        0.4000           0   0.00000   0.00000
     32354 MEOH     1690     MEOH     HO1      HDP1A    0.360000        1.0080           0   0.00000   0.00000
     32355 MEOH     1690     MEOH     HO2      DUMH     0.000000        1.0080           0   0.00000   0.00000
     32356 MEOH     1690     MEOH     H1A      HDA3B    0.080000        1.0080           0   0.00000   0.00000
     32357 MEOH     1690     MEOH     H1B      HDA3B    0.080000        1.0080           0   0.00000   0.00000
     32358 MEOH     1690     MEOH     H1C      HDA3B    0.080000        1.0080           0   0.00000   0.00000
     32359 MEOH     1690     MEOH     LP1A     LPD     -0.230000        0.0000           -1   0.00000   0.00000
     32360 MEOH     1690     MEOH     LP1B     LPD     -0.230000        0.0000           -1   0.00000   0.00000
     32361 MEOH     1691     MEOH     C1       CD33B    2.314100       11.6110           0   -1.00000   1.30000
     32362 MEOH     1691     MEOH     DC1      DRUD    -2.454100        0.4000           0   0.00000   0.00000
     32363 MEOH     1691     MEOH     O1       OD31H    2.488300       15.5990           0   -1.02800   1.30000
     32364 MEOH     1691     MEOH     DO1      DRUD    -2.488300        0.4000           0   0.00000   0.00000
     32365 MEOH     1691     MEOH     HO1      HDP1A    0.360000        1.0080           0   0.00000   0.00000
     32366 MEOH     1691     MEOH     HO2      DUMH     0.000000        1.0080           0   0.00000   0.00000
     32367 MEOH     1691     MEOH     H1A      HDA3B    0.080000        1.0080           0   0.00000   0.00000
     32368 MEOH     1691     MEOH     H1B      HDA3B    0.080000        1.0080           0   0.00000   0.00000
     32369 MEOH     1691     MEOH     H1C      HDA3B    0.080000        1.0080           0   0.00000   0.00000
     32370 MEOH     1691     MEOH     LP1A     LPD     -0.230000        0.0000           -1   0.00000   0.00000
     32371 MEOH     1691     MEOH     LP1B     LPD     -0.230000        0.0000           -1   0.00000   0.00000
     32372 MEOH     1692     MEOH     C1       CD33B    2.314100       11.6110           0   -1.00000   1.30000
     32373 MEOH     1692     MEOH     DC1      DRUD    -2.454100        0.4000           0   0.00000   0.00000
     32374 MEOH     1692     MEOH     O1       OD31H    2.488300       15.5990           0   -1.02800   1.30000
     32375 MEOH     1692     MEOH     DO1      DRUD    -2.488300        0.4000           0   0.00000   0.00000
     32376 MEOH     1692     MEOH     HO1      HDP1A    0.360000        1.0080           0   0.00000   0.00000
     32377 MEOH     1692     MEOH     HO2      DUMH     0.000000        1.0080           0   0.00000   0.00000
     32378 MEOH     1692     MEOH     H1A      HDA3B    0.080000        1.0080           0   0.00000   0.00000
     32379 MEOH     1692     MEOH     H1B      HDA3B    0.080000        1.0080           0   0.00000   0.00000
     32380 MEOH     1692     MEOH     H1C      HDA3B    0.080000        1.0080           0   0.00000   0.00000
     32381 MEOH     1692     MEOH     LP1A     LPD     -0.230000        0.0000           -1   0.00000   0.00000
     32382 MEOH     1692     MEOH     LP1B     LPD     -0.230000        0.0000           -1   0.00000   0.00000
     32383 MEOH     1693     MEOH     C1       CD33B    2.314100       11.6110           0   -1.00000   1.30000
     32384 MEOH     1693     MEOH     DC1      DRUD    -2.454100        0.4000           0   0.00000   0.00000
     32385 MEOH     1693     MEOH     O1       OD31H    2.488300       15.5990           0   -1.02800   1.30000
     32386 MEOH     1693     MEOH     DO1      DRUD    -2.488300        0.4000           0   0.00000   0.00000
     32387 MEOH     1693     MEOH     HO1      HDP1A    0.360000        1.0080           0   0.00000   0.00000
     32388 MEOH     1693     MEOH     HO2      DUMH     0.000000        1.0080           0   0.00000   0.00000
     32389 MEOH     1693     MEOH     H1A      HDA3B    0.080000        1.0080           0   0.00000   0.00000
     32390 MEOH     1693     MEOH     H1B      HDA3B    0.080000        1.0080           0   0.00000   0.00000
     32391 MEOH     1693     MEOH     H1C      HDA3B    0.080000        1.0080           0   0.00000   0.00000
     32392 MEOH     1693     MEOH     LP1A     LPD     -0.230000        0.0000           -1   0.00000   0.00000
     32393 MEOH     1693     MEOH     LP1B     LPD     -0.230000        0.0000           -1   0.00000   0.00000
     32394 MEOH     1694     MEOH     C1       CD33B    2.314100       11.6110           0   -1.00000   1.30000
     32395 MEOH     1694     MEOH     DC1      DRUD    -2.454100        0.4000           0   0.00000   0.00000
     32396 MEOH     1694     MEOH     O1       OD31H    2.488300       15.5990           0   -1.02800   1.30000
     32397 MEOH     1694     MEOH     DO1      DRUD    -2.488300        0.4000           0   0.00000   0.00000
     32398 MEOH     1694     MEOH     HO1      HDP1A    0.360000        1.0080           0   0.00000   0.00000
     32399 MEOH     1694     MEOH     HO2      DUMH     0.000000        1.0080           0   0.00000   0.00000
     32400 MEOH     1694     MEOH     H1A      HDA3B    0.080000        1.0080           0   0.00000   0.00000
     32401 MEOH     1694     MEOH     H1B      HDA3B    0.080000        1.0080           0   0.00000   0.00000
     32402 MEOH     1694     MEOH     H1C      HDA3B    0.080000        1.0080           0   0.00000   0.00000
     32403 MEOH     1694     MEOH     LP1A     LPD     -0.230000        0.0000           -1   0.00000   0.00000
     32404 MEOH     1694     MEOH     LP1B     LPD     -0.230000        0.0000           -1   0.00000   0.00000
     32405 MEOH     1695     MEOH     C1       CD33B    2.314100       11.6110           0   -1.00000   1.30000
     32406 MEOH     1695     MEOH     DC1      DRUD    -2.454100        0.4000           0   0.00000   0.00000
     32407 MEOH     1695     MEOH     O1       OD31H    2.488300       15.5990           0   -1.02800   1.30000
     32408 MEOH     1695     MEOH     DO1      DRUD    -2.488300        0.4000           0   0.00000   0.00000
     32409 MEOH     1695     MEOH     HO1      HDP1A    0.360000        1.0080           0   0.00000   0.00000
     32410 MEOH     1695     MEOH     HO2      DUMH     0.000000        1.0080           0   0.00000   0.00000
     32411 MEOH     1695     MEOH     H1A      HDA3B    0.080000        1.0080           0   0.00000   0.00000
     32412 MEOH     1695     MEOH     H1B      HDA3B    0.080000        1.0080           0   0.00000   0.00000
     32413 MEOH     1695     MEOH     H1C      HDA3B    0.080000        1.0080           0   0.00000   0.00000
     32414 MEOH     1695     MEOH     LP1A     LPD     -0.230000        0.0000           -1   0.00000   0.00000
     32415 MEOH     1695     MEOH     LP1B     LPD     -0.230000        0.0000           -1   0.00000   0.00000
     32416 MEOH     1696     MEOH     C1       CD33B    2.314100       11.6110           0   -1.00000   1.30000
     32417 MEOH     1696     MEOH     DC1      DRUD    -2.454100        0.4000           0   0.00000   0.00000
     32418 MEOH     1696     MEOH     O1       OD31H    2.488300       15.5990           0   -1.02800   1.30000
     32419 MEOH     1696     MEOH     DO1      DRUD    -2.488300        0.4000           0   0.00000   0.00000
     32420 MEOH     1696     MEOH     HO1      HDP1A    0.360000        1.0080           0   0.00000   0.00000
     32421 MEOH     1696     MEOH     HO2      DUMH     0.000000        1.0080           0   0.00000   0.00000
     32422 MEOH     1696     MEOH     H1A      HDA3B    0.080000        1.0080           0   0.00000   0.00000
     32423 MEOH     1696     MEOH     H1B      HDA3B    0.080000        1.0080           0   0.00000   0.00000
     32424 MEOH     1696     MEOH     H1C      HDA3B    0.080000        1.0080           0   0.00000   0.00000
     32425 MEOH     1696     MEOH     LP1A     LPD     -0.230000        0.0000           -1   0.00000   0.00000
     32426 MEOH     1696     MEOH     LP1B     LPD     -0.230000        0.0000           -1   0.00000   0.00000
     32427 MEOH     1697     MEOH     C1       CD33B    2.314100       11.6110           0   -1.00000   1.30000
     32428 MEOH     1697     MEOH     DC1      DRUD    -2.454100        0.4000           0   0.00000   0.00000
     32429 MEOH     1697     MEOH     O1       OD31H    2.488300       15.5990           0   -1.02800   1.30000
     32430 MEOH     1697     MEOH     DO1      DRUD    -2.488300        0.4000           0   0.00000   0.00000
     32431 MEOH     1697     MEOH     HO1      HDP1A    0.360000        1.0080           0   0.00000   0.00000
     32432 MEOH     1697     MEOH     HO2      DUMH     0.000000        1.0080           0   0.00000   0.00000
     32433 MEOH     1697     MEOH     H1A      HDA3B    0.080000        1.0080           0   0.00000   0.00000
     32434 MEOH     1697     MEOH     H1B      HDA3B    0.080000        1.0080           0   0.00000   0.00000
     32435 MEOH     1697     MEOH     H1C      HDA3B    0.080000        1.0080           0   0.00000   0.00000
     32436 MEOH     1697     MEOH     LP1A     LPD     -0.230000        0.0000           -1   0.00000   0.00000
     32437 MEOH     1697     MEOH     LP1B     LPD     -0.230000        0.0000           -1   0.00000   0.00000
     32438 MEOH     1698     MEOH     C1       CD33B    2.314100       11.6110           0   -1.00000   1.30000
     32439 MEOH     1698     MEOH     DC1      DRUD    -2.454100        0.4000           0   0.00000   0.00000
     32440 MEOH     1698     MEOH     O1       OD31H    2.488300       15.5990           0   -1.02800   1.30000
     32441 MEOH     1698     MEOH     DO1      DRUD    -2.488300        0.4000           0   0.00000   0.00000
     32442 MEOH     1698     MEOH     HO1      HDP1A    0.360000        1.0080           0   0.00000   0.00000
     32443 MEOH     1698     MEOH     HO2      DUMH     0.000000        1.0080           0   0.00000   0.00000
     32444 MEOH     1698     MEOH     H1A      HDA3B    0.080000        1.0080           0   0.00000   0.00000
     32445 MEOH     1698     MEOH     H1B      HDA3B    0.080000        1.0080           0   0.00000   0.00000
     32446 MEOH     1698     MEOH     H1C      HDA3B    0.080000        1.0080           0   0.00000   0.00000
     32447 MEOH     1698     MEOH     LP1A     LPD     -0.230000        0.0000           -1   0.00000   0.00000
     32448 MEOH     1698     MEOH     LP1B     LPD     -0.230000        0.0000           -1   0.00000   0.00000
     32449 MEOH     1699     MEOH     C1       CD33B    2.314100       11.6110           0   -1.00000   1.30000
     32450 MEOH     1699     MEOH     DC1      DRUD    -2.454100        0.4000           0   0.00000   0.00000
     32451 MEOH     1699     MEOH     O1       OD31H    2.488300       15.5990           0   -1.02800   1.30000
     32452 MEOH     1699     MEOH     DO1      DRUD    -2.488300        0.4000           0   0.00000   0.00000
     32453 MEOH     1699     MEOH     HO1      HDP1A    0.360000        1.0080           0   0.00000   0.00000
     32454 MEOH     1699     MEOH     HO2      DUMH     0.000000        1.0080           0   0.00000   0.00000
     32455 MEOH     1699     MEOH     H1A      HDA3B    0.080000        1.0080           0   0.00000   0.00000
     32456 MEOH     1699     MEOH     H1B      HDA3B    0.080000        1.0080           0   0.00000   0.00000
     32457 MEOH     1699     MEOH     H1C      HDA3B    0.080000        1.0080           0   0.00000   0.00000
     32458 MEOH     1699     MEOH     LP1A     LPD     -0.230000        0.0000           -1   0.00000   0.00000
     32459 MEOH     1699     MEOH     LP1B     LPD     -0.230000        0.0000           -1   0.00000   0.00000
     32460 MEOH     1700     MEOH     C1       CD33B    2.314100       11.6110           0   -1.00000   1.30000
     32461 MEOH     1700     MEOH     DC1      DRUD    -2.454100        0.4000           0   0.00000   0.00000
     32462 MEOH     1700     MEOH     O1       OD31H    2.488300       15.5990           0   -1.02800   1.30000
     32463 MEOH     1700     MEOH     DO1      DRUD    -2.488300        0.4000           0   0.00000   0.00000
     32464 MEOH     1700     MEOH     HO1      HDP1A    0.360000        1.0080           0   0.00000   0.00000
     32465 MEOH     1700     MEOH     HO2      DUMH     0.000000        1.0080           0   0.00000   0.00000
     32466 MEOH     1700     MEOH     H1A      HDA3B    0.080000        1.0080           0   0.00000   0.00000
     32467 MEOH     1700     MEOH     H1B      HDA3B    0.080000        1.0080           0   0.00000   0.00000
     32468 MEOH     1700     MEOH     H1C      HDA3B    0.080000        1.0080           0   0.00000   0.00000
     32469 MEOH     1700     MEOH     LP1A     LPD     -0.230000        0.0000           -1   0.00000   0.00000
     32470 MEOH     1700     MEOH     LP1B     LPD     -0.230000        0.0000           -1   0.00000   0.00000
     32471 MEOH     1701     MEOH     C1       CD33B    2.314100       11.6110           0   -1.00000   1.30000
     32472 MEOH     1701     MEOH     DC1      DRUD    -2.454100        0.4000           0   0.00000   0.00000
     32473 MEOH     1701     MEOH     O1       OD31H    2.488300       15.5990           0   -1.02800   1.30000
     32474 MEOH     1701     MEOH     DO1      DRUD    -2.488300        0.4000           0   0.00000   0.00000
     32475 MEOH     1701     MEOH     HO1      HDP1A    0.360000        1.0080           0   0.00000   0.00000
     32476 MEOH     1701     MEOH     HO2      DUMH     0.000000        1.0080           0   0.00000   0.00000
     32477 MEOH     1701     MEOH     H1A      HDA3B    0.080000        1.0080           0   0.00000   0.00000
     32478 MEOH     1701     MEOH     H1B      HDA3B    0.080000        1.0080           0   0.00000   0.00000
     32479 MEOH     1701     MEOH     H1C      HDA3B    0.080000        1.0080           0   0.00000   0.00000
     32480 MEOH     1701     MEOH     LP1A     LPD     -0.230000        0.0000           -1   0.00000   0.00000
     32481 MEOH     1701     MEOH     LP1B     LPD     -0.230000        0.0000           -1   0.00000   0.00000
     32482 MEOH     1702     MEOH     C1       CD33B    2.314100       11.6110           0   -1.00000   1.30000
     32483 MEOH     1702     MEOH     DC1      DRUD    -2.454100        0.4000           0   0.00000   0.00000
     32484 MEOH     1702     MEOH     O1       OD31H    2.488300       15.5990           0   -1.02800   1.30000
     32485 MEOH     1702     MEOH     DO1      DRUD    -2.488300        0.4000           0   0.00000   0.00000
     32486 MEOH     1702     MEOH     HO1      HDP1A    0.360000        1.0080           0   0.00000   0.00000
     32487 MEOH     1702     MEOH     HO2      DUMH     0.000000        1.0080           0   0.00000   0.00000
     32488 MEOH     1702     MEOH     H1A      HDA3B    0.080000        1.0080           0   0.00000   0.00000
     32489 MEOH     1702     MEOH     H1B      HDA3B    0.080000        1.0080           0   0.00000   0.00000
     32490 MEOH     1702     MEOH     H1C      HDA3B    0.080000        1.0080           0   0.00000   0.00000
     32491 MEOH     1702     MEOH     LP1A     LPD     -0.230000        0.0000           -1   0.00000   0.00000
     32492 MEOH     1702     MEOH     LP1B     LPD     -0.230000        0.0000           -1   0.00000   0.00000
     32493 MEOH     1703     MEOH     C1       CD33B    2.314100       11.6110           0   -1.00000   1.30000
     32494 MEOH     1703     MEOH     DC1      DRUD    -2.454100        0.4000           0   0.00000   0.00000
     32495 MEOH     1703     MEOH     O1       OD31H    2.488300       15.5990           0   -1.02800   1.30000
     32496 MEOH     1703     MEOH     DO1      DRUD    -2.488300        0.4000           0   0.00000   0.00000
     32497 MEOH     1703     MEOH     HO1      HDP1A    0.360000        1.0080           0   0.00000   0.00000
     32498 MEOH     1703     MEOH     HO2      DUMH     0.000000        1.0080           0   0.00000   0.00000
     32499 MEOH     1703     MEOH     H1A      HDA3B    0.080000        1.0080           0   0.00000   0.00000
     32500 MEOH     1703     MEOH     H1B      HDA3B    0.080000        1.0080           0   0.00000   0.00000
     32501 MEOH     1703     MEOH     H1C      HDA3B    0.080000        1.0080           0   0.00000   0.00000
     32502 MEOH     1703     MEOH     LP1A     LPD     -0.230000        0.0000           -1   0.00000   0.00000
     32503 MEOH     1703     MEOH     LP1B     LPD     -0.230000        0.0000           -1   0.00000   0.00000
     32504 MEOH     1704     MEOH     C1       CD33B    2.314100       11.6110           0   -1.00000   1.30000
     32505 MEOH     1704     MEOH     DC1      DRUD    -2.454100        0.4000           0   0.00000   0.00000
     32506 MEOH     1704     MEOH     O1       OD31H    2.488300       15.5990           0   -1.02800   1.30000
     32507 MEOH     1704     MEOH     DO1      DRUD    -2.488300        0.4000           0   0.00000   0.00000
     32508 MEOH     1704     MEOH     HO1      HDP1A    0.360000        1.0080           0   0.00000   0.00000
     32509 MEOH     1704     MEOH     HO2      DUMH     0.000000        1.0080           0   0.00000   0.00000
     32510 MEOH     1704     MEOH     H1A      HDA3B    0.080000        1.0080           0   0.00000   0.00000
     32511 MEOH     1704     MEOH     H1B      HDA3B    0.080000        1.0080           0   0.00000   0.00000
     32512 MEOH     1704     MEOH     H1C      HDA3B    0.080000        1.0080           0   0.00000   0.00000
     32513 MEOH     1704     MEOH     LP1A     LPD     -0.230000        0.0000           -1   0.00000   0.00000
     32514 MEOH     1704     MEOH     LP1B     LPD     -0.230000        0.0000           -1   0.00000   0.00000
     32515 MEOH     1705     MEOH     C1       CD33B    2.314100       11.6110           0   -1.00000   1.30000
     32516 MEOH     1705     MEOH     DC1      DRUD    -2.454100        0.4000           0   0.00000   0.00000
     32517 MEOH     1705     MEOH     O1       OD31H    2.488300       15.5990           0   -1.02800   1.30000
     32518 MEOH     1705     MEOH     DO1      DRUD    -2.488300        0.4000           0   0.00000   0.00000
     32519 MEOH     1705     MEOH     HO1      HDP1A    0.360000        1.0080           0   0.00000   0.00000
     32520 MEOH     1705     MEOH     HO2      DUMH     0.000000        1.0080           0   0.00000   0.00000
     32521 MEOH     1705     MEOH     H1A      HDA3B    0.080000        1.0080           0   0.00000   0.00000
     32522 MEOH     1705     MEOH     H1B      HDA3B    0.080000        1.0080           0   0.00000   0.00000
     32523 MEOH     1705     MEOH     H1C      HDA3B    0.080000        1.0080           0   0.00000   0.00000
     32524 MEOH     1705     MEOH     LP1A     LPD     -0.230000        0.0000           -1   0.00000   0.00000
     32525 MEOH     1705     MEOH     LP1B     LPD     -0.230000        0.0000           -1   0.00000   0.00000
     32526 MEOH     1706     MEOH     C1       CD33B    2.314100       11.6110           0   -1.00000   1.30000
     32527 MEOH     1706     MEOH     DC1      DRUD    -2.454100        0.4000           0   0.00000   0.00000
     32528 MEOH     1706     MEOH     O1       OD31H    2.488300       15.5990           0   -1.02800   1.30000
     32529 MEOH     1706     MEOH     DO1      DRUD    -2.488300        0.4000           0   0.00000   0.00000
     32530 MEOH     1706     MEOH     HO1      HDP1A    0.360000        1.0080           0   0.00000   0.00000
     32531 MEOH     1706     MEOH     HO2      DUMH     0.000000        1.0080           0   0.00000   0.00000
     32532 MEOH     1706     MEOH     H1A      HDA3B    0.080000        1.0080           0   0.00000   0.00000
     32533 MEOH     1706     MEOH     H1B      HDA3B    0.080000        1.0080           0   0.00000   0.00000
     32534 MEOH     1706     MEOH     H1C      HDA3B    0.080000        1.0080           0   0.00000   0.00000
     32535 MEOH     1706     MEOH     LP1A     LPD     -0.230000        0.0000           -1   0.00000   0.00000
     32536 MEOH     1706     MEOH     LP1B     LPD     -0.230000        0.0000           -1   0.00000   0.00000
     32537 MEOH     1707     MEOH     C1       CD33B    2.314100       11.6110           0   -1.00000   1.30000
     32538 MEOH     1707     MEOH     DC1      DRUD    -2.454100        0.4000           0   0.00000   0.00000
     32539 MEOH     1707     MEOH     O1       OD31H    2.488300       15.5990           0   -1.02800   1.30000
     32540 MEOH     1707     MEOH     DO1      DRUD    -2.488300        0.4000           0   0.00000   0.00000
     32541 MEOH     1707     MEOH     HO1      HDP1A    0.360000        1.0080           0   0.00000   0.00000
     32542 MEOH     1707     MEOH     HO2      DUMH     0.000000        1.0080           0   0.00000   0.00000
     32543 MEOH     1707     MEOH     H1A      HDA3B    0.080000        1.0080           0   0.00000   0.00000
     32544 MEOH     1707     MEOH     H1B      HDA3B    0.080000        1.0080           0   0.00000   0.00000
     32545 MEOH     1707     MEOH     H1C      HDA3B    0.080000        1.0080           0   0.00000   0.00000
     32546 MEOH     1707     MEOH     LP1A     LPD     -0.230000        0.0000           -1   0.00000   0.00000
     32547 MEOH     1707     MEOH     LP1B     LPD     -0.230000        0.0000           -1   0.00000   0.00000
     32548 MEOH     1708     MEOH     C1       CD33B    2.314100       11.6110           0   -1.00000   1.30000
     32549 MEOH     1708     MEOH     DC1      DRUD    -2.454100        0.4000           0   0.00000   0.00000
     32550 MEOH     1708     MEOH     O1       OD31H    2.488300       15.5990           0   -1.02800   1.30000
     32551 MEOH     1708     MEOH     DO1      DRUD    -2.488300        0.4000           0   0.00000   0.00000
     32552 MEOH     1708     MEOH     HO1      HDP1A    0.360000        1.0080           0   0.00000   0.00000
     32553 MEOH     1708     MEOH     HO2      DUMH     0.000000        1.0080           0   0.00000   0.00000
     32554 MEOH     1708     MEOH     H1A      HDA3B    0.080000        1.0080           0   0.00000   0.00000
     32555 MEOH     1708     MEOH     H1B      HDA3B    0.080000        1.0080           0   0.00000   0.00000
     32556 MEOH     1708     MEOH     H1C      HDA3B    0.080000        1.0080           0   0.00000   0.00000
     32557 MEOH     1708     MEOH     LP1A     LPD     -0.230000        0.0000           -1   0.00000   0.00000
     32558 MEOH     1708     MEOH     LP1B     LPD     -0.230000        0.0000           -1   0.00000   0.00000
     32559 MEOH     1709     MEOH     C1       CD33B    2.314100       11.6110           0   -1.00000   1.30000
     32560 MEOH     1709     MEOH     DC1      DRUD    -2.454100        0.4000           0   0.00000   0.00000
     32561 MEOH     1709     MEOH     O1       OD31H    2.488300       15.5990           0   -1.02800   1.30000
     32562 MEOH     1709     MEOH     DO1      DRUD    -2.488300        0.4000           0   0.00000   0.00000
     32563 MEOH     1709     MEOH     HO1      HDP1A    0.360000        1.0080           0   0.00000   0.00000
     32564 MEOH     1709     MEOH     HO2      DUMH     0.000000        1.0080           0   0.00000   0.00000
     32565 MEOH     1709     MEOH     H1A      HDA3B    0.080000        1.0080           0   0.00000   0.00000
     32566 MEOH     1709     MEOH     H1B      HDA3B    0.080000        1.0080           0   0.00000   0.00000
     32567 MEOH     1709     MEOH     H1C      HDA3B    0.080000        1.0080           0   0.00000   0.00000
     32568 MEOH     1709     MEOH     LP1A     LPD     -0.230000        0.0000           -1   0.00000   0.00000
     32569 MEOH     1709     MEOH     LP1B     LPD     -0.230000        0.0000           -1   0.00000   0.00000
     32570 MEOH     1710     MEOH     C1       CD33B    2.314100       11.6110           0   -1.00000   1.30000
     32571 MEOH     1710     MEOH     DC1      DRUD    -2.454100        0.4000           0   0.00000   0.00000
     32572 MEOH     1710     MEOH     O1       OD31H    2.488300       15.5990           0   -1.02800   1.30000
     32573 MEOH     1710     MEOH     DO1      DRUD    -2.488300        0.4000           0   0.00000   0.00000
     32574 MEOH     1710     MEOH     HO1      HDP1A    0.360000        1.0080           0   0.00000   0.00000
     32575 MEOH     1710     MEOH     HO2      DUMH     0.000000        1.0080           0   0.00000   0.00000
     32576 MEOH     1710     MEOH     H1A      HDA3B    0.080000        1.0080           0   0.00000   0.00000
     32577 MEOH     1710     MEOH     H1B      HDA3B    0.080000        1.0080           0   0.00000   0.00000
     32578 MEOH     1710     MEOH     H1C      HDA3B    0.080000        1.0080           0   0.00000   0.00000
     32579 MEOH     1710     MEOH     LP1A     LPD     -0.230000        0.0000           -1   0.00000   0.00000
     32580 MEOH     1710     MEOH     LP1B     LPD     -0.230000        0.0000           -1   0.00000   0.00000
     32581 MEOH     1711     MEOH     C1       CD33B    2.314100       11.6110           0   -1.00000   1.30000
     32582 MEOH     1711     MEOH     DC1      DRUD    -2.454100        0.4000           0   0.00000   0.00000
     32583 MEOH     1711     MEOH     O1       OD31H    2.488300       15.5990           0   -1.02800   1.30000
     32584 MEOH     1711     MEOH     DO1      DRUD    -2.488300        0.4000           0   0.00000   0.00000
     32585 MEOH     1711     MEOH     HO1      HDP1A    0.360000        1.0080           0   0.00000   0.00000
     32586 MEOH     1711     MEOH     HO2      DUMH     0.000000        1.0080           0   0.00000   0.00000
     32587 MEOH     1711     MEOH     H1A      HDA3B    0.080000        1.0080           0   0.00000   0.00000
     32588 MEOH     1711     MEOH     H1B      HDA3B    0.080000        1.0080           0   0.00000   0.00000
     32589 MEOH     1711     MEOH     H1C      HDA3B    0.080000        1.0080           0   0.00000   0.00000
     32590 MEOH     1711     MEOH     LP1A     LPD     -0.230000        0.0000           -1   0.00000   0.00000
     32591 MEOH     1711     MEOH     LP1B     LPD     -0.230000        0.0000           -1   0.00000   0.00000
     32592 MEOH     1712     MEOH     C1       CD33B    2.314100       11.6110           0   -1.00000   1.30000
     32593 MEOH     1712     MEOH     DC1      DRUD    -2.454100        0.4000           0   0.00000   0.00000
     32594 MEOH     1712     MEOH     O1       OD31H    2.488300       15.5990           0   -1.02800   1.30000
     32595 MEOH     1712     MEOH     DO1      DRUD    -2.488300        0.4000           0   0.00000   0.00000
     32596 MEOH     1712     MEOH     HO1      HDP1A    0.360000        1.0080           0   0.00000   0.00000
     32597 MEOH     1712     MEOH     HO2      DUMH     0.000000        1.0080           0   0.00000   0.00000
     32598 MEOH     1712     MEOH     H1A      HDA3B    0.080000        1.0080           0   0.00000   0.00000
     32599 MEOH     1712     MEOH     H1B      HDA3B    0.080000        1.0080           0   0.00000   0.00000
     32600 MEOH     1712     MEOH     H1C      HDA3B    0.080000        1.0080           0   0.00000   0.00000
     32601 MEOH     1712     MEOH     LP1A     LPD     -0.230000        0.0000           -1   0.00000   0.00000
     32602 MEOH     1712     MEOH     LP1B     LPD     -0.230000        0.0000           -1   0.00000   0.00000
     32603 MEOH     1713     MEOH     C1       CD33B    2.314100       11.6110           0   -1.00000   1.30000
     32604 MEOH     1713     MEOH     DC1      DRUD    -2.454100        0.4000           0   0.00000   0.00000
     32605 MEOH     1713     MEOH     O1       OD31H    2.488300       15.5990           0   -1.02800   1.30000
     32606 MEOH     1713     MEOH     DO1      DRUD    -2.488300        0.4000           0   0.00000   0.00000
     32607 MEOH     1713     MEOH     HO1      HDP1A    0.360000        1.0080           0   0.00000   0.00000
     32608 MEOH     1713     MEOH     HO2      DUMH     0.000000        1.0080           0   0.00000   0.00000
     32609 MEOH     1713     MEOH     H1A      HDA3B    0.080000        1.0080           0   0.00000   0.00000
     32610 MEOH     1713     MEOH     H1B      HDA3B    0.080000        1.0080           0   0.00000   0.00000
     32611 MEOH     1713     MEOH     H1C      HDA3B    0.080000        1.0080           0   0.00000   0.00000
     32612 MEOH     1713     MEOH     LP1A     LPD     -0.230000        0.0000           -1   0.00000   0.00000
     32613 MEOH     1713     MEOH     LP1B     LPD     -0.230000        0.0000           -1   0.00000   0.00000
     32614 MEOH     1714     MEOH     C1       CD33B    2.314100       11.6110           0   -1.00000   1.30000
     32615 MEOH     1714     MEOH     DC1      DRUD    -2.454100        0.4000           0   0.00000   0.00000
     32616 MEOH     1714     MEOH     O1       OD31H    2.488300       15.5990           0   -1.02800   1.30000
     32617 MEOH     1714     MEOH     DO1      DRUD    -2.488300        0.4000           0   0.00000   0.00000
     32618 MEOH     1714     MEOH     HO1      HDP1A    0.360000        1.0080           0   0.00000   0.00000
     32619 MEOH     1714     MEOH     HO2      DUMH     0.000000        1.0080           0   0.00000   0.00000
     32620 MEOH     1714     MEOH     H1A      HDA3B    0.080000        1.0080           0   0.00000   0.00000
     32621 MEOH     1714     MEOH     H1B      HDA3B    0.080000        1.0080           0   0.00000   0.00000
     32622 MEOH     1714     MEOH     H1C      HDA3B    0.080000        1.0080           0   0.00000   0.00000
     32623 MEOH     1714     MEOH     LP1A     LPD     -0.230000        0.0000           -1   0.00000   0.00000
     32624 MEOH     1714     MEOH     LP1B     LPD     -0.230000        0.0000           -1   0.00000   0.00000
     32625 MEOH     1715     MEOH     C1       CD33B    2.314100       11.6110           0   -1.00000   1.30000
     32626 MEOH     1715     MEOH     DC1      DRUD    -2.454100        0.4000           0   0.00000   0.00000
     32627 MEOH     1715     MEOH     O1       OD31H    2.488300       15.5990           0   -1.02800   1.30000
     32628 MEOH     1715     MEOH     DO1      DRUD    -2.488300        0.4000           0   0.00000   0.00000
     32629 MEOH     1715     MEOH     HO1      HDP1A    0.360000        1.0080           0   0.00000   0.00000
     32630 MEOH     1715     MEOH     HO2      DUMH     0.000000        1.0080           0   0.00000   0.00000
     32631 MEOH     1715     MEOH     H1A      HDA3B    0.080000        1.0080           0   0.00000   0.00000
     32632 MEOH     1715     MEOH     H1B      HDA3B    0.080000        1.0080           0   0.00000   0.00000
     32633 MEOH     1715     MEOH     H1C      HDA3B    0.080000        1.0080           0   0.00000   0.00000
     32634 MEOH     1715     MEOH     LP1A     LPD     -0.230000        0.0000           -1   0.00000   0.00000
     32635 MEOH     1715     MEOH     LP1B     LPD     -0.230000        0.0000           -1   0.00000   0.00000
     32636 MEOH     1716     MEOH     C1       CD33B    2.314100       11.6110           0   -1.00000   1.30000
     32637 MEOH     1716     MEOH     DC1      DRUD    -2.454100        0.4000           0   0.00000   0.00000
     32638 MEOH     1716     MEOH     O1       OD31H    2.488300       15.5990           0   -1.02800   1.30000
     32639 MEOH     1716     MEOH     DO1      DRUD    -2.488300        0.4000           0   0.00000   0.00000
     32640 MEOH     1716     MEOH     HO1      HDP1A    0.360000        1.0080           0   0.00000   0.00000
     32641 MEOH     1716     MEOH     HO2      DUMH     0.000000        1.0080           0   0.00000   0.00000
     32642 MEOH     1716     MEOH     H1A      HDA3B    0.080000        1.0080           0   0.00000   0.00000
     32643 MEOH     1716     MEOH     H1B      HDA3B    0.080000        1.0080           0   0.00000   0.00000
     32644 MEOH     1716     MEOH     H1C      HDA3B    0.080000        1.0080           0   0.00000   0.00000
     32645 MEOH     1716     MEOH     LP1A     LPD     -0.230000        0.0000           -1   0.00000   0.00000
     32646 MEOH     1716     MEOH     LP1B     LPD     -0.230000        0.0000           -1   0.00000   0.00000
     32647 MEOH     1717     MEOH     C1       CD33B    2.314100       11.6110           0   -1.00000   1.30000
     32648 MEOH     1717     MEOH     DC1      DRUD    -2.454100        0.4000           0   0.00000   0.00000
     32649 MEOH     1717     MEOH     O1       OD31H    2.488300       15.5990           0   -1.02800   1.30000
     32650 MEOH     1717     MEOH     DO1      DRUD    -2.488300        0.4000           0   0.00000   0.00000
     32651 MEOH     1717     MEOH     HO1      HDP1A    0.360000        1.0080           0   0.00000   0.00000
     32652 MEOH     1717     MEOH     HO2      DUMH     0.000000        1.0080           0   0.00000   0.00000
     32653 MEOH     1717     MEOH     H1A      HDA3B    0.080000        1.0080           0   0.00000   0.00000
     32654 MEOH     1717     MEOH     H1B      HDA3B    0.080000        1.0080           0   0.00000   0.00000
     32655 MEOH     1717     MEOH     H1C      HDA3B    0.080000        1.0080           0   0.00000   0.00000
     32656 MEOH     1717     MEOH     LP1A     LPD     -0.230000        0.0000           -1   0.00000   0.00000
     32657 MEOH     1717     MEOH     LP1B     LPD     -0.230000        0.0000           -1   0.00000   0.00000
     32658 MEOH     1718     MEOH     C1       CD33B    2.314100       11.6110           0   -1.00000   1.30000
     32659 MEOH     1718     MEOH     DC1      DRUD    -2.454100        0.4000           0   0.00000   0.00000
     32660 MEOH     1718     MEOH     O1       OD31H    2.488300       15.5990           0   -1.02800   1.30000
     32661 MEOH     1718     MEOH     DO1      DRUD    -2.488300        0.4000           0   0.00000   0.00000
     32662 MEOH     1718     MEOH     HO1      HDP1A    0.360000        1.0080           0   0.00000   0.00000
     32663 MEOH     1718     MEOH     HO2      DUMH     0.000000        1.0080           0   0.00000   0.00000
     32664 MEOH     1718     MEOH     H1A      HDA3B    0.080000        1.0080           0   0.00000   0.00000
     32665 MEOH     1718     MEOH     H1B      HDA3B    0.080000        1.0080           0   0.00000   0.00000
     32666 MEOH     1718     MEOH     H1C      HDA3B    0.080000        1.0080           0   0.00000   0.00000
     32667 MEOH     1718     MEOH     LP1A     LPD     -0.230000        0.0000           -1   0.00000   0.00000
     32668 MEOH     1718     MEOH     LP1B     LPD     -0.230000        0.0000           -1   0.00000   0.00000
     32669 MEOH     1719     MEOH     C1       CD33B    2.314100       11.6110           0   -1.00000   1.30000
     32670 MEOH     1719     MEOH     DC1      DRUD    -2.454100        0.4000           0   0.00000   0.00000
     32671 MEOH     1719     MEOH     O1       OD31H    2.488300       15.5990           0   -1.02800   1.30000
     32672 MEOH     1719     MEOH     DO1      DRUD    -2.488300        0.4000           0   0.00000   0.00000
     32673 MEOH     1719     MEOH     HO1      HDP1A    0.360000        1.0080           0   0.00000   0.00000
     32674 MEOH     1719     MEOH     HO2      DUMH     0.000000        1.0080           0   0.00000   0.00000
     32675 MEOH     1719     MEOH     H1A      HDA3B    0.080000        1.0080           0   0.00000   0.00000
     32676 MEOH     1719     MEOH     H1B      HDA3B    0.080000        1.0080           0   0.00000   0.00000
     32677 MEOH     1719     MEOH     H1C      HDA3B    0.080000        1.0080           0   0.00000   0.00000
     32678 MEOH     1719     MEOH     LP1A     LPD     -0.230000        0.0000           -1   0.00000   0.00000
     32679 MEOH     1719     MEOH     LP1B     LPD     -0.230000        0.0000           -1   0.00000   0.00000
     32680 MEOH     1720     MEOH     C1       CD33B    2.314100       11.6110           0   -1.00000   1.30000
     32681 MEOH     1720     MEOH     DC1      DRUD    -2.454100        0.4000           0   0.00000   0.00000
     32682 MEOH     1720     MEOH     O1       OD31H    2.488300       15.5990           0   -1.02800   1.30000
     32683 MEOH     1720     MEOH     DO1      DRUD    -2.488300        0.4000           0   0.00000   0.00000
     32684 MEOH     1720     MEOH     HO1      HDP1A    0.360000        1.0080           0   0.00000   0.00000
     32685 MEOH     1720     MEOH     HO2      DUMH     0.000000        1.0080           0   0.00000   0.00000
     32686 MEOH     1720     MEOH     H1A      HDA3B    0.080000        1.0080           0   0.00000   0.00000
     32687 MEOH     1720     MEOH     H1B      HDA3B    0.080000        1.0080           0   0.00000   0.00000
     32688 MEOH     1720     MEOH     H1C      HDA3B    0.080000        1.0080           0   0.00000   0.00000
     32689 MEOH     1720     MEOH     LP1A     LPD     -0.230000        0.0000           -1   0.00000   0.00000
     32690 MEOH     1720     MEOH     LP1B     LPD     -0.230000        0.0000           -1   0.00000   0.00000
     32691 MEOH     1721     MEOH     C1       CD33B    2.314100       11.6110           0   -1.00000   1.30000
     32692 MEOH     1721     MEOH     DC1      DRUD    -2.454100        0.4000           0   0.00000   0.00000
     32693 MEOH     1721     MEOH     O1       OD31H    2.488300       15.5990           0   -1.02800   1.30000
     32694 MEOH     1721     MEOH     DO1      DRUD    -2.488300        0.4000           0   0.00000   0.00000
     32695 MEOH     1721     MEOH     HO1      HDP1A    0.360000        1.0080           0   0.00000   0.00000
     32696 MEOH     1721     MEOH     HO2      DUMH     0.000000        1.0080           0   0.00000   0.00000
     32697 MEOH     1721     MEOH     H1A      HDA3B    0.080000        1.0080           0   0.00000   0.00000
     32698 MEOH     1721     MEOH     H1B      HDA3B    0.080000        1.0080           0   0.00000   0.00000
     32699 MEOH     1721     MEOH     H1C      HDA3B    0.080000        1.0080           0   0.00000   0.00000
     32700 MEOH     1721     MEOH     LP1A     LPD     -0.230000        0.0000           -1   0.00000   0.00000
     32701 MEOH     1721     MEOH     LP1B     LPD     -0.230000        0.0000           -1   0.00000   0.00000
     32702 MEOH     1722     MEOH     C1       CD33B    2.314100       11.6110           0   -1.00000   1.30000
     32703 MEOH     1722     MEOH     DC1      DRUD    -2.454100        0.4000           0   0.00000   0.00000
     32704 MEOH     1722     MEOH     O1       OD31H    2.488300       15.5990           0   -1.02800   1.30000
     32705 MEOH     1722     MEOH     DO1      DRUD    -2.488300        0.4000           0   0.00000   0.00000
     32706 MEOH     1722     MEOH     HO1      HDP1A    0.360000        1.0080           0   0.00000   0.00000
     32707 MEOH     1722     MEOH     HO2      DUMH     0.000000        1.0080           0   0.00000   0.00000
     32708 MEOH     1722     MEOH     H1A      HDA3B    0.080000        1.0080           0   0.00000   0.00000
     32709 MEOH     1722     MEOH     H1B      HDA3B    0.080000        1.0080           0   0.00000   0.00000
     32710 MEOH     1722     MEOH     H1C      HDA3B    0.080000        1.0080           0   0.00000   0.00000
     32711 MEOH     1722     MEOH     LP1A     LPD     -0.230000        0.0000           -1   0.00000   0.00000
     32712 MEOH     1722     MEOH     LP1B     LPD     -0.230000        0.0000           -1   0.00000   0.00000
     32713 MEOH     1723     MEOH     C1       CD33B    2.314100       11.6110           0   -1.00000   1.30000
     32714 MEOH     1723     MEOH     DC1      DRUD    -2.454100        0.4000           0   0.00000   0.00000
     32715 MEOH     1723     MEOH     O1       OD31H    2.488300       15.5990           0   -1.02800   1.30000
     32716 MEOH     1723     MEOH     DO1      DRUD    -2.488300        0.4000           0   0.00000   0.00000
     32717 MEOH     1723     MEOH     HO1      HDP1A    0.360000        1.0080           0   0.00000   0.00000
     32718 MEOH     1723     MEOH     HO2      DUMH     0.000000        1.0080           0   0.00000   0.00000
     32719 MEOH     1723     MEOH     H1A      HDA3B    0.080000        1.0080           0   0.00000   0.00000
     32720 MEOH     1723     MEOH     H1B      HDA3B    0.080000        1.0080           0   0.00000   0.00000
     32721 MEOH     1723     MEOH     H1C      HDA3B    0.080000        1.0080           0   0.00000   0.00000
     32722 MEOH     1723     MEOH     LP1A     LPD     -0.230000        0.0000           -1   0.00000   0.00000
     32723 MEOH     1723     MEOH     LP1B     LPD     -0.230000        0.0000           -1   0.00000   0.00000
     32724 MEOH     1724     MEOH     C1       CD33B    2.314100       11.6110           0   -1.00000   1.30000
     32725 MEOH     1724     MEOH     DC1      DRUD    -2.454100        0.4000           0   0.00000   0.00000
     32726 MEOH     1724     MEOH     O1       OD31H    2.488300       15.5990           0   -1.02800   1.30000
     32727 MEOH     1724     MEOH     DO1      DRUD    -2.488300        0.4000           0   0.00000   0.00000
     32728 MEOH     1724     MEOH     HO1      HDP1A    0.360000        1.0080           0   0.00000   0.00000
     32729 MEOH     1724     MEOH     HO2      DUMH     0.000000        1.0080           0   0.00000   0.00000
     32730 MEOH     1724     MEOH     H1A      HDA3B    0.080000        1.0080           0   0.00000   0.00000
     32731 MEOH     1724     MEOH     H1B      HDA3B    0.080000        1.0080           0   0.00000   0.00000
     32732 MEOH     1724     MEOH     H1C      HDA3B    0.080000        1.0080           0   0.00000   0.00000
     32733 MEOH     1724     MEOH     LP1A     LPD     -0.230000        0.0000           -1   0.00000   0.00000
     32734 MEOH     1724     MEOH     LP1B     LPD     -0.230000        0.0000           -1   0.00000   0.00000
     32735 MEOH     1725     MEOH     C1       CD33B    2.314100       11.6110           0   -1.00000   1.30000
     32736 MEOH     1725     MEOH     DC1      DRUD    -2.454100        0.4000           0   0.00000   0.00000
     32737 MEOH     1725     MEOH     O1       OD31H    2.488300       15.5990           0   -1.02800   1.30000
     32738 MEOH     1725     MEOH     DO1      DRUD    -2.488300        0.4000           0   0.00000   0.00000
     32739 MEOH     1725     MEOH     HO1      HDP1A    0.360000        1.0080           0   0.00000   0.00000
     32740 MEOH     1725     MEOH     HO2      DUMH     0.000000        1.0080           0   0.00000   0.00000
     32741 MEOH     1725     MEOH     H1A      HDA3B    0.080000        1.0080           0   0.00000   0.00000
     32742 MEOH     1725     MEOH     H1B      HDA3B    0.080000        1.0080           0   0.00000   0.00000
     32743 MEOH     1725     MEOH     H1C      HDA3B    0.080000        1.0080           0   0.00000   0.00000
     32744 MEOH     1725     MEOH     LP1A     LPD     -0.230000        0.0000           -1   0.00000   0.00000
     32745 MEOH     1725     MEOH     LP1B     LPD     -0.230000        0.0000           -1   0.00000   0.00000
     32746 MEOH     1726     MEOH     C1       CD33B    2.314100       11.6110           0   -1.00000   1.30000
     32747 MEOH     1726     MEOH     DC1      DRUD    -2.454100        0.4000           0   0.00000   0.00000
     32748 MEOH     1726     MEOH     O1       OD31H    2.488300       15.5990           0   -1.02800   1.30000
     32749 MEOH     1726     MEOH     DO1      DRUD    -2.488300        0.4000           0   0.00000   0.00000
     32750 MEOH     1726     MEOH     HO1      HDP1A    0.360000        1.0080           0   0.00000   0.00000
     32751 MEOH     1726     MEOH     HO2      DUMH     0.000000        1.0080           0   0.00000   0.00000
     32752 MEOH     1726     MEOH     H1A      HDA3B    0.080000        1.0080           0   0.00000   0.00000
     32753 MEOH     1726     MEOH     H1B      HDA3B    0.080000        1.0080           0   0.00000   0.00000
     32754 MEOH     1726     MEOH     H1C      HDA3B    0.080000        1.0080           0   0.00000   0.00000
     32755 MEOH     1726     MEOH     LP1A     LPD     -0.230000        0.0000           -1   0.00000   0.00000
     32756 MEOH     1726     MEOH     LP1B     LPD     -0.230000        0.0000           -1   0.00000   0.00000
     32757 MEOH     1727     MEOH     C1       CD33B    2.314100       11.6110           0   -1.00000   1.30000
     32758 MEOH     1727     MEOH     DC1      DRUD    -2.454100        0.4000           0   0.00000   0.00000
     32759 MEOH     1727     MEOH     O1       OD31H    2.488300       15.5990           0   -1.02800   1.30000
     32760 MEOH     1727     MEOH     DO1      DRUD    -2.488300        0.4000           0   0.00000   0.00000
     32761 MEOH     1727     MEOH     HO1      HDP1A    0.360000        1.0080           0   0.00000   0.00000
     32762 MEOH     1727     MEOH     HO2      DUMH     0.000000        1.0080           0   0.00000   0.00000
     32763 MEOH     1727     MEOH     H1A      HDA3B    0.080000        1.0080           0   0.00000   0.00000
     32764 MEOH     1727     MEOH     H1B      HDA3B    0.080000        1.0080           0   0.00000   0.00000
     32765 MEOH     1727     MEOH     H1C      HDA3B    0.080000        1.0080           0   0.00000   0.00000
     32766 MEOH     1727     MEOH     LP1A     LPD     -0.230000        0.0000           -1   0.00000   0.00000
     32767 MEOH     1727     MEOH     LP1B     LPD     -0.230000        0.0000           -1   0.00000   0.00000
     32768 MEOH     1728     MEOH     C1       CD33B    2.314100       11.6110           0   -1.00000   1.30000
     32769 MEOH     1728     MEOH     DC1      DRUD    -2.454100        0.4000           0   0.00000   0.00000
     32770 MEOH     1728     MEOH     O1       OD31H    2.488300       15.5990           0   -1.02800   1.30000
     32771 MEOH     1728     MEOH     DO1      DRUD    -2.488300        0.4000           0   0.00000   0.00000
     32772 MEOH     1728     MEOH     HO1      HDP1A    0.360000        1.0080           0   0.00000   0.00000
     32773 MEOH     1728     MEOH     HO2      DUMH     0.000000        1.0080           0   0.00000   0.00000
     32774 MEOH     1728     MEOH     H1A      HDA3B    0.080000        1.0080           0   0.00000   0.00000
     32775 MEOH     1728     MEOH     H1B      HDA3B    0.080000        1.0080           0   0.00000   0.00000
     32776 MEOH     1728     MEOH     H1C      HDA3B    0.080000        1.0080           0   0.00000   0.00000
     32777 MEOH     1728     MEOH     LP1A     LPD     -0.230000        0.0000           -1   0.00000   0.00000
     32778 MEOH     1728     MEOH     LP1B     LPD     -0.230000        0.0000           -1   0.00000   0.00000
     32779 MEOH     1729     MEOH     C1       CD33B    2.314100       11.6110           0   -1.00000   1.30000
     32780 MEOH     1729     MEOH     DC1      DRUD    -2.454100        0.4000           0   0.00000   0.00000
     32781 MEOH     1729     MEOH     O1       OD31H    2.488300       15.5990           0   -1.02800   1.30000
     32782 MEOH     1729     MEOH     DO1      DRUD    -2.488300        0.4000           0   0.00000   0.00000
     32783 MEOH     1729     MEOH     HO1      HDP1A    0.360000        1.0080           0   0.00000   0.00000
     32784 MEOH     1729     MEOH     HO2      DUMH     0.000000        1.0080           0   0.00000   0.00000
     32785 MEOH     1729     MEOH     H1A      HDA3B    0.080000        1.0080           0   0.00000   0.00000
     32786 MEOH     1729     MEOH     H1B      HDA3B    0.080000        1.0080           0   0.00000   0.00000
     32787 MEOH     1729     MEOH     H1C      HDA3B    0.080000        1.0080           0   0.00000   0.00000
     32788 MEOH     1729     MEOH     LP1A     LPD     -0.230000        0.0000           -1   0.00000   0.00000
     32789 MEOH     1729     MEOH     LP1B     LPD     -0.230000        0.0000           -1   0.00000   0.00000
     32790 MEOH     1730     MEOH     C1       CD33B    2.314100       11.6110           0   -1.00000   1.30000
     32791 MEOH     1730     MEOH     DC1      DRUD    -2.454100        0.4000           0   0.00000   0.00000
     32792 MEOH     1730     MEOH     O1       OD31H    2.488300       15.5990           0   -1.02800   1.30000
     32793 MEOH     1730     MEOH     DO1      DRUD    -2.488300        0.4000           0   0.00000   0.00000
     32794 MEOH     1730     MEOH     HO1      HDP1A    0.360000        1.0080           0   0.00000   0.00000
     32795 MEOH     1730     MEOH     HO2      DUMH     0.000000        1.0080           0   0.00000   0.00000
     32796 MEOH     1730     MEOH     H1A      HDA3B    0.080000        1.0080           0   0.00000   0.00000
     32797 MEOH     1730     MEOH     H1B      HDA3B    0.080000        1.0080           0   0.00000   0.00000
     32798 MEOH     1730     MEOH     H1C      HDA3B    0.080000        1.0080           0   0.00000   0.00000
     32799 MEOH     1730     MEOH     LP1A     LPD     -0.230000        0.0000           -1   0.00000   0.00000
     32800 MEOH     1730     MEOH     LP1B     LPD     -0.230000        0.0000           -1   0.00000   0.00000
     32801 MEOH     1731     MEOH     C1       CD33B    2.314100       11.6110           0   -1.00000   1.30000
     32802 MEOH     1731     MEOH     DC1      DRUD    -2.454100        0.4000           0   0.00000   0.00000
     32803 MEOH     1731     MEOH     O1       OD31H    2.488300       15.5990           0   -1.02800   1.30000
     32804 MEOH     1731     MEOH     DO1      DRUD    -2.488300        0.4000           0   0.00000   0.00000
     32805 MEOH     1731     MEOH     HO1      HDP1A    0.360000        1.0080           0   0.00000   0.00000
     32806 MEOH     1731     MEOH     HO2      DUMH     0.000000        1.0080           0   0.00000   0.00000
     32807 MEOH     1731     MEOH     H1A      HDA3B    0.080000        1.0080           0   0.00000   0.00000
     32808 MEOH     1731     MEOH     H1B      HDA3B    0.080000        1.0080           0   0.00000   0.00000
     32809 MEOH     1731     MEOH     H1C      HDA3B    0.080000        1.0080           0   0.00000   0.00000
     32810 MEOH     1731     MEOH     LP1A     LPD     -0.230000        0.0000           -1   0.00000   0.00000
     32811 MEOH     1731     MEOH     LP1B     LPD     -0.230000        0.0000           -1   0.00000   0.00000
     32812 MEOH     1732     MEOH     C1       CD33B    2.314100       11.6110           0   -1.00000   1.30000
     32813 MEOH     1732     MEOH     DC1      DRUD    -2.454100        0.4000           0   0.00000   0.00000
     32814 MEOH     1732     MEOH     O1       OD31H    2.488300       15.5990           0   -1.02800   1.30000
     32815 MEOH     1732     MEOH     DO1      DRUD    -2.488300        0.4000           0   0.00000   0.00000
     32816 MEOH     1732     MEOH     HO1      HDP1A    0.360000        1.0080           0   0.00000   0.00000
     32817 MEOH     1732     MEOH     HO2      DUMH     0.000000        1.0080           0   0.00000   0.00000
     32818 MEOH     1732     MEOH     H1A      HDA3B    0.080000        1.0080           0   0.00000   0.00000
     32819 MEOH     1732     MEOH     H1B      HDA3B    0.080000        1.0080           0   0.00000   0.00000
     32820 MEOH     1732     MEOH     H1C      HDA3B    0.080000        1.0080           0   0.00000   0.00000
     32821 MEOH     1732     MEOH     LP1A     LPD     -0.230000        0.0000           -1   0.00000   0.00000
     32822 MEOH     1732     MEOH     LP1B     LPD     -0.230000        0.0000           -1   0.00000   0.00000
     32823 MEOH     1733     MEOH     C1       CD33B    2.314100       11.6110           0   -1.00000   1.30000
     32824 MEOH     1733     MEOH     DC1      DRUD    -2.454100        0.4000           0   0.00000   0.00000
     32825 MEOH     1733     MEOH     O1       OD31H    2.488300       15.5990           0   -1.02800   1.30000
     32826 MEOH     1733     MEOH     DO1      DRUD    -2.488300        0.4000           0   0.00000   0.00000
     32827 MEOH     1733     MEOH     HO1      HDP1A    0.360000        1.0080           0   0.00000   0.00000
     32828 MEOH     1733     MEOH     HO2      DUMH     0.000000        1.0080           0   0.00000   0.00000
     32829 MEOH     1733     MEOH     H1A      HDA3B    0.080000        1.0080           0   0.00000   0.00000
     32830 MEOH     1733     MEOH     H1B      HDA3B    0.080000        1.0080           0   0.00000   0.00000
     32831 MEOH     1733     MEOH     H1C      HDA3B    0.080000        1.0080           0   0.00000   0.00000
     32832 MEOH     1733     MEOH     LP1A     LPD     -0.230000        0.0000           -1   0.00000   0.00000
     32833 MEOH     1733     MEOH     LP1B     LPD     -0.230000        0.0000           -1   0.00000   0.00000
     32834 MEOH     1734     MEOH     C1       CD33B    2.314100       11.6110           0   -1.00000   1.30000
     32835 MEOH     1734     MEOH     DC1      DRUD    -2.454100        0.4000           0   0.00000   0.00000
     32836 MEOH     1734     MEOH     O1       OD31H    2.488300       15.5990           0   -1.02800   1.30000
     32837 MEOH     1734     MEOH     DO1      DRUD    -2.488300        0.4000           0   0.00000   0.00000
     32838 MEOH     1734     MEOH     HO1      HDP1A    0.360000        1.0080           0   0.00000   0.00000
     32839 MEOH     1734     MEOH     HO2      DUMH     0.000000        1.0080           0   0.00000   0.00000
     32840 MEOH     1734     MEOH     H1A      HDA3B    0.080000        1.0080           0   0.00000   0.00000
     32841 MEOH     1734     MEOH     H1B      HDA3B    0.080000        1.0080           0   0.00000   0.00000
     32842 MEOH     1734     MEOH     H1C      HDA3B    0.080000        1.0080           0   0.00000   0.00000
     32843 MEOH     1734     MEOH     LP1A     LPD     -0.230000        0.0000           -1   0.00000   0.00000
     32844 MEOH     1734     MEOH     LP1B     LPD     -0.230000        0.0000           -1   0.00000   0.00000
     32845 MEOH     1735     MEOH     C1       CD33B    2.314100       11.6110           0   -1.00000   1.30000
     32846 MEOH     1735     MEOH     DC1      DRUD    -2.454100        0.4000           0   0.00000   0.00000
     32847 MEOH     1735     MEOH     O1       OD31H    2.488300       15.5990           0   -1.02800   1.30000
     32848 MEOH     1735     MEOH     DO1      DRUD    -2.488300        0.4000           0   0.00000   0.00000
     32849 MEOH     1735     MEOH     HO1      HDP1A    0.360000        1.0080           0   0.00000   0.00000
     32850 MEOH     1735     MEOH     HO2      DUMH     0.000000        1.0080           0   0.00000   0.00000
     32851 MEOH     1735     MEOH     H1A      HDA3B    0.080000        1.0080           0   0.00000   0.00000
     32852 MEOH     1735     MEOH     H1B      HDA3B    0.080000        1.0080           0   0.00000   0.00000
     32853 MEOH     1735     MEOH     H1C      HDA3B    0.080000        1.0080           0   0.00000   0.00000
     32854 MEOH     1735     MEOH     LP1A     LPD     -0.230000        0.0000           -1   0.00000   0.00000
     32855 MEOH     1735     MEOH     LP1B     LPD     -0.230000        0.0000           -1   0.00000   0.00000
     32856 MEOH     1736     MEOH     C1       CD33B    2.314100       11.6110           0   -1.00000   1.30000
     32857 MEOH     1736     MEOH     DC1      DRUD    -2.454100        0.4000           0   0.00000   0.00000
     32858 MEOH     1736     MEOH     O1       OD31H    2.488300       15.5990           0   -1.02800   1.30000
     32859 MEOH     1736     MEOH     DO1      DRUD    -2.488300        0.4000           0   0.00000   0.00000
     32860 MEOH     1736     MEOH     HO1      HDP1A    0.360000        1.0080           0   0.00000   0.00000
     32861 MEOH     1736     MEOH     HO2      DUMH     0.000000        1.0080           0   0.00000   0.00000
     32862 MEOH     1736     MEOH     H1A      HDA3B    0.080000        1.0080           0   0.00000   0.00000
     32863 MEOH     1736     MEOH     H1B      HDA3B    0.080000        1.0080           0   0.00000   0.00000
     32864 MEOH     1736     MEOH     H1C      HDA3B    0.080000        1.0080           0   0.00000   0.00000
     32865 MEOH     1736     MEOH     LP1A     LPD     -0.230000        0.0000           -1   0.00000   0.00000
     32866 MEOH     1736     MEOH     LP1B     LPD     -0.230000        0.0000           -1   0.00000   0.00000
     32867 MEOH     1737     MEOH     C1       CD33B    2.314100       11.6110           0   -1.00000   1.30000
     32868 MEOH     1737     MEOH     DC1      DRUD    -2.454100        0.4000           0   0.00000   0.00000
     32869 MEOH     1737     MEOH     O1       OD31H    2.488300       15.5990           0   -1.02800   1.30000
     32870 MEOH     1737     MEOH     DO1      DRUD    -2.488300        0.4000           0   0.00000   0.00000
     32871 MEOH     1737     MEOH     HO1      HDP1A    0.360000        1.0080           0   0.00000   0.00000
     32872 MEOH     1737     MEOH     HO2      DUMH     0.000000        1.0080           0   0.00000   0.00000
     32873 MEOH     1737     MEOH     H1A      HDA3B    0.080000        1.0080           0   0.00000   0.00000
     32874 MEOH     1737     MEOH     H1B      HDA3B    0.080000        1.0080           0   0.00000   0.00000
     32875 MEOH     1737     MEOH     H1C      HDA3B    0.080000        1.0080           0   0.00000   0.00000
     32876 MEOH     1737     MEOH     LP1A     LPD     -0.230000        0.0000           -1   0.00000   0.00000
     32877 MEOH     1737     MEOH     LP1B     LPD     -0.230000        0.0000           -1   0.00000   0.00000
     32878 MEOH     1738     MEOH     C1       CD33B    2.314100       11.6110           0   -1.00000   1.30000
     32879 MEOH     1738     MEOH     DC1      DRUD    -2.454100        0.4000           0   0.00000   0.00000
     32880 MEOH     1738     MEOH     O1       OD31H    2.488300       15.5990           0   -1.02800   1.30000
     32881 MEOH     1738     MEOH     DO1      DRUD    -2.488300        0.4000           0   0.00000   0.00000
     32882 MEOH     1738     MEOH     HO1      HDP1A    0.360000        1.0080           0   0.00000   0.00000
     32883 MEOH     1738     MEOH     HO2      DUMH     0.000000        1.0080           0   0.00000   0.00000
     32884 MEOH     1738     MEOH     H1A      HDA3B    0.080000        1.0080           0   0.00000   0.00000
     32885 MEOH     1738     MEOH     H1B      HDA3B    0.080000        1.0080           0   0.00000   0.00000
     32886 MEOH     1738     MEOH     H1C      HDA3B    0.080000        1.0080           0   0.00000   0.00000
     32887 MEOH     1738     MEOH     LP1A     LPD     -0.230000        0.0000           -1   0.00000   0.00000
     32888 MEOH     1738     MEOH     LP1B     LPD     -0.230000        0.0000           -1   0.00000   0.00000
     32889 MEOH     1739     MEOH     C1       CD33B    2.314100       11.6110           0   -1.00000   1.30000
     32890 MEOH     1739     MEOH     DC1      DRUD    -2.454100        0.4000           0   0.00000   0.00000
     32891 MEOH     1739     MEOH     O1       OD31H    2.488300       15.5990           0   -1.02800   1.30000
     32892 MEOH     1739     MEOH     DO1      DRUD    -2.488300        0.4000           0   0.00000   0.00000
     32893 MEOH     1739     MEOH     HO1      HDP1A    0.360000        1.0080           0   0.00000   0.00000
     32894 MEOH     1739     MEOH     HO2      DUMH     0.000000        1.0080           0   0.00000   0.00000
     32895 MEOH     1739     MEOH     H1A      HDA3B    0.080000        1.0080           0   0.00000   0.00000
     32896 MEOH     1739     MEOH     H1B      HDA3B    0.080000        1.0080           0   0.00000   0.00000
     32897 MEOH     1739     MEOH     H1C      HDA3B    0.080000        1.0080           0   0.00000   0.00000
     32898 MEOH     1739     MEOH     LP1A     LPD     -0.230000        0.0000           -1   0.00000   0.00000
     32899 MEOH     1739     MEOH     LP1B     LPD     -0.230000        0.0000           -1   0.00000   0.00000
     32900 MEOH     1740     MEOH     C1       CD33B    2.314100       11.6110           0   -1.00000   1.30000
     32901 MEOH     1740     MEOH     DC1      DRUD    -2.454100        0.4000           0   0.00000   0.00000
     32902 MEOH     1740     MEOH     O1       OD31H    2.488300       15.5990           0   -1.02800   1.30000
     32903 MEOH     1740     MEOH     DO1      DRUD    -2.488300        0.4000           0   0.00000   0.00000
     32904 MEOH     1740     MEOH     HO1      HDP1A    0.360000        1.0080           0   0.00000   0.00000
     32905 MEOH     1740     MEOH     HO2      DUMH     0.000000        1.0080           0   0.00000   0.00000
     32906 MEOH     1740     MEOH     H1A      HDA3B    0.080000        1.0080           0   0.00000   0.00000
     32907 MEOH     1740     MEOH     H1B      HDA3B    0.080000        1.0080           0   0.00000   0.00000
     32908 MEOH     1740     MEOH     H1C      HDA3B    0.080000        1.0080           0   0.00000   0.00000
     32909 MEOH     1740     MEOH     LP1A     LPD     -0.230000        0.0000           -1   0.00000   0.00000
     32910 MEOH     1740     MEOH     LP1B     LPD     -0.230000        0.0000           -1   0.00000   0.00000
     32911 MEOH     1741     MEOH     C1       CD33B    2.314100       11.6110           0   -1.00000   1.30000
     32912 MEOH     1741     MEOH     DC1      DRUD    -2.454100        0.4000           0   0.00000   0.00000
     32913 MEOH     1741     MEOH     O1       OD31H    2.488300       15.5990           0   -1.02800   1.30000
     32914 MEOH     1741     MEOH     DO1      DRUD    -2.488300        0.4000           0   0.00000   0.00000
     32915 MEOH     1741     MEOH     HO1      HDP1A    0.360000        1.0080           0   0.00000   0.00000
     32916 MEOH     1741     MEOH     HO2      DUMH     0.000000        1.0080           0   0.00000   0.00000
     32917 MEOH     1741     MEOH     H1A      HDA3B    0.080000        1.0080           0   0.00000   0.00000
     32918 MEOH     1741     MEOH     H1B      HDA3B    0.080000        1.0080           0   0.00000   0.00000
     32919 MEOH     1741     MEOH     H1C      HDA3B    0.080000        1.0080           0   0.00000   0.00000
     32920 MEOH     1741     MEOH     LP1A     LPD     -0.230000        0.0000           -1   0.00000   0.00000
     32921 MEOH     1741     MEOH     LP1B     LPD     -0.230000        0.0000           -1   0.00000   0.00000
     32922 MEOH     1742     MEOH     C1       CD33B    2.314100       11.6110           0   -1.00000   1.30000
     32923 MEOH     1742     MEOH     DC1      DRUD    -2.454100        0.4000           0   0.00000   0.00000
     32924 MEOH     1742     MEOH     O1       OD31H    2.488300       15.5990           0   -1.02800   1.30000
     32925 MEOH     1742     MEOH     DO1      DRUD    -2.488300        0.4000           0   0.00000   0.00000
     32926 MEOH     1742     MEOH     HO1      HDP1A    0.360000        1.0080           0   0.00000   0.00000
     32927 MEOH     1742     MEOH     HO2      DUMH     0.000000        1.0080           0   0.00000   0.00000
     32928 MEOH     1742     MEOH     H1A      HDA3B    0.080000        1.0080           0   0.00000   0.00000
     32929 MEOH     1742     MEOH     H1B      HDA3B    0.080000        1.0080           0   0.00000   0.00000
     32930 MEOH     1742     MEOH     H1C      HDA3B    0.080000        1.0080           0   0.00000   0.00000
     32931 MEOH     1742     MEOH     LP1A     LPD     -0.230000        0.0000           -1   0.00000   0.00000
     32932 MEOH     1742     MEOH     LP1B     LPD     -0.230000        0.0000           -1   0.00000   0.00000
     32933 MEOH     1743     MEOH     C1       CD33B    2.314100       11.6110           0   -1.00000   1.30000
     32934 MEOH     1743     MEOH     DC1      DRUD    -2.454100        0.4000           0   0.00000   0.00000
     32935 MEOH     1743     MEOH     O1       OD31H    2.488300       15.5990           0   -1.02800   1.30000
     32936 MEOH     1743     MEOH     DO1      DRUD    -2.488300        0.4000           0   0.00000   0.00000
     32937 MEOH     1743     MEOH     HO1      HDP1A    0.360000        1.0080           0   0.00000   0.00000
     32938 MEOH     1743     MEOH     HO2      DUMH     0.000000        1.0080           0   0.00000   0.00000
     32939 MEOH     1743     MEOH     H1A      HDA3B    0.080000        1.0080           0   0.00000   0.00000
     32940 MEOH     1743     MEOH     H1B      HDA3B    0.080000        1.0080           0   0.00000   0.00000
     32941 MEOH     1743     MEOH     H1C      HDA3B    0.080000        1.0080           0   0.00000   0.00000
     32942 MEOH     1743     MEOH     LP1A     LPD     -0.230000        0.0000           -1   0.00000   0.00000
     32943 MEOH     1743     MEOH     LP1B     LPD     -0.230000        0.0000           -1   0.00000   0.00000
     32944 MEOH     1744     MEOH     C1       CD33B    2.314100       11.6110           0   -1.00000   1.30000
     32945 MEOH     1744     MEOH     DC1      DRUD    -2.454100        0.4000           0   0.00000   0.00000
     32946 MEOH     1744     MEOH     O1       OD31H    2.488300       15.5990           0   -1.02800   1.30000
     32947 MEOH     1744     MEOH     DO1      DRUD    -2.488300        0.4000           0   0.00000   0.00000
     32948 MEOH     1744     MEOH     HO1      HDP1A    0.360000        1.0080           0   0.00000   0.00000
     32949 MEOH     1744     MEOH     HO2      DUMH     0.000000        1.0080           0   0.00000   0.00000
     32950 MEOH     1744     MEOH     H1A      HDA3B    0.080000        1.0080           0   0.00000   0.00000
     32951 MEOH     1744     MEOH     H1B      HDA3B    0.080000        1.0080           0   0.00000   0.00000
     32952 MEOH     1744     MEOH     H1C      HDA3B    0.080000        1.0080           0   0.00000   0.00000
     32953 MEOH     1744     MEOH     LP1A     LPD     -0.230000        0.0000           -1   0.00000   0.00000
     32954 MEOH     1744     MEOH     LP1B     LPD     -0.230000        0.0000           -1   0.00000   0.00000
     32955 MEOH     1745     MEOH     C1       CD33B    2.314100       11.6110           0   -1.00000   1.30000
     32956 MEOH     1745     MEOH     DC1      DRUD    -2.454100        0.4000           0   0.00000   0.00000
     32957 MEOH     1745     MEOH     O1       OD31H    2.488300       15.5990           0   -1.02800   1.30000
     32958 MEOH     1745     MEOH     DO1      DRUD    -2.488300        0.4000           0   0.00000   0.00000
     32959 MEOH     1745     MEOH     HO1      HDP1A    0.360000        1.0080           0   0.00000   0.00000
     32960 MEOH     1745     MEOH     HO2      DUMH     0.000000        1.0080           0   0.00000   0.00000
     32961 MEOH     1745     MEOH     H1A      HDA3B    0.080000        1.0080           0   0.00000   0.00000
     32962 MEOH     1745     MEOH     H1B      HDA3B    0.080000        1.0080           0   0.00000   0.00000
     32963 MEOH     1745     MEOH     H1C      HDA3B    0.080000        1.0080           0   0.00000   0.00000
     32964 MEOH     1745     MEOH     LP1A     LPD     -0.230000        0.0000           -1   0.00000   0.00000
     32965 MEOH     1745     MEOH     LP1B     LPD     -0.230000        0.0000           -1   0.00000   0.00000
     32966 MEOH     1746     MEOH     C1       CD33B    2.314100       11.6110           0   -1.00000   1.30000
     32967 MEOH     1746     MEOH     DC1      DRUD    -2.454100        0.4000           0   0.00000   0.00000
     32968 MEOH     1746     MEOH     O1       OD31H    2.488300       15.5990           0   -1.02800   1.30000
     32969 MEOH     1746     MEOH     DO1      DRUD    -2.488300        0.4000           0   0.00000   0.00000
     32970 MEOH     1746     MEOH     HO1      HDP1A    0.360000        1.0080           0   0.00000   0.00000
     32971 MEOH     1746     MEOH     HO2      DUMH     0.000000        1.0080           0   0.00000   0.00000
     32972 MEOH     1746     MEOH     H1A      HDA3B    0.080000        1.0080           0   0.00000   0.00000
     32973 MEOH     1746     MEOH     H1B      HDA3B    0.080000        1.0080           0   0.00000   0.00000
     32974 MEOH     1746     MEOH     H1C      HDA3B    0.080000        1.0080           0   0.00000   0.00000
     32975 MEOH     1746     MEOH     LP1A     LPD     -0.230000        0.0000           -1   0.00000   0.00000
     32976 MEOH     1746     MEOH     LP1B     LPD     -0.230000        0.0000           -1   0.00000   0.00000
     32977 MEOH     1747     MEOH     C1       CD33B    2.314100       11.6110           0   -1.00000   1.30000
     32978 MEOH     1747     MEOH     DC1      DRUD    -2.454100        0.4000           0   0.00000   0.00000
     32979 MEOH     1747     MEOH     O1       OD31H    2.488300       15.5990           0   -1.02800   1.30000
     32980 MEOH     1747     MEOH     DO1      DRUD    -2.488300        0.4000           0   0.00000   0.00000
     32981 MEOH     1747     MEOH     HO1      HDP1A    0.360000        1.0080           0   0.00000   0.00000
     32982 MEOH     1747     MEOH     HO2      DUMH     0.000000        1.0080           0   0.00000   0.00000
     32983 MEOH     1747     MEOH     H1A      HDA3B    0.080000        1.0080           0   0.00000   0.00000
     32984 MEOH     1747     MEOH     H1B      HDA3B    0.080000        1.0080           0   0.00000   0.00000
     32985 MEOH     1747     MEOH     H1C      HDA3B    0.080000        1.0080           0   0.00000   0.00000
     32986 MEOH     1747     MEOH     LP1A     LPD     -0.230000        0.0000           -1   0.00000   0.00000
     32987 MEOH     1747     MEOH     LP1B     LPD     -0.230000        0.0000           -1   0.00000   0.00000
     32988 MEOH     1748     MEOH     C1       CD33B    2.314100       11.6110           0   -1.00000   1.30000
     32989 MEOH     1748     MEOH     DC1      DRUD    -2.454100        0.4000           0   0.00000   0.00000
     32990 MEOH     1748     MEOH     O1       OD31H    2.488300       15.5990           0   -1.02800   1.30000
     32991 MEOH     1748     MEOH     DO1      DRUD    -2.488300        0.4000           0   0.00000   0.00000
     32992 MEOH     1748     MEOH     HO1      HDP1A    0.360000        1.0080           0   0.00000   0.00000
     32993 MEOH     1748     MEOH     HO2      DUMH     0.000000        1.0080           0   0.00000   0.00000
     32994 MEOH     1748     MEOH     H1A      HDA3B    0.080000        1.0080           0   0.00000   0.00000
     32995 MEOH     1748     MEOH     H1B      HDA3B    0.080000        1.0080           0   0.00000   0.00000
     32996 MEOH     1748     MEOH     H1C      HDA3B    0.080000        1.0080           0   0.00000   0.00000
     32997 MEOH     1748     MEOH     LP1A     LPD     -0.230000        0.0000           -1   0.00000   0.00000
     32998 MEOH     1748     MEOH     LP1B     LPD     -0.230000        0.0000           -1   0.00000   0.00000
     32999 MEOH     1749     MEOH     C1       CD33B    2.314100       11.6110           0   -1.00000   1.30000
     33000 MEOH     1749     MEOH     DC1      DRUD    -2.454100        0.4000           0   0.00000   0.00000
     33001 MEOH     1749     MEOH     O1       OD31H    2.488300       15.5990           0   -1.02800   1.30000
     33002 MEOH     1749     MEOH     DO1      DRUD    -2.488300        0.4000           0   0.00000   0.00000
     33003 MEOH     1749     MEOH     HO1      HDP1A    0.360000        1.0080           0   0.00000   0.00000
     33004 MEOH     1749     MEOH     HO2      DUMH     0.000000        1.0080           0   0.00000   0.00000
     33005 MEOH     1749     MEOH     H1A      HDA3B    0.080000        1.0080           0   0.00000   0.00000
     33006 MEOH     1749     MEOH     H1B      HDA3B    0.080000        1.0080           0   0.00000   0.00000
     33007 MEOH     1749     MEOH     H1C      HDA3B    0.080000        1.0080           0   0.00000   0.00000
     33008 MEOH     1749     MEOH     LP1A     LPD     -0.230000        0.0000           -1   0.00000   0.00000
     33009 MEOH     1749     MEOH     LP1B     LPD     -0.230000        0.0000           -1   0.00000   0.00000
     33010 MEOH     1750     MEOH     C1       CD33B    2.314100       11.6110           0   -1.00000   1.30000
     33011 MEOH     1750     MEOH     DC1      DRUD    -2.454100        0.4000           0   0.00000   0.00000
     33012 MEOH     1750     MEOH     O1       OD31H    2.488300       15.5990           0   -1.02800   1.30000
     33013 MEOH     1750     MEOH     DO1      DRUD    -2.488300        0.4000           0   0.00000   0.00000
     33014 MEOH     1750     MEOH     HO1      HDP1A    0.360000        1.0080           0   0.00000   0.00000
     33015 MEOH     1750     MEOH     HO2      DUMH     0.000000        1.0080           0   0.00000   0.00000
     33016 MEOH     1750     MEOH     H1A      HDA3B    0.080000        1.0080           0   0.00000   0.00000
     33017 MEOH     1750     MEOH     H1B      HDA3B    0.080000        1.0080           0   0.00000   0.00000
     33018 MEOH     1750     MEOH     H1C      HDA3B    0.080000        1.0080           0   0.00000   0.00000
     33019 MEOH     1750     MEOH     LP1A     LPD     -0.230000        0.0000           -1   0.00000   0.00000
     33020 MEOH     1750     MEOH     LP1B     LPD     -0.230000        0.0000           -1   0.00000   0.00000
     33021 MEOH     1751     MEOH     C1       CD33B    2.314100       11.6110           0   -1.00000   1.30000
     33022 MEOH     1751     MEOH     DC1      DRUD    -2.454100        0.4000           0   0.00000   0.00000
     33023 MEOH     1751     MEOH     O1       OD31H    2.488300       15.5990           0   -1.02800   1.30000
     33024 MEOH     1751     MEOH     DO1      DRUD    -2.488300        0.4000           0   0.00000   0.00000
     33025 MEOH     1751     MEOH     HO1      HDP1A    0.360000        1.0080           0   0.00000   0.00000
     33026 MEOH     1751     MEOH     HO2      DUMH     0.000000        1.0080           0   0.00000   0.00000
     33027 MEOH     1751     MEOH     H1A      HDA3B    0.080000        1.0080           0   0.00000   0.00000
     33028 MEOH     1751     MEOH     H1B      HDA3B    0.080000        1.0080           0   0.00000   0.00000
     33029 MEOH     1751     MEOH     H1C      HDA3B    0.080000        1.0080           0   0.00000   0.00000
     33030 MEOH     1751     MEOH     LP1A     LPD     -0.230000        0.0000           -1   0.00000   0.00000
     33031 MEOH     1751     MEOH     LP1B     LPD     -0.230000        0.0000           -1   0.00000   0.00000
     33032 MEOH     1752     MEOH     C1       CD33B    2.314100       11.6110           0   -1.00000   1.30000
     33033 MEOH     1752     MEOH     DC1      DRUD    -2.454100        0.4000           0   0.00000   0.00000
     33034 MEOH     1752     MEOH     O1       OD31H    2.488300       15.5990           0   -1.02800   1.30000
     33035 MEOH     1752     MEOH     DO1      DRUD    -2.488300        0.4000           0   0.00000   0.00000
     33036 MEOH     1752     MEOH     HO1      HDP1A    0.360000        1.0080           0   0.00000   0.00000
     33037 MEOH     1752     MEOH     HO2      DUMH     0.000000        1.0080           0   0.00000   0.00000
     33038 MEOH     1752     MEOH     H1A      HDA3B    0.080000        1.0080           0   0.00000   0.00000
     33039 MEOH     1752     MEOH     H1B      HDA3B    0.080000        1.0080           0   0.00000   0.00000
     33040 MEOH     1752     MEOH     H1C      HDA3B    0.080000        1.0080           0   0.00000   0.00000
     33041 MEOH     1752     MEOH     LP1A     LPD     -0.230000        0.0000           -1   0.00000   0.00000
     33042 MEOH     1752     MEOH     LP1B     LPD     -0.230000        0.0000           -1   0.00000   0.00000
     33043 MEOH     1753     MEOH     C1       CD33B    2.314100       11.6110           0   -1.00000   1.30000
     33044 MEOH     1753     MEOH     DC1      DRUD    -2.454100        0.4000           0   0.00000   0.00000
     33045 MEOH     1753     MEOH     O1       OD31H    2.488300       15.5990           0   -1.02800   1.30000
     33046 MEOH     1753     MEOH     DO1      DRUD    -2.488300        0.4000           0   0.00000   0.00000
     33047 MEOH     1753     MEOH     HO1      HDP1A    0.360000        1.0080           0   0.00000   0.00000
     33048 MEOH     1753     MEOH     HO2      DUMH     0.000000        1.0080           0   0.00000   0.00000
     33049 MEOH     1753     MEOH     H1A      HDA3B    0.080000        1.0080           0   0.00000   0.00000
     33050 MEOH     1753     MEOH     H1B      HDA3B    0.080000        1.0080           0   0.00000   0.00000
     33051 MEOH     1753     MEOH     H1C      HDA3B    0.080000        1.0080           0   0.00000   0.00000
     33052 MEOH     1753     MEOH     LP1A     LPD     -0.230000        0.0000           -1   0.00000   0.00000
     33053 MEOH     1753     MEOH     LP1B     LPD     -0.230000        0.0000           -1   0.00000   0.00000
     33054 MEOH     1754     MEOH     C1       CD33B    2.314100       11.6110           0   -1.00000   1.30000
     33055 MEOH     1754     MEOH     DC1      DRUD    -2.454100        0.4000           0   0.00000   0.00000
     33056 MEOH     1754     MEOH     O1       OD31H    2.488300       15.5990           0   -1.02800   1.30000
     33057 MEOH     1754     MEOH     DO1      DRUD    -2.488300        0.4000           0   0.00000   0.00000
     33058 MEOH     1754     MEOH     HO1      HDP1A    0.360000        1.0080           0   0.00000   0.00000
     33059 MEOH     1754     MEOH     HO2      DUMH     0.000000        1.0080           0   0.00000   0.00000
     33060 MEOH     1754     MEOH     H1A      HDA3B    0.080000        1.0080           0   0.00000   0.00000
     33061 MEOH     1754     MEOH     H1B      HDA3B    0.080000        1.0080           0   0.00000   0.00000
     33062 MEOH     1754     MEOH     H1C      HDA3B    0.080000        1.0080           0   0.00000   0.00000
     33063 MEOH     1754     MEOH     LP1A     LPD     -0.230000        0.0000           -1   0.00000   0.00000
     33064 MEOH     1754     MEOH     LP1B     LPD     -0.230000        0.0000           -1   0.00000   0.00000
     33065 MEOH     1755     MEOH     C1       CD33B    2.314100       11.6110           0   -1.00000   1.30000
     33066 MEOH     1755     MEOH     DC1      DRUD    -2.454100        0.4000           0   0.00000   0.00000
     33067 MEOH     1755     MEOH     O1       OD31H    2.488300       15.5990           0   -1.02800   1.30000
     33068 MEOH     1755     MEOH     DO1      DRUD    -2.488300        0.4000           0   0.00000   0.00000
     33069 MEOH     1755     MEOH     HO1      HDP1A    0.360000        1.0080           0   0.00000   0.00000
     33070 MEOH     1755     MEOH     HO2      DUMH     0.000000        1.0080           0   0.00000   0.00000
     33071 MEOH     1755     MEOH     H1A      HDA3B    0.080000        1.0080           0   0.00000   0.00000
     33072 MEOH     1755     MEOH     H1B      HDA3B    0.080000        1.0080           0   0.00000   0.00000
     33073 MEOH     1755     MEOH     H1C      HDA3B    0.080000        1.0080           0   0.00000   0.00000
     33074 MEOH     1755     MEOH     LP1A     LPD     -0.230000        0.0000           -1   0.00000   0.00000
     33075 MEOH     1755     MEOH     LP1B     LPD     -0.230000        0.0000           -1   0.00000   0.00000
     33076 MEOH     1756     MEOH     C1       CD33B    2.314100       11.6110           0   -1.00000   1.30000
     33077 MEOH     1756     MEOH     DC1      DRUD    -2.454100        0.4000           0   0.00000   0.00000
     33078 MEOH     1756     MEOH     O1       OD31H    2.488300       15.5990           0   -1.02800   1.30000
     33079 MEOH     1756     MEOH     DO1      DRUD    -2.488300        0.4000           0   0.00000   0.00000
     33080 MEOH     1756     MEOH     HO1      HDP1A    0.360000        1.0080           0   0.00000   0.00000
     33081 MEOH     1756     MEOH     HO2      DUMH     0.000000        1.0080           0   0.00000   0.00000
     33082 MEOH     1756     MEOH     H1A      HDA3B    0.080000        1.0080           0   0.00000   0.00000
     33083 MEOH     1756     MEOH     H1B      HDA3B    0.080000        1.0080           0   0.00000   0.00000
     33084 MEOH     1756     MEOH     H1C      HDA3B    0.080000        1.0080           0   0.00000   0.00000
     33085 MEOH     1756     MEOH     LP1A     LPD     -0.230000        0.0000           -1   0.00000   0.00000
     33086 MEOH     1756     MEOH     LP1B     LPD     -0.230000        0.0000           -1   0.00000   0.00000
     33087 MEOH     1757     MEOH     C1       CD33B    2.314100       11.6110           0   -1.00000   1.30000
     33088 MEOH     1757     MEOH     DC1      DRUD    -2.454100        0.4000           0   0.00000   0.00000
     33089 MEOH     1757     MEOH     O1       OD31H    2.488300       15.5990           0   -1.02800   1.30000
     33090 MEOH     1757     MEOH     DO1      DRUD    -2.488300        0.4000           0   0.00000   0.00000
     33091 MEOH     1757     MEOH     HO1      HDP1A    0.360000        1.0080           0   0.00000   0.00000
     33092 MEOH     1757     MEOH     HO2      DUMH     0.000000        1.0080           0   0.00000   0.00000
     33093 MEOH     1757     MEOH     H1A      HDA3B    0.080000        1.0080           0   0.00000   0.00000
     33094 MEOH     1757     MEOH     H1B      HDA3B    0.080000        1.0080           0   0.00000   0.00000
     33095 MEOH     1757     MEOH     H1C      HDA3B    0.080000        1.0080           0   0.00000   0.00000
     33096 MEOH     1757     MEOH     LP1A     LPD     -0.230000        0.0000           -1   0.00000   0.00000
     33097 MEOH     1757     MEOH     LP1B     LPD     -0.230000        0.0000           -1   0.00000   0.00000
     33098 MEOH     1758     MEOH     C1       CD33B    2.314100       11.6110           0   -1.00000   1.30000
     33099 MEOH     1758     MEOH     DC1      DRUD    -2.454100        0.4000           0   0.00000   0.00000
     33100 MEOH     1758     MEOH     O1       OD31H    2.488300       15.5990           0   -1.02800   1.30000
     33101 MEOH     1758     MEOH     DO1      DRUD    -2.488300        0.4000           0   0.00000   0.00000
     33102 MEOH     1758     MEOH     HO1      HDP1A    0.360000        1.0080           0   0.00000   0.00000
     33103 MEOH     1758     MEOH     HO2      DUMH     0.000000        1.0080           0   0.00000   0.00000
     33104 MEOH     1758     MEOH     H1A      HDA3B    0.080000        1.0080           0   0.00000   0.00000
     33105 MEOH     1758     MEOH     H1B      HDA3B    0.080000        1.0080           0   0.00000   0.00000
     33106 MEOH     1758     MEOH     H1C      HDA3B    0.080000        1.0080           0   0.00000   0.00000
     33107 MEOH     1758     MEOH     LP1A     LPD     -0.230000        0.0000           -1   0.00000   0.00000
     33108 MEOH     1758     MEOH     LP1B     LPD     -0.230000        0.0000           -1   0.00000   0.00000
     33109 MEOH     1759     MEOH     C1       CD33B    2.314100       11.6110           0   -1.00000   1.30000
     33110 MEOH     1759     MEOH     DC1      DRUD    -2.454100        0.4000           0   0.00000   0.00000
     33111 MEOH     1759     MEOH     O1       OD31H    2.488300       15.5990           0   -1.02800   1.30000
     33112 MEOH     1759     MEOH     DO1      DRUD    -2.488300        0.4000           0   0.00000   0.00000
     33113 MEOH     1759     MEOH     HO1      HDP1A    0.360000        1.0080           0   0.00000   0.00000
     33114 MEOH     1759     MEOH     HO2      DUMH     0.000000        1.0080           0   0.00000   0.00000
     33115 MEOH     1759     MEOH     H1A      HDA3B    0.080000        1.0080           0   0.00000   0.00000
     33116 MEOH     1759     MEOH     H1B      HDA3B    0.080000        1.0080           0   0.00000   0.00000
     33117 MEOH     1759     MEOH     H1C      HDA3B    0.080000        1.0080           0   0.00000   0.00000
     33118 MEOH     1759     MEOH     LP1A     LPD     -0.230000        0.0000           -1   0.00000   0.00000
     33119 MEOH     1759     MEOH     LP1B     LPD     -0.230000        0.0000           -1   0.00000   0.00000
     33120 MEOH     1760     MEOH     C1       CD33B    2.314100       11.6110           0   -1.00000   1.30000
     33121 MEOH     1760     MEOH     DC1      DRUD    -2.454100        0.4000           0   0.00000   0.00000
     33122 MEOH     1760     MEOH     O1       OD31H    2.488300       15.5990           0   -1.02800   1.30000
     33123 MEOH     1760     MEOH     DO1      DRUD    -2.488300        0.4000           0   0.00000   0.00000
     33124 MEOH     1760     MEOH     HO1      HDP1A    0.360000        1.0080           0   0.00000   0.00000
     33125 MEOH     1760     MEOH     HO2      DUMH     0.000000        1.0080           0   0.00000   0.00000
     33126 MEOH     1760     MEOH     H1A      HDA3B    0.080000        1.0080           0   0.00000   0.00000
     33127 MEOH     1760     MEOH     H1B      HDA3B    0.080000        1.0080           0   0.00000   0.00000
     33128 MEOH     1760     MEOH     H1C      HDA3B    0.080000        1.0080           0   0.00000   0.00000
     33129 MEOH     1760     MEOH     LP1A     LPD     -0.230000        0.0000           -1   0.00000   0.00000
     33130 MEOH     1760     MEOH     LP1B     LPD     -0.230000        0.0000           -1   0.00000   0.00000
     33131 MEOH     1761     MEOH     C1       CD33B    2.314100       11.6110           0   -1.00000   1.30000
     33132 MEOH     1761     MEOH     DC1      DRUD    -2.454100        0.4000           0   0.00000   0.00000
     33133 MEOH     1761     MEOH     O1       OD31H    2.488300       15.5990           0   -1.02800   1.30000
     33134 MEOH     1761     MEOH     DO1      DRUD    -2.488300        0.4000           0   0.00000   0.00000
     33135 MEOH     1761     MEOH     HO1      HDP1A    0.360000        1.0080           0   0.00000   0.00000
     33136 MEOH     1761     MEOH     HO2      DUMH     0.000000        1.0080           0   0.00000   0.00000
     33137 MEOH     1761     MEOH     H1A      HDA3B    0.080000        1.0080           0   0.00000   0.00000
     33138 MEOH     1761     MEOH     H1B      HDA3B    0.080000        1.0080           0   0.00000   0.00000
     33139 MEOH     1761     MEOH     H1C      HDA3B    0.080000        1.0080           0   0.00000   0.00000
     33140 MEOH     1761     MEOH     LP1A     LPD     -0.230000        0.0000           -1   0.00000   0.00000
     33141 MEOH     1761     MEOH     LP1B     LPD     -0.230000        0.0000           -1   0.00000   0.00000
     33142 MEOH     1762     MEOH     C1       CD33B    2.314100       11.6110           0   -1.00000   1.30000
     33143 MEOH     1762     MEOH     DC1      DRUD    -2.454100        0.4000           0   0.00000   0.00000
     33144 MEOH     1762     MEOH     O1       OD31H    2.488300       15.5990           0   -1.02800   1.30000
     33145 MEOH     1762     MEOH     DO1      DRUD    -2.488300        0.4000           0   0.00000   0.00000
     33146 MEOH     1762     MEOH     HO1      HDP1A    0.360000        1.0080           0   0.00000   0.00000
     33147 MEOH     1762     MEOH     HO2      DUMH     0.000000        1.0080           0   0.00000   0.00000
     33148 MEOH     1762     MEOH     H1A      HDA3B    0.080000        1.0080           0   0.00000   0.00000
     33149 MEOH     1762     MEOH     H1B      HDA3B    0.080000        1.0080           0   0.00000   0.00000
     33150 MEOH     1762     MEOH     H1C      HDA3B    0.080000        1.0080           0   0.00000   0.00000
     33151 MEOH     1762     MEOH     LP1A     LPD     -0.230000        0.0000           -1   0.00000   0.00000
     33152 MEOH     1762     MEOH     LP1B     LPD     -0.230000        0.0000           -1   0.00000   0.00000
     33153 MEOH     1763     MEOH     C1       CD33B    2.314100       11.6110           0   -1.00000   1.30000
     33154 MEOH     1763     MEOH     DC1      DRUD    -2.454100        0.4000           0   0.00000   0.00000
     33155 MEOH     1763     MEOH     O1       OD31H    2.488300       15.5990           0   -1.02800   1.30000
     33156 MEOH     1763     MEOH     DO1      DRUD    -2.488300        0.4000           0   0.00000   0.00000
     33157 MEOH     1763     MEOH     HO1      HDP1A    0.360000        1.0080           0   0.00000   0.00000
     33158 MEOH     1763     MEOH     HO2      DUMH     0.000000        1.0080           0   0.00000   0.00000
     33159 MEOH     1763     MEOH     H1A      HDA3B    0.080000        1.0080           0   0.00000   0.00000
     33160 MEOH     1763     MEOH     H1B      HDA3B    0.080000        1.0080           0   0.00000   0.00000
     33161 MEOH     1763     MEOH     H1C      HDA3B    0.080000        1.0080           0   0.00000   0.00000
     33162 MEOH     1763     MEOH     LP1A     LPD     -0.230000        0.0000           -1   0.00000   0.00000
     33163 MEOH     1763     MEOH     LP1B     LPD     -0.230000        0.0000           -1   0.00000   0.00000
     33164 MEOH     1764     MEOH     C1       CD33B    2.314100       11.6110           0   -1.00000   1.30000
     33165 MEOH     1764     MEOH     DC1      DRUD    -2.454100        0.4000           0   0.00000   0.00000
     33166 MEOH     1764     MEOH     O1       OD31H    2.488300       15.5990           0   -1.02800   1.30000
     33167 MEOH     1764     MEOH     DO1      DRUD    -2.488300        0.4000           0   0.00000   0.00000
     33168 MEOH     1764     MEOH     HO1      HDP1A    0.360000        1.0080           0   0.00000   0.00000
     33169 MEOH     1764     MEOH     HO2      DUMH     0.000000        1.0080           0   0.00000   0.00000
     33170 MEOH     1764     MEOH     H1A      HDA3B    0.080000        1.0080           0   0.00000   0.00000
     33171 MEOH     1764     MEOH     H1B      HDA3B    0.080000        1.0080           0   0.00000   0.00000
     33172 MEOH     1764     MEOH     H1C      HDA3B    0.080000        1.0080           0   0.00000   0.00000
     33173 MEOH     1764     MEOH     LP1A     LPD     -0.230000        0.0000           -1   0.00000   0.00000
     33174 MEOH     1764     MEOH     LP1B     LPD     -0.230000        0.0000           -1   0.00000   0.00000
     33175 MEOH     1765     MEOH     C1       CD33B    2.314100       11.6110           0   -1.00000   1.30000
     33176 MEOH     1765     MEOH     DC1      DRUD    -2.454100        0.4000           0   0.00000   0.00000
     33177 MEOH     1765     MEOH     O1       OD31H    2.488300       15.5990           0   -1.02800   1.30000
     33178 MEOH     1765     MEOH     DO1      DRUD    -2.488300        0.4000           0   0.00000   0.00000
     33179 MEOH     1765     MEOH     HO1      HDP1A    0.360000        1.0080           0   0.00000   0.00000
     33180 MEOH     1765     MEOH     HO2      DUMH     0.000000        1.0080           0   0.00000   0.00000
     33181 MEOH     1765     MEOH     H1A      HDA3B    0.080000        1.0080           0   0.00000   0.00000
     33182 MEOH     1765     MEOH     H1B      HDA3B    0.080000        1.0080           0   0.00000   0.00000
     33183 MEOH     1765     MEOH     H1C      HDA3B    0.080000        1.0080           0   0.00000   0.00000
     33184 MEOH     1765     MEOH     LP1A     LPD     -0.230000        0.0000           -1   0.00000   0.00000
     33185 MEOH     1765     MEOH     LP1B     LPD     -0.230000        0.0000           -1   0.00000   0.00000
     33186 MEOH     1766     MEOH     C1       CD33B    2.314100       11.6110           0   -1.00000   1.30000
     33187 MEOH     1766     MEOH     DC1      DRUD    -2.454100        0.4000           0   0.00000   0.00000
     33188 MEOH     1766     MEOH     O1       OD31H    2.488300       15.5990           0   -1.02800   1.30000
     33189 MEOH     1766     MEOH     DO1      DRUD    -2.488300        0.4000           0   0.00000   0.00000
     33190 MEOH     1766     MEOH     HO1      HDP1A    0.360000        1.0080           0   0.00000   0.00000
     33191 MEOH     1766     MEOH     HO2      DUMH     0.000000        1.0080           0   0.00000   0.00000
     33192 MEOH     1766     MEOH     H1A      HDA3B    0.080000        1.0080           0   0.00000   0.00000
     33193 MEOH     1766     MEOH     H1B      HDA3B    0.080000        1.0080           0   0.00000   0.00000
     33194 MEOH     1766     MEOH     H1C      HDA3B    0.080000        1.0080           0   0.00000   0.00000
     33195 MEOH     1766     MEOH     LP1A     LPD     -0.230000        0.0000           -1   0.00000   0.00000
     33196 MEOH     1766     MEOH     LP1B     LPD     -0.230000        0.0000           -1   0.00000   0.00000
     33197 MEOH     1767     MEOH     C1       CD33B    2.314100       11.6110           0   -1.00000   1.30000
     33198 MEOH     1767     MEOH     DC1      DRUD    -2.454100        0.4000           0   0.00000   0.00000
     33199 MEOH     1767     MEOH     O1       OD31H    2.488300       15.5990           0   -1.02800   1.30000
     33200 MEOH     1767     MEOH     DO1      DRUD    -2.488300        0.4000           0   0.00000   0.00000
     33201 MEOH     1767     MEOH     HO1      HDP1A    0.360000        1.0080           0   0.00000   0.00000
     33202 MEOH     1767     MEOH     HO2      DUMH     0.000000        1.0080           0   0.00000   0.00000
     33203 MEOH     1767     MEOH     H1A      HDA3B    0.080000        1.0080           0   0.00000   0.00000
     33204 MEOH     1767     MEOH     H1B      HDA3B    0.080000        1.0080           0   0.00000   0.00000
     33205 MEOH     1767     MEOH     H1C      HDA3B    0.080000        1.0080           0   0.00000   0.00000
     33206 MEOH     1767     MEOH     LP1A     LPD     -0.230000        0.0000           -1   0.00000   0.00000
     33207 MEOH     1767     MEOH     LP1B     LPD     -0.230000        0.0000           -1   0.00000   0.00000
     33208 MEOH     1768     MEOH     C1       CD33B    2.314100       11.6110           0   -1.00000   1.30000
     33209 MEOH     1768     MEOH     DC1      DRUD    -2.454100        0.4000           0   0.00000   0.00000
     33210 MEOH     1768     MEOH     O1       OD31H    2.488300       15.5990           0   -1.02800   1.30000
     33211 MEOH     1768     MEOH     DO1      DRUD    -2.488300        0.4000           0   0.00000   0.00000
     33212 MEOH     1768     MEOH     HO1      HDP1A    0.360000        1.0080           0   0.00000   0.00000
     33213 MEOH     1768     MEOH     HO2      DUMH     0.000000        1.0080           0   0.00000   0.00000
     33214 MEOH     1768     MEOH     H1A      HDA3B    0.080000        1.0080           0   0.00000   0.00000
     33215 MEOH     1768     MEOH     H1B      HDA3B    0.080000        1.0080           0   0.00000   0.00000
     33216 MEOH     1768     MEOH     H1C      HDA3B    0.080000        1.0080           0   0.00000   0.00000
     33217 MEOH     1768     MEOH     LP1A     LPD     -0.230000        0.0000           -1   0.00000   0.00000
     33218 MEOH     1768     MEOH     LP1B     LPD     -0.230000        0.0000           -1   0.00000   0.00000
     33219 MEOH     1769     MEOH     C1       CD33B    2.314100       11.6110           0   -1.00000   1.30000
     33220 MEOH     1769     MEOH     DC1      DRUD    -2.454100        0.4000           0   0.00000   0.00000
     33221 MEOH     1769     MEOH     O1       OD31H    2.488300       15.5990           0   -1.02800   1.30000
     33222 MEOH     1769     MEOH     DO1      DRUD    -2.488300        0.4000           0   0.00000   0.00000
     33223 MEOH     1769     MEOH     HO1      HDP1A    0.360000        1.0080           0   0.00000   0.00000
     33224 MEOH     1769     MEOH     HO2      DUMH     0.000000        1.0080           0   0.00000   0.00000
     33225 MEOH     1769     MEOH     H1A      HDA3B    0.080000        1.0080           0   0.00000   0.00000
     33226 MEOH     1769     MEOH     H1B      HDA3B    0.080000        1.0080           0   0.00000   0.00000
     33227 MEOH     1769     MEOH     H1C      HDA3B    0.080000        1.0080           0   0.00000   0.00000
     33228 MEOH     1769     MEOH     LP1A     LPD     -0.230000        0.0000           -1   0.00000   0.00000
     33229 MEOH     1769     MEOH     LP1B     LPD     -0.230000        0.0000           -1   0.00000   0.00000
     33230 MEOH     1770     MEOH     C1       CD33B    2.314100       11.6110           0   -1.00000   1.30000
     33231 MEOH     1770     MEOH     DC1      DRUD    -2.454100        0.4000           0   0.00000   0.00000
     33232 MEOH     1770     MEOH     O1       OD31H    2.488300       15.5990           0   -1.02800   1.30000
     33233 MEOH     1770     MEOH     DO1      DRUD    -2.488300        0.4000           0   0.00000   0.00000
     33234 MEOH     1770     MEOH     HO1      HDP1A    0.360000        1.0080           0   0.00000   0.00000
     33235 MEOH     1770     MEOH     HO2      DUMH     0.000000        1.0080           0   0.00000   0.00000
     33236 MEOH     1770     MEOH     H1A      HDA3B    0.080000        1.0080           0   0.00000   0.00000
     33237 MEOH     1770     MEOH     H1B      HDA3B    0.080000        1.0080           0   0.00000   0.00000
     33238 MEOH     1770     MEOH     H1C      HDA3B    0.080000        1.0080           0   0.00000   0.00000
     33239 MEOH     1770     MEOH     LP1A     LPD     -0.230000        0.0000           -1   0.00000   0.00000
     33240 MEOH     1770     MEOH     LP1B     LPD     -0.230000        0.0000           -1   0.00000   0.00000
     33241 MEOH     1771     MEOH     C1       CD33B    2.314100       11.6110           0   -1.00000   1.30000
     33242 MEOH     1771     MEOH     DC1      DRUD    -2.454100        0.4000           0   0.00000   0.00000
     33243 MEOH     1771     MEOH     O1       OD31H    2.488300       15.5990           0   -1.02800   1.30000
     33244 MEOH     1771     MEOH     DO1      DRUD    -2.488300        0.4000           0   0.00000   0.00000
     33245 MEOH     1771     MEOH     HO1      HDP1A    0.360000        1.0080           0   0.00000   0.00000
     33246 MEOH     1771     MEOH     HO2      DUMH     0.000000        1.0080           0   0.00000   0.00000
     33247 MEOH     1771     MEOH     H1A      HDA3B    0.080000        1.0080           0   0.00000   0.00000
     33248 MEOH     1771     MEOH     H1B      HDA3B    0.080000        1.0080           0   0.00000   0.00000
     33249 MEOH     1771     MEOH     H1C      HDA3B    0.080000        1.0080           0   0.00000   0.00000
     33250 MEOH     1771     MEOH     LP1A     LPD     -0.230000        0.0000           -1   0.00000   0.00000
     33251 MEOH     1771     MEOH     LP1B     LPD     -0.230000        0.0000           -1   0.00000   0.00000
     33252 MEOH     1772     MEOH     C1       CD33B    2.314100       11.6110           0   -1.00000   1.30000
     33253 MEOH     1772     MEOH     DC1      DRUD    -2.454100        0.4000           0   0.00000   0.00000
     33254 MEOH     1772     MEOH     O1       OD31H    2.488300       15.5990           0   -1.02800   1.30000
     33255 MEOH     1772     MEOH     DO1      DRUD    -2.488300        0.4000           0   0.00000   0.00000
     33256 MEOH     1772     MEOH     HO1      HDP1A    0.360000        1.0080           0   0.00000   0.00000
     33257 MEOH     1772     MEOH     HO2      DUMH     0.000000        1.0080           0   0.00000   0.00000
     33258 MEOH     1772     MEOH     H1A      HDA3B    0.080000        1.0080           0   0.00000   0.00000
     33259 MEOH     1772     MEOH     H1B      HDA3B    0.080000        1.0080           0   0.00000   0.00000
     33260 MEOH     1772     MEOH     H1C      HDA3B    0.080000        1.0080           0   0.00000   0.00000
     33261 MEOH     1772     MEOH     LP1A     LPD     -0.230000        0.0000           -1   0.00000   0.00000
     33262 MEOH     1772     MEOH     LP1B     LPD     -0.230000        0.0000           -1   0.00000   0.00000
     33263 MEOH     1773     MEOH     C1       CD33B    2.314100       11.6110           0   -1.00000   1.30000
     33264 MEOH     1773     MEOH     DC1      DRUD    -2.454100        0.4000           0   0.00000   0.00000
     33265 MEOH     1773     MEOH     O1       OD31H    2.488300       15.5990           0   -1.02800   1.30000
     33266 MEOH     1773     MEOH     DO1      DRUD    -2.488300        0.4000           0   0.00000   0.00000
     33267 MEOH     1773     MEOH     HO1      HDP1A    0.360000        1.0080           0   0.00000   0.00000
     33268 MEOH     1773     MEOH     HO2      DUMH     0.000000        1.0080           0   0.00000   0.00000
     33269 MEOH     1773     MEOH     H1A      HDA3B    0.080000        1.0080           0   0.00000   0.00000
     33270 MEOH     1773     MEOH     H1B      HDA3B    0.080000        1.0080           0   0.00000   0.00000
     33271 MEOH     1773     MEOH     H1C      HDA3B    0.080000        1.0080           0   0.00000   0.00000
     33272 MEOH     1773     MEOH     LP1A     LPD     -0.230000        0.0000           -1   0.00000   0.00000
     33273 MEOH     1773     MEOH     LP1B     LPD     -0.230000        0.0000           -1   0.00000   0.00000
     33274 MEOH     1774     MEOH     C1       CD33B    2.314100       11.6110           0   -1.00000   1.30000
     33275 MEOH     1774     MEOH     DC1      DRUD    -2.454100        0.4000           0   0.00000   0.00000
     33276 MEOH     1774     MEOH     O1       OD31H    2.488300       15.5990           0   -1.02800   1.30000
     33277 MEOH     1774     MEOH     DO1      DRUD    -2.488300        0.4000           0   0.00000   0.00000
     33278 MEOH     1774     MEOH     HO1      HDP1A    0.360000        1.0080           0   0.00000   0.00000
     33279 MEOH     1774     MEOH     HO2      DUMH     0.000000        1.0080           0   0.00000   0.00000
     33280 MEOH     1774     MEOH     H1A      HDA3B    0.080000        1.0080           0   0.00000   0.00000
     33281 MEOH     1774     MEOH     H1B      HDA3B    0.080000        1.0080           0   0.00000   0.00000
     33282 MEOH     1774     MEOH     H1C      HDA3B    0.080000        1.0080           0   0.00000   0.00000
     33283 MEOH     1774     MEOH     LP1A     LPD     -0.230000        0.0000           -1   0.00000   0.00000
     33284 MEOH     1774     MEOH     LP1B     LPD     -0.230000        0.0000           -1   0.00000   0.00000
     33285 MEOH     1775     MEOH     C1       CD33B    2.314100       11.6110           0   -1.00000   1.30000
     33286 MEOH     1775     MEOH     DC1      DRUD    -2.454100        0.4000           0   0.00000   0.00000
     33287 MEOH     1775     MEOH     O1       OD31H    2.488300       15.5990           0   -1.02800   1.30000
     33288 MEOH     1775     MEOH     DO1      DRUD    -2.488300        0.4000           0   0.00000   0.00000
     33289 MEOH     1775     MEOH     HO1      HDP1A    0.360000        1.0080           0   0.00000   0.00000
     33290 MEOH     1775     MEOH     HO2      DUMH     0.000000        1.0080           0   0.00000   0.00000
     33291 MEOH     1775     MEOH     H1A      HDA3B    0.080000        1.0080           0   0.00000   0.00000
     33292 MEOH     1775     MEOH     H1B      HDA3B    0.080000        1.0080           0   0.00000   0.00000
     33293 MEOH     1775     MEOH     H1C      HDA3B    0.080000        1.0080           0   0.00000   0.00000
     33294 MEOH     1775     MEOH     LP1A     LPD     -0.230000        0.0000           -1   0.00000   0.00000
     33295 MEOH     1775     MEOH     LP1B     LPD     -0.230000        0.0000           -1   0.00000   0.00000
     33296 MEOH     1776     MEOH     C1       CD33B    2.314100       11.6110           0   -1.00000   1.30000
     33297 MEOH     1776     MEOH     DC1      DRUD    -2.454100        0.4000           0   0.00000   0.00000
     33298 MEOH     1776     MEOH     O1       OD31H    2.488300       15.5990           0   -1.02800   1.30000
     33299 MEOH     1776     MEOH     DO1      DRUD    -2.488300        0.4000           0   0.00000   0.00000
     33300 MEOH     1776     MEOH     HO1      HDP1A    0.360000        1.0080           0   0.00000   0.00000
     33301 MEOH     1776     MEOH     HO2      DUMH     0.000000        1.0080           0   0.00000   0.00000
     33302 MEOH     1776     MEOH     H1A      HDA3B    0.080000        1.0080           0   0.00000   0.00000
     33303 MEOH     1776     MEOH     H1B      HDA3B    0.080000        1.0080           0   0.00000   0.00000
     33304 MEOH     1776     MEOH     H1C      HDA3B    0.080000        1.0080           0   0.00000   0.00000
     33305 MEOH     1776     MEOH     LP1A     LPD     -0.230000        0.0000           -1   0.00000   0.00000
     33306 MEOH     1776     MEOH     LP1B     LPD     -0.230000        0.0000           -1   0.00000   0.00000
     33307 MEOH     1777     MEOH     C1       CD33B    2.314100       11.6110           0   -1.00000   1.30000
     33308 MEOH     1777     MEOH     DC1      DRUD    -2.454100        0.4000           0   0.00000   0.00000
     33309 MEOH     1777     MEOH     O1       OD31H    2.488300       15.5990           0   -1.02800   1.30000
     33310 MEOH     1777     MEOH     DO1      DRUD    -2.488300        0.4000           0   0.00000   0.00000
     33311 MEOH     1777     MEOH     HO1      HDP1A    0.360000        1.0080           0   0.00000   0.00000
     33312 MEOH     1777     MEOH     HO2      DUMH     0.000000        1.0080           0   0.00000   0.00000
     33313 MEOH     1777     MEOH     H1A      HDA3B    0.080000        1.0080           0   0.00000   0.00000
     33314 MEOH     1777     MEOH     H1B      HDA3B    0.080000        1.0080           0   0.00000   0.00000
     33315 MEOH     1777     MEOH     H1C      HDA3B    0.080000        1.0080           0   0.00000   0.00000
     33316 MEOH     1777     MEOH     LP1A     LPD     -0.230000        0.0000           -1   0.00000   0.00000
     33317 MEOH     1777     MEOH     LP1B     LPD     -0.230000        0.0000           -1   0.00000   0.00000
     33318 MEOH     1778     MEOH     C1       CD33B    2.314100       11.6110           0   -1.00000   1.30000
     33319 MEOH     1778     MEOH     DC1      DRUD    -2.454100        0.4000           0   0.00000   0.00000
     33320 MEOH     1778     MEOH     O1       OD31H    2.488300       15.5990           0   -1.02800   1.30000
     33321 MEOH     1778     MEOH     DO1      DRUD    -2.488300        0.4000           0   0.00000   0.00000
     33322 MEOH     1778     MEOH     HO1      HDP1A    0.360000        1.0080           0   0.00000   0.00000
     33323 MEOH     1778     MEOH     HO2      DUMH     0.000000        1.0080           0   0.00000   0.00000
     33324 MEOH     1778     MEOH     H1A      HDA3B    0.080000        1.0080           0   0.00000   0.00000
     33325 MEOH     1778     MEOH     H1B      HDA3B    0.080000        1.0080           0   0.00000   0.00000
     33326 MEOH     1778     MEOH     H1C      HDA3B    0.080000        1.0080           0   0.00000   0.00000
     33327 MEOH     1778     MEOH     LP1A     LPD     -0.230000        0.0000           -1   0.00000   0.00000
     33328 MEOH     1778     MEOH     LP1B     LPD     -0.230000        0.0000           -1   0.00000   0.00000
     33329 MEOH     1779     MEOH     C1       CD33B    2.314100       11.6110           0   -1.00000   1.30000
     33330 MEOH     1779     MEOH     DC1      DRUD    -2.454100        0.4000           0   0.00000   0.00000
     33331 MEOH     1779     MEOH     O1       OD31H    2.488300       15.5990           0   -1.02800   1.30000
     33332 MEOH     1779     MEOH     DO1      DRUD    -2.488300        0.4000           0   0.00000   0.00000
     33333 MEOH     1779     MEOH     HO1      HDP1A    0.360000        1.0080           0   0.00000   0.00000
     33334 MEOH     1779     MEOH     HO2      DUMH     0.000000        1.0080           0   0.00000   0.00000
     33335 MEOH     1779     MEOH     H1A      HDA3B    0.080000        1.0080           0   0.00000   0.00000
     33336 MEOH     1779     MEOH     H1B      HDA3B    0.080000        1.0080           0   0.00000   0.00000
     33337 MEOH     1779     MEOH     H1C      HDA3B    0.080000        1.0080           0   0.00000   0.00000
     33338 MEOH     1779     MEOH     LP1A     LPD     -0.230000        0.0000           -1   0.00000   0.00000
     33339 MEOH     1779     MEOH     LP1B     LPD     -0.230000        0.0000           -1   0.00000   0.00000
     33340 MEOH     1780     MEOH     C1       CD33B    2.314100       11.6110           0   -1.00000   1.30000
     33341 MEOH     1780     MEOH     DC1      DRUD    -2.454100        0.4000           0   0.00000   0.00000
     33342 MEOH     1780     MEOH     O1       OD31H    2.488300       15.5990           0   -1.02800   1.30000
     33343 MEOH     1780     MEOH     DO1      DRUD    -2.488300        0.4000           0   0.00000   0.00000
     33344 MEOH     1780     MEOH     HO1      HDP1A    0.360000        1.0080           0   0.00000   0.00000
     33345 MEOH     1780     MEOH     HO2      DUMH     0.000000        1.0080           0   0.00000   0.00000
     33346 MEOH     1780     MEOH     H1A      HDA3B    0.080000        1.0080           0   0.00000   0.00000
     33347 MEOH     1780     MEOH     H1B      HDA3B    0.080000        1.0080           0   0.00000   0.00000
     33348 MEOH     1780     MEOH     H1C      HDA3B    0.080000        1.0080           0   0.00000   0.00000
     33349 MEOH     1780     MEOH     LP1A     LPD     -0.230000        0.0000           -1   0.00000   0.00000
     33350 MEOH     1780     MEOH     LP1B     LPD     -0.230000        0.0000           -1   0.00000   0.00000
     33351 MEOH     1781     MEOH     C1       CD33B    2.314100       11.6110           0   -1.00000   1.30000
     33352 MEOH     1781     MEOH     DC1      DRUD    -2.454100        0.4000           0   0.00000   0.00000
     33353 MEOH     1781     MEOH     O1       OD31H    2.488300       15.5990           0   -1.02800   1.30000
     33354 MEOH     1781     MEOH     DO1      DRUD    -2.488300        0.4000           0   0.00000   0.00000
     33355 MEOH     1781     MEOH     HO1      HDP1A    0.360000        1.0080           0   0.00000   0.00000
     33356 MEOH     1781     MEOH     HO2      DUMH     0.000000        1.0080           0   0.00000   0.00000
     33357 MEOH     1781     MEOH     H1A      HDA3B    0.080000        1.0080           0   0.00000   0.00000
     33358 MEOH     1781     MEOH     H1B      HDA3B    0.080000        1.0080           0   0.00000   0.00000
     33359 MEOH     1781     MEOH     H1C      HDA3B    0.080000        1.0080           0   0.00000   0.00000
     33360 MEOH     1781     MEOH     LP1A     LPD     -0.230000        0.0000           -1   0.00000   0.00000
     33361 MEOH     1781     MEOH     LP1B     LPD     -0.230000        0.0000           -1   0.00000   0.00000
     33362 MEOH     1782     MEOH     C1       CD33B    2.314100       11.6110           0   -1.00000   1.30000
     33363 MEOH     1782     MEOH     DC1      DRUD    -2.454100        0.4000           0   0.00000   0.00000
     33364 MEOH     1782     MEOH     O1       OD31H    2.488300       15.5990           0   -1.02800   1.30000
     33365 MEOH     1782     MEOH     DO1      DRUD    -2.488300        0.4000           0   0.00000   0.00000
     33366 MEOH     1782     MEOH     HO1      HDP1A    0.360000        1.0080           0   0.00000   0.00000
     33367 MEOH     1782     MEOH     HO2      DUMH     0.000000        1.0080           0   0.00000   0.00000
     33368 MEOH     1782     MEOH     H1A      HDA3B    0.080000        1.0080           0   0.00000   0.00000
     33369 MEOH     1782     MEOH     H1B      HDA3B    0.080000        1.0080           0   0.00000   0.00000
     33370 MEOH     1782     MEOH     H1C      HDA3B    0.080000        1.0080           0   0.00000   0.00000
     33371 MEOH     1782     MEOH     LP1A     LPD     -0.230000        0.0000           -1   0.00000   0.00000
     33372 MEOH     1782     MEOH     LP1B     LPD     -0.230000        0.0000           -1   0.00000   0.00000
     33373 MEOH     1783     MEOH     C1       CD33B    2.314100       11.6110           0   -1.00000   1.30000
     33374 MEOH     1783     MEOH     DC1      DRUD    -2.454100        0.4000           0   0.00000   0.00000
     33375 MEOH     1783     MEOH     O1       OD31H    2.488300       15.5990           0   -1.02800   1.30000
     33376 MEOH     1783     MEOH     DO1      DRUD    -2.488300        0.4000           0   0.00000   0.00000
     33377 MEOH     1783     MEOH     HO1      HDP1A    0.360000        1.0080           0   0.00000   0.00000
     33378 MEOH     1783     MEOH     HO2      DUMH     0.000000        1.0080           0   0.00000   0.00000
     33379 MEOH     1783     MEOH     H1A      HDA3B    0.080000        1.0080           0   0.00000   0.00000
     33380 MEOH     1783     MEOH     H1B      HDA3B    0.080000        1.0080           0   0.00000   0.00000
     33381 MEOH     1783     MEOH     H1C      HDA3B    0.080000        1.0080           0   0.00000   0.00000
     33382 MEOH     1783     MEOH     LP1A     LPD     -0.230000        0.0000           -1   0.00000   0.00000
     33383 MEOH     1783     MEOH     LP1B     LPD     -0.230000        0.0000           -1   0.00000   0.00000
     33384 MEOH     1784     MEOH     C1       CD33B    2.314100       11.6110           0   -1.00000   1.30000
     33385 MEOH     1784     MEOH     DC1      DRUD    -2.454100        0.4000           0   0.00000   0.00000
     33386 MEOH     1784     MEOH     O1       OD31H    2.488300       15.5990           0   -1.02800   1.30000
     33387 MEOH     1784     MEOH     DO1      DRUD    -2.488300        0.4000           0   0.00000   0.00000
     33388 MEOH     1784     MEOH     HO1      HDP1A    0.360000        1.0080           0   0.00000   0.00000
     33389 MEOH     1784     MEOH     HO2      DUMH     0.000000        1.0080           0   0.00000   0.00000
     33390 MEOH     1784     MEOH     H1A      HDA3B    0.080000        1.0080           0   0.00000   0.00000
     33391 MEOH     1784     MEOH     H1B      HDA3B    0.080000        1.0080           0   0.00000   0.00000
     33392 MEOH     1784     MEOH     H1C      HDA3B    0.080000        1.0080           0   0.00000   0.00000
     33393 MEOH     1784     MEOH     LP1A     LPD     -0.230000        0.0000           -1   0.00000   0.00000
     33394 MEOH     1784     MEOH     LP1B     LPD     -0.230000        0.0000           -1   0.00000   0.00000
     33395 MEOH     1785     MEOH     C1       CD33B    2.314100       11.6110           0   -1.00000   1.30000
     33396 MEOH     1785     MEOH     DC1      DRUD    -2.454100        0.4000           0   0.00000   0.00000
     33397 MEOH     1785     MEOH     O1       OD31H    2.488300       15.5990           0   -1.02800   1.30000
     33398 MEOH     1785     MEOH     DO1      DRUD    -2.488300        0.4000           0   0.00000   0.00000
     33399 MEOH     1785     MEOH     HO1      HDP1A    0.360000        1.0080           0   0.00000   0.00000
     33400 MEOH     1785     MEOH     HO2      DUMH     0.000000        1.0080           0   0.00000   0.00000
     33401 MEOH     1785     MEOH     H1A      HDA3B    0.080000        1.0080           0   0.00000   0.00000
     33402 MEOH     1785     MEOH     H1B      HDA3B    0.080000        1.0080           0   0.00000   0.00000
     33403 MEOH     1785     MEOH     H1C      HDA3B    0.080000        1.0080           0   0.00000   0.00000
     33404 MEOH     1785     MEOH     LP1A     LPD     -0.230000        0.0000           -1   0.00000   0.00000
     33405 MEOH     1785     MEOH     LP1B     LPD     -0.230000        0.0000           -1   0.00000   0.00000
     33406 MEOH     1786     MEOH     C1       CD33B    2.314100       11.6110           0   -1.00000   1.30000
     33407 MEOH     1786     MEOH     DC1      DRUD    -2.454100        0.4000           0   0.00000   0.00000
     33408 MEOH     1786     MEOH     O1       OD31H    2.488300       15.5990           0   -1.02800   1.30000
     33409 MEOH     1786     MEOH     DO1      DRUD    -2.488300        0.4000           0   0.00000   0.00000
     33410 MEOH     1786     MEOH     HO1      HDP1A    0.360000        1.0080           0   0.00000   0.00000
     33411 MEOH     1786     MEOH     HO2      DUMH     0.000000        1.0080           0   0.00000   0.00000
     33412 MEOH     1786     MEOH     H1A      HDA3B    0.080000        1.0080           0   0.00000   0.00000
     33413 MEOH     1786     MEOH     H1B      HDA3B    0.080000        1.0080           0   0.00000   0.00000
     33414 MEOH     1786     MEOH     H1C      HDA3B    0.080000        1.0080           0   0.00000   0.00000
     33415 MEOH     1786     MEOH     LP1A     LPD     -0.230000        0.0000           -1   0.00000   0.00000
     33416 MEOH     1786     MEOH     LP1B     LPD     -0.230000        0.0000           -1   0.00000   0.00000
     33417 MEOH     1787     MEOH     C1       CD33B    2.314100       11.6110           0   -1.00000   1.30000
     33418 MEOH     1787     MEOH     DC1      DRUD    -2.454100        0.4000           0   0.00000   0.00000
     33419 MEOH     1787     MEOH     O1       OD31H    2.488300       15.5990           0   -1.02800   1.30000
     33420 MEOH     1787     MEOH     DO1      DRUD    -2.488300        0.4000           0   0.00000   0.00000
     33421 MEOH     1787     MEOH     HO1      HDP1A    0.360000        1.0080           0   0.00000   0.00000
     33422 MEOH     1787     MEOH     HO2      DUMH     0.000000        1.0080           0   0.00000   0.00000
     33423 MEOH     1787     MEOH     H1A      HDA3B    0.080000        1.0080           0   0.00000   0.00000
     33424 MEOH     1787     MEOH     H1B      HDA3B    0.080000        1.0080           0   0.00000   0.00000
     33425 MEOH     1787     MEOH     H1C      HDA3B    0.080000        1.0080           0   0.00000   0.00000
     33426 MEOH     1787     MEOH     LP1A     LPD     -0.230000        0.0000           -1   0.00000   0.00000
     33427 MEOH     1787     MEOH     LP1B     LPD     -0.230000        0.0000           -1   0.00000   0.00000
     33428 MEOH     1788     MEOH     C1       CD33B    2.314100       11.6110           0   -1.00000   1.30000
     33429 MEOH     1788     MEOH     DC1      DRUD    -2.454100        0.4000           0   0.00000   0.00000
     33430 MEOH     1788     MEOH     O1       OD31H    2.488300       15.5990           0   -1.02800   1.30000
     33431 MEOH     1788     MEOH     DO1      DRUD    -2.488300        0.4000           0   0.00000   0.00000
     33432 MEOH     1788     MEOH     HO1      HDP1A    0.360000        1.0080           0   0.00000   0.00000
     33433 MEOH     1788     MEOH     HO2      DUMH     0.000000        1.0080           0   0.00000   0.00000
     33434 MEOH     1788     MEOH     H1A      HDA3B    0.080000        1.0080           0   0.00000   0.00000
     33435 MEOH     1788     MEOH     H1B      HDA3B    0.080000        1.0080           0   0.00000   0.00000
     33436 MEOH     1788     MEOH     H1C      HDA3B    0.080000        1.0080           0   0.00000   0.00000
     33437 MEOH     1788     MEOH     LP1A     LPD     -0.230000        0.0000           -1   0.00000   0.00000
     33438 MEOH     1788     MEOH     LP1B     LPD     -0.230000        0.0000           -1   0.00000   0.00000
     33439 MEOH     1789     MEOH     C1       CD33B    2.314100       11.6110           0   -1.00000   1.30000
     33440 MEOH     1789     MEOH     DC1      DRUD    -2.454100        0.4000           0   0.00000   0.00000
     33441 MEOH     1789     MEOH     O1       OD31H    2.488300       15.5990           0   -1.02800   1.30000
     33442 MEOH     1789     MEOH     DO1      DRUD    -2.488300        0.4000           0   0.00000   0.00000
     33443 MEOH     1789     MEOH     HO1      HDP1A    0.360000        1.0080           0   0.00000   0.00000
     33444 MEOH     1789     MEOH     HO2      DUMH     0.000000        1.0080           0   0.00000   0.00000
     33445 MEOH     1789     MEOH     H1A      HDA3B    0.080000        1.0080           0   0.00000   0.00000
     33446 MEOH     1789     MEOH     H1B      HDA3B    0.080000        1.0080           0   0.00000   0.00000
     33447 MEOH     1789     MEOH     H1C      HDA3B    0.080000        1.0080           0   0.00000   0.00000
     33448 MEOH     1789     MEOH     LP1A     LPD     -0.230000        0.0000           -1   0.00000   0.00000
     33449 MEOH     1789     MEOH     LP1B     LPD     -0.230000        0.0000           -1   0.00000   0.00000
     33450 MEOH     1790     MEOH     C1       CD33B    2.314100       11.6110           0   -1.00000   1.30000
     33451 MEOH     1790     MEOH     DC1      DRUD    -2.454100        0.4000           0   0.00000   0.00000
     33452 MEOH     1790     MEOH     O1       OD31H    2.488300       15.5990           0   -1.02800   1.30000
     33453 MEOH     1790     MEOH     DO1      DRUD    -2.488300        0.4000           0   0.00000   0.00000
     33454 MEOH     1790     MEOH     HO1      HDP1A    0.360000        1.0080           0   0.00000   0.00000
     33455 MEOH     1790     MEOH     HO2      DUMH     0.000000        1.0080           0   0.00000   0.00000
     33456 MEOH     1790     MEOH     H1A      HDA3B    0.080000        1.0080           0   0.00000   0.00000
     33457 MEOH     1790     MEOH     H1B      HDA3B    0.080000        1.0080           0   0.00000   0.00000
     33458 MEOH     1790     MEOH     H1C      HDA3B    0.080000        1.0080           0   0.00000   0.00000
     33459 MEOH     1790     MEOH     LP1A     LPD     -0.230000        0.0000           -1   0.00000   0.00000
     33460 MEOH     1790     MEOH     LP1B     LPD     -0.230000        0.0000           -1   0.00000   0.00000
     33461 MEOH     1791     MEOH     C1       CD33B    2.314100       11.6110           0   -1.00000   1.30000
     33462 MEOH     1791     MEOH     DC1      DRUD    -2.454100        0.4000           0   0.00000   0.00000
     33463 MEOH     1791     MEOH     O1       OD31H    2.488300       15.5990           0   -1.02800   1.30000
     33464 MEOH     1791     MEOH     DO1      DRUD    -2.488300        0.4000           0   0.00000   0.00000
     33465 MEOH     1791     MEOH     HO1      HDP1A    0.360000        1.0080           0   0.00000   0.00000
     33466 MEOH     1791     MEOH     HO2      DUMH     0.000000        1.0080           0   0.00000   0.00000
     33467 MEOH     1791     MEOH     H1A      HDA3B    0.080000        1.0080           0   0.00000   0.00000
     33468 MEOH     1791     MEOH     H1B      HDA3B    0.080000        1.0080           0   0.00000   0.00000
     33469 MEOH     1791     MEOH     H1C      HDA3B    0.080000        1.0080           0   0.00000   0.00000
     33470 MEOH     1791     MEOH     LP1A     LPD     -0.230000        0.0000           -1   0.00000   0.00000
     33471 MEOH     1791     MEOH     LP1B     LPD     -0.230000        0.0000           -1   0.00000   0.00000
     33472 MEOH     1792     MEOH     C1       CD33B    2.314100       11.6110           0   -1.00000   1.30000
     33473 MEOH     1792     MEOH     DC1      DRUD    -2.454100        0.4000           0   0.00000   0.00000
     33474 MEOH     1792     MEOH     O1       OD31H    2.488300       15.5990           0   -1.02800   1.30000
     33475 MEOH     1792     MEOH     DO1      DRUD    -2.488300        0.4000           0   0.00000   0.00000
     33476 MEOH     1792     MEOH     HO1      HDP1A    0.360000        1.0080           0   0.00000   0.00000
     33477 MEOH     1792     MEOH     HO2      DUMH     0.000000        1.0080           0   0.00000   0.00000
     33478 MEOH     1792     MEOH     H1A      HDA3B    0.080000        1.0080           0   0.00000   0.00000
     33479 MEOH     1792     MEOH     H1B      HDA3B    0.080000        1.0080           0   0.00000   0.00000
     33480 MEOH     1792     MEOH     H1C      HDA3B    0.080000        1.0080           0   0.00000   0.00000
     33481 MEOH     1792     MEOH     LP1A     LPD     -0.230000        0.0000           -1   0.00000   0.00000
     33482 MEOH     1792     MEOH     LP1B     LPD     -0.230000        0.0000           -1   0.00000   0.00000
     33483 MEOH     1793     MEOH     C1       CD33B    2.314100       11.6110           0   -1.00000   1.30000
     33484 MEOH     1793     MEOH     DC1      DRUD    -2.454100        0.4000           0   0.00000   0.00000
     33485 MEOH     1793     MEOH     O1       OD31H    2.488300       15.5990           0   -1.02800   1.30000
     33486 MEOH     1793     MEOH     DO1      DRUD    -2.488300        0.4000           0   0.00000   0.00000
     33487 MEOH     1793     MEOH     HO1      HDP1A    0.360000        1.0080           0   0.00000   0.00000
     33488 MEOH     1793     MEOH     HO2      DUMH     0.000000        1.0080           0   0.00000   0.00000
     33489 MEOH     1793     MEOH     H1A      HDA3B    0.080000        1.0080           0   0.00000   0.00000
     33490 MEOH     1793     MEOH     H1B      HDA3B    0.080000        1.0080           0   0.00000   0.00000
     33491 MEOH     1793     MEOH     H1C      HDA3B    0.080000        1.0080           0   0.00000   0.00000
     33492 MEOH     1793     MEOH     LP1A     LPD     -0.230000        0.0000           -1   0.00000   0.00000
     33493 MEOH     1793     MEOH     LP1B     LPD     -0.230000        0.0000           -1   0.00000   0.00000
     33494 MEOH     1794     MEOH     C1       CD33B    2.314100       11.6110           0   -1.00000   1.30000
     33495 MEOH     1794     MEOH     DC1      DRUD    -2.454100        0.4000           0   0.00000   0.00000
     33496 MEOH     1794     MEOH     O1       OD31H    2.488300       15.5990           0   -1.02800   1.30000
     33497 MEOH     1794     MEOH     DO1      DRUD    -2.488300        0.4000           0   0.00000   0.00000
     33498 MEOH     1794     MEOH     HO1      HDP1A    0.360000        1.0080           0   0.00000   0.00000
     33499 MEOH     1794     MEOH     HO2      DUMH     0.000000        1.0080           0   0.00000   0.00000
     33500 MEOH     1794     MEOH     H1A      HDA3B    0.080000        1.0080           0   0.00000   0.00000
     33501 MEOH     1794     MEOH     H1B      HDA3B    0.080000        1.0080           0   0.00000   0.00000
     33502 MEOH     1794     MEOH     H1C      HDA3B    0.080000        1.0080           0   0.00000   0.00000
     33503 MEOH     1794     MEOH     LP1A     LPD     -0.230000        0.0000           -1   0.00000   0.00000
     33504 MEOH     1794     MEOH     LP1B     LPD     -0.230000        0.0000           -1   0.00000   0.00000
     33505 MEOH     1795     MEOH     C1       CD33B    2.314100       11.6110           0   -1.00000   1.30000
     33506 MEOH     1795     MEOH     DC1      DRUD    -2.454100        0.4000           0   0.00000   0.00000
     33507 MEOH     1795     MEOH     O1       OD31H    2.488300       15.5990           0   -1.02800   1.30000
     33508 MEOH     1795     MEOH     DO1      DRUD    -2.488300        0.4000           0   0.00000   0.00000
     33509 MEOH     1795     MEOH     HO1      HDP1A    0.360000        1.0080           0   0.00000   0.00000
     33510 MEOH     1795     MEOH     HO2      DUMH     0.000000        1.0080           0   0.00000   0.00000
     33511 MEOH     1795     MEOH     H1A      HDA3B    0.080000        1.0080           0   0.00000   0.00000
     33512 MEOH     1795     MEOH     H1B      HDA3B    0.080000        1.0080           0   0.00000   0.00000
     33513 MEOH     1795     MEOH     H1C      HDA3B    0.080000        1.0080           0   0.00000   0.00000
     33514 MEOH     1795     MEOH     LP1A     LPD     -0.230000        0.0000           -1   0.00000   0.00000
     33515 MEOH     1795     MEOH     LP1B     LPD     -0.230000        0.0000           -1   0.00000   0.00000
     33516 MEOH     1796     MEOH     C1       CD33B    2.314100       11.6110           0   -1.00000   1.30000
     33517 MEOH     1796     MEOH     DC1      DRUD    -2.454100        0.4000           0   0.00000   0.00000
     33518 MEOH     1796     MEOH     O1       OD31H    2.488300       15.5990           0   -1.02800   1.30000
     33519 MEOH     1796     MEOH     DO1      DRUD    -2.488300        0.4000           0   0.00000   0.00000
     33520 MEOH     1796     MEOH     HO1      HDP1A    0.360000        1.0080           0   0.00000   0.00000
     33521 MEOH     1796     MEOH     HO2      DUMH     0.000000        1.0080           0   0.00000   0.00000
     33522 MEOH     1796     MEOH     H1A      HDA3B    0.080000        1.0080           0   0.00000   0.00000
     33523 MEOH     1796     MEOH     H1B      HDA3B    0.080000        1.0080           0   0.00000   0.00000
     33524 MEOH     1796     MEOH     H1C      HDA3B    0.080000        1.0080           0   0.00000   0.00000
     33525 MEOH     1796     MEOH     LP1A     LPD     -0.230000        0.0000           -1   0.00000   0.00000
     33526 MEOH     1796     MEOH     LP1B     LPD     -0.230000        0.0000           -1   0.00000   0.00000
     33527 MEOH     1797     MEOH     C1       CD33B    2.314100       11.6110           0   -1.00000   1.30000
     33528 MEOH     1797     MEOH     DC1      DRUD    -2.454100        0.4000           0   0.00000   0.00000
     33529 MEOH     1797     MEOH     O1       OD31H    2.488300       15.5990           0   -1.02800   1.30000
     33530 MEOH     1797     MEOH     DO1      DRUD    -2.488300        0.4000           0   0.00000   0.00000
     33531 MEOH     1797     MEOH     HO1      HDP1A    0.360000        1.0080           0   0.00000   0.00000
     33532 MEOH     1797     MEOH     HO2      DUMH     0.000000        1.0080           0   0.00000   0.00000
     33533 MEOH     1797     MEOH     H1A      HDA3B    0.080000        1.0080           0   0.00000   0.00000
     33534 MEOH     1797     MEOH     H1B      HDA3B    0.080000        1.0080           0   0.00000   0.00000
     33535 MEOH     1797     MEOH     H1C      HDA3B    0.080000        1.0080           0   0.00000   0.00000
     33536 MEOH     1797     MEOH     LP1A     LPD     -0.230000        0.0000           -1   0.00000   0.00000
     33537 MEOH     1797     MEOH     LP1B     LPD     -0.230000        0.0000           -1   0.00000   0.00000
     33538 MEOH     1798     MEOH     C1       CD33B    2.314100       11.6110           0   -1.00000   1.30000
     33539 MEOH     1798     MEOH     DC1      DRUD    -2.454100        0.4000           0   0.00000   0.00000
     33540 MEOH     1798     MEOH     O1       OD31H    2.488300       15.5990           0   -1.02800   1.30000
     33541 MEOH     1798     MEOH     DO1      DRUD    -2.488300        0.4000           0   0.00000   0.00000
     33542 MEOH     1798     MEOH     HO1      HDP1A    0.360000        1.0080           0   0.00000   0.00000
     33543 MEOH     1798     MEOH     HO2      DUMH     0.000000        1.0080           0   0.00000   0.00000
     33544 MEOH     1798     MEOH     H1A      HDA3B    0.080000        1.0080           0   0.00000   0.00000
     33545 MEOH     1798     MEOH     H1B      HDA3B    0.080000        1.0080           0   0.00000   0.00000
     33546 MEOH     1798     MEOH     H1C      HDA3B    0.080000        1.0080           0   0.00000   0.00000
     33547 MEOH     1798     MEOH     LP1A     LPD     -0.230000        0.0000           -1   0.00000   0.00000
     33548 MEOH     1798     MEOH     LP1B     LPD     -0.230000        0.0000           -1   0.00000   0.00000
     33549 MEOH     1799     MEOH     C1       CD33B    2.314100       11.6110           0   -1.00000   1.30000
     33550 MEOH     1799     MEOH     DC1      DRUD    -2.454100        0.4000           0   0.00000   0.00000
     33551 MEOH     1799     MEOH     O1       OD31H    2.488300       15.5990           0   -1.02800   1.30000
     33552 MEOH     1799     MEOH     DO1      DRUD    -2.488300        0.4000           0   0.00000   0.00000
     33553 MEOH     1799     MEOH     HO1      HDP1A    0.360000        1.0080           0   0.00000   0.00000
     33554 MEOH     1799     MEOH     HO2      DUMH     0.000000        1.0080           0   0.00000   0.00000
     33555 MEOH     1799     MEOH     H1A      HDA3B    0.080000        1.0080           0   0.00000   0.00000
     33556 MEOH     1799     MEOH     H1B      HDA3B    0.080000        1.0080           0   0.00000   0.00000
     33557 MEOH     1799     MEOH     H1C      HDA3B    0.080000        1.0080           0   0.00000   0.00000
     33558 MEOH     1799     MEOH     LP1A     LPD     -0.230000        0.0000           -1   0.00000   0.00000
     33559 MEOH     1799     MEOH     LP1B     LPD     -0.230000        0.0000           -1   0.00000   0.00000
     33560 MEOH     1800     MEOH     C1       CD33B    2.314100       11.6110           0   -1.00000   1.30000
     33561 MEOH     1800     MEOH     DC1      DRUD    -2.454100        0.4000           0   0.00000   0.00000
     33562 MEOH     1800     MEOH     O1       OD31H    2.488300       15.5990           0   -1.02800   1.30000
     33563 MEOH     1800     MEOH     DO1      DRUD    -2.488300        0.4000           0   0.00000   0.00000
     33564 MEOH     1800     MEOH     HO1      HDP1A    0.360000        1.0080           0   0.00000   0.00000
     33565 MEOH     1800     MEOH     HO2      DUMH     0.000000        1.0080           0   0.00000   0.00000
     33566 MEOH     1800     MEOH     H1A      HDA3B    0.080000        1.0080           0   0.00000   0.00000
     33567 MEOH     1800     MEOH     H1B      HDA3B    0.080000        1.0080           0   0.00000   0.00000
     33568 MEOH     1800     MEOH     H1C      HDA3B    0.080000        1.0080           0   0.00000   0.00000
     33569 MEOH     1800     MEOH     LP1A     LPD     -0.230000        0.0000           -1   0.00000   0.00000
     33570 MEOH     1800     MEOH     LP1B     LPD     -0.230000        0.0000           -1   0.00000   0.00000
     33571 MEOH     1801     MEOH     C1       CD33B    2.314100       11.6110           0   -1.00000   1.30000
     33572 MEOH     1801     MEOH     DC1      DRUD    -2.454100        0.4000           0   0.00000   0.00000
     33573 MEOH     1801     MEOH     O1       OD31H    2.488300       15.5990           0   -1.02800   1.30000
     33574 MEOH     1801     MEOH     DO1      DRUD    -2.488300        0.4000           0   0.00000   0.00000
     33575 MEOH     1801     MEOH     HO1      HDP1A    0.360000        1.0080           0   0.00000   0.00000
     33576 MEOH     1801     MEOH     HO2      DUMH     0.000000        1.0080           0   0.00000   0.00000
     33577 MEOH     1801     MEOH     H1A      HDA3B    0.080000        1.0080           0   0.00000   0.00000
     33578 MEOH     1801     MEOH     H1B      HDA3B    0.080000        1.0080           0   0.00000   0.00000
     33579 MEOH     1801     MEOH     H1C      HDA3B    0.080000        1.0080           0   0.00000   0.00000
     33580 MEOH     1801     MEOH     LP1A     LPD     -0.230000        0.0000           -1   0.00000   0.00000
     33581 MEOH     1801     MEOH     LP1B     LPD     -0.230000        0.0000           -1   0.00000   0.00000
     33582 MEOH     1802     MEOH     C1       CD33B    2.314100       11.6110           0   -1.00000   1.30000
     33583 MEOH     1802     MEOH     DC1      DRUD    -2.454100        0.4000           0   0.00000   0.00000
     33584 MEOH     1802     MEOH     O1       OD31H    2.488300       15.5990           0   -1.02800   1.30000
     33585 MEOH     1802     MEOH     DO1      DRUD    -2.488300        0.4000           0   0.00000   0.00000
     33586 MEOH     1802     MEOH     HO1      HDP1A    0.360000        1.0080           0   0.00000   0.00000
     33587 MEOH     1802     MEOH     HO2      DUMH     0.000000        1.0080           0   0.00000   0.00000
     33588 MEOH     1802     MEOH     H1A      HDA3B    0.080000        1.0080           0   0.00000   0.00000
     33589 MEOH     1802     MEOH     H1B      HDA3B    0.080000        1.0080           0   0.00000   0.00000
     33590 MEOH     1802     MEOH     H1C      HDA3B    0.080000        1.0080           0   0.00000   0.00000
     33591 MEOH     1802     MEOH     LP1A     LPD     -0.230000        0.0000           -1   0.00000   0.00000
     33592 MEOH     1802     MEOH     LP1B     LPD     -0.230000        0.0000           -1   0.00000   0.00000
     33593 MEOH     1803     MEOH     C1       CD33B    2.314100       11.6110           0   -1.00000   1.30000
     33594 MEOH     1803     MEOH     DC1      DRUD    -2.454100        0.4000           0   0.00000   0.00000
     33595 MEOH     1803     MEOH     O1       OD31H    2.488300       15.5990           0   -1.02800   1.30000
     33596 MEOH     1803     MEOH     DO1      DRUD    -2.488300        0.4000           0   0.00000   0.00000
     33597 MEOH     1803     MEOH     HO1      HDP1A    0.360000        1.0080           0   0.00000   0.00000
     33598 MEOH     1803     MEOH     HO2      DUMH     0.000000        1.0080           0   0.00000   0.00000
     33599 MEOH     1803     MEOH     H1A      HDA3B    0.080000        1.0080           0   0.00000   0.00000
     33600 MEOH     1803     MEOH     H1B      HDA3B    0.080000        1.0080           0   0.00000   0.00000
     33601 MEOH     1803     MEOH     H1C      HDA3B    0.080000        1.0080           0   0.00000   0.00000
     33602 MEOH     1803     MEOH     LP1A     LPD     -0.230000        0.0000           -1   0.00000   0.00000
     33603 MEOH     1803     MEOH     LP1B     LPD     -0.230000        0.0000           -1   0.00000   0.00000
     33604 MEOH     1804     MEOH     C1       CD33B    2.314100       11.6110           0   -1.00000   1.30000
     33605 MEOH     1804     MEOH     DC1      DRUD    -2.454100        0.4000           0   0.00000   0.00000
     33606 MEOH     1804     MEOH     O1       OD31H    2.488300       15.5990           0   -1.02800   1.30000
     33607 MEOH     1804     MEOH     DO1      DRUD    -2.488300        0.4000           0   0.00000   0.00000
     33608 MEOH     1804     MEOH     HO1      HDP1A    0.360000        1.0080           0   0.00000   0.00000
     33609 MEOH     1804     MEOH     HO2      DUMH     0.000000        1.0080           0   0.00000   0.00000
     33610 MEOH     1804     MEOH     H1A      HDA3B    0.080000        1.0080           0   0.00000   0.00000
     33611 MEOH     1804     MEOH     H1B      HDA3B    0.080000        1.0080           0   0.00000   0.00000
     33612 MEOH     1804     MEOH     H1C      HDA3B    0.080000        1.0080           0   0.00000   0.00000
     33613 MEOH     1804     MEOH     LP1A     LPD     -0.230000        0.0000           -1   0.00000   0.00000
     33614 MEOH     1804     MEOH     LP1B     LPD     -0.230000        0.0000           -1   0.00000   0.00000
     33615 MEOH     1805     MEOH     C1       CD33B    2.314100       11.6110           0   -1.00000   1.30000
     33616 MEOH     1805     MEOH     DC1      DRUD    -2.454100        0.4000           0   0.00000   0.00000
     33617 MEOH     1805     MEOH     O1       OD31H    2.488300       15.5990           0   -1.02800   1.30000
     33618 MEOH     1805     MEOH     DO1      DRUD    -2.488300        0.4000           0   0.00000   0.00000
     33619 MEOH     1805     MEOH     HO1      HDP1A    0.360000        1.0080           0   0.00000   0.00000
     33620 MEOH     1805     MEOH     HO2      DUMH     0.000000        1.0080           0   0.00000   0.00000
     33621 MEOH     1805     MEOH     H1A      HDA3B    0.080000        1.0080           0   0.00000   0.00000
     33622 MEOH     1805     MEOH     H1B      HDA3B    0.080000        1.0080           0   0.00000   0.00000
     33623 MEOH     1805     MEOH     H1C      HDA3B    0.080000        1.0080           0   0.00000   0.00000
     33624 MEOH     1805     MEOH     LP1A     LPD     -0.230000        0.0000           -1   0.00000   0.00000
     33625 MEOH     1805     MEOH     LP1B     LPD     -0.230000        0.0000           -1   0.00000   0.00000
     33626 MEOH     1806     MEOH     C1       CD33B    2.314100       11.6110           0   -1.00000   1.30000
     33627 MEOH     1806     MEOH     DC1      DRUD    -2.454100        0.4000           0   0.00000   0.00000
     33628 MEOH     1806     MEOH     O1       OD31H    2.488300       15.5990           0   -1.02800   1.30000
     33629 MEOH     1806     MEOH     DO1      DRUD    -2.488300        0.4000           0   0.00000   0.00000
     33630 MEOH     1806     MEOH     HO1      HDP1A    0.360000        1.0080           0   0.00000   0.00000
     33631 MEOH     1806     MEOH     HO2      DUMH     0.000000        1.0080           0   0.00000   0.00000
     33632 MEOH     1806     MEOH     H1A      HDA3B    0.080000        1.0080           0   0.00000   0.00000
     33633 MEOH     1806     MEOH     H1B      HDA3B    0.080000        1.0080           0   0.00000   0.00000
     33634 MEOH     1806     MEOH     H1C      HDA3B    0.080000        1.0080           0   0.00000   0.00000
     33635 MEOH     1806     MEOH     LP1A     LPD     -0.230000        0.0000           -1   0.00000   0.00000
     33636 MEOH     1806     MEOH     LP1B     LPD     -0.230000        0.0000           -1   0.00000   0.00000
     33637 MEOH     1807     MEOH     C1       CD33B    2.314100       11.6110           0   -1.00000   1.30000
     33638 MEOH     1807     MEOH     DC1      DRUD    -2.454100        0.4000           0   0.00000   0.00000
     33639 MEOH     1807     MEOH     O1       OD31H    2.488300       15.5990           0   -1.02800   1.30000
     33640 MEOH     1807     MEOH     DO1      DRUD    -2.488300        0.4000           0   0.00000   0.00000
     33641 MEOH     1807     MEOH     HO1      HDP1A    0.360000        1.0080           0   0.00000   0.00000
     33642 MEOH     1807     MEOH     HO2      DUMH     0.000000        1.0080           0   0.00000   0.00000
     33643 MEOH     1807     MEOH     H1A      HDA3B    0.080000        1.0080           0   0.00000   0.00000
     33644 MEOH     1807     MEOH     H1B      HDA3B    0.080000        1.0080           0   0.00000   0.00000
     33645 MEOH     1807     MEOH     H1C      HDA3B    0.080000        1.0080           0   0.00000   0.00000
     33646 MEOH     1807     MEOH     LP1A     LPD     -0.230000        0.0000           -1   0.00000   0.00000
     33647 MEOH     1807     MEOH     LP1B     LPD     -0.230000        0.0000           -1   0.00000   0.00000
     33648 MEOH     1808     MEOH     C1       CD33B    2.314100       11.6110           0   -1.00000   1.30000
     33649 MEOH     1808     MEOH     DC1      DRUD    -2.454100        0.4000           0   0.00000   0.00000
     33650 MEOH     1808     MEOH     O1       OD31H    2.488300       15.5990           0   -1.02800   1.30000
     33651 MEOH     1808     MEOH     DO1      DRUD    -2.488300        0.4000           0   0.00000   0.00000
     33652 MEOH     1808     MEOH     HO1      HDP1A    0.360000        1.0080           0   0.00000   0.00000
     33653 MEOH     1808     MEOH     HO2      DUMH     0.000000        1.0080           0   0.00000   0.00000
     33654 MEOH     1808     MEOH     H1A      HDA3B    0.080000        1.0080           0   0.00000   0.00000
     33655 MEOH     1808     MEOH     H1B      HDA3B    0.080000        1.0080           0   0.00000   0.00000
     33656 MEOH     1808     MEOH     H1C      HDA3B    0.080000        1.0080           0   0.00000   0.00000
     33657 MEOH     1808     MEOH     LP1A     LPD     -0.230000        0.0000           -1   0.00000   0.00000
     33658 MEOH     1808     MEOH     LP1B     LPD     -0.230000        0.0000           -1   0.00000   0.00000
     33659 MEOH     1809     MEOH     C1       CD33B    2.314100       11.6110           0   -1.00000   1.30000
     33660 MEOH     1809     MEOH     DC1      DRUD    -2.454100        0.4000           0   0.00000   0.00000
     33661 MEOH     1809     MEOH     O1       OD31H    2.488300       15.5990           0   -1.02800   1.30000
     33662 MEOH     1809     MEOH     DO1      DRUD    -2.488300        0.4000           0   0.00000   0.00000
     33663 MEOH     1809     MEOH     HO1      HDP1A    0.360000        1.0080           0   0.00000   0.00000
     33664 MEOH     1809     MEOH     HO2      DUMH     0.000000        1.0080           0   0.00000   0.00000
     33665 MEOH     1809     MEOH     H1A      HDA3B    0.080000        1.0080           0   0.00000   0.00000
     33666 MEOH     1809     MEOH     H1B      HDA3B    0.080000        1.0080           0   0.00000   0.00000
     33667 MEOH     1809     MEOH     H1C      HDA3B    0.080000        1.0080           0   0.00000   0.00000
     33668 MEOH     1809     MEOH     LP1A     LPD     -0.230000        0.0000           -1   0.00000   0.00000
     33669 MEOH     1809     MEOH     LP1B     LPD     -0.230000        0.0000           -1   0.00000   0.00000
     33670 MEOH     1810     MEOH     C1       CD33B    2.314100       11.6110           0   -1.00000   1.30000
     33671 MEOH     1810     MEOH     DC1      DRUD    -2.454100        0.4000           0   0.00000   0.00000
     33672 MEOH     1810     MEOH     O1       OD31H    2.488300       15.5990           0   -1.02800   1.30000
     33673 MEOH     1810     MEOH     DO1      DRUD    -2.488300        0.4000           0   0.00000   0.00000
     33674 MEOH     1810     MEOH     HO1      HDP1A    0.360000        1.0080           0   0.00000   0.00000
     33675 MEOH     1810     MEOH     HO2      DUMH     0.000000        1.0080           0   0.00000   0.00000
     33676 MEOH     1810     MEOH     H1A      HDA3B    0.080000        1.0080           0   0.00000   0.00000
     33677 MEOH     1810     MEOH     H1B      HDA3B    0.080000        1.0080           0   0.00000   0.00000
     33678 MEOH     1810     MEOH     H1C      HDA3B    0.080000        1.0080           0   0.00000   0.00000
     33679 MEOH     1810     MEOH     LP1A     LPD     -0.230000        0.0000           -1   0.00000   0.00000
     33680 MEOH     1810     MEOH     LP1B     LPD     -0.230000        0.0000           -1   0.00000   0.00000
     33681 MEOH     1811     MEOH     C1       CD33B    2.314100       11.6110           0   -1.00000   1.30000
     33682 MEOH     1811     MEOH     DC1      DRUD    -2.454100        0.4000           0   0.00000   0.00000
     33683 MEOH     1811     MEOH     O1       OD31H    2.488300       15.5990           0   -1.02800   1.30000
     33684 MEOH     1811     MEOH     DO1      DRUD    -2.488300        0.4000           0   0.00000   0.00000
     33685 MEOH     1811     MEOH     HO1      HDP1A    0.360000        1.0080           0   0.00000   0.00000
     33686 MEOH     1811     MEOH     HO2      DUMH     0.000000        1.0080           0   0.00000   0.00000
     33687 MEOH     1811     MEOH     H1A      HDA3B    0.080000        1.0080           0   0.00000   0.00000
     33688 MEOH     1811     MEOH     H1B      HDA3B    0.080000        1.0080           0   0.00000   0.00000
     33689 MEOH     1811     MEOH     H1C      HDA3B    0.080000        1.0080           0   0.00000   0.00000
     33690 MEOH     1811     MEOH     LP1A     LPD     -0.230000        0.0000           -1   0.00000   0.00000
     33691 MEOH     1811     MEOH     LP1B     LPD     -0.230000        0.0000           -1   0.00000   0.00000
     33692 MEOH     1812     MEOH     C1       CD33B    2.314100       11.6110           0   -1.00000   1.30000
     33693 MEOH     1812     MEOH     DC1      DRUD    -2.454100        0.4000           0   0.00000   0.00000
     33694 MEOH     1812     MEOH     O1       OD31H    2.488300       15.5990           0   -1.02800   1.30000
     33695 MEOH     1812     MEOH     DO1      DRUD    -2.488300        0.4000           0   0.00000   0.00000
     33696 MEOH     1812     MEOH     HO1      HDP1A    0.360000        1.0080           0   0.00000   0.00000
     33697 MEOH     1812     MEOH     HO2      DUMH     0.000000        1.0080           0   0.00000   0.00000
     33698 MEOH     1812     MEOH     H1A      HDA3B    0.080000        1.0080           0   0.00000   0.00000
     33699 MEOH     1812     MEOH     H1B      HDA3B    0.080000        1.0080           0   0.00000   0.00000
     33700 MEOH     1812     MEOH     H1C      HDA3B    0.080000        1.0080           0   0.00000   0.00000
     33701 MEOH     1812     MEOH     LP1A     LPD     -0.230000        0.0000           -1   0.00000   0.00000
     33702 MEOH     1812     MEOH     LP1B     LPD     -0.230000        0.0000           -1   0.00000   0.00000
     33703 MEOH     1813     MEOH     C1       CD33B    2.314100       11.6110           0   -1.00000   1.30000
     33704 MEOH     1813     MEOH     DC1      DRUD    -2.454100        0.4000           0   0.00000   0.00000
     33705 MEOH     1813     MEOH     O1       OD31H    2.488300       15.5990           0   -1.02800   1.30000
     33706 MEOH     1813     MEOH     DO1      DRUD    -2.488300        0.4000           0   0.00000   0.00000
     33707 MEOH     1813     MEOH     HO1      HDP1A    0.360000        1.0080           0   0.00000   0.00000
     33708 MEOH     1813     MEOH     HO2      DUMH     0.000000        1.0080           0   0.00000   0.00000
     33709 MEOH     1813     MEOH     H1A      HDA3B    0.080000        1.0080           0   0.00000   0.00000
     33710 MEOH     1813     MEOH     H1B      HDA3B    0.080000        1.0080           0   0.00000   0.00000
     33711 MEOH     1813     MEOH     H1C      HDA3B    0.080000        1.0080           0   0.00000   0.00000
     33712 MEOH     1813     MEOH     LP1A     LPD     -0.230000        0.0000           -1   0.00000   0.00000
     33713 MEOH     1813     MEOH     LP1B     LPD     -0.230000        0.0000           -1   0.00000   0.00000
     33714 MEOH     1814     MEOH     C1       CD33B    2.314100       11.6110           0   -1.00000   1.30000
     33715 MEOH     1814     MEOH     DC1      DRUD    -2.454100        0.4000           0   0.00000   0.00000
     33716 MEOH     1814     MEOH     O1       OD31H    2.488300       15.5990           0   -1.02800   1.30000
     33717 MEOH     1814     MEOH     DO1      DRUD    -2.488300        0.4000           0   0.00000   0.00000
     33718 MEOH     1814     MEOH     HO1      HDP1A    0.360000        1.0080           0   0.00000   0.00000
     33719 MEOH     1814     MEOH     HO2      DUMH     0.000000        1.0080           0   0.00000   0.00000
     33720 MEOH     1814     MEOH     H1A      HDA3B    0.080000        1.0080           0   0.00000   0.00000
     33721 MEOH     1814     MEOH     H1B      HDA3B    0.080000        1.0080           0   0.00000   0.00000
     33722 MEOH     1814     MEOH     H1C      HDA3B    0.080000        1.0080           0   0.00000   0.00000
     33723 MEOH     1814     MEOH     LP1A     LPD     -0.230000        0.0000           -1   0.00000   0.00000
     33724 MEOH     1814     MEOH     LP1B     LPD     -0.230000        0.0000           -1   0.00000   0.00000
     33725 MEOH     1815     MEOH     C1       CD33B    2.314100       11.6110           0   -1.00000   1.30000
     33726 MEOH     1815     MEOH     DC1      DRUD    -2.454100        0.4000           0   0.00000   0.00000
     33727 MEOH     1815     MEOH     O1       OD31H    2.488300       15.5990           0   -1.02800   1.30000
     33728 MEOH     1815     MEOH     DO1      DRUD    -2.488300        0.4000           0   0.00000   0.00000
     33729 MEOH     1815     MEOH     HO1      HDP1A    0.360000        1.0080           0   0.00000   0.00000
     33730 MEOH     1815     MEOH     HO2      DUMH     0.000000        1.0080           0   0.00000   0.00000
     33731 MEOH     1815     MEOH     H1A      HDA3B    0.080000        1.0080           0   0.00000   0.00000
     33732 MEOH     1815     MEOH     H1B      HDA3B    0.080000        1.0080           0   0.00000   0.00000
     33733 MEOH     1815     MEOH     H1C      HDA3B    0.080000        1.0080           0   0.00000   0.00000
     33734 MEOH     1815     MEOH     LP1A     LPD     -0.230000        0.0000           -1   0.00000   0.00000
     33735 MEOH     1815     MEOH     LP1B     LPD     -0.230000        0.0000           -1   0.00000   0.00000
     33736 MEOH     1816     MEOH     C1       CD33B    2.314100       11.6110           0   -1.00000   1.30000
     33737 MEOH     1816     MEOH     DC1      DRUD    -2.454100        0.4000           0   0.00000   0.00000
     33738 MEOH     1816     MEOH     O1       OD31H    2.488300       15.5990           0   -1.02800   1.30000
     33739 MEOH     1816     MEOH     DO1      DRUD    -2.488300        0.4000           0   0.00000   0.00000
     33740 MEOH     1816     MEOH     HO1      HDP1A    0.360000        1.0080           0   0.00000   0.00000
     33741 MEOH     1816     MEOH     HO2      DUMH     0.000000        1.0080           0   0.00000   0.00000
     33742 MEOH     1816     MEOH     H1A      HDA3B    0.080000        1.0080           0   0.00000   0.00000
     33743 MEOH     1816     MEOH     H1B      HDA3B    0.080000        1.0080           0   0.00000   0.00000
     33744 MEOH     1816     MEOH     H1C      HDA3B    0.080000        1.0080           0   0.00000   0.00000
     33745 MEOH     1816     MEOH     LP1A     LPD     -0.230000        0.0000           -1   0.00000   0.00000
     33746 MEOH     1816     MEOH     LP1B     LPD     -0.230000        0.0000           -1   0.00000   0.00000
     33747 MEOH     1817     MEOH     C1       CD33B    2.314100       11.6110           0   -1.00000   1.30000
     33748 MEOH     1817     MEOH     DC1      DRUD    -2.454100        0.4000           0   0.00000   0.00000
     33749 MEOH     1817     MEOH     O1       OD31H    2.488300       15.5990           0   -1.02800   1.30000
     33750 MEOH     1817     MEOH     DO1      DRUD    -2.488300        0.4000           0   0.00000   0.00000
     33751 MEOH     1817     MEOH     HO1      HDP1A    0.360000        1.0080           0   0.00000   0.00000
     33752 MEOH     1817     MEOH     HO2      DUMH     0.000000        1.0080           0   0.00000   0.00000
     33753 MEOH     1817     MEOH     H1A      HDA3B    0.080000        1.0080           0   0.00000   0.00000
     33754 MEOH     1817     MEOH     H1B      HDA3B    0.080000        1.0080           0   0.00000   0.00000
     33755 MEOH     1817     MEOH     H1C      HDA3B    0.080000        1.0080           0   0.00000   0.00000
     33756 MEOH     1817     MEOH     LP1A     LPD     -0.230000        0.0000           -1   0.00000   0.00000
     33757 MEOH     1817     MEOH     LP1B     LPD     -0.230000        0.0000           -1   0.00000   0.00000
     33758 MEOH     1818     MEOH     C1       CD33B    2.314100       11.6110           0   -1.00000   1.30000
     33759 MEOH     1818     MEOH     DC1      DRUD    -2.454100        0.4000           0   0.00000   0.00000
     33760 MEOH     1818     MEOH     O1       OD31H    2.488300       15.5990           0   -1.02800   1.30000
     33761 MEOH     1818     MEOH     DO1      DRUD    -2.488300        0.4000           0   0.00000   0.00000
     33762 MEOH     1818     MEOH     HO1      HDP1A    0.360000        1.0080           0   0.00000   0.00000
     33763 MEOH     1818     MEOH     HO2      DUMH     0.000000        1.0080           0   0.00000   0.00000
     33764 MEOH     1818     MEOH     H1A      HDA3B    0.080000        1.0080           0   0.00000   0.00000
     33765 MEOH     1818     MEOH     H1B      HDA3B    0.080000        1.0080           0   0.00000   0.00000
     33766 MEOH     1818     MEOH     H1C      HDA3B    0.080000        1.0080           0   0.00000   0.00000
     33767 MEOH     1818     MEOH     LP1A     LPD     -0.230000        0.0000           -1   0.00000   0.00000
     33768 MEOH     1818     MEOH     LP1B     LPD     -0.230000        0.0000           -1   0.00000   0.00000
     33769 MEOH     1819     MEOH     C1       CD33B    2.314100       11.6110           0   -1.00000   1.30000
     33770 MEOH     1819     MEOH     DC1      DRUD    -2.454100        0.4000           0   0.00000   0.00000
     33771 MEOH     1819     MEOH     O1       OD31H    2.488300       15.5990           0   -1.02800   1.30000
     33772 MEOH     1819     MEOH     DO1      DRUD    -2.488300        0.4000           0   0.00000   0.00000
     33773 MEOH     1819     MEOH     HO1      HDP1A    0.360000        1.0080           0   0.00000   0.00000
     33774 MEOH     1819     MEOH     HO2      DUMH     0.000000        1.0080           0   0.00000   0.00000
     33775 MEOH     1819     MEOH     H1A      HDA3B    0.080000        1.0080           0   0.00000   0.00000
     33776 MEOH     1819     MEOH     H1B      HDA3B    0.080000        1.0080           0   0.00000   0.00000
     33777 MEOH     1819     MEOH     H1C      HDA3B    0.080000        1.0080           0   0.00000   0.00000
     33778 MEOH     1819     MEOH     LP1A     LPD     -0.230000        0.0000           -1   0.00000   0.00000
     33779 MEOH     1819     MEOH     LP1B     LPD     -0.230000        0.0000           -1   0.00000   0.00000
     33780 MEOH     1820     MEOH     C1       CD33B    2.314100       11.6110           0   -1.00000   1.30000
     33781 MEOH     1820     MEOH     DC1      DRUD    -2.454100        0.4000           0   0.00000   0.00000
     33782 MEOH     1820     MEOH     O1       OD31H    2.488300       15.5990           0   -1.02800   1.30000
     33783 MEOH     1820     MEOH     DO1      DRUD    -2.488300        0.4000           0   0.00000   0.00000
     33784 MEOH     1820     MEOH     HO1      HDP1A    0.360000        1.0080           0   0.00000   0.00000
     33785 MEOH     1820     MEOH     HO2      DUMH     0.000000        1.0080           0   0.00000   0.00000
     33786 MEOH     1820     MEOH     H1A      HDA3B    0.080000        1.0080           0   0.00000   0.00000
     33787 MEOH     1820     MEOH     H1B      HDA3B    0.080000        1.0080           0   0.00000   0.00000
     33788 MEOH     1820     MEOH     H1C      HDA3B    0.080000        1.0080           0   0.00000   0.00000
     33789 MEOH     1820     MEOH     LP1A     LPD     -0.230000        0.0000           -1   0.00000   0.00000
     33790 MEOH     1820     MEOH     LP1B     LPD     -0.230000        0.0000           -1   0.00000   0.00000
     33791 MEOH     1821     MEOH     C1       CD33B    2.314100       11.6110           0   -1.00000   1.30000
     33792 MEOH     1821     MEOH     DC1      DRUD    -2.454100        0.4000           0   0.00000   0.00000
     33793 MEOH     1821     MEOH     O1       OD31H    2.488300       15.5990           0   -1.02800   1.30000
     33794 MEOH     1821     MEOH     DO1      DRUD    -2.488300        0.4000           0   0.00000   0.00000
     33795 MEOH     1821     MEOH     HO1      HDP1A    0.360000        1.0080           0   0.00000   0.00000
     33796 MEOH     1821     MEOH     HO2      DUMH     0.000000        1.0080           0   0.00000   0.00000
     33797 MEOH     1821     MEOH     H1A      HDA3B    0.080000        1.0080           0   0.00000   0.00000
     33798 MEOH     1821     MEOH     H1B      HDA3B    0.080000        1.0080           0   0.00000   0.00000
     33799 MEOH     1821     MEOH     H1C      HDA3B    0.080000        1.0080           0   0.00000   0.00000
     33800 MEOH     1821     MEOH     LP1A     LPD     -0.230000        0.0000           -1   0.00000   0.00000
     33801 MEOH     1821     MEOH     LP1B     LPD     -0.230000        0.0000           -1   0.00000   0.00000
     33802 MEOH     1822     MEOH     C1       CD33B    2.314100       11.6110           0   -1.00000   1.30000
     33803 MEOH     1822     MEOH     DC1      DRUD    -2.454100        0.4000           0   0.00000   0.00000
     33804 MEOH     1822     MEOH     O1       OD31H    2.488300       15.5990           0   -1.02800   1.30000
     33805 MEOH     1822     MEOH     DO1      DRUD    -2.488300        0.4000           0   0.00000   0.00000
     33806 MEOH     1822     MEOH     HO1      HDP1A    0.360000        1.0080           0   0.00000   0.00000
     33807 MEOH     1822     MEOH     HO2      DUMH     0.000000        1.0080           0   0.00000   0.00000
     33808 MEOH     1822     MEOH     H1A      HDA3B    0.080000        1.0080           0   0.00000   0.00000
     33809 MEOH     1822     MEOH     H1B      HDA3B    0.080000        1.0080           0   0.00000   0.00000
     33810 MEOH     1822     MEOH     H1C      HDA3B    0.080000        1.0080           0   0.00000   0.00000
     33811 MEOH     1822     MEOH     LP1A     LPD     -0.230000        0.0000           -1   0.00000   0.00000
     33812 MEOH     1822     MEOH     LP1B     LPD     -0.230000        0.0000           -1   0.00000   0.00000
     33813 MEOH     1823     MEOH     C1       CD33B    2.314100       11.6110           0   -1.00000   1.30000
     33814 MEOH     1823     MEOH     DC1      DRUD    -2.454100        0.4000           0   0.00000   0.00000
     33815 MEOH     1823     MEOH     O1       OD31H    2.488300       15.5990           0   -1.02800   1.30000
     33816 MEOH     1823     MEOH     DO1      DRUD    -2.488300        0.4000           0   0.00000   0.00000
     33817 MEOH     1823     MEOH     HO1      HDP1A    0.360000        1.0080           0   0.00000   0.00000
     33818 MEOH     1823     MEOH     HO2      DUMH     0.000000        1.0080           0   0.00000   0.00000
     33819 MEOH     1823     MEOH     H1A      HDA3B    0.080000        1.0080           0   0.00000   0.00000
     33820 MEOH     1823     MEOH     H1B      HDA3B    0.080000        1.0080           0   0.00000   0.00000
     33821 MEOH     1823     MEOH     H1C      HDA3B    0.080000        1.0080           0   0.00000   0.00000
     33822 MEOH     1823     MEOH     LP1A     LPD     -0.230000        0.0000           -1   0.00000   0.00000
     33823 MEOH     1823     MEOH     LP1B     LPD     -0.230000        0.0000           -1   0.00000   0.00000
     33824 MEOH     1824     MEOH     C1       CD33B    2.314100       11.6110           0   -1.00000   1.30000
     33825 MEOH     1824     MEOH     DC1      DRUD    -2.454100        0.4000           0   0.00000   0.00000
     33826 MEOH     1824     MEOH     O1       OD31H    2.488300       15.5990           0   -1.02800   1.30000
     33827 MEOH     1824     MEOH     DO1      DRUD    -2.488300        0.4000           0   0.00000   0.00000
     33828 MEOH     1824     MEOH     HO1      HDP1A    0.360000        1.0080           0   0.00000   0.00000
     33829 MEOH     1824     MEOH     HO2      DUMH     0.000000        1.0080           0   0.00000   0.00000
     33830 MEOH     1824     MEOH     H1A      HDA3B    0.080000        1.0080           0   0.00000   0.00000
     33831 MEOH     1824     MEOH     H1B      HDA3B    0.080000        1.0080           0   0.00000   0.00000
     33832 MEOH     1824     MEOH     H1C      HDA3B    0.080000        1.0080           0   0.00000   0.00000
     33833 MEOH     1824     MEOH     LP1A     LPD     -0.230000        0.0000           -1   0.00000   0.00000
     33834 MEOH     1824     MEOH     LP1B     LPD     -0.230000        0.0000           -1   0.00000   0.00000
     33835 MEOH     1825     MEOH     C1       CD33B    2.314100       11.6110           0   -1.00000   1.30000
     33836 MEOH     1825     MEOH     DC1      DRUD    -2.454100        0.4000           0   0.00000   0.00000
     33837 MEOH     1825     MEOH     O1       OD31H    2.488300       15.5990           0   -1.02800   1.30000
     33838 MEOH     1825     MEOH     DO1      DRUD    -2.488300        0.4000           0   0.00000   0.00000
     33839 MEOH     1825     MEOH     HO1      HDP1A    0.360000        1.0080           0   0.00000   0.00000
     33840 MEOH     1825     MEOH     HO2      DUMH     0.000000        1.0080           0   0.00000   0.00000
     33841 MEOH     1825     MEOH     H1A      HDA3B    0.080000        1.0080           0   0.00000   0.00000
     33842 MEOH     1825     MEOH     H1B      HDA3B    0.080000        1.0080           0   0.00000   0.00000
     33843 MEOH     1825     MEOH     H1C      HDA3B    0.080000        1.0080           0   0.00000   0.00000
     33844 MEOH     1825     MEOH     LP1A     LPD     -0.230000        0.0000           -1   0.00000   0.00000
     33845 MEOH     1825     MEOH     LP1B     LPD     -0.230000        0.0000           -1   0.00000   0.00000
     33846 MEOH     1826     MEOH     C1       CD33B    2.314100       11.6110           0   -1.00000   1.30000
     33847 MEOH     1826     MEOH     DC1      DRUD    -2.454100        0.4000           0   0.00000   0.00000
     33848 MEOH     1826     MEOH     O1       OD31H    2.488300       15.5990           0   -1.02800   1.30000
     33849 MEOH     1826     MEOH     DO1      DRUD    -2.488300        0.4000           0   0.00000   0.00000
     33850 MEOH     1826     MEOH     HO1      HDP1A    0.360000        1.0080           0   0.00000   0.00000
     33851 MEOH     1826     MEOH     HO2      DUMH     0.000000        1.0080           0   0.00000   0.00000
     33852 MEOH     1826     MEOH     H1A      HDA3B    0.080000        1.0080           0   0.00000   0.00000
     33853 MEOH     1826     MEOH     H1B      HDA3B    0.080000        1.0080           0   0.00000   0.00000
     33854 MEOH     1826     MEOH     H1C      HDA3B    0.080000        1.0080           0   0.00000   0.00000
     33855 MEOH     1826     MEOH     LP1A     LPD     -0.230000        0.0000           -1   0.00000   0.00000
     33856 MEOH     1826     MEOH     LP1B     LPD     -0.230000        0.0000           -1   0.00000   0.00000
     33857 MEOH     1827     MEOH     C1       CD33B    2.314100       11.6110           0   -1.00000   1.30000
     33858 MEOH     1827     MEOH     DC1      DRUD    -2.454100        0.4000           0   0.00000   0.00000
     33859 MEOH     1827     MEOH     O1       OD31H    2.488300       15.5990           0   -1.02800   1.30000
     33860 MEOH     1827     MEOH     DO1      DRUD    -2.488300        0.4000           0   0.00000   0.00000
     33861 MEOH     1827     MEOH     HO1      HDP1A    0.360000        1.0080           0   0.00000   0.00000
     33862 MEOH     1827     MEOH     HO2      DUMH     0.000000        1.0080           0   0.00000   0.00000
     33863 MEOH     1827     MEOH     H1A      HDA3B    0.080000        1.0080           0   0.00000   0.00000
     33864 MEOH     1827     MEOH     H1B      HDA3B    0.080000        1.0080           0   0.00000   0.00000
     33865 MEOH     1827     MEOH     H1C      HDA3B    0.080000        1.0080           0   0.00000   0.00000
     33866 MEOH     1827     MEOH     LP1A     LPD     -0.230000        0.0000           -1   0.00000   0.00000
     33867 MEOH     1827     MEOH     LP1B     LPD     -0.230000        0.0000           -1   0.00000   0.00000
     33868 MEOH     1828     MEOH     C1       CD33B    2.314100       11.6110           0   -1.00000   1.30000
     33869 MEOH     1828     MEOH     DC1      DRUD    -2.454100        0.4000           0   0.00000   0.00000
     33870 MEOH     1828     MEOH     O1       OD31H    2.488300       15.5990           0   -1.02800   1.30000
     33871 MEOH     1828     MEOH     DO1      DRUD    -2.488300        0.4000           0   0.00000   0.00000
     33872 MEOH     1828     MEOH     HO1      HDP1A    0.360000        1.0080           0   0.00000   0.00000
     33873 MEOH     1828     MEOH     HO2      DUMH     0.000000        1.0080           0   0.00000   0.00000
     33874 MEOH     1828     MEOH     H1A      HDA3B    0.080000        1.0080           0   0.00000   0.00000
     33875 MEOH     1828     MEOH     H1B      HDA3B    0.080000        1.0080           0   0.00000   0.00000
     33876 MEOH     1828     MEOH     H1C      HDA3B    0.080000        1.0080           0   0.00000   0.00000
     33877 MEOH     1828     MEOH     LP1A     LPD     -0.230000        0.0000           -1   0.00000   0.00000
     33878 MEOH     1828     MEOH     LP1B     LPD     -0.230000        0.0000           -1   0.00000   0.00000
     33879 MEOH     1829     MEOH     C1       CD33B    2.314100       11.6110           0   -1.00000   1.30000
     33880 MEOH     1829     MEOH     DC1      DRUD    -2.454100        0.4000           0   0.00000   0.00000
     33881 MEOH     1829     MEOH     O1       OD31H    2.488300       15.5990           0   -1.02800   1.30000
     33882 MEOH     1829     MEOH     DO1      DRUD    -2.488300        0.4000           0   0.00000   0.00000
     33883 MEOH     1829     MEOH     HO1      HDP1A    0.360000        1.0080           0   0.00000   0.00000
     33884 MEOH     1829     MEOH     HO2      DUMH     0.000000        1.0080           0   0.00000   0.00000
     33885 MEOH     1829     MEOH     H1A      HDA3B    0.080000        1.0080           0   0.00000   0.00000
     33886 MEOH     1829     MEOH     H1B      HDA3B    0.080000        1.0080           0   0.00000   0.00000
     33887 MEOH     1829     MEOH     H1C      HDA3B    0.080000        1.0080           0   0.00000   0.00000
     33888 MEOH     1829     MEOH     LP1A     LPD     -0.230000        0.0000           -1   0.00000   0.00000
     33889 MEOH     1829     MEOH     LP1B     LPD     -0.230000        0.0000           -1   0.00000   0.00000
     33890 MEOH     1830     MEOH     C1       CD33B    2.314100       11.6110           0   -1.00000   1.30000
     33891 MEOH     1830     MEOH     DC1      DRUD    -2.454100        0.4000           0   0.00000   0.00000
     33892 MEOH     1830     MEOH     O1       OD31H    2.488300       15.5990           0   -1.02800   1.30000
     33893 MEOH     1830     MEOH     DO1      DRUD    -2.488300        0.4000           0   0.00000   0.00000
     33894 MEOH     1830     MEOH     HO1      HDP1A    0.360000        1.0080           0   0.00000   0.00000
     33895 MEOH     1830     MEOH     HO2      DUMH     0.000000        1.0080           0   0.00000   0.00000
     33896 MEOH     1830     MEOH     H1A      HDA3B    0.080000        1.0080           0   0.00000   0.00000
     33897 MEOH     1830     MEOH     H1B      HDA3B    0.080000        1.0080           0   0.00000   0.00000
     33898 MEOH     1830     MEOH     H1C      HDA3B    0.080000        1.0080           0   0.00000   0.00000
     33899 MEOH     1830     MEOH     LP1A     LPD     -0.230000        0.0000           -1   0.00000   0.00000
     33900 MEOH     1830     MEOH     LP1B     LPD     -0.230000        0.0000           -1   0.00000   0.00000
     33901 MEOH     1831     MEOH     C1       CD33B    2.314100       11.6110           0   -1.00000   1.30000
     33902 MEOH     1831     MEOH     DC1      DRUD    -2.454100        0.4000           0   0.00000   0.00000
     33903 MEOH     1831     MEOH     O1       OD31H    2.488300       15.5990           0   -1.02800   1.30000
     33904 MEOH     1831     MEOH     DO1      DRUD    -2.488300        0.4000           0   0.00000   0.00000
     33905 MEOH     1831     MEOH     HO1      HDP1A    0.360000        1.0080           0   0.00000   0.00000
     33906 MEOH     1831     MEOH     HO2      DUMH     0.000000        1.0080           0   0.00000   0.00000
     33907 MEOH     1831     MEOH     H1A      HDA3B    0.080000        1.0080           0   0.00000   0.00000
     33908 MEOH     1831     MEOH     H1B      HDA3B    0.080000        1.0080           0   0.00000   0.00000
     33909 MEOH     1831     MEOH     H1C      HDA3B    0.080000        1.0080           0   0.00000   0.00000
     33910 MEOH     1831     MEOH     LP1A     LPD     -0.230000        0.0000           -1   0.00000   0.00000
     33911 MEOH     1831     MEOH     LP1B     LPD     -0.230000        0.0000           -1   0.00000   0.00000
     33912 MEOH     1832     MEOH     C1       CD33B    2.314100       11.6110           0   -1.00000   1.30000
     33913 MEOH     1832     MEOH     DC1      DRUD    -2.454100        0.4000           0   0.00000   0.00000
     33914 MEOH     1832     MEOH     O1       OD31H    2.488300       15.5990           0   -1.02800   1.30000
     33915 MEOH     1832     MEOH     DO1      DRUD    -2.488300        0.4000           0   0.00000   0.00000
     33916 MEOH     1832     MEOH     HO1      HDP1A    0.360000        1.0080           0   0.00000   0.00000
     33917 MEOH     1832     MEOH     HO2      DUMH     0.000000        1.0080           0   0.00000   0.00000
     33918 MEOH     1832     MEOH     H1A      HDA3B    0.080000        1.0080           0   0.00000   0.00000
     33919 MEOH     1832     MEOH     H1B      HDA3B    0.080000        1.0080           0   0.00000   0.00000
     33920 MEOH     1832     MEOH     H1C      HDA3B    0.080000        1.0080           0   0.00000   0.00000
     33921 MEOH     1832     MEOH     LP1A     LPD     -0.230000        0.0000           -1   0.00000   0.00000
     33922 MEOH     1832     MEOH     LP1B     LPD     -0.230000        0.0000           -1   0.00000   0.00000
     33923 MEOH     1833     MEOH     C1       CD33B    2.314100       11.6110           0   -1.00000   1.30000
     33924 MEOH     1833     MEOH     DC1      DRUD    -2.454100        0.4000           0   0.00000   0.00000
     33925 MEOH     1833     MEOH     O1       OD31H    2.488300       15.5990           0   -1.02800   1.30000
     33926 MEOH     1833     MEOH     DO1      DRUD    -2.488300        0.4000           0   0.00000   0.00000
     33927 MEOH     1833     MEOH     HO1      HDP1A    0.360000        1.0080           0   0.00000   0.00000
     33928 MEOH     1833     MEOH     HO2      DUMH     0.000000        1.0080           0   0.00000   0.00000
     33929 MEOH     1833     MEOH     H1A      HDA3B    0.080000        1.0080           0   0.00000   0.00000
     33930 MEOH     1833     MEOH     H1B      HDA3B    0.080000        1.0080           0   0.00000   0.00000
     33931 MEOH     1833     MEOH     H1C      HDA3B    0.080000        1.0080           0   0.00000   0.00000
     33932 MEOH     1833     MEOH     LP1A     LPD     -0.230000        0.0000           -1   0.00000   0.00000
     33933 MEOH     1833     MEOH     LP1B     LPD     -0.230000        0.0000           -1   0.00000   0.00000
     33934 MEOH     1834     MEOH     C1       CD33B    2.314100       11.6110           0   -1.00000   1.30000
     33935 MEOH     1834     MEOH     DC1      DRUD    -2.454100        0.4000           0   0.00000   0.00000
     33936 MEOH     1834     MEOH     O1       OD31H    2.488300       15.5990           0   -1.02800   1.30000
     33937 MEOH     1834     MEOH     DO1      DRUD    -2.488300        0.4000           0   0.00000   0.00000
     33938 MEOH     1834     MEOH     HO1      HDP1A    0.360000        1.0080           0   0.00000   0.00000
     33939 MEOH     1834     MEOH     HO2      DUMH     0.000000        1.0080           0   0.00000   0.00000
     33940 MEOH     1834     MEOH     H1A      HDA3B    0.080000        1.0080           0   0.00000   0.00000
     33941 MEOH     1834     MEOH     H1B      HDA3B    0.080000        1.0080           0   0.00000   0.00000
     33942 MEOH     1834     MEOH     H1C      HDA3B    0.080000        1.0080           0   0.00000   0.00000
     33943 MEOH     1834     MEOH     LP1A     LPD     -0.230000        0.0000           -1   0.00000   0.00000
     33944 MEOH     1834     MEOH     LP1B     LPD     -0.230000        0.0000           -1   0.00000   0.00000
     33945 MEOH     1835     MEOH     C1       CD33B    2.314100       11.6110           0   -1.00000   1.30000
     33946 MEOH     1835     MEOH     DC1      DRUD    -2.454100        0.4000           0   0.00000   0.00000
     33947 MEOH     1835     MEOH     O1       OD31H    2.488300       15.5990           0   -1.02800   1.30000
     33948 MEOH     1835     MEOH     DO1      DRUD    -2.488300        0.4000           0   0.00000   0.00000
     33949 MEOH     1835     MEOH     HO1      HDP1A    0.360000        1.0080           0   0.00000   0.00000
     33950 MEOH     1835     MEOH     HO2      DUMH     0.000000        1.0080           0   0.00000   0.00000
     33951 MEOH     1835     MEOH     H1A      HDA3B    0.080000        1.0080           0   0.00000   0.00000
     33952 MEOH     1835     MEOH     H1B      HDA3B    0.080000        1.0080           0   0.00000   0.00000
     33953 MEOH     1835     MEOH     H1C      HDA3B    0.080000        1.0080           0   0.00000   0.00000
     33954 MEOH     1835     MEOH     LP1A     LPD     -0.230000        0.0000           -1   0.00000   0.00000
     33955 MEOH     1835     MEOH     LP1B     LPD     -0.230000        0.0000           -1   0.00000   0.00000
     33956 MEOH     1836     MEOH     C1       CD33B    2.314100       11.6110           0   -1.00000   1.30000
     33957 MEOH     1836     MEOH     DC1      DRUD    -2.454100        0.4000           0   0.00000   0.00000
     33958 MEOH     1836     MEOH     O1       OD31H    2.488300       15.5990           0   -1.02800   1.30000
     33959 MEOH     1836     MEOH     DO1      DRUD    -2.488300        0.4000           0   0.00000   0.00000
     33960 MEOH     1836     MEOH     HO1      HDP1A    0.360000        1.0080           0   0.00000   0.00000
     33961 MEOH     1836     MEOH     HO2      DUMH     0.000000        1.0080           0   0.00000   0.00000
     33962 MEOH     1836     MEOH     H1A      HDA3B    0.080000        1.0080           0   0.00000   0.00000
     33963 MEOH     1836     MEOH     H1B      HDA3B    0.080000        1.0080           0   0.00000   0.00000
     33964 MEOH     1836     MEOH     H1C      HDA3B    0.080000        1.0080           0   0.00000   0.00000
     33965 MEOH     1836     MEOH     LP1A     LPD     -0.230000        0.0000           -1   0.00000   0.00000
     33966 MEOH     1836     MEOH     LP1B     LPD     -0.230000        0.0000           -1   0.00000   0.00000
     33967 MEOH     1837     MEOH     C1       CD33B    2.314100       11.6110           0   -1.00000   1.30000
     33968 MEOH     1837     MEOH     DC1      DRUD    -2.454100        0.4000           0   0.00000   0.00000
     33969 MEOH     1837     MEOH     O1       OD31H    2.488300       15.5990           0   -1.02800   1.30000
     33970 MEOH     1837     MEOH     DO1      DRUD    -2.488300        0.4000           0   0.00000   0.00000
     33971 MEOH     1837     MEOH     HO1      HDP1A    0.360000        1.0080           0   0.00000   0.00000
     33972 MEOH     1837     MEOH     HO2      DUMH     0.000000        1.0080           0   0.00000   0.00000
     33973 MEOH     1837     MEOH     H1A      HDA3B    0.080000        1.0080           0   0.00000   0.00000
     33974 MEOH     1837     MEOH     H1B      HDA3B    0.080000        1.0080           0   0.00000   0.00000
     33975 MEOH     1837     MEOH     H1C      HDA3B    0.080000        1.0080           0   0.00000   0.00000
     33976 MEOH     1837     MEOH     LP1A     LPD     -0.230000        0.0000           -1   0.00000   0.00000
     33977 MEOH     1837     MEOH     LP1B     LPD     -0.230000        0.0000           -1   0.00000   0.00000
     33978 MEOH     1838     MEOH     C1       CD33B    2.314100       11.6110           0   -1.00000   1.30000
     33979 MEOH     1838     MEOH     DC1      DRUD    -2.454100        0.4000           0   0.00000   0.00000
     33980 MEOH     1838     MEOH     O1       OD31H    2.488300       15.5990           0   -1.02800   1.30000
     33981 MEOH     1838     MEOH     DO1      DRUD    -2.488300        0.4000           0   0.00000   0.00000
     33982 MEOH     1838     MEOH     HO1      HDP1A    0.360000        1.0080           0   0.00000   0.00000
     33983 MEOH     1838     MEOH     HO2      DUMH     0.000000        1.0080           0   0.00000   0.00000
     33984 MEOH     1838     MEOH     H1A      HDA3B    0.080000        1.0080           0   0.00000   0.00000
     33985 MEOH     1838     MEOH     H1B      HDA3B    0.080000        1.0080           0   0.00000   0.00000
     33986 MEOH     1838     MEOH     H1C      HDA3B    0.080000        1.0080           0   0.00000   0.00000
     33987 MEOH     1838     MEOH     LP1A     LPD     -0.230000        0.0000           -1   0.00000   0.00000
     33988 MEOH     1838     MEOH     LP1B     LPD     -0.230000        0.0000           -1   0.00000   0.00000
     33989 MEOH     1839     MEOH     C1       CD33B    2.314100       11.6110           0   -1.00000   1.30000
     33990 MEOH     1839     MEOH     DC1      DRUD    -2.454100        0.4000           0   0.00000   0.00000
     33991 MEOH     1839     MEOH     O1       OD31H    2.488300       15.5990           0   -1.02800   1.30000
     33992 MEOH     1839     MEOH     DO1      DRUD    -2.488300        0.4000           0   0.00000   0.00000
     33993 MEOH     1839     MEOH     HO1      HDP1A    0.360000        1.0080           0   0.00000   0.00000
     33994 MEOH     1839     MEOH     HO2      DUMH     0.000000        1.0080           0   0.00000   0.00000
     33995 MEOH     1839     MEOH     H1A      HDA3B    0.080000        1.0080           0   0.00000   0.00000
     33996 MEOH     1839     MEOH     H1B      HDA3B    0.080000        1.0080           0   0.00000   0.00000
     33997 MEOH     1839     MEOH     H1C      HDA3B    0.080000        1.0080           0   0.00000   0.00000
     33998 MEOH     1839     MEOH     LP1A     LPD     -0.230000        0.0000           -1   0.00000   0.00000
     33999 MEOH     1839     MEOH     LP1B     LPD     -0.230000        0.0000           -1   0.00000   0.00000
     34000 MEOH     1840     MEOH     C1       CD33B    2.314100       11.6110           0   -1.00000   1.30000
     34001 MEOH     1840     MEOH     DC1      DRUD    -2.454100        0.4000           0   0.00000   0.00000
     34002 MEOH     1840     MEOH     O1       OD31H    2.488300       15.5990           0   -1.02800   1.30000
     34003 MEOH     1840     MEOH     DO1      DRUD    -2.488300        0.4000           0   0.00000   0.00000
     34004 MEOH     1840     MEOH     HO1      HDP1A    0.360000        1.0080           0   0.00000   0.00000
     34005 MEOH     1840     MEOH     HO2      DUMH     0.000000        1.0080           0   0.00000   0.00000
     34006 MEOH     1840     MEOH     H1A      HDA3B    0.080000        1.0080           0   0.00000   0.00000
     34007 MEOH     1840     MEOH     H1B      HDA3B    0.080000        1.0080           0   0.00000   0.00000
     34008 MEOH     1840     MEOH     H1C      HDA3B    0.080000        1.0080           0   0.00000   0.00000
     34009 MEOH     1840     MEOH     LP1A     LPD     -0.230000        0.0000           -1   0.00000   0.00000
     34010 MEOH     1840     MEOH     LP1B     LPD     -0.230000        0.0000           -1   0.00000   0.00000
     34011 MEOH     1841     MEOH     C1       CD33B    2.314100       11.6110           0   -1.00000   1.30000
     34012 MEOH     1841     MEOH     DC1      DRUD    -2.454100        0.4000           0   0.00000   0.00000
     34013 MEOH     1841     MEOH     O1       OD31H    2.488300       15.5990           0   -1.02800   1.30000
     34014 MEOH     1841     MEOH     DO1      DRUD    -2.488300        0.4000           0   0.00000   0.00000
     34015 MEOH     1841     MEOH     HO1      HDP1A    0.360000        1.0080           0   0.00000   0.00000
     34016 MEOH     1841     MEOH     HO2      DUMH     0.000000        1.0080           0   0.00000   0.00000
     34017 MEOH     1841     MEOH     H1A      HDA3B    0.080000        1.0080           0   0.00000   0.00000
     34018 MEOH     1841     MEOH     H1B      HDA3B    0.080000        1.0080           0   0.00000   0.00000
     34019 MEOH     1841     MEOH     H1C      HDA3B    0.080000        1.0080           0   0.00000   0.00000
     34020 MEOH     1841     MEOH     LP1A     LPD     -0.230000        0.0000           -1   0.00000   0.00000
     34021 MEOH     1841     MEOH     LP1B     LPD     -0.230000        0.0000           -1   0.00000   0.00000
     34022 MEOH     1842     MEOH     C1       CD33B    2.314100       11.6110           0   -1.00000   1.30000
     34023 MEOH     1842     MEOH     DC1      DRUD    -2.454100        0.4000           0   0.00000   0.00000
     34024 MEOH     1842     MEOH     O1       OD31H    2.488300       15.5990           0   -1.02800   1.30000
     34025 MEOH     1842     MEOH     DO1      DRUD    -2.488300        0.4000           0   0.00000   0.00000
     34026 MEOH     1842     MEOH     HO1      HDP1A    0.360000        1.0080           0   0.00000   0.00000
     34027 MEOH     1842     MEOH     HO2      DUMH     0.000000        1.0080           0   0.00000   0.00000
     34028 MEOH     1842     MEOH     H1A      HDA3B    0.080000        1.0080           0   0.00000   0.00000
     34029 MEOH     1842     MEOH     H1B      HDA3B    0.080000        1.0080           0   0.00000   0.00000
     34030 MEOH     1842     MEOH     H1C      HDA3B    0.080000        1.0080           0   0.00000   0.00000
     34031 MEOH     1842     MEOH     LP1A     LPD     -0.230000        0.0000           -1   0.00000   0.00000
     34032 MEOH     1842     MEOH     LP1B     LPD     -0.230000        0.0000           -1   0.00000   0.00000
     34033 MEOH     1843     MEOH     C1       CD33B    2.314100       11.6110           0   -1.00000   1.30000
     34034 MEOH     1843     MEOH     DC1      DRUD    -2.454100        0.4000           0   0.00000   0.00000
     34035 MEOH     1843     MEOH     O1       OD31H    2.488300       15.5990           0   -1.02800   1.30000
     34036 MEOH     1843     MEOH     DO1      DRUD    -2.488300        0.4000           0   0.00000   0.00000
     34037 MEOH     1843     MEOH     HO1      HDP1A    0.360000        1.0080           0   0.00000   0.00000
     34038 MEOH     1843     MEOH     HO2      DUMH     0.000000        1.0080           0   0.00000   0.00000
     34039 MEOH     1843     MEOH     H1A      HDA3B    0.080000        1.0080           0   0.00000   0.00000
     34040 MEOH     1843     MEOH     H1B      HDA3B    0.080000        1.0080           0   0.00000   0.00000
     34041 MEOH     1843     MEOH     H1C      HDA3B    0.080000        1.0080           0   0.00000   0.00000
     34042 MEOH     1843     MEOH     LP1A     LPD     -0.230000        0.0000           -1   0.00000   0.00000
     34043 MEOH     1843     MEOH     LP1B     LPD     -0.230000        0.0000           -1   0.00000   0.00000
     34044 MEOH     1844     MEOH     C1       CD33B    2.314100       11.6110           0   -1.00000   1.30000
     34045 MEOH     1844     MEOH     DC1      DRUD    -2.454100        0.4000           0   0.00000   0.00000
     34046 MEOH     1844     MEOH     O1       OD31H    2.488300       15.5990           0   -1.02800   1.30000
     34047 MEOH     1844     MEOH     DO1      DRUD    -2.488300        0.4000           0   0.00000   0.00000
     34048 MEOH     1844     MEOH     HO1      HDP1A    0.360000        1.0080           0   0.00000   0.00000
     34049 MEOH     1844     MEOH     HO2      DUMH     0.000000        1.0080           0   0.00000   0.00000
     34050 MEOH     1844     MEOH     H1A      HDA3B    0.080000        1.0080           0   0.00000   0.00000
     34051 MEOH     1844     MEOH     H1B      HDA3B    0.080000        1.0080           0   0.00000   0.00000
     34052 MEOH     1844     MEOH     H1C      HDA3B    0.080000        1.0080           0   0.00000   0.00000
     34053 MEOH     1844     MEOH     LP1A     LPD     -0.230000        0.0000           -1   0.00000   0.00000
     34054 MEOH     1844     MEOH     LP1B     LPD     -0.230000        0.0000           -1   0.00000   0.00000
     34055 MEOH     1845     MEOH     C1       CD33B    2.314100       11.6110           0   -1.00000   1.30000
     34056 MEOH     1845     MEOH     DC1      DRUD    -2.454100        0.4000           0   0.00000   0.00000
     34057 MEOH     1845     MEOH     O1       OD31H    2.488300       15.5990           0   -1.02800   1.30000
     34058 MEOH     1845     MEOH     DO1      DRUD    -2.488300        0.4000           0   0.00000   0.00000
     34059 MEOH     1845     MEOH     HO1      HDP1A    0.360000        1.0080           0   0.00000   0.00000
     34060 MEOH     1845     MEOH     HO2      DUMH     0.000000        1.0080           0   0.00000   0.00000
     34061 MEOH     1845     MEOH     H1A      HDA3B    0.080000        1.0080           0   0.00000   0.00000
     34062 MEOH     1845     MEOH     H1B      HDA3B    0.080000        1.0080           0   0.00000   0.00000
     34063 MEOH     1845     MEOH     H1C      HDA3B    0.080000        1.0080           0   0.00000   0.00000
     34064 MEOH     1845     MEOH     LP1A     LPD     -0.230000        0.0000           -1   0.00000   0.00000
     34065 MEOH     1845     MEOH     LP1B     LPD     -0.230000        0.0000           -1   0.00000   0.00000
     34066 MEOH     1846     MEOH     C1       CD33B    2.314100       11.6110           0   -1.00000   1.30000
     34067 MEOH     1846     MEOH     DC1      DRUD    -2.454100        0.4000           0   0.00000   0.00000
     34068 MEOH     1846     MEOH     O1       OD31H    2.488300       15.5990           0   -1.02800   1.30000
     34069 MEOH     1846     MEOH     DO1      DRUD    -2.488300        0.4000           0   0.00000   0.00000
     34070 MEOH     1846     MEOH     HO1      HDP1A    0.360000        1.0080           0   0.00000   0.00000
     34071 MEOH     1846     MEOH     HO2      DUMH     0.000000        1.0080           0   0.00000   0.00000
     34072 MEOH     1846     MEOH     H1A      HDA3B    0.080000        1.0080           0   0.00000   0.00000
     34073 MEOH     1846     MEOH     H1B      HDA3B    0.080000        1.0080           0   0.00000   0.00000
     34074 MEOH     1846     MEOH     H1C      HDA3B    0.080000        1.0080           0   0.00000   0.00000
     34075 MEOH     1846     MEOH     LP1A     LPD     -0.230000        0.0000           -1   0.00000   0.00000
     34076 MEOH     1846     MEOH     LP1B     LPD     -0.230000        0.0000           -1   0.00000   0.00000
     34077 MEOH     1847     MEOH     C1       CD33B    2.314100       11.6110           0   -1.00000   1.30000
     34078 MEOH     1847     MEOH     DC1      DRUD    -2.454100        0.4000           0   0.00000   0.00000
     34079 MEOH     1847     MEOH     O1       OD31H    2.488300       15.5990           0   -1.02800   1.30000
     34080 MEOH     1847     MEOH     DO1      DRUD    -2.488300        0.4000           0   0.00000   0.00000
     34081 MEOH     1847     MEOH     HO1      HDP1A    0.360000        1.0080           0   0.00000   0.00000
     34082 MEOH     1847     MEOH     HO2      DUMH     0.000000        1.0080           0   0.00000   0.00000
     34083 MEOH     1847     MEOH     H1A      HDA3B    0.080000        1.0080           0   0.00000   0.00000
     34084 MEOH     1847     MEOH     H1B      HDA3B    0.080000        1.0080           0   0.00000   0.00000
     34085 MEOH     1847     MEOH     H1C      HDA3B    0.080000        1.0080           0   0.00000   0.00000
     34086 MEOH     1847     MEOH     LP1A     LPD     -0.230000        0.0000           -1   0.00000   0.00000
     34087 MEOH     1847     MEOH     LP1B     LPD     -0.230000        0.0000           -1   0.00000   0.00000
     34088 MEOH     1848     MEOH     C1       CD33B    2.314100       11.6110           0   -1.00000   1.30000
     34089 MEOH     1848     MEOH     DC1      DRUD    -2.454100        0.4000           0   0.00000   0.00000
     34090 MEOH     1848     MEOH     O1       OD31H    2.488300       15.5990           0   -1.02800   1.30000
     34091 MEOH     1848     MEOH     DO1      DRUD    -2.488300        0.4000           0   0.00000   0.00000
     34092 MEOH     1848     MEOH     HO1      HDP1A    0.360000        1.0080           0   0.00000   0.00000
     34093 MEOH     1848     MEOH     HO2      DUMH     0.000000        1.0080           0   0.00000   0.00000
     34094 MEOH     1848     MEOH     H1A      HDA3B    0.080000        1.0080           0   0.00000   0.00000
     34095 MEOH     1848     MEOH     H1B      HDA3B    0.080000        1.0080           0   0.00000   0.00000
     34096 MEOH     1848     MEOH     H1C      HDA3B    0.080000        1.0080           0   0.00000   0.00000
     34097 MEOH     1848     MEOH     LP1A     LPD     -0.230000        0.0000           -1   0.00000   0.00000
     34098 MEOH     1848     MEOH     LP1B     LPD     -0.230000        0.0000           -1   0.00000   0.00000
     34099 MEOH     1849     MEOH     C1       CD33B    2.314100       11.6110           0   -1.00000   1.30000
     34100 MEOH     1849     MEOH     DC1      DRUD    -2.454100        0.4000           0   0.00000   0.00000
     34101 MEOH     1849     MEOH     O1       OD31H    2.488300       15.5990           0   -1.02800   1.30000
     34102 MEOH     1849     MEOH     DO1      DRUD    -2.488300        0.4000           0   0.00000   0.00000
     34103 MEOH     1849     MEOH     HO1      HDP1A    0.360000        1.0080           0   0.00000   0.00000
     34104 MEOH     1849     MEOH     HO2      DUMH     0.000000        1.0080           0   0.00000   0.00000
     34105 MEOH     1849     MEOH     H1A      HDA3B    0.080000        1.0080           0   0.00000   0.00000
     34106 MEOH     1849     MEOH     H1B      HDA3B    0.080000        1.0080           0   0.00000   0.00000
     34107 MEOH     1849     MEOH     H1C      HDA3B    0.080000        1.0080           0   0.00000   0.00000
     34108 MEOH     1849     MEOH     LP1A     LPD     -0.230000        0.0000           -1   0.00000   0.00000
     34109 MEOH     1849     MEOH     LP1B     LPD     -0.230000        0.0000           -1   0.00000   0.00000
     34110 MEOH     1850     MEOH     C1       CD33B    2.314100       11.6110           0   -1.00000   1.30000
     34111 MEOH     1850     MEOH     DC1      DRUD    -2.454100        0.4000           0   0.00000   0.00000
     34112 MEOH     1850     MEOH     O1       OD31H    2.488300       15.5990           0   -1.02800   1.30000
     34113 MEOH     1850     MEOH     DO1      DRUD    -2.488300        0.4000           0   0.00000   0.00000
     34114 MEOH     1850     MEOH     HO1      HDP1A    0.360000        1.0080           0   0.00000   0.00000
     34115 MEOH     1850     MEOH     HO2      DUMH     0.000000        1.0080           0   0.00000   0.00000
     34116 MEOH     1850     MEOH     H1A      HDA3B    0.080000        1.0080           0   0.00000   0.00000
     34117 MEOH     1850     MEOH     H1B      HDA3B    0.080000        1.0080           0   0.00000   0.00000
     34118 MEOH     1850     MEOH     H1C      HDA3B    0.080000        1.0080           0   0.00000   0.00000
     34119 MEOH     1850     MEOH     LP1A     LPD     -0.230000        0.0000           -1   0.00000   0.00000
     34120 MEOH     1850     MEOH     LP1B     LPD     -0.230000        0.0000           -1   0.00000   0.00000
     34121 MEOH     1851     MEOH     C1       CD33B    2.314100       11.6110           0   -1.00000   1.30000
     34122 MEOH     1851     MEOH     DC1      DRUD    -2.454100        0.4000           0   0.00000   0.00000
     34123 MEOH     1851     MEOH     O1       OD31H    2.488300       15.5990           0   -1.02800   1.30000
     34124 MEOH     1851     MEOH     DO1      DRUD    -2.488300        0.4000           0   0.00000   0.00000
     34125 MEOH     1851     MEOH     HO1      HDP1A    0.360000        1.0080           0   0.00000   0.00000
     34126 MEOH     1851     MEOH     HO2      DUMH     0.000000        1.0080           0   0.00000   0.00000
     34127 MEOH     1851     MEOH     H1A      HDA3B    0.080000        1.0080           0   0.00000   0.00000
     34128 MEOH     1851     MEOH     H1B      HDA3B    0.080000        1.0080           0   0.00000   0.00000
     34129 MEOH     1851     MEOH     H1C      HDA3B    0.080000        1.0080           0   0.00000   0.00000
     34130 MEOH     1851     MEOH     LP1A     LPD     -0.230000        0.0000           -1   0.00000   0.00000
     34131 MEOH     1851     MEOH     LP1B     LPD     -0.230000        0.0000           -1   0.00000   0.00000
     34132 MEOH     1852     MEOH     C1       CD33B    2.314100       11.6110           0   -1.00000   1.30000
     34133 MEOH     1852     MEOH     DC1      DRUD    -2.454100        0.4000           0   0.00000   0.00000
     34134 MEOH     1852     MEOH     O1       OD31H    2.488300       15.5990           0   -1.02800   1.30000
     34135 MEOH     1852     MEOH     DO1      DRUD    -2.488300        0.4000           0   0.00000   0.00000
     34136 MEOH     1852     MEOH     HO1      HDP1A    0.360000        1.0080           0   0.00000   0.00000
     34137 MEOH     1852     MEOH     HO2      DUMH     0.000000        1.0080           0   0.00000   0.00000
     34138 MEOH     1852     MEOH     H1A      HDA3B    0.080000        1.0080           0   0.00000   0.00000
     34139 MEOH     1852     MEOH     H1B      HDA3B    0.080000        1.0080           0   0.00000   0.00000
     34140 MEOH     1852     MEOH     H1C      HDA3B    0.080000        1.0080           0   0.00000   0.00000
     34141 MEOH     1852     MEOH     LP1A     LPD     -0.230000        0.0000           -1   0.00000   0.00000
     34142 MEOH     1852     MEOH     LP1B     LPD     -0.230000        0.0000           -1   0.00000   0.00000
     34143 MEOH     1853     MEOH     C1       CD33B    2.314100       11.6110           0   -1.00000   1.30000
     34144 MEOH     1853     MEOH     DC1      DRUD    -2.454100        0.4000           0   0.00000   0.00000
     34145 MEOH     1853     MEOH     O1       OD31H    2.488300       15.5990           0   -1.02800   1.30000
     34146 MEOH     1853     MEOH     DO1      DRUD    -2.488300        0.4000           0   0.00000   0.00000
     34147 MEOH     1853     MEOH     HO1      HDP1A    0.360000        1.0080           0   0.00000   0.00000
     34148 MEOH     1853     MEOH     HO2      DUMH     0.000000        1.0080           0   0.00000   0.00000
     34149 MEOH     1853     MEOH     H1A      HDA3B    0.080000        1.0080           0   0.00000   0.00000
     34150 MEOH     1853     MEOH     H1B      HDA3B    0.080000        1.0080           0   0.00000   0.00000
     34151 MEOH     1853     MEOH     H1C      HDA3B    0.080000        1.0080           0   0.00000   0.00000
     34152 MEOH     1853     MEOH     LP1A     LPD     -0.230000        0.0000           -1   0.00000   0.00000
     34153 MEOH     1853     MEOH     LP1B     LPD     -0.230000        0.0000           -1   0.00000   0.00000
     34154 MEOH     1854     MEOH     C1       CD33B    2.314100       11.6110           0   -1.00000   1.30000
     34155 MEOH     1854     MEOH     DC1      DRUD    -2.454100        0.4000           0   0.00000   0.00000
     34156 MEOH     1854     MEOH     O1       OD31H    2.488300       15.5990           0   -1.02800   1.30000
     34157 MEOH     1854     MEOH     DO1      DRUD    -2.488300        0.4000           0   0.00000   0.00000
     34158 MEOH     1854     MEOH     HO1      HDP1A    0.360000        1.0080           0   0.00000   0.00000
     34159 MEOH     1854     MEOH     HO2      DUMH     0.000000        1.0080           0   0.00000   0.00000
     34160 MEOH     1854     MEOH     H1A      HDA3B    0.080000        1.0080           0   0.00000   0.00000
     34161 MEOH     1854     MEOH     H1B      HDA3B    0.080000        1.0080           0   0.00000   0.00000
     34162 MEOH     1854     MEOH     H1C      HDA3B    0.080000        1.0080           0   0.00000   0.00000
     34163 MEOH     1854     MEOH     LP1A     LPD     -0.230000        0.0000           -1   0.00000   0.00000
     34164 MEOH     1854     MEOH     LP1B     LPD     -0.230000        0.0000           -1   0.00000   0.00000
     34165 MEOH     1855     MEOH     C1       CD33B    2.314100       11.6110           0   -1.00000   1.30000
     34166 MEOH     1855     MEOH     DC1      DRUD    -2.454100        0.4000           0   0.00000   0.00000
     34167 MEOH     1855     MEOH     O1       OD31H    2.488300       15.5990           0   -1.02800   1.30000
     34168 MEOH     1855     MEOH     DO1      DRUD    -2.488300        0.4000           0   0.00000   0.00000
     34169 MEOH     1855     MEOH     HO1      HDP1A    0.360000        1.0080           0   0.00000   0.00000
     34170 MEOH     1855     MEOH     HO2      DUMH     0.000000        1.0080           0   0.00000   0.00000
     34171 MEOH     1855     MEOH     H1A      HDA3B    0.080000        1.0080           0   0.00000   0.00000
     34172 MEOH     1855     MEOH     H1B      HDA3B    0.080000        1.0080           0   0.00000   0.00000
     34173 MEOH     1855     MEOH     H1C      HDA3B    0.080000        1.0080           0   0.00000   0.00000
     34174 MEOH     1855     MEOH     LP1A     LPD     -0.230000        0.0000           -1   0.00000   0.00000
     34175 MEOH     1855     MEOH     LP1B     LPD     -0.230000        0.0000           -1   0.00000   0.00000
     34176 MEOH     1856     MEOH     C1       CD33B    2.314100       11.6110           0   -1.00000   1.30000
     34177 MEOH     1856     MEOH     DC1      DRUD    -2.454100        0.4000           0   0.00000   0.00000
     34178 MEOH     1856     MEOH     O1       OD31H    2.488300       15.5990           0   -1.02800   1.30000
     34179 MEOH     1856     MEOH     DO1      DRUD    -2.488300        0.4000           0   0.00000   0.00000
     34180 MEOH     1856     MEOH     HO1      HDP1A    0.360000        1.0080           0   0.00000   0.00000
     34181 MEOH     1856     MEOH     HO2      DUMH     0.000000        1.0080           0   0.00000   0.00000
     34182 MEOH     1856     MEOH     H1A      HDA3B    0.080000        1.0080           0   0.00000   0.00000
     34183 MEOH     1856     MEOH     H1B      HDA3B    0.080000        1.0080           0   0.00000   0.00000
     34184 MEOH     1856     MEOH     H1C      HDA3B    0.080000        1.0080           0   0.00000   0.00000
     34185 MEOH     1856     MEOH     LP1A     LPD     -0.230000        0.0000           -1   0.00000   0.00000
     34186 MEOH     1856     MEOH     LP1B     LPD     -0.230000        0.0000           -1   0.00000   0.00000
     34187 MEOH     1857     MEOH     C1       CD33B    2.314100       11.6110           0   -1.00000   1.30000
     34188 MEOH     1857     MEOH     DC1      DRUD    -2.454100        0.4000           0   0.00000   0.00000
     34189 MEOH     1857     MEOH     O1       OD31H    2.488300       15.5990           0   -1.02800   1.30000
     34190 MEOH     1857     MEOH     DO1      DRUD    -2.488300        0.4000           0   0.00000   0.00000
     34191 MEOH     1857     MEOH     HO1      HDP1A    0.360000        1.0080           0   0.00000   0.00000
     34192 MEOH     1857     MEOH     HO2      DUMH     0.000000        1.0080           0   0.00000   0.00000
     34193 MEOH     1857     MEOH     H1A      HDA3B    0.080000        1.0080           0   0.00000   0.00000
     34194 MEOH     1857     MEOH     H1B      HDA3B    0.080000        1.0080           0   0.00000   0.00000
     34195 MEOH     1857     MEOH     H1C      HDA3B    0.080000        1.0080           0   0.00000   0.00000
     34196 MEOH     1857     MEOH     LP1A     LPD     -0.230000        0.0000           -1   0.00000   0.00000
     34197 MEOH     1857     MEOH     LP1B     LPD     -0.230000        0.0000           -1   0.00000   0.00000
     34198 MEOH     1858     MEOH     C1       CD33B    2.314100       11.6110           0   -1.00000   1.30000
     34199 MEOH     1858     MEOH     DC1      DRUD    -2.454100        0.4000           0   0.00000   0.00000
     34200 MEOH     1858     MEOH     O1       OD31H    2.488300       15.5990           0   -1.02800   1.30000
     34201 MEOH     1858     MEOH     DO1      DRUD    -2.488300        0.4000           0   0.00000   0.00000
     34202 MEOH     1858     MEOH     HO1      HDP1A    0.360000        1.0080           0   0.00000   0.00000
     34203 MEOH     1858     MEOH     HO2      DUMH     0.000000        1.0080           0   0.00000   0.00000
     34204 MEOH     1858     MEOH     H1A      HDA3B    0.080000        1.0080           0   0.00000   0.00000
     34205 MEOH     1858     MEOH     H1B      HDA3B    0.080000        1.0080           0   0.00000   0.00000
     34206 MEOH     1858     MEOH     H1C      HDA3B    0.080000        1.0080           0   0.00000   0.00000
     34207 MEOH     1858     MEOH     LP1A     LPD     -0.230000        0.0000           -1   0.00000   0.00000
     34208 MEOH     1858     MEOH     LP1B     LPD     -0.230000        0.0000           -1   0.00000   0.00000
     34209 MEOH     1859     MEOH     C1       CD33B    2.314100       11.6110           0   -1.00000   1.30000
     34210 MEOH     1859     MEOH     DC1      DRUD    -2.454100        0.4000           0   0.00000   0.00000
     34211 MEOH     1859     MEOH     O1       OD31H    2.488300       15.5990           0   -1.02800   1.30000
     34212 MEOH     1859     MEOH     DO1      DRUD    -2.488300        0.4000           0   0.00000   0.00000
     34213 MEOH     1859     MEOH     HO1      HDP1A    0.360000        1.0080           0   0.00000   0.00000
     34214 MEOH     1859     MEOH     HO2      DUMH     0.000000        1.0080           0   0.00000   0.00000
     34215 MEOH     1859     MEOH     H1A      HDA3B    0.080000        1.0080           0   0.00000   0.00000
     34216 MEOH     1859     MEOH     H1B      HDA3B    0.080000        1.0080           0   0.00000   0.00000
     34217 MEOH     1859     MEOH     H1C      HDA3B    0.080000        1.0080           0   0.00000   0.00000
     34218 MEOH     1859     MEOH     LP1A     LPD     -0.230000        0.0000           -1   0.00000   0.00000
     34219 MEOH     1859     MEOH     LP1B     LPD     -0.230000        0.0000           -1   0.00000   0.00000
     34220 MEOH     1860     MEOH     C1       CD33B    2.314100       11.6110           0   -1.00000   1.30000
     34221 MEOH     1860     MEOH     DC1      DRUD    -2.454100        0.4000           0   0.00000   0.00000
     34222 MEOH     1860     MEOH     O1       OD31H    2.488300       15.5990           0   -1.02800   1.30000
     34223 MEOH     1860     MEOH     DO1      DRUD    -2.488300        0.4000           0   0.00000   0.00000
     34224 MEOH     1860     MEOH     HO1      HDP1A    0.360000        1.0080           0   0.00000   0.00000
     34225 MEOH     1860     MEOH     HO2      DUMH     0.000000        1.0080           0   0.00000   0.00000
     34226 MEOH     1860     MEOH     H1A      HDA3B    0.080000        1.0080           0   0.00000   0.00000
     34227 MEOH     1860     MEOH     H1B      HDA3B    0.080000        1.0080           0   0.00000   0.00000
     34228 MEOH     1860     MEOH     H1C      HDA3B    0.080000        1.0080           0   0.00000   0.00000
     34229 MEOH     1860     MEOH     LP1A     LPD     -0.230000        0.0000           -1   0.00000   0.00000
     34230 MEOH     1860     MEOH     LP1B     LPD     -0.230000        0.0000           -1   0.00000   0.00000
     34231 MEOH     1861     MEOH     C1       CD33B    2.314100       11.6110           0   -1.00000   1.30000
     34232 MEOH     1861     MEOH     DC1      DRUD    -2.454100        0.4000           0   0.00000   0.00000
     34233 MEOH     1861     MEOH     O1       OD31H    2.488300       15.5990           0   -1.02800   1.30000
     34234 MEOH     1861     MEOH     DO1      DRUD    -2.488300        0.4000           0   0.00000   0.00000
     34235 MEOH     1861     MEOH     HO1      HDP1A    0.360000        1.0080           0   0.00000   0.00000
     34236 MEOH     1861     MEOH     HO2      DUMH     0.000000        1.0080           0   0.00000   0.00000
     34237 MEOH     1861     MEOH     H1A      HDA3B    0.080000        1.0080           0   0.00000   0.00000
     34238 MEOH     1861     MEOH     H1B      HDA3B    0.080000        1.0080           0   0.00000   0.00000
     34239 MEOH     1861     MEOH     H1C      HDA3B    0.080000        1.0080           0   0.00000   0.00000
     34240 MEOH     1861     MEOH     LP1A     LPD     -0.230000        0.0000           -1   0.00000   0.00000
     34241 MEOH     1861     MEOH     LP1B     LPD     -0.230000        0.0000           -1   0.00000   0.00000
     34242 MEOH     1862     MEOH     C1       CD33B    2.314100       11.6110           0   -1.00000   1.30000
     34243 MEOH     1862     MEOH     DC1      DRUD    -2.454100        0.4000           0   0.00000   0.00000
     34244 MEOH     1862     MEOH     O1       OD31H    2.488300       15.5990           0   -1.02800   1.30000
     34245 MEOH     1862     MEOH     DO1      DRUD    -2.488300        0.4000           0   0.00000   0.00000
     34246 MEOH     1862     MEOH     HO1      HDP1A    0.360000        1.0080           0   0.00000   0.00000
     34247 MEOH     1862     MEOH     HO2      DUMH     0.000000        1.0080           0   0.00000   0.00000
     34248 MEOH     1862     MEOH     H1A      HDA3B    0.080000        1.0080           0   0.00000   0.00000
     34249 MEOH     1862     MEOH     H1B      HDA3B    0.080000        1.0080           0   0.00000   0.00000
     34250 MEOH     1862     MEOH     H1C      HDA3B    0.080000        1.0080           0   0.00000   0.00000
     34251 MEOH     1862     MEOH     LP1A     LPD     -0.230000        0.0000           -1   0.00000   0.00000
     34252 MEOH     1862     MEOH     LP1B     LPD     -0.230000        0.0000           -1   0.00000   0.00000
     34253 MEOH     1863     MEOH     C1       CD33B    2.314100       11.6110           0   -1.00000   1.30000
     34254 MEOH     1863     MEOH     DC1      DRUD    -2.454100        0.4000           0   0.00000   0.00000
     34255 MEOH     1863     MEOH     O1       OD31H    2.488300       15.5990           0   -1.02800   1.30000
     34256 MEOH     1863     MEOH     DO1      DRUD    -2.488300        0.4000           0   0.00000   0.00000
     34257 MEOH     1863     MEOH     HO1      HDP1A    0.360000        1.0080           0   0.00000   0.00000
     34258 MEOH     1863     MEOH     HO2      DUMH     0.000000        1.0080           0   0.00000   0.00000
     34259 MEOH     1863     MEOH     H1A      HDA3B    0.080000        1.0080           0   0.00000   0.00000
     34260 MEOH     1863     MEOH     H1B      HDA3B    0.080000        1.0080           0   0.00000   0.00000
     34261 MEOH     1863     MEOH     H1C      HDA3B    0.080000        1.0080           0   0.00000   0.00000
     34262 MEOH     1863     MEOH     LP1A     LPD     -0.230000        0.0000           -1   0.00000   0.00000
     34263 MEOH     1863     MEOH     LP1B     LPD     -0.230000        0.0000           -1   0.00000   0.00000
     34264 MEOH     1864     MEOH     C1       CD33B    2.314100       11.6110           0   -1.00000   1.30000
     34265 MEOH     1864     MEOH     DC1      DRUD    -2.454100        0.4000           0   0.00000   0.00000
     34266 MEOH     1864     MEOH     O1       OD31H    2.488300       15.5990           0   -1.02800   1.30000
     34267 MEOH     1864     MEOH     DO1      DRUD    -2.488300        0.4000           0   0.00000   0.00000
     34268 MEOH     1864     MEOH     HO1      HDP1A    0.360000        1.0080           0   0.00000   0.00000
     34269 MEOH     1864     MEOH     HO2      DUMH     0.000000        1.0080           0   0.00000   0.00000
     34270 MEOH     1864     MEOH     H1A      HDA3B    0.080000        1.0080           0   0.00000   0.00000
     34271 MEOH     1864     MEOH     H1B      HDA3B    0.080000        1.0080           0   0.00000   0.00000
     34272 MEOH     1864     MEOH     H1C      HDA3B    0.080000        1.0080           0   0.00000   0.00000
     34273 MEOH     1864     MEOH     LP1A     LPD     -0.230000        0.0000           -1   0.00000   0.00000
     34274 MEOH     1864     MEOH     LP1B     LPD     -0.230000        0.0000           -1   0.00000   0.00000
     34275 MEOH     1865     MEOH     C1       CD33B    2.314100       11.6110           0   -1.00000   1.30000
     34276 MEOH     1865     MEOH     DC1      DRUD    -2.454100        0.4000           0   0.00000   0.00000
     34277 MEOH     1865     MEOH     O1       OD31H    2.488300       15.5990           0   -1.02800   1.30000
     34278 MEOH     1865     MEOH     DO1      DRUD    -2.488300        0.4000           0   0.00000   0.00000
     34279 MEOH     1865     MEOH     HO1      HDP1A    0.360000        1.0080           0   0.00000   0.00000
     34280 MEOH     1865     MEOH     HO2      DUMH     0.000000        1.0080           0   0.00000   0.00000
     34281 MEOH     1865     MEOH     H1A      HDA3B    0.080000        1.0080           0   0.00000   0.00000
     34282 MEOH     1865     MEOH     H1B      HDA3B    0.080000        1.0080           0   0.00000   0.00000
     34283 MEOH     1865     MEOH     H1C      HDA3B    0.080000        1.0080           0   0.00000   0.00000
     34284 MEOH     1865     MEOH     LP1A     LPD     -0.230000        0.0000           -1   0.00000   0.00000
     34285 MEOH     1865     MEOH     LP1B     LPD     -0.230000        0.0000           -1   0.00000   0.00000
     34286 MEOH     1866     MEOH     C1       CD33B    2.314100       11.6110           0   -1.00000   1.30000
     34287 MEOH     1866     MEOH     DC1      DRUD    -2.454100        0.4000           0   0.00000   0.00000
     34288 MEOH     1866     MEOH     O1       OD31H    2.488300       15.5990           0   -1.02800   1.30000
     34289 MEOH     1866     MEOH     DO1      DRUD    -2.488300        0.4000           0   0.00000   0.00000
     34290 MEOH     1866     MEOH     HO1      HDP1A    0.360000        1.0080           0   0.00000   0.00000
     34291 MEOH     1866     MEOH     HO2      DUMH     0.000000        1.0080           0   0.00000   0.00000
     34292 MEOH     1866     MEOH     H1A      HDA3B    0.080000        1.0080           0   0.00000   0.00000
     34293 MEOH     1866     MEOH     H1B      HDA3B    0.080000        1.0080           0   0.00000   0.00000
     34294 MEOH     1866     MEOH     H1C      HDA3B    0.080000        1.0080           0   0.00000   0.00000
     34295 MEOH     1866     MEOH     LP1A     LPD     -0.230000        0.0000           -1   0.00000   0.00000
     34296 MEOH     1866     MEOH     LP1B     LPD     -0.230000        0.0000           -1   0.00000   0.00000
     34297 MEOH     1867     MEOH     C1       CD33B    2.314100       11.6110           0   -1.00000   1.30000
     34298 MEOH     1867     MEOH     DC1      DRUD    -2.454100        0.4000           0   0.00000   0.00000
     34299 MEOH     1867     MEOH     O1       OD31H    2.488300       15.5990           0   -1.02800   1.30000
     34300 MEOH     1867     MEOH     DO1      DRUD    -2.488300        0.4000           0   0.00000   0.00000
     34301 MEOH     1867     MEOH     HO1      HDP1A    0.360000        1.0080           0   0.00000   0.00000
     34302 MEOH     1867     MEOH     HO2      DUMH     0.000000        1.0080           0   0.00000   0.00000
     34303 MEOH     1867     MEOH     H1A      HDA3B    0.080000        1.0080           0   0.00000   0.00000
     34304 MEOH     1867     MEOH     H1B      HDA3B    0.080000        1.0080           0   0.00000   0.00000
     34305 MEOH     1867     MEOH     H1C      HDA3B    0.080000        1.0080           0   0.00000   0.00000
     34306 MEOH     1867     MEOH     LP1A     LPD     -0.230000        0.0000           -1   0.00000   0.00000
     34307 MEOH     1867     MEOH     LP1B     LPD     -0.230000        0.0000           -1   0.00000   0.00000
     34308 MEOH     1868     MEOH     C1       CD33B    2.314100       11.6110           0   -1.00000   1.30000
     34309 MEOH     1868     MEOH     DC1      DRUD    -2.454100        0.4000           0   0.00000   0.00000
     34310 MEOH     1868     MEOH     O1       OD31H    2.488300       15.5990           0   -1.02800   1.30000
     34311 MEOH     1868     MEOH     DO1      DRUD    -2.488300        0.4000           0   0.00000   0.00000
     34312 MEOH     1868     MEOH     HO1      HDP1A    0.360000        1.0080           0   0.00000   0.00000
     34313 MEOH     1868     MEOH     HO2      DUMH     0.000000        1.0080           0   0.00000   0.00000
     34314 MEOH     1868     MEOH     H1A      HDA3B    0.080000        1.0080           0   0.00000   0.00000
     34315 MEOH     1868     MEOH     H1B      HDA3B    0.080000        1.0080           0   0.00000   0.00000
     34316 MEOH     1868     MEOH     H1C      HDA3B    0.080000        1.0080           0   0.00000   0.00000
     34317 MEOH     1868     MEOH     LP1A     LPD     -0.230000        0.0000           -1   0.00000   0.00000
     34318 MEOH     1868     MEOH     LP1B     LPD     -0.230000        0.0000           -1   0.00000   0.00000
     34319 MEOH     1869     MEOH     C1       CD33B    2.314100       11.6110           0   -1.00000   1.30000
     34320 MEOH     1869     MEOH     DC1      DRUD    -2.454100        0.4000           0   0.00000   0.00000
     34321 MEOH     1869     MEOH     O1       OD31H    2.488300       15.5990           0   -1.02800   1.30000
     34322 MEOH     1869     MEOH     DO1      DRUD    -2.488300        0.4000           0   0.00000   0.00000
     34323 MEOH     1869     MEOH     HO1      HDP1A    0.360000        1.0080           0   0.00000   0.00000
     34324 MEOH     1869     MEOH     HO2      DUMH     0.000000        1.0080           0   0.00000   0.00000
     34325 MEOH     1869     MEOH     H1A      HDA3B    0.080000        1.0080           0   0.00000   0.00000
     34326 MEOH     1869     MEOH     H1B      HDA3B    0.080000        1.0080           0   0.00000   0.00000
     34327 MEOH     1869     MEOH     H1C      HDA3B    0.080000        1.0080           0   0.00000   0.00000
     34328 MEOH     1869     MEOH     LP1A     LPD     -0.230000        0.0000           -1   0.00000   0.00000
     34329 MEOH     1869     MEOH     LP1B     LPD     -0.230000        0.0000           -1   0.00000   0.00000
     34330 MEOH     1870     MEOH     C1       CD33B    2.314100       11.6110           0   -1.00000   1.30000
     34331 MEOH     1870     MEOH     DC1      DRUD    -2.454100        0.4000           0   0.00000   0.00000
     34332 MEOH     1870     MEOH     O1       OD31H    2.488300       15.5990           0   -1.02800   1.30000
     34333 MEOH     1870     MEOH     DO1      DRUD    -2.488300        0.4000           0   0.00000   0.00000
     34334 MEOH     1870     MEOH     HO1      HDP1A    0.360000        1.0080           0   0.00000   0.00000
     34335 MEOH     1870     MEOH     HO2      DUMH     0.000000        1.0080           0   0.00000   0.00000
     34336 MEOH     1870     MEOH     H1A      HDA3B    0.080000        1.0080           0   0.00000   0.00000
     34337 MEOH     1870     MEOH     H1B      HDA3B    0.080000        1.0080           0   0.00000   0.00000
     34338 MEOH     1870     MEOH     H1C      HDA3B    0.080000        1.0080           0   0.00000   0.00000
     34339 MEOH     1870     MEOH     LP1A     LPD     -0.230000        0.0000           -1   0.00000   0.00000
     34340 MEOH     1870     MEOH     LP1B     LPD     -0.230000        0.0000           -1   0.00000   0.00000
     34341 MEOH     1871     MEOH     C1       CD33B    2.314100       11.6110           0   -1.00000   1.30000
     34342 MEOH     1871     MEOH     DC1      DRUD    -2.454100        0.4000           0   0.00000   0.00000
     34343 MEOH     1871     MEOH     O1       OD31H    2.488300       15.5990           0   -1.02800   1.30000
     34344 MEOH     1871     MEOH     DO1      DRUD    -2.488300        0.4000           0   0.00000   0.00000
     34345 MEOH     1871     MEOH     HO1      HDP1A    0.360000        1.0080           0   0.00000   0.00000
     34346 MEOH     1871     MEOH     HO2      DUMH     0.000000        1.0080           0   0.00000   0.00000
     34347 MEOH     1871     MEOH     H1A      HDA3B    0.080000        1.0080           0   0.00000   0.00000
     34348 MEOH     1871     MEOH     H1B      HDA3B    0.080000        1.0080           0   0.00000   0.00000
     34349 MEOH     1871     MEOH     H1C      HDA3B    0.080000        1.0080           0   0.00000   0.00000
     34350 MEOH     1871     MEOH     LP1A     LPD     -0.230000        0.0000           -1   0.00000   0.00000
     34351 MEOH     1871     MEOH     LP1B     LPD     -0.230000        0.0000           -1   0.00000   0.00000
     34352 MEOH     1872     MEOH     C1       CD33B    2.314100       11.6110           0   -1.00000   1.30000
     34353 MEOH     1872     MEOH     DC1      DRUD    -2.454100        0.4000           0   0.00000   0.00000
     34354 MEOH     1872     MEOH     O1       OD31H    2.488300       15.5990           0   -1.02800   1.30000
     34355 MEOH     1872     MEOH     DO1      DRUD    -2.488300        0.4000           0   0.00000   0.00000
     34356 MEOH     1872     MEOH     HO1      HDP1A    0.360000        1.0080           0   0.00000   0.00000
     34357 MEOH     1872     MEOH     HO2      DUMH     0.000000        1.0080           0   0.00000   0.00000
     34358 MEOH     1872     MEOH     H1A      HDA3B    0.080000        1.0080           0   0.00000   0.00000
     34359 MEOH     1872     MEOH     H1B      HDA3B    0.080000        1.0080           0   0.00000   0.00000
     34360 MEOH     1872     MEOH     H1C      HDA3B    0.080000        1.0080           0   0.00000   0.00000
     34361 MEOH     1872     MEOH     LP1A     LPD     -0.230000        0.0000           -1   0.00000   0.00000
     34362 MEOH     1872     MEOH     LP1B     LPD     -0.230000        0.0000           -1   0.00000   0.00000
     34363 MEOH     1873     MEOH     C1       CD33B    2.314100       11.6110           0   -1.00000   1.30000
     34364 MEOH     1873     MEOH     DC1      DRUD    -2.454100        0.4000           0   0.00000   0.00000
     34365 MEOH     1873     MEOH     O1       OD31H    2.488300       15.5990           0   -1.02800   1.30000
     34366 MEOH     1873     MEOH     DO1      DRUD    -2.488300        0.4000           0   0.00000   0.00000
     34367 MEOH     1873     MEOH     HO1      HDP1A    0.360000        1.0080           0   0.00000   0.00000
     34368 MEOH     1873     MEOH     HO2      DUMH     0.000000        1.0080           0   0.00000   0.00000
     34369 MEOH     1873     MEOH     H1A      HDA3B    0.080000        1.0080           0   0.00000   0.00000
     34370 MEOH     1873     MEOH     H1B      HDA3B    0.080000        1.0080           0   0.00000   0.00000
     34371 MEOH     1873     MEOH     H1C      HDA3B    0.080000        1.0080           0   0.00000   0.00000
     34372 MEOH     1873     MEOH     LP1A     LPD     -0.230000        0.0000           -1   0.00000   0.00000
     34373 MEOH     1873     MEOH     LP1B     LPD     -0.230000        0.0000           -1   0.00000   0.00000
     34374 MEOH     1874     MEOH     C1       CD33B    2.314100       11.6110           0   -1.00000   1.30000
     34375 MEOH     1874     MEOH     DC1      DRUD    -2.454100        0.4000           0   0.00000   0.00000
     34376 MEOH     1874     MEOH     O1       OD31H    2.488300       15.5990           0   -1.02800   1.30000
     34377 MEOH     1874     MEOH     DO1      DRUD    -2.488300        0.4000           0   0.00000   0.00000
     34378 MEOH     1874     MEOH     HO1      HDP1A    0.360000        1.0080           0   0.00000   0.00000
     34379 MEOH     1874     MEOH     HO2      DUMH     0.000000        1.0080           0   0.00000   0.00000
     34380 MEOH     1874     MEOH     H1A      HDA3B    0.080000        1.0080           0   0.00000   0.00000
     34381 MEOH     1874     MEOH     H1B      HDA3B    0.080000        1.0080           0   0.00000   0.00000
     34382 MEOH     1874     MEOH     H1C      HDA3B    0.080000        1.0080           0   0.00000   0.00000
     34383 MEOH     1874     MEOH     LP1A     LPD     -0.230000        0.0000           -1   0.00000   0.00000
     34384 MEOH     1874     MEOH     LP1B     LPD     -0.230000        0.0000           -1   0.00000   0.00000
     34385 MEOH     1875     MEOH     C1       CD33B    2.314100       11.6110           0   -1.00000   1.30000
     34386 MEOH     1875     MEOH     DC1      DRUD    -2.454100        0.4000           0   0.00000   0.00000
     34387 MEOH     1875     MEOH     O1       OD31H    2.488300       15.5990           0   -1.02800   1.30000
     34388 MEOH     1875     MEOH     DO1      DRUD    -2.488300        0.4000           0   0.00000   0.00000
     34389 MEOH     1875     MEOH     HO1      HDP1A    0.360000        1.0080           0   0.00000   0.00000
     34390 MEOH     1875     MEOH     HO2      DUMH     0.000000        1.0080           0   0.00000   0.00000
     34391 MEOH     1875     MEOH     H1A      HDA3B    0.080000        1.0080           0   0.00000   0.00000
     34392 MEOH     1875     MEOH     H1B      HDA3B    0.080000        1.0080           0   0.00000   0.00000
     34393 MEOH     1875     MEOH     H1C      HDA3B    0.080000        1.0080           0   0.00000   0.00000
     34394 MEOH     1875     MEOH     LP1A     LPD     -0.230000        0.0000           -1   0.00000   0.00000
     34395 MEOH     1875     MEOH     LP1B     LPD     -0.230000        0.0000           -1   0.00000   0.00000
     34396 MEOH     1876     MEOH     C1       CD33B    2.314100       11.6110           0   -1.00000   1.30000
     34397 MEOH     1876     MEOH     DC1      DRUD    -2.454100        0.4000           0   0.00000   0.00000
     34398 MEOH     1876     MEOH     O1       OD31H    2.488300       15.5990           0   -1.02800   1.30000
     34399 MEOH     1876     MEOH     DO1      DRUD    -2.488300        0.4000           0   0.00000   0.00000
     34400 MEOH     1876     MEOH     HO1      HDP1A    0.360000        1.0080           0   0.00000   0.00000
     34401 MEOH     1876     MEOH     HO2      DUMH     0.000000        1.0080           0   0.00000   0.00000
     34402 MEOH     1876     MEOH     H1A      HDA3B    0.080000        1.0080           0   0.00000   0.00000
     34403 MEOH     1876     MEOH     H1B      HDA3B    0.080000        1.0080           0   0.00000   0.00000
     34404 MEOH     1876     MEOH     H1C      HDA3B    0.080000        1.0080           0   0.00000   0.00000
     34405 MEOH     1876     MEOH     LP1A     LPD     -0.230000        0.0000           -1   0.00000   0.00000
     34406 MEOH     1876     MEOH     LP1B     LPD     -0.230000        0.0000           -1   0.00000   0.00000
     34407 MEOH     1877     MEOH     C1       CD33B    2.314100       11.6110           0   -1.00000   1.30000
     34408 MEOH     1877     MEOH     DC1      DRUD    -2.454100        0.4000           0   0.00000   0.00000
     34409 MEOH     1877     MEOH     O1       OD31H    2.488300       15.5990           0   -1.02800   1.30000
     34410 MEOH     1877     MEOH     DO1      DRUD    -2.488300        0.4000           0   0.00000   0.00000
     34411 MEOH     1877     MEOH     HO1      HDP1A    0.360000        1.0080           0   0.00000   0.00000
     34412 MEOH     1877     MEOH     HO2      DUMH     0.000000        1.0080           0   0.00000   0.00000
     34413 MEOH     1877     MEOH     H1A      HDA3B    0.080000        1.0080           0   0.00000   0.00000
     34414 MEOH     1877     MEOH     H1B      HDA3B    0.080000        1.0080           0   0.00000   0.00000
     34415 MEOH     1877     MEOH     H1C      HDA3B    0.080000        1.0080           0   0.00000   0.00000
     34416 MEOH     1877     MEOH     LP1A     LPD     -0.230000        0.0000           -1   0.00000   0.00000
     34417 MEOH     1877     MEOH     LP1B     LPD     -0.230000        0.0000           -1   0.00000   0.00000
     34418 MEOH     1878     MEOH     C1       CD33B    2.314100       11.6110           0   -1.00000   1.30000
     34419 MEOH     1878     MEOH     DC1      DRUD    -2.454100        0.4000           0   0.00000   0.00000
     34420 MEOH     1878     MEOH     O1       OD31H    2.488300       15.5990           0   -1.02800   1.30000
     34421 MEOH     1878     MEOH     DO1      DRUD    -2.488300        0.4000           0   0.00000   0.00000
     34422 MEOH     1878     MEOH     HO1      HDP1A    0.360000        1.0080           0   0.00000   0.00000
     34423 MEOH     1878     MEOH     HO2      DUMH     0.000000        1.0080           0   0.00000   0.00000
     34424 MEOH     1878     MEOH     H1A      HDA3B    0.080000        1.0080           0   0.00000   0.00000
     34425 MEOH     1878     MEOH     H1B      HDA3B    0.080000        1.0080           0   0.00000   0.00000
     34426 MEOH     1878     MEOH     H1C      HDA3B    0.080000        1.0080           0   0.00000   0.00000
     34427 MEOH     1878     MEOH     LP1A     LPD     -0.230000        0.0000           -1   0.00000   0.00000
     34428 MEOH     1878     MEOH     LP1B     LPD     -0.230000        0.0000           -1   0.00000   0.00000
     34429 MEOH     1879     MEOH     C1       CD33B    2.314100       11.6110           0   -1.00000   1.30000
     34430 MEOH     1879     MEOH     DC1      DRUD    -2.454100        0.4000           0   0.00000   0.00000
     34431 MEOH     1879     MEOH     O1       OD31H    2.488300       15.5990           0   -1.02800   1.30000
     34432 MEOH     1879     MEOH     DO1      DRUD    -2.488300        0.4000           0   0.00000   0.00000
     34433 MEOH     1879     MEOH     HO1      HDP1A    0.360000        1.0080           0   0.00000   0.00000
     34434 MEOH     1879     MEOH     HO2      DUMH     0.000000        1.0080           0   0.00000   0.00000
     34435 MEOH     1879     MEOH     H1A      HDA3B    0.080000        1.0080           0   0.00000   0.00000
     34436 MEOH     1879     MEOH     H1B      HDA3B    0.080000        1.0080           0   0.00000   0.00000
     34437 MEOH     1879     MEOH     H1C      HDA3B    0.080000        1.0080           0   0.00000   0.00000
     34438 MEOH     1879     MEOH     LP1A     LPD     -0.230000        0.0000           -1   0.00000   0.00000
     34439 MEOH     1879     MEOH     LP1B     LPD     -0.230000        0.0000           -1   0.00000   0.00000
     34440 MEOH     1880     MEOH     C1       CD33B    2.314100       11.6110           0   -1.00000   1.30000
     34441 MEOH     1880     MEOH     DC1      DRUD    -2.454100        0.4000           0   0.00000   0.00000
     34442 MEOH     1880     MEOH     O1       OD31H    2.488300       15.5990           0   -1.02800   1.30000
     34443 MEOH     1880     MEOH     DO1      DRUD    -2.488300        0.4000           0   0.00000   0.00000
     34444 MEOH     1880     MEOH     HO1      HDP1A    0.360000        1.0080           0   0.00000   0.00000
     34445 MEOH     1880     MEOH     HO2      DUMH     0.000000        1.0080           0   0.00000   0.00000
     34446 MEOH     1880     MEOH     H1A      HDA3B    0.080000        1.0080           0   0.00000   0.00000
     34447 MEOH     1880     MEOH     H1B      HDA3B    0.080000        1.0080           0   0.00000   0.00000
     34448 MEOH     1880     MEOH     H1C      HDA3B    0.080000        1.0080           0   0.00000   0.00000
     34449 MEOH     1880     MEOH     LP1A     LPD     -0.230000        0.0000           -1   0.00000   0.00000
     34450 MEOH     1880     MEOH     LP1B     LPD     -0.230000        0.0000           -1   0.00000   0.00000
     34451 MEOH     1881     MEOH     C1       CD33B    2.314100       11.6110           0   -1.00000   1.30000
     34452 MEOH     1881     MEOH     DC1      DRUD    -2.454100        0.4000           0   0.00000   0.00000
     34453 MEOH     1881     MEOH     O1       OD31H    2.488300       15.5990           0   -1.02800   1.30000
     34454 MEOH     1881     MEOH     DO1      DRUD    -2.488300        0.4000           0   0.00000   0.00000
     34455 MEOH     1881     MEOH     HO1      HDP1A    0.360000        1.0080           0   0.00000   0.00000
     34456 MEOH     1881     MEOH     HO2      DUMH     0.000000        1.0080           0   0.00000   0.00000
     34457 MEOH     1881     MEOH     H1A      HDA3B    0.080000        1.0080           0   0.00000   0.00000
     34458 MEOH     1881     MEOH     H1B      HDA3B    0.080000        1.0080           0   0.00000   0.00000
     34459 MEOH     1881     MEOH     H1C      HDA3B    0.080000        1.0080           0   0.00000   0.00000
     34460 MEOH     1881     MEOH     LP1A     LPD     -0.230000        0.0000           -1   0.00000   0.00000
     34461 MEOH     1881     MEOH     LP1B     LPD     -0.230000        0.0000           -1   0.00000   0.00000
     34462 MEOH     1882     MEOH     C1       CD33B    2.314100       11.6110           0   -1.00000   1.30000
     34463 MEOH     1882     MEOH     DC1      DRUD    -2.454100        0.4000           0   0.00000   0.00000
     34464 MEOH     1882     MEOH     O1       OD31H    2.488300       15.5990           0   -1.02800   1.30000
     34465 MEOH     1882     MEOH     DO1      DRUD    -2.488300        0.4000           0   0.00000   0.00000
     34466 MEOH     1882     MEOH     HO1      HDP1A    0.360000        1.0080           0   0.00000   0.00000
     34467 MEOH     1882     MEOH     HO2      DUMH     0.000000        1.0080           0   0.00000   0.00000
     34468 MEOH     1882     MEOH     H1A      HDA3B    0.080000        1.0080           0   0.00000   0.00000
     34469 MEOH     1882     MEOH     H1B      HDA3B    0.080000        1.0080           0   0.00000   0.00000
     34470 MEOH     1882     MEOH     H1C      HDA3B    0.080000        1.0080           0   0.00000   0.00000
     34471 MEOH     1882     MEOH     LP1A     LPD     -0.230000        0.0000           -1   0.00000   0.00000
     34472 MEOH     1882     MEOH     LP1B     LPD     -0.230000        0.0000           -1   0.00000   0.00000
     34473 MEOH     1883     MEOH     C1       CD33B    2.314100       11.6110           0   -1.00000   1.30000
     34474 MEOH     1883     MEOH     DC1      DRUD    -2.454100        0.4000           0   0.00000   0.00000
     34475 MEOH     1883     MEOH     O1       OD31H    2.488300       15.5990           0   -1.02800   1.30000
     34476 MEOH     1883     MEOH     DO1      DRUD    -2.488300        0.4000           0   0.00000   0.00000
     34477 MEOH     1883     MEOH     HO1      HDP1A    0.360000        1.0080           0   0.00000   0.00000
     34478 MEOH     1883     MEOH     HO2      DUMH     0.000000        1.0080           0   0.00000   0.00000
     34479 MEOH     1883     MEOH     H1A      HDA3B    0.080000        1.0080           0   0.00000   0.00000
     34480 MEOH     1883     MEOH     H1B      HDA3B    0.080000        1.0080           0   0.00000   0.00000
     34481 MEOH     1883     MEOH     H1C      HDA3B    0.080000        1.0080           0   0.00000   0.00000
     34482 MEOH     1883     MEOH     LP1A     LPD     -0.230000        0.0000           -1   0.00000   0.00000
     34483 MEOH     1883     MEOH     LP1B     LPD     -0.230000        0.0000           -1   0.00000   0.00000
     34484 MEOH     1884     MEOH     C1       CD33B    2.314100       11.6110           0   -1.00000   1.30000
     34485 MEOH     1884     MEOH     DC1      DRUD    -2.454100        0.4000           0   0.00000   0.00000
     34486 MEOH     1884     MEOH     O1       OD31H    2.488300       15.5990           0   -1.02800   1.30000
     34487 MEOH     1884     MEOH     DO1      DRUD    -2.488300        0.4000           0   0.00000   0.00000
     34488 MEOH     1884     MEOH     HO1      HDP1A    0.360000        1.0080           0   0.00000   0.00000
     34489 MEOH     1884     MEOH     HO2      DUMH     0.000000        1.0080           0   0.00000   0.00000
     34490 MEOH     1884     MEOH     H1A      HDA3B    0.080000        1.0080           0   0.00000   0.00000
     34491 MEOH     1884     MEOH     H1B      HDA3B    0.080000        1.0080           0   0.00000   0.00000
     34492 MEOH     1884     MEOH     H1C      HDA3B    0.080000        1.0080           0   0.00000   0.00000
     34493 MEOH     1884     MEOH     LP1A     LPD     -0.230000        0.0000           -1   0.00000   0.00000
     34494 MEOH     1884     MEOH     LP1B     LPD     -0.230000        0.0000           -1   0.00000   0.00000
     34495 MEOH     1885     MEOH     C1       CD33B    2.314100       11.6110           0   -1.00000   1.30000
     34496 MEOH     1885     MEOH     DC1      DRUD    -2.454100        0.4000           0   0.00000   0.00000
     34497 MEOH     1885     MEOH     O1       OD31H    2.488300       15.5990           0   -1.02800   1.30000
     34498 MEOH     1885     MEOH     DO1      DRUD    -2.488300        0.4000           0   0.00000   0.00000
     34499 MEOH     1885     MEOH     HO1      HDP1A    0.360000        1.0080           0   0.00000   0.00000
     34500 MEOH     1885     MEOH     HO2      DUMH     0.000000        1.0080           0   0.00000   0.00000
     34501 MEOH     1885     MEOH     H1A      HDA3B    0.080000        1.0080           0   0.00000   0.00000
     34502 MEOH     1885     MEOH     H1B      HDA3B    0.080000        1.0080           0   0.00000   0.00000
     34503 MEOH     1885     MEOH     H1C      HDA3B    0.080000        1.0080           0   0.00000   0.00000
     34504 MEOH     1885     MEOH     LP1A     LPD     -0.230000        0.0000           -1   0.00000   0.00000
     34505 MEOH     1885     MEOH     LP1B     LPD     -0.230000        0.0000           -1   0.00000   0.00000
     34506 MEOH     1886     MEOH     C1       CD33B    2.314100       11.6110           0   -1.00000   1.30000
     34507 MEOH     1886     MEOH     DC1      DRUD    -2.454100        0.4000           0   0.00000   0.00000
     34508 MEOH     1886     MEOH     O1       OD31H    2.488300       15.5990           0   -1.02800   1.30000
     34509 MEOH     1886     MEOH     DO1      DRUD    -2.488300        0.4000           0   0.00000   0.00000
     34510 MEOH     1886     MEOH     HO1      HDP1A    0.360000        1.0080           0   0.00000   0.00000
     34511 MEOH     1886     MEOH     HO2      DUMH     0.000000        1.0080           0   0.00000   0.00000
     34512 MEOH     1886     MEOH     H1A      HDA3B    0.080000        1.0080           0   0.00000   0.00000
     34513 MEOH     1886     MEOH     H1B      HDA3B    0.080000        1.0080           0   0.00000   0.00000
     34514 MEOH     1886     MEOH     H1C      HDA3B    0.080000        1.0080           0   0.00000   0.00000
     34515 MEOH     1886     MEOH     LP1A     LPD     -0.230000        0.0000           -1   0.00000   0.00000
     34516 MEOH     1886     MEOH     LP1B     LPD     -0.230000        0.0000           -1   0.00000   0.00000
     34517 MEOH     1887     MEOH     C1       CD33B    2.314100       11.6110           0   -1.00000   1.30000
     34518 MEOH     1887     MEOH     DC1      DRUD    -2.454100        0.4000           0   0.00000   0.00000
     34519 MEOH     1887     MEOH     O1       OD31H    2.488300       15.5990           0   -1.02800   1.30000
     34520 MEOH     1887     MEOH     DO1      DRUD    -2.488300        0.4000           0   0.00000   0.00000
     34521 MEOH     1887     MEOH     HO1      HDP1A    0.360000        1.0080           0   0.00000   0.00000
     34522 MEOH     1887     MEOH     HO2      DUMH     0.000000        1.0080           0   0.00000   0.00000
     34523 MEOH     1887     MEOH     H1A      HDA3B    0.080000        1.0080           0   0.00000   0.00000
     34524 MEOH     1887     MEOH     H1B      HDA3B    0.080000        1.0080           0   0.00000   0.00000
     34525 MEOH     1887     MEOH     H1C      HDA3B    0.080000        1.0080           0   0.00000   0.00000
     34526 MEOH     1887     MEOH     LP1A     LPD     -0.230000        0.0000           -1   0.00000   0.00000
     34527 MEOH     1887     MEOH     LP1B     LPD     -0.230000        0.0000           -1   0.00000   0.00000
     34528 MEOH     1888     MEOH     C1       CD33B    2.314100       11.6110           0   -1.00000   1.30000
     34529 MEOH     1888     MEOH     DC1      DRUD    -2.454100        0.4000           0   0.00000   0.00000
     34530 MEOH     1888     MEOH     O1       OD31H    2.488300       15.5990           0   -1.02800   1.30000
     34531 MEOH     1888     MEOH     DO1      DRUD    -2.488300        0.4000           0   0.00000   0.00000
     34532 MEOH     1888     MEOH     HO1      HDP1A    0.360000        1.0080           0   0.00000   0.00000
     34533 MEOH     1888     MEOH     HO2      DUMH     0.000000        1.0080           0   0.00000   0.00000
     34534 MEOH     1888     MEOH     H1A      HDA3B    0.080000        1.0080           0   0.00000   0.00000
     34535 MEOH     1888     MEOH     H1B      HDA3B    0.080000        1.0080           0   0.00000   0.00000
     34536 MEOH     1888     MEOH     H1C      HDA3B    0.080000        1.0080           0   0.00000   0.00000
     34537 MEOH     1888     MEOH     LP1A     LPD     -0.230000        0.0000           -1   0.00000   0.00000
     34538 MEOH     1888     MEOH     LP1B     LPD     -0.230000        0.0000           -1   0.00000   0.00000
     34539 MEOH     1889     MEOH     C1       CD33B    2.314100       11.6110           0   -1.00000   1.30000
     34540 MEOH     1889     MEOH     DC1      DRUD    -2.454100        0.4000           0   0.00000   0.00000
     34541 MEOH     1889     MEOH     O1       OD31H    2.488300       15.5990           0   -1.02800   1.30000
     34542 MEOH     1889     MEOH     DO1      DRUD    -2.488300        0.4000           0   0.00000   0.00000
     34543 MEOH     1889     MEOH     HO1      HDP1A    0.360000        1.0080           0   0.00000   0.00000
     34544 MEOH     1889     MEOH     HO2      DUMH     0.000000        1.0080           0   0.00000   0.00000
     34545 MEOH     1889     MEOH     H1A      HDA3B    0.080000        1.0080           0   0.00000   0.00000
     34546 MEOH     1889     MEOH     H1B      HDA3B    0.080000        1.0080           0   0.00000   0.00000
     34547 MEOH     1889     MEOH     H1C      HDA3B    0.080000        1.0080           0   0.00000   0.00000
     34548 MEOH     1889     MEOH     LP1A     LPD     -0.230000        0.0000           -1   0.00000   0.00000
     34549 MEOH     1889     MEOH     LP1B     LPD     -0.230000        0.0000           -1   0.00000   0.00000
     34550 MEOH     1890     MEOH     C1       CD33B    2.314100       11.6110           0   -1.00000   1.30000
     34551 MEOH     1890     MEOH     DC1      DRUD    -2.454100        0.4000           0   0.00000   0.00000
     34552 MEOH     1890     MEOH     O1       OD31H    2.488300       15.5990           0   -1.02800   1.30000
     34553 MEOH     1890     MEOH     DO1      DRUD    -2.488300        0.4000           0   0.00000   0.00000
     34554 MEOH     1890     MEOH     HO1      HDP1A    0.360000        1.0080           0   0.00000   0.00000
     34555 MEOH     1890     MEOH     HO2      DUMH     0.000000        1.0080           0   0.00000   0.00000
     34556 MEOH     1890     MEOH     H1A      HDA3B    0.080000        1.0080           0   0.00000   0.00000
     34557 MEOH     1890     MEOH     H1B      HDA3B    0.080000        1.0080           0   0.00000   0.00000
     34558 MEOH     1890     MEOH     H1C      HDA3B    0.080000        1.0080           0   0.00000   0.00000
     34559 MEOH     1890     MEOH     LP1A     LPD     -0.230000        0.0000           -1   0.00000   0.00000
     34560 MEOH     1890     MEOH     LP1B     LPD     -0.230000        0.0000           -1   0.00000   0.00000
     34561 MEOH     1891     MEOH     C1       CD33B    2.314100       11.6110           0   -1.00000   1.30000
     34562 MEOH     1891     MEOH     DC1      DRUD    -2.454100        0.4000           0   0.00000   0.00000
     34563 MEOH     1891     MEOH     O1       OD31H    2.488300       15.5990           0   -1.02800   1.30000
     34564 MEOH     1891     MEOH     DO1      DRUD    -2.488300        0.4000           0   0.00000   0.00000
     34565 MEOH     1891     MEOH     HO1      HDP1A    0.360000        1.0080           0   0.00000   0.00000
     34566 MEOH     1891     MEOH     HO2      DUMH     0.000000        1.0080           0   0.00000   0.00000
     34567 MEOH     1891     MEOH     H1A      HDA3B    0.080000        1.0080           0   0.00000   0.00000
     34568 MEOH     1891     MEOH     H1B      HDA3B    0.080000        1.0080           0   0.00000   0.00000
     34569 MEOH     1891     MEOH     H1C      HDA3B    0.080000        1.0080           0   0.00000   0.00000
     34570 MEOH     1891     MEOH     LP1A     LPD     -0.230000        0.0000           -1   0.00000   0.00000
     34571 MEOH     1891     MEOH     LP1B     LPD     -0.230000        0.0000           -1   0.00000   0.00000
     34572 MEOH     1892     MEOH     C1       CD33B    2.314100       11.6110           0   -1.00000   1.30000
     34573 MEOH     1892     MEOH     DC1      DRUD    -2.454100        0.4000           0   0.00000   0.00000
     34574 MEOH     1892     MEOH     O1       OD31H    2.488300       15.5990           0   -1.02800   1.30000
     34575 MEOH     1892     MEOH     DO1      DRUD    -2.488300        0.4000           0   0.00000   0.00000
     34576 MEOH     1892     MEOH     HO1      HDP1A    0.360000        1.0080           0   0.00000   0.00000
     34577 MEOH     1892     MEOH     HO2      DUMH     0.000000        1.0080           0   0.00000   0.00000
     34578 MEOH     1892     MEOH     H1A      HDA3B    0.080000        1.0080           0   0.00000   0.00000
     34579 MEOH     1892     MEOH     H1B      HDA3B    0.080000        1.0080           0   0.00000   0.00000
     34580 MEOH     1892     MEOH     H1C      HDA3B    0.080000        1.0080           0   0.00000   0.00000
     34581 MEOH     1892     MEOH     LP1A     LPD     -0.230000        0.0000           -1   0.00000   0.00000
     34582 MEOH     1892     MEOH     LP1B     LPD     -0.230000        0.0000           -1   0.00000   0.00000
     34583 MEOH     1893     MEOH     C1       CD33B    2.314100       11.6110           0   -1.00000   1.30000
     34584 MEOH     1893     MEOH     DC1      DRUD    -2.454100        0.4000           0   0.00000   0.00000
     34585 MEOH     1893     MEOH     O1       OD31H    2.488300       15.5990           0   -1.02800   1.30000
     34586 MEOH     1893     MEOH     DO1      DRUD    -2.488300        0.4000           0   0.00000   0.00000
     34587 MEOH     1893     MEOH     HO1      HDP1A    0.360000        1.0080           0   0.00000   0.00000
     34588 MEOH     1893     MEOH     HO2      DUMH     0.000000        1.0080           0   0.00000   0.00000
     34589 MEOH     1893     MEOH     H1A      HDA3B    0.080000        1.0080           0   0.00000   0.00000
     34590 MEOH     1893     MEOH     H1B      HDA3B    0.080000        1.0080           0   0.00000   0.00000
     34591 MEOH     1893     MEOH     H1C      HDA3B    0.080000        1.0080           0   0.00000   0.00000
     34592 MEOH     1893     MEOH     LP1A     LPD     -0.230000        0.0000           -1   0.00000   0.00000
     34593 MEOH     1893     MEOH     LP1B     LPD     -0.230000        0.0000           -1   0.00000   0.00000
     34594 MEOH     1894     MEOH     C1       CD33B    2.314100       11.6110           0   -1.00000   1.30000
     34595 MEOH     1894     MEOH     DC1      DRUD    -2.454100        0.4000           0   0.00000   0.00000
     34596 MEOH     1894     MEOH     O1       OD31H    2.488300       15.5990           0   -1.02800   1.30000
     34597 MEOH     1894     MEOH     DO1      DRUD    -2.488300        0.4000           0   0.00000   0.00000
     34598 MEOH     1894     MEOH     HO1      HDP1A    0.360000        1.0080           0   0.00000   0.00000
     34599 MEOH     1894     MEOH     HO2      DUMH     0.000000        1.0080           0   0.00000   0.00000
     34600 MEOH     1894     MEOH     H1A      HDA3B    0.080000        1.0080           0   0.00000   0.00000
     34601 MEOH     1894     MEOH     H1B      HDA3B    0.080000        1.0080           0   0.00000   0.00000
     34602 MEOH     1894     MEOH     H1C      HDA3B    0.080000        1.0080           0   0.00000   0.00000
     34603 MEOH     1894     MEOH     LP1A     LPD     -0.230000        0.0000           -1   0.00000   0.00000
     34604 MEOH     1894     MEOH     LP1B     LPD     -0.230000        0.0000           -1   0.00000   0.00000
     34605 MEOH     1895     MEOH     C1       CD33B    2.314100       11.6110           0   -1.00000   1.30000
     34606 MEOH     1895     MEOH     DC1      DRUD    -2.454100        0.4000           0   0.00000   0.00000
     34607 MEOH     1895     MEOH     O1       OD31H    2.488300       15.5990           0   -1.02800   1.30000
     34608 MEOH     1895     MEOH     DO1      DRUD    -2.488300        0.4000           0   0.00000   0.00000
     34609 MEOH     1895     MEOH     HO1      HDP1A    0.360000        1.0080           0   0.00000   0.00000
     34610 MEOH     1895     MEOH     HO2      DUMH     0.000000        1.0080           0   0.00000   0.00000
     34611 MEOH     1895     MEOH     H1A      HDA3B    0.080000        1.0080           0   0.00000   0.00000
     34612 MEOH     1895     MEOH     H1B      HDA3B    0.080000        1.0080           0   0.00000   0.00000
     34613 MEOH     1895     MEOH     H1C      HDA3B    0.080000        1.0080           0   0.00000   0.00000
     34614 MEOH     1895     MEOH     LP1A     LPD     -0.230000        0.0000           -1   0.00000   0.00000
     34615 MEOH     1895     MEOH     LP1B     LPD     -0.230000        0.0000           -1   0.00000   0.00000
     34616 MEOH     1896     MEOH     C1       CD33B    2.314100       11.6110           0   -1.00000   1.30000
     34617 MEOH     1896     MEOH     DC1      DRUD    -2.454100        0.4000           0   0.00000   0.00000
     34618 MEOH     1896     MEOH     O1       OD31H    2.488300       15.5990           0   -1.02800   1.30000
     34619 MEOH     1896     MEOH     DO1      DRUD    -2.488300        0.4000           0   0.00000   0.00000
     34620 MEOH     1896     MEOH     HO1      HDP1A    0.360000        1.0080           0   0.00000   0.00000
     34621 MEOH     1896     MEOH     HO2      DUMH     0.000000        1.0080           0   0.00000   0.00000
     34622 MEOH     1896     MEOH     H1A      HDA3B    0.080000        1.0080           0   0.00000   0.00000
     34623 MEOH     1896     MEOH     H1B      HDA3B    0.080000        1.0080           0   0.00000   0.00000
     34624 MEOH     1896     MEOH     H1C      HDA3B    0.080000        1.0080           0   0.00000   0.00000
     34625 MEOH     1896     MEOH     LP1A     LPD     -0.230000        0.0000           -1   0.00000   0.00000
     34626 MEOH     1896     MEOH     LP1B     LPD     -0.230000        0.0000           -1   0.00000   0.00000
     34627 MEOH     1897     MEOH     C1       CD33B    2.314100       11.6110           0   -1.00000   1.30000
     34628 MEOH     1897     MEOH     DC1      DRUD    -2.454100        0.4000           0   0.00000   0.00000
     34629 MEOH     1897     MEOH     O1       OD31H    2.488300       15.5990           0   -1.02800   1.30000
     34630 MEOH     1897     MEOH     DO1      DRUD    -2.488300        0.4000           0   0.00000   0.00000
     34631 MEOH     1897     MEOH     HO1      HDP1A    0.360000        1.0080           0   0.00000   0.00000
     34632 MEOH     1897     MEOH     HO2      DUMH     0.000000        1.0080           0   0.00000   0.00000
     34633 MEOH     1897     MEOH     H1A      HDA3B    0.080000        1.0080           0   0.00000   0.00000
     34634 MEOH     1897     MEOH     H1B      HDA3B    0.080000        1.0080           0   0.00000   0.00000
     34635 MEOH     1897     MEOH     H1C      HDA3B    0.080000        1.0080           0   0.00000   0.00000
     34636 MEOH     1897     MEOH     LP1A     LPD     -0.230000        0.0000           -1   0.00000   0.00000
     34637 MEOH     1897     MEOH     LP1B     LPD     -0.230000        0.0000           -1   0.00000   0.00000
     34638 MEOH     1898     MEOH     C1       CD33B    2.314100       11.6110           0   -1.00000   1.30000
     34639 MEOH     1898     MEOH     DC1      DRUD    -2.454100        0.4000           0   0.00000   0.00000
     34640 MEOH     1898     MEOH     O1       OD31H    2.488300       15.5990           0   -1.02800   1.30000
     34641 MEOH     1898     MEOH     DO1      DRUD    -2.488300        0.4000           0   0.00000   0.00000
     34642 MEOH     1898     MEOH     HO1      HDP1A    0.360000        1.0080           0   0.00000   0.00000
     34643 MEOH     1898     MEOH     HO2      DUMH     0.000000        1.0080           0   0.00000   0.00000
     34644 MEOH     1898     MEOH     H1A      HDA3B    0.080000        1.0080           0   0.00000   0.00000
     34645 MEOH     1898     MEOH     H1B      HDA3B    0.080000        1.0080           0   0.00000   0.00000
     34646 MEOH     1898     MEOH     H1C      HDA3B    0.080000        1.0080           0   0.00000   0.00000
     34647 MEOH     1898     MEOH     LP1A     LPD     -0.230000        0.0000           -1   0.00000   0.00000
     34648 MEOH     1898     MEOH     LP1B     LPD     -0.230000        0.0000           -1   0.00000   0.00000
     34649 MEOH     1899     MEOH     C1       CD33B    2.314100       11.6110           0   -1.00000   1.30000
     34650 MEOH     1899     MEOH     DC1      DRUD    -2.454100        0.4000           0   0.00000   0.00000
     34651 MEOH     1899     MEOH     O1       OD31H    2.488300       15.5990           0   -1.02800   1.30000
     34652 MEOH     1899     MEOH     DO1      DRUD    -2.488300        0.4000           0   0.00000   0.00000
     34653 MEOH     1899     MEOH     HO1      HDP1A    0.360000        1.0080           0   0.00000   0.00000
     34654 MEOH     1899     MEOH     HO2      DUMH     0.000000        1.0080           0   0.00000   0.00000
     34655 MEOH     1899     MEOH     H1A      HDA3B    0.080000        1.0080           0   0.00000   0.00000
     34656 MEOH     1899     MEOH     H1B      HDA3B    0.080000        1.0080           0   0.00000   0.00000
     34657 MEOH     1899     MEOH     H1C      HDA3B    0.080000        1.0080           0   0.00000   0.00000
     34658 MEOH     1899     MEOH     LP1A     LPD     -0.230000        0.0000           -1   0.00000   0.00000
     34659 MEOH     1899     MEOH     LP1B     LPD     -0.230000        0.0000           -1   0.00000   0.00000
     34660 MEOH     1900     MEOH     C1       CD33B    2.314100       11.6110           0   -1.00000   1.30000
     34661 MEOH     1900     MEOH     DC1      DRUD    -2.454100        0.4000           0   0.00000   0.00000
     34662 MEOH     1900     MEOH     O1       OD31H    2.488300       15.5990           0   -1.02800   1.30000
     34663 MEOH     1900     MEOH     DO1      DRUD    -2.488300        0.4000           0   0.00000   0.00000
     34664 MEOH     1900     MEOH     HO1      HDP1A    0.360000        1.0080           0   0.00000   0.00000
     34665 MEOH     1900     MEOH     HO2      DUMH     0.000000        1.0080           0   0.00000   0.00000
     34666 MEOH     1900     MEOH     H1A      HDA3B    0.080000        1.0080           0   0.00000   0.00000
     34667 MEOH     1900     MEOH     H1B      HDA3B    0.080000        1.0080           0   0.00000   0.00000
     34668 MEOH     1900     MEOH     H1C      HDA3B    0.080000        1.0080           0   0.00000   0.00000
     34669 MEOH     1900     MEOH     LP1A     LPD     -0.230000        0.0000           -1   0.00000   0.00000
     34670 MEOH     1900     MEOH     LP1B     LPD     -0.230000        0.0000           -1   0.00000   0.00000
     34671 MEOH     1901     MEOH     C1       CD33B    2.314100       11.6110           0   -1.00000   1.30000
     34672 MEOH     1901     MEOH     DC1      DRUD    -2.454100        0.4000           0   0.00000   0.00000
     34673 MEOH     1901     MEOH     O1       OD31H    2.488300       15.5990           0   -1.02800   1.30000
     34674 MEOH     1901     MEOH     DO1      DRUD    -2.488300        0.4000           0   0.00000   0.00000
     34675 MEOH     1901     MEOH     HO1      HDP1A    0.360000        1.0080           0   0.00000   0.00000
     34676 MEOH     1901     MEOH     HO2      DUMH     0.000000        1.0080           0   0.00000   0.00000
     34677 MEOH     1901     MEOH     H1A      HDA3B    0.080000        1.0080           0   0.00000   0.00000
     34678 MEOH     1901     MEOH     H1B      HDA3B    0.080000        1.0080           0   0.00000   0.00000
     34679 MEOH     1901     MEOH     H1C      HDA3B    0.080000        1.0080           0   0.00000   0.00000
     34680 MEOH     1901     MEOH     LP1A     LPD     -0.230000        0.0000           -1   0.00000   0.00000
     34681 MEOH     1901     MEOH     LP1B     LPD     -0.230000        0.0000           -1   0.00000   0.00000
     34682 MEOH     1902     MEOH     C1       CD33B    2.314100       11.6110           0   -1.00000   1.30000
     34683 MEOH     1902     MEOH     DC1      DRUD    -2.454100        0.4000           0   0.00000   0.00000
     34684 MEOH     1902     MEOH     O1       OD31H    2.488300       15.5990           0   -1.02800   1.30000
     34685 MEOH     1902     MEOH     DO1      DRUD    -2.488300        0.4000           0   0.00000   0.00000
     34686 MEOH     1902     MEOH     HO1      HDP1A    0.360000        1.0080           0   0.00000   0.00000
     34687 MEOH     1902     MEOH     HO2      DUMH     0.000000        1.0080           0   0.00000   0.00000
     34688 MEOH     1902     MEOH     H1A      HDA3B    0.080000        1.0080           0   0.00000   0.00000
     34689 MEOH     1902     MEOH     H1B      HDA3B    0.080000        1.0080           0   0.00000   0.00000
     34690 MEOH     1902     MEOH     H1C      HDA3B    0.080000        1.0080           0   0.00000   0.00000
     34691 MEOH     1902     MEOH     LP1A     LPD     -0.230000        0.0000           -1   0.00000   0.00000
     34692 MEOH     1902     MEOH     LP1B     LPD     -0.230000        0.0000           -1   0.00000   0.00000
     34693 MEOH     1903     MEOH     C1       CD33B    2.314100       11.6110           0   -1.00000   1.30000
     34694 MEOH     1903     MEOH     DC1      DRUD    -2.454100        0.4000           0   0.00000   0.00000
     34695 MEOH     1903     MEOH     O1       OD31H    2.488300       15.5990           0   -1.02800   1.30000
     34696 MEOH     1903     MEOH     DO1      DRUD    -2.488300        0.4000           0   0.00000   0.00000
     34697 MEOH     1903     MEOH     HO1      HDP1A    0.360000        1.0080           0   0.00000   0.00000
     34698 MEOH     1903     MEOH     HO2      DUMH     0.000000        1.0080           0   0.00000   0.00000
     34699 MEOH     1903     MEOH     H1A      HDA3B    0.080000        1.0080           0   0.00000   0.00000
     34700 MEOH     1903     MEOH     H1B      HDA3B    0.080000        1.0080           0   0.00000   0.00000
     34701 MEOH     1903     MEOH     H1C      HDA3B    0.080000        1.0080           0   0.00000   0.00000
     34702 MEOH     1903     MEOH     LP1A     LPD     -0.230000        0.0000           -1   0.00000   0.00000
     34703 MEOH     1903     MEOH     LP1B     LPD     -0.230000        0.0000           -1   0.00000   0.00000
     34704 MEOH     1904     MEOH     C1       CD33B    2.314100       11.6110           0   -1.00000   1.30000
     34705 MEOH     1904     MEOH     DC1      DRUD    -2.454100        0.4000           0   0.00000   0.00000
     34706 MEOH     1904     MEOH     O1       OD31H    2.488300       15.5990           0   -1.02800   1.30000
     34707 MEOH     1904     MEOH     DO1      DRUD    -2.488300        0.4000           0   0.00000   0.00000
     34708 MEOH     1904     MEOH     HO1      HDP1A    0.360000        1.0080           0   0.00000   0.00000
     34709 MEOH     1904     MEOH     HO2      DUMH     0.000000        1.0080           0   0.00000   0.00000
     34710 MEOH     1904     MEOH     H1A      HDA3B    0.080000        1.0080           0   0.00000   0.00000
     34711 MEOH     1904     MEOH     H1B      HDA3B    0.080000        1.0080           0   0.00000   0.00000
     34712 MEOH     1904     MEOH     H1C      HDA3B    0.080000        1.0080           0   0.00000   0.00000
     34713 MEOH     1904     MEOH     LP1A     LPD     -0.230000        0.0000           -1   0.00000   0.00000
     34714 MEOH     1904     MEOH     LP1B     LPD     -0.230000        0.0000           -1   0.00000   0.00000
     34715 MEOH     1905     MEOH     C1       CD33B    2.314100       11.6110           0   -1.00000   1.30000
     34716 MEOH     1905     MEOH     DC1      DRUD    -2.454100        0.4000           0   0.00000   0.00000
     34717 MEOH     1905     MEOH     O1       OD31H    2.488300       15.5990           0   -1.02800   1.30000
     34718 MEOH     1905     MEOH     DO1      DRUD    -2.488300        0.4000           0   0.00000   0.00000
     34719 MEOH     1905     MEOH     HO1      HDP1A    0.360000        1.0080           0   0.00000   0.00000
     34720 MEOH     1905     MEOH     HO2      DUMH     0.000000        1.0080           0   0.00000   0.00000
     34721 MEOH     1905     MEOH     H1A      HDA3B    0.080000        1.0080           0   0.00000   0.00000
     34722 MEOH     1905     MEOH     H1B      HDA3B    0.080000        1.0080           0   0.00000   0.00000
     34723 MEOH     1905     MEOH     H1C      HDA3B    0.080000        1.0080           0   0.00000   0.00000
     34724 MEOH     1905     MEOH     LP1A     LPD     -0.230000        0.0000           -1   0.00000   0.00000
     34725 MEOH     1905     MEOH     LP1B     LPD     -0.230000        0.0000           -1   0.00000   0.00000
     34726 MEOH     1906     MEOH     C1       CD33B    2.314100       11.6110           0   -1.00000   1.30000
     34727 MEOH     1906     MEOH     DC1      DRUD    -2.454100        0.4000           0   0.00000   0.00000
     34728 MEOH     1906     MEOH     O1       OD31H    2.488300       15.5990           0   -1.02800   1.30000
     34729 MEOH     1906     MEOH     DO1      DRUD    -2.488300        0.4000           0   0.00000   0.00000
     34730 MEOH     1906     MEOH     HO1      HDP1A    0.360000        1.0080           0   0.00000   0.00000
     34731 MEOH     1906     MEOH     HO2      DUMH     0.000000        1.0080           0   0.00000   0.00000
     34732 MEOH     1906     MEOH     H1A      HDA3B    0.080000        1.0080           0   0.00000   0.00000
     34733 MEOH     1906     MEOH     H1B      HDA3B    0.080000        1.0080           0   0.00000   0.00000
     34734 MEOH     1906     MEOH     H1C      HDA3B    0.080000        1.0080           0   0.00000   0.00000
     34735 MEOH     1906     MEOH     LP1A     LPD     -0.230000        0.0000           -1   0.00000   0.00000
     34736 MEOH     1906     MEOH     LP1B     LPD     -0.230000        0.0000           -1   0.00000   0.00000
     34737 MEOH     1907     MEOH     C1       CD33B    2.314100       11.6110           0   -1.00000   1.30000
     34738 MEOH     1907     MEOH     DC1      DRUD    -2.454100        0.4000           0   0.00000   0.00000
     34739 MEOH     1907     MEOH     O1       OD31H    2.488300       15.5990           0   -1.02800   1.30000
     34740 MEOH     1907     MEOH     DO1      DRUD    -2.488300        0.4000           0   0.00000   0.00000
     34741 MEOH     1907     MEOH     HO1      HDP1A    0.360000        1.0080           0   0.00000   0.00000
     34742 MEOH     1907     MEOH     HO2      DUMH     0.000000        1.0080           0   0.00000   0.00000
     34743 MEOH     1907     MEOH     H1A      HDA3B    0.080000        1.0080           0   0.00000   0.00000
     34744 MEOH     1907     MEOH     H1B      HDA3B    0.080000        1.0080           0   0.00000   0.00000
     34745 MEOH     1907     MEOH     H1C      HDA3B    0.080000        1.0080           0   0.00000   0.00000
     34746 MEOH     1907     MEOH     LP1A     LPD     -0.230000        0.0000           -1   0.00000   0.00000
     34747 MEOH     1907     MEOH     LP1B     LPD     -0.230000        0.0000           -1   0.00000   0.00000
     34748 MEOH     1908     MEOH     C1       CD33B    2.314100       11.6110           0   -1.00000   1.30000
     34749 MEOH     1908     MEOH     DC1      DRUD    -2.454100        0.4000           0   0.00000   0.00000
     34750 MEOH     1908     MEOH     O1       OD31H    2.488300       15.5990           0   -1.02800   1.30000
     34751 MEOH     1908     MEOH     DO1      DRUD    -2.488300        0.4000           0   0.00000   0.00000
     34752 MEOH     1908     MEOH     HO1      HDP1A    0.360000        1.0080           0   0.00000   0.00000
     34753 MEOH     1908     MEOH     HO2      DUMH     0.000000        1.0080           0   0.00000   0.00000
     34754 MEOH     1908     MEOH     H1A      HDA3B    0.080000        1.0080           0   0.00000   0.00000
     34755 MEOH     1908     MEOH     H1B      HDA3B    0.080000        1.0080           0   0.00000   0.00000
     34756 MEOH     1908     MEOH     H1C      HDA3B    0.080000        1.0080           0   0.00000   0.00000
     34757 MEOH     1908     MEOH     LP1A     LPD     -0.230000        0.0000           -1   0.00000   0.00000
     34758 MEOH     1908     MEOH     LP1B     LPD     -0.230000        0.0000           -1   0.00000   0.00000
     34759 MEOH     1909     MEOH     C1       CD33B    2.314100       11.6110           0   -1.00000   1.30000
     34760 MEOH     1909     MEOH     DC1      DRUD    -2.454100        0.4000           0   0.00000   0.00000
     34761 MEOH     1909     MEOH     O1       OD31H    2.488300       15.5990           0   -1.02800   1.30000
     34762 MEOH     1909     MEOH     DO1      DRUD    -2.488300        0.4000           0   0.00000   0.00000
     34763 MEOH     1909     MEOH     HO1      HDP1A    0.360000        1.0080           0   0.00000   0.00000
     34764 MEOH     1909     MEOH     HO2      DUMH     0.000000        1.0080           0   0.00000   0.00000
     34765 MEOH     1909     MEOH     H1A      HDA3B    0.080000        1.0080           0   0.00000   0.00000
     34766 MEOH     1909     MEOH     H1B      HDA3B    0.080000        1.0080           0   0.00000   0.00000
     34767 MEOH     1909     MEOH     H1C      HDA3B    0.080000        1.0080           0   0.00000   0.00000
     34768 MEOH     1909     MEOH     LP1A     LPD     -0.230000        0.0000           -1   0.00000   0.00000
     34769 MEOH     1909     MEOH     LP1B     LPD     -0.230000        0.0000           -1   0.00000   0.00000
     34770 MEOH     1910     MEOH     C1       CD33B    2.314100       11.6110           0   -1.00000   1.30000
     34771 MEOH     1910     MEOH     DC1      DRUD    -2.454100        0.4000           0   0.00000   0.00000
     34772 MEOH     1910     MEOH     O1       OD31H    2.488300       15.5990           0   -1.02800   1.30000
     34773 MEOH     1910     MEOH     DO1      DRUD    -2.488300        0.4000           0   0.00000   0.00000
     34774 MEOH     1910     MEOH     HO1      HDP1A    0.360000        1.0080           0   0.00000   0.00000
     34775 MEOH     1910     MEOH     HO2      DUMH     0.000000        1.0080           0   0.00000   0.00000
     34776 MEOH     1910     MEOH     H1A      HDA3B    0.080000        1.0080           0   0.00000   0.00000
     34777 MEOH     1910     MEOH     H1B      HDA3B    0.080000        1.0080           0   0.00000   0.00000
     34778 MEOH     1910     MEOH     H1C      HDA3B    0.080000        1.0080           0   0.00000   0.00000
     34779 MEOH     1910     MEOH     LP1A     LPD     -0.230000        0.0000           -1   0.00000   0.00000
     34780 MEOH     1910     MEOH     LP1B     LPD     -0.230000        0.0000           -1   0.00000   0.00000
     34781 MEOH     1911     MEOH     C1       CD33B    2.314100       11.6110           0   -1.00000   1.30000
     34782 MEOH     1911     MEOH     DC1      DRUD    -2.454100        0.4000           0   0.00000   0.00000
     34783 MEOH     1911     MEOH     O1       OD31H    2.488300       15.5990           0   -1.02800   1.30000
     34784 MEOH     1911     MEOH     DO1      DRUD    -2.488300        0.4000           0   0.00000   0.00000
     34785 MEOH     1911     MEOH     HO1      HDP1A    0.360000        1.0080           0   0.00000   0.00000
     34786 MEOH     1911     MEOH     HO2      DUMH     0.000000        1.0080           0   0.00000   0.00000
     34787 MEOH     1911     MEOH     H1A      HDA3B    0.080000        1.0080           0   0.00000   0.00000
     34788 MEOH     1911     MEOH     H1B      HDA3B    0.080000        1.0080           0   0.00000   0.00000
     34789 MEOH     1911     MEOH     H1C      HDA3B    0.080000        1.0080           0   0.00000   0.00000
     34790 MEOH     1911     MEOH     LP1A     LPD     -0.230000        0.0000           -1   0.00000   0.00000
     34791 MEOH     1911     MEOH     LP1B     LPD     -0.230000        0.0000           -1   0.00000   0.00000
     34792 MEOH     1912     MEOH     C1       CD33B    2.314100       11.6110           0   -1.00000   1.30000
     34793 MEOH     1912     MEOH     DC1      DRUD    -2.454100        0.4000           0   0.00000   0.00000
     34794 MEOH     1912     MEOH     O1       OD31H    2.488300       15.5990           0   -1.02800   1.30000
     34795 MEOH     1912     MEOH     DO1      DRUD    -2.488300        0.4000           0   0.00000   0.00000
     34796 MEOH     1912     MEOH     HO1      HDP1A    0.360000        1.0080           0   0.00000   0.00000
     34797 MEOH     1912     MEOH     HO2      DUMH     0.000000        1.0080           0   0.00000   0.00000
     34798 MEOH     1912     MEOH     H1A      HDA3B    0.080000        1.0080           0   0.00000   0.00000
     34799 MEOH     1912     MEOH     H1B      HDA3B    0.080000        1.0080           0   0.00000   0.00000
     34800 MEOH     1912     MEOH     H1C      HDA3B    0.080000        1.0080           0   0.00000   0.00000
     34801 MEOH     1912     MEOH     LP1A     LPD     -0.230000        0.0000           -1   0.00000   0.00000
     34802 MEOH     1912     MEOH     LP1B     LPD     -0.230000        0.0000           -1   0.00000   0.00000
     34803 MEOH     1913     MEOH     C1       CD33B    2.314100       11.6110           0   -1.00000   1.30000
     34804 MEOH     1913     MEOH     DC1      DRUD    -2.454100        0.4000           0   0.00000   0.00000
     34805 MEOH     1913     MEOH     O1       OD31H    2.488300       15.5990           0   -1.02800   1.30000
     34806 MEOH     1913     MEOH     DO1      DRUD    -2.488300        0.4000           0   0.00000   0.00000
     34807 MEOH     1913     MEOH     HO1      HDP1A    0.360000        1.0080           0   0.00000   0.00000
     34808 MEOH     1913     MEOH     HO2      DUMH     0.000000        1.0080           0   0.00000   0.00000
     34809 MEOH     1913     MEOH     H1A      HDA3B    0.080000        1.0080           0   0.00000   0.00000
     34810 MEOH     1913     MEOH     H1B      HDA3B    0.080000        1.0080           0   0.00000   0.00000
     34811 MEOH     1913     MEOH     H1C      HDA3B    0.080000        1.0080           0   0.00000   0.00000
     34812 MEOH     1913     MEOH     LP1A     LPD     -0.230000        0.0000           -1   0.00000   0.00000
     34813 MEOH     1913     MEOH     LP1B     LPD     -0.230000        0.0000           -1   0.00000   0.00000
     34814 MEOH     1914     MEOH     C1       CD33B    2.314100       11.6110           0   -1.00000   1.30000
     34815 MEOH     1914     MEOH     DC1      DRUD    -2.454100        0.4000           0   0.00000   0.00000
     34816 MEOH     1914     MEOH     O1       OD31H    2.488300       15.5990           0   -1.02800   1.30000
     34817 MEOH     1914     MEOH     DO1      DRUD    -2.488300        0.4000           0   0.00000   0.00000
     34818 MEOH     1914     MEOH     HO1      HDP1A    0.360000        1.0080           0   0.00000   0.00000
     34819 MEOH     1914     MEOH     HO2      DUMH     0.000000        1.0080           0   0.00000   0.00000
     34820 MEOH     1914     MEOH     H1A      HDA3B    0.080000        1.0080           0   0.00000   0.00000
     34821 MEOH     1914     MEOH     H1B      HDA3B    0.080000        1.0080           0   0.00000   0.00000
     34822 MEOH     1914     MEOH     H1C      HDA3B    0.080000        1.0080           0   0.00000   0.00000
     34823 MEOH     1914     MEOH     LP1A     LPD     -0.230000        0.0000           -1   0.00000   0.00000
     34824 MEOH     1914     MEOH     LP1B     LPD     -0.230000        0.0000           -1   0.00000   0.00000
     34825 MEOH     1915     MEOH     C1       CD33B    2.314100       11.6110           0   -1.00000   1.30000
     34826 MEOH     1915     MEOH     DC1      DRUD    -2.454100        0.4000           0   0.00000   0.00000
     34827 MEOH     1915     MEOH     O1       OD31H    2.488300       15.5990           0   -1.02800   1.30000
     34828 MEOH     1915     MEOH     DO1      DRUD    -2.488300        0.4000           0   0.00000   0.00000
     34829 MEOH     1915     MEOH     HO1      HDP1A    0.360000        1.0080           0   0.00000   0.00000
     34830 MEOH     1915     MEOH     HO2      DUMH     0.000000        1.0080           0   0.00000   0.00000
     34831 MEOH     1915     MEOH     H1A      HDA3B    0.080000        1.0080           0   0.00000   0.00000
     34832 MEOH     1915     MEOH     H1B      HDA3B    0.080000        1.0080           0   0.00000   0.00000
     34833 MEOH     1915     MEOH     H1C      HDA3B    0.080000        1.0080           0   0.00000   0.00000
     34834 MEOH     1915     MEOH     LP1A     LPD     -0.230000        0.0000           -1   0.00000   0.00000
     34835 MEOH     1915     MEOH     LP1B     LPD     -0.230000        0.0000           -1   0.00000   0.00000
     34836 MEOH     1916     MEOH     C1       CD33B    2.314100       11.6110           0   -1.00000   1.30000
     34837 MEOH     1916     MEOH     DC1      DRUD    -2.454100        0.4000           0   0.00000   0.00000
     34838 MEOH     1916     MEOH     O1       OD31H    2.488300       15.5990           0   -1.02800   1.30000
     34839 MEOH     1916     MEOH     DO1      DRUD    -2.488300        0.4000           0   0.00000   0.00000
     34840 MEOH     1916     MEOH     HO1      HDP1A    0.360000        1.0080           0   0.00000   0.00000
     34841 MEOH     1916     MEOH     HO2      DUMH     0.000000        1.0080           0   0.00000   0.00000
     34842 MEOH     1916     MEOH     H1A      HDA3B    0.080000        1.0080           0   0.00000   0.00000
     34843 MEOH     1916     MEOH     H1B      HDA3B    0.080000        1.0080           0   0.00000   0.00000
     34844 MEOH     1916     MEOH     H1C      HDA3B    0.080000        1.0080           0   0.00000   0.00000
     34845 MEOH     1916     MEOH     LP1A     LPD     -0.230000        0.0000           -1   0.00000   0.00000
     34846 MEOH     1916     MEOH     LP1B     LPD     -0.230000        0.0000           -1   0.00000   0.00000
     34847 MEOH     1917     MEOH     C1       CD33B    2.314100       11.6110           0   -1.00000   1.30000
     34848 MEOH     1917     MEOH     DC1      DRUD    -2.454100        0.4000           0   0.00000   0.00000
     34849 MEOH     1917     MEOH     O1       OD31H    2.488300       15.5990           0   -1.02800   1.30000
     34850 MEOH     1917     MEOH     DO1      DRUD    -2.488300        0.4000           0   0.00000   0.00000
     34851 MEOH     1917     MEOH     HO1      HDP1A    0.360000        1.0080           0   0.00000   0.00000
     34852 MEOH     1917     MEOH     HO2      DUMH     0.000000        1.0080           0   0.00000   0.00000
     34853 MEOH     1917     MEOH     H1A      HDA3B    0.080000        1.0080           0   0.00000   0.00000
     34854 MEOH     1917     MEOH     H1B      HDA3B    0.080000        1.0080           0   0.00000   0.00000
     34855 MEOH     1917     MEOH     H1C      HDA3B    0.080000        1.0080           0   0.00000   0.00000
     34856 MEOH     1917     MEOH     LP1A     LPD     -0.230000        0.0000           -1   0.00000   0.00000
     34857 MEOH     1917     MEOH     LP1B     LPD     -0.230000        0.0000           -1   0.00000   0.00000
     34858 MEOH     1918     MEOH     C1       CD33B    2.314100       11.6110           0   -1.00000   1.30000
     34859 MEOH     1918     MEOH     DC1      DRUD    -2.454100        0.4000           0   0.00000   0.00000
     34860 MEOH     1918     MEOH     O1       OD31H    2.488300       15.5990           0   -1.02800   1.30000
     34861 MEOH     1918     MEOH     DO1      DRUD    -2.488300        0.4000           0   0.00000   0.00000
     34862 MEOH     1918     MEOH     HO1      HDP1A    0.360000        1.0080           0   0.00000   0.00000
     34863 MEOH     1918     MEOH     HO2      DUMH     0.000000        1.0080           0   0.00000   0.00000
     34864 MEOH     1918     MEOH     H1A      HDA3B    0.080000        1.0080           0   0.00000   0.00000
     34865 MEOH     1918     MEOH     H1B      HDA3B    0.080000        1.0080           0   0.00000   0.00000
     34866 MEOH     1918     MEOH     H1C      HDA3B    0.080000        1.0080           0   0.00000   0.00000
     34867 MEOH     1918     MEOH     LP1A     LPD     -0.230000        0.0000           -1   0.00000   0.00000
     34868 MEOH     1918     MEOH     LP1B     LPD     -0.230000        0.0000           -1   0.00000   0.00000
     34869 MEOH     1919     MEOH     C1       CD33B    2.314100       11.6110           0   -1.00000   1.30000
     34870 MEOH     1919     MEOH     DC1      DRUD    -2.454100        0.4000           0   0.00000   0.00000
     34871 MEOH     1919     MEOH     O1       OD31H    2.488300       15.5990           0   -1.02800   1.30000
     34872 MEOH     1919     MEOH     DO1      DRUD    -2.488300        0.4000           0   0.00000   0.00000
     34873 MEOH     1919     MEOH     HO1      HDP1A    0.360000        1.0080           0   0.00000   0.00000
     34874 MEOH     1919     MEOH     HO2      DUMH     0.000000        1.0080           0   0.00000   0.00000
     34875 MEOH     1919     MEOH     H1A      HDA3B    0.080000        1.0080           0   0.00000   0.00000
     34876 MEOH     1919     MEOH     H1B      HDA3B    0.080000        1.0080           0   0.00000   0.00000
     34877 MEOH     1919     MEOH     H1C      HDA3B    0.080000        1.0080           0   0.00000   0.00000
     34878 MEOH     1919     MEOH     LP1A     LPD     -0.230000        0.0000           -1   0.00000   0.00000
     34879 MEOH     1919     MEOH     LP1B     LPD     -0.230000        0.0000           -1   0.00000   0.00000
     34880 MEOH     1920     MEOH     C1       CD33B    2.314100       11.6110           0   -1.00000   1.30000
     34881 MEOH     1920     MEOH     DC1      DRUD    -2.454100        0.4000           0   0.00000   0.00000
     34882 MEOH     1920     MEOH     O1       OD31H    2.488300       15.5990           0   -1.02800   1.30000
     34883 MEOH     1920     MEOH     DO1      DRUD    -2.488300        0.4000           0   0.00000   0.00000
     34884 MEOH     1920     MEOH     HO1      HDP1A    0.360000        1.0080           0   0.00000   0.00000
     34885 MEOH     1920     MEOH     HO2      DUMH     0.000000        1.0080           0   0.00000   0.00000
     34886 MEOH     1920     MEOH     H1A      HDA3B    0.080000        1.0080           0   0.00000   0.00000
     34887 MEOH     1920     MEOH     H1B      HDA3B    0.080000        1.0080           0   0.00000   0.00000
     34888 MEOH     1920     MEOH     H1C      HDA3B    0.080000        1.0080           0   0.00000   0.00000
     34889 MEOH     1920     MEOH     LP1A     LPD     -0.230000        0.0000           -1   0.00000   0.00000
     34890 MEOH     1920     MEOH     LP1B     LPD     -0.230000        0.0000           -1   0.00000   0.00000
     34891 MEOH     1921     MEOH     C1       CD33B    2.314100       11.6110           0   -1.00000   1.30000
     34892 MEOH     1921     MEOH     DC1      DRUD    -2.454100        0.4000           0   0.00000   0.00000
     34893 MEOH     1921     MEOH     O1       OD31H    2.488300       15.5990           0   -1.02800   1.30000
     34894 MEOH     1921     MEOH     DO1      DRUD    -2.488300        0.4000           0   0.00000   0.00000
     34895 MEOH     1921     MEOH     HO1      HDP1A    0.360000        1.0080           0   0.00000   0.00000
     34896 MEOH     1921     MEOH     HO2      DUMH     0.000000        1.0080           0   0.00000   0.00000
     34897 MEOH     1921     MEOH     H1A      HDA3B    0.080000        1.0080           0   0.00000   0.00000
     34898 MEOH     1921     MEOH     H1B      HDA3B    0.080000        1.0080           0   0.00000   0.00000
     34899 MEOH     1921     MEOH     H1C      HDA3B    0.080000        1.0080           0   0.00000   0.00000
     34900 MEOH     1921     MEOH     LP1A     LPD     -0.230000        0.0000           -1   0.00000   0.00000
     34901 MEOH     1921     MEOH     LP1B     LPD     -0.230000        0.0000           -1   0.00000   0.00000
     34902 MEOH     1922     MEOH     C1       CD33B    2.314100       11.6110           0   -1.00000   1.30000
     34903 MEOH     1922     MEOH     DC1      DRUD    -2.454100        0.4000           0   0.00000   0.00000
     34904 MEOH     1922     MEOH     O1       OD31H    2.488300       15.5990           0   -1.02800   1.30000
     34905 MEOH     1922     MEOH     DO1      DRUD    -2.488300        0.4000           0   0.00000   0.00000
     34906 MEOH     1922     MEOH     HO1      HDP1A    0.360000        1.0080           0   0.00000   0.00000
     34907 MEOH     1922     MEOH     HO2      DUMH     0.000000        1.0080           0   0.00000   0.00000
     34908 MEOH     1922     MEOH     H1A      HDA3B    0.080000        1.0080           0   0.00000   0.00000
     34909 MEOH     1922     MEOH     H1B      HDA3B    0.080000        1.0080           0   0.00000   0.00000
     34910 MEOH     1922     MEOH     H1C      HDA3B    0.080000        1.0080           0   0.00000   0.00000
     34911 MEOH     1922     MEOH     LP1A     LPD     -0.230000        0.0000           -1   0.00000   0.00000
     34912 MEOH     1922     MEOH     LP1B     LPD     -0.230000        0.0000           -1   0.00000   0.00000
     34913 MEOH     1923     MEOH     C1       CD33B    2.314100       11.6110           0   -1.00000   1.30000
     34914 MEOH     1923     MEOH     DC1      DRUD    -2.454100        0.4000           0   0.00000   0.00000
     34915 MEOH     1923     MEOH     O1       OD31H    2.488300       15.5990           0   -1.02800   1.30000
     34916 MEOH     1923     MEOH     DO1      DRUD    -2.488300        0.4000           0   0.00000   0.00000
     34917 MEOH     1923     MEOH     HO1      HDP1A    0.360000        1.0080           0   0.00000   0.00000
     34918 MEOH     1923     MEOH     HO2      DUMH     0.000000        1.0080           0   0.00000   0.00000
     34919 MEOH     1923     MEOH     H1A      HDA3B    0.080000        1.0080           0   0.00000   0.00000
     34920 MEOH     1923     MEOH     H1B      HDA3B    0.080000        1.0080           0   0.00000   0.00000
     34921 MEOH     1923     MEOH     H1C      HDA3B    0.080000        1.0080           0   0.00000   0.00000
     34922 MEOH     1923     MEOH     LP1A     LPD     -0.230000        0.0000           -1   0.00000   0.00000
     34923 MEOH     1923     MEOH     LP1B     LPD     -0.230000        0.0000           -1   0.00000   0.00000
     34924 MEOH     1924     MEOH     C1       CD33B    2.314100       11.6110           0   -1.00000   1.30000
     34925 MEOH     1924     MEOH     DC1      DRUD    -2.454100        0.4000           0   0.00000   0.00000
     34926 MEOH     1924     MEOH     O1       OD31H    2.488300       15.5990           0   -1.02800   1.30000
     34927 MEOH     1924     MEOH     DO1      DRUD    -2.488300        0.4000           0   0.00000   0.00000
     34928 MEOH     1924     MEOH     HO1      HDP1A    0.360000        1.0080           0   0.00000   0.00000
     34929 MEOH     1924     MEOH     HO2      DUMH     0.000000        1.0080           0   0.00000   0.00000
     34930 MEOH     1924     MEOH     H1A      HDA3B    0.080000        1.0080           0   0.00000   0.00000
     34931 MEOH     1924     MEOH     H1B      HDA3B    0.080000        1.0080           0   0.00000   0.00000
     34932 MEOH     1924     MEOH     H1C      HDA3B    0.080000        1.0080           0   0.00000   0.00000
     34933 MEOH     1924     MEOH     LP1A     LPD     -0.230000        0.0000           -1   0.00000   0.00000
     34934 MEOH     1924     MEOH     LP1B     LPD     -0.230000        0.0000           -1   0.00000   0.00000
     34935 MEOH     1925     MEOH     C1       CD33B    2.314100       11.6110           0   -1.00000   1.30000
     34936 MEOH     1925     MEOH     DC1      DRUD    -2.454100        0.4000           0   0.00000   0.00000
     34937 MEOH     1925     MEOH     O1       OD31H    2.488300       15.5990           0   -1.02800   1.30000
     34938 MEOH     1925     MEOH     DO1      DRUD    -2.488300        0.4000           0   0.00000   0.00000
     34939 MEOH     1925     MEOH     HO1      HDP1A    0.360000        1.0080           0   0.00000   0.00000
     34940 MEOH     1925     MEOH     HO2      DUMH     0.000000        1.0080           0   0.00000   0.00000
     34941 MEOH     1925     MEOH     H1A      HDA3B    0.080000        1.0080           0   0.00000   0.00000
     34942 MEOH     1925     MEOH     H1B      HDA3B    0.080000        1.0080           0   0.00000   0.00000
     34943 MEOH     1925     MEOH     H1C      HDA3B    0.080000        1.0080           0   0.00000   0.00000
     34944 MEOH     1925     MEOH     LP1A     LPD     -0.230000        0.0000           -1   0.00000   0.00000
     34945 MEOH     1925     MEOH     LP1B     LPD     -0.230000        0.0000           -1   0.00000   0.00000
     34946 MEOH     1926     MEOH     C1       CD33B    2.314100       11.6110           0   -1.00000   1.30000
     34947 MEOH     1926     MEOH     DC1      DRUD    -2.454100        0.4000           0   0.00000   0.00000
     34948 MEOH     1926     MEOH     O1       OD31H    2.488300       15.5990           0   -1.02800   1.30000
     34949 MEOH     1926     MEOH     DO1      DRUD    -2.488300        0.4000           0   0.00000   0.00000
     34950 MEOH     1926     MEOH     HO1      HDP1A    0.360000        1.0080           0   0.00000   0.00000
     34951 MEOH     1926     MEOH     HO2      DUMH     0.000000        1.0080           0   0.00000   0.00000
     34952 MEOH     1926     MEOH     H1A      HDA3B    0.080000        1.0080           0   0.00000   0.00000
     34953 MEOH     1926     MEOH     H1B      HDA3B    0.080000        1.0080           0   0.00000   0.00000
     34954 MEOH     1926     MEOH     H1C      HDA3B    0.080000        1.0080           0   0.00000   0.00000
     34955 MEOH     1926     MEOH     LP1A     LPD     -0.230000        0.0000           -1   0.00000   0.00000
     34956 MEOH     1926     MEOH     LP1B     LPD     -0.230000        0.0000           -1   0.00000   0.00000
     34957 MEOH     1927     MEOH     C1       CD33B    2.314100       11.6110           0   -1.00000   1.30000
     34958 MEOH     1927     MEOH     DC1      DRUD    -2.454100        0.4000           0   0.00000   0.00000
     34959 MEOH     1927     MEOH     O1       OD31H    2.488300       15.5990           0   -1.02800   1.30000
     34960 MEOH     1927     MEOH     DO1      DRUD    -2.488300        0.4000           0   0.00000   0.00000
     34961 MEOH     1927     MEOH     HO1      HDP1A    0.360000        1.0080           0   0.00000   0.00000
     34962 MEOH     1927     MEOH     HO2      DUMH     0.000000        1.0080           0   0.00000   0.00000
     34963 MEOH     1927     MEOH     H1A      HDA3B    0.080000        1.0080           0   0.00000   0.00000
     34964 MEOH     1927     MEOH     H1B      HDA3B    0.080000        1.0080           0   0.00000   0.00000
     34965 MEOH     1927     MEOH     H1C      HDA3B    0.080000        1.0080           0   0.00000   0.00000
     34966 MEOH     1927     MEOH     LP1A     LPD     -0.230000        0.0000           -1   0.00000   0.00000
     34967 MEOH     1927     MEOH     LP1B     LPD     -0.230000        0.0000           -1   0.00000   0.00000
     34968 MEOH     1928     MEOH     C1       CD33B    2.314100       11.6110           0   -1.00000   1.30000
     34969 MEOH     1928     MEOH     DC1      DRUD    -2.454100        0.4000           0   0.00000   0.00000
     34970 MEOH     1928     MEOH     O1       OD31H    2.488300       15.5990           0   -1.02800   1.30000
     34971 MEOH     1928     MEOH     DO1      DRUD    -2.488300        0.4000           0   0.00000   0.00000
     34972 MEOH     1928     MEOH     HO1      HDP1A    0.360000        1.0080           0   0.00000   0.00000
     34973 MEOH     1928     MEOH     HO2      DUMH     0.000000        1.0080           0   0.00000   0.00000
     34974 MEOH     1928     MEOH     H1A      HDA3B    0.080000        1.0080           0   0.00000   0.00000
     34975 MEOH     1928     MEOH     H1B      HDA3B    0.080000        1.0080           0   0.00000   0.00000
     34976 MEOH     1928     MEOH     H1C      HDA3B    0.080000        1.0080           0   0.00000   0.00000
     34977 MEOH     1928     MEOH     LP1A     LPD     -0.230000        0.0000           -1   0.00000   0.00000
     34978 MEOH     1928     MEOH     LP1B     LPD     -0.230000        0.0000           -1   0.00000   0.00000
     34979 MEOH     1929     MEOH     C1       CD33B    2.314100       11.6110           0   -1.00000   1.30000
     34980 MEOH     1929     MEOH     DC1      DRUD    -2.454100        0.4000           0   0.00000   0.00000
     34981 MEOH     1929     MEOH     O1       OD31H    2.488300       15.5990           0   -1.02800   1.30000
     34982 MEOH     1929     MEOH     DO1      DRUD    -2.488300        0.4000           0   0.00000   0.00000
     34983 MEOH     1929     MEOH     HO1      HDP1A    0.360000        1.0080           0   0.00000   0.00000
     34984 MEOH     1929     MEOH     HO2      DUMH     0.000000        1.0080           0   0.00000   0.00000
     34985 MEOH     1929     MEOH     H1A      HDA3B    0.080000        1.0080           0   0.00000   0.00000
     34986 MEOH     1929     MEOH     H1B      HDA3B    0.080000        1.0080           0   0.00000   0.00000
     34987 MEOH     1929     MEOH     H1C      HDA3B    0.080000        1.0080           0   0.00000   0.00000
     34988 MEOH     1929     MEOH     LP1A     LPD     -0.230000        0.0000           -1   0.00000   0.00000
     34989 MEOH     1929     MEOH     LP1B     LPD     -0.230000        0.0000           -1   0.00000   0.00000
     34990 MEOH     1930     MEOH     C1       CD33B    2.314100       11.6110           0   -1.00000   1.30000
     34991 MEOH     1930     MEOH     DC1      DRUD    -2.454100        0.4000           0   0.00000   0.00000
     34992 MEOH     1930     MEOH     O1       OD31H    2.488300       15.5990           0   -1.02800   1.30000
     34993 MEOH     1930     MEOH     DO1      DRUD    -2.488300        0.4000           0   0.00000   0.00000
     34994 MEOH     1930     MEOH     HO1      HDP1A    0.360000        1.0080           0   0.00000   0.00000
     34995 MEOH     1930     MEOH     HO2      DUMH     0.000000        1.0080           0   0.00000   0.00000
     34996 MEOH     1930     MEOH     H1A      HDA3B    0.080000        1.0080           0   0.00000   0.00000
     34997 MEOH     1930     MEOH     H1B      HDA3B    0.080000        1.0080           0   0.00000   0.00000
     34998 MEOH     1930     MEOH     H1C      HDA3B    0.080000        1.0080           0   0.00000   0.00000
     34999 MEOH     1930     MEOH     LP1A     LPD     -0.230000        0.0000           -1   0.00000   0.00000
     35000 MEOH     1930     MEOH     LP1B     LPD     -0.230000        0.0000           -1   0.00000   0.00000
     35001 MEOH     1931     MEOH     C1       CD33B    2.314100       11.6110           0   -1.00000   1.30000
     35002 MEOH     1931     MEOH     DC1      DRUD    -2.454100        0.4000           0   0.00000   0.00000
     35003 MEOH     1931     MEOH     O1       OD31H    2.488300       15.5990           0   -1.02800   1.30000
     35004 MEOH     1931     MEOH     DO1      DRUD    -2.488300        0.4000           0   0.00000   0.00000
     35005 MEOH     1931     MEOH     HO1      HDP1A    0.360000        1.0080           0   0.00000   0.00000
     35006 MEOH     1931     MEOH     HO2      DUMH     0.000000        1.0080           0   0.00000   0.00000
     35007 MEOH     1931     MEOH     H1A      HDA3B    0.080000        1.0080           0   0.00000   0.00000
     35008 MEOH     1931     MEOH     H1B      HDA3B    0.080000        1.0080           0   0.00000   0.00000
     35009 MEOH     1931     MEOH     H1C      HDA3B    0.080000        1.0080           0   0.00000   0.00000
     35010 MEOH     1931     MEOH     LP1A     LPD     -0.230000        0.0000           -1   0.00000   0.00000
     35011 MEOH     1931     MEOH     LP1B     LPD     -0.230000        0.0000           -1   0.00000   0.00000
     35012 MEOH     1932     MEOH     C1       CD33B    2.314100       11.6110           0   -1.00000   1.30000
     35013 MEOH     1932     MEOH     DC1      DRUD    -2.454100        0.4000           0   0.00000   0.00000
     35014 MEOH     1932     MEOH     O1       OD31H    2.488300       15.5990           0   -1.02800   1.30000
     35015 MEOH     1932     MEOH     DO1      DRUD    -2.488300        0.4000           0   0.00000   0.00000
     35016 MEOH     1932     MEOH     HO1      HDP1A    0.360000        1.0080           0   0.00000   0.00000
     35017 MEOH     1932     MEOH     HO2      DUMH     0.000000        1.0080           0   0.00000   0.00000
     35018 MEOH     1932     MEOH     H1A      HDA3B    0.080000        1.0080           0   0.00000   0.00000
     35019 MEOH     1932     MEOH     H1B      HDA3B    0.080000        1.0080           0   0.00000   0.00000
     35020 MEOH     1932     MEOH     H1C      HDA3B    0.080000        1.0080           0   0.00000   0.00000
     35021 MEOH     1932     MEOH     LP1A     LPD     -0.230000        0.0000           -1   0.00000   0.00000
     35022 MEOH     1932     MEOH     LP1B     LPD     -0.230000        0.0000           -1   0.00000   0.00000
     35023 MEOH     1933     MEOH     C1       CD33B    2.314100       11.6110           0   -1.00000   1.30000
     35024 MEOH     1933     MEOH     DC1      DRUD    -2.454100        0.4000           0   0.00000   0.00000
     35025 MEOH     1933     MEOH     O1       OD31H    2.488300       15.5990           0   -1.02800   1.30000
     35026 MEOH     1933     MEOH     DO1      DRUD    -2.488300        0.4000           0   0.00000   0.00000
     35027 MEOH     1933     MEOH     HO1      HDP1A    0.360000        1.0080           0   0.00000   0.00000
     35028 MEOH     1933     MEOH     HO2      DUMH     0.000000        1.0080           0   0.00000   0.00000
     35029 MEOH     1933     MEOH     H1A      HDA3B    0.080000        1.0080           0   0.00000   0.00000
     35030 MEOH     1933     MEOH     H1B      HDA3B    0.080000        1.0080           0   0.00000   0.00000
     35031 MEOH     1933     MEOH     H1C      HDA3B    0.080000        1.0080           0   0.00000   0.00000
     35032 MEOH     1933     MEOH     LP1A     LPD     -0.230000        0.0000           -1   0.00000   0.00000
     35033 MEOH     1933     MEOH     LP1B     LPD     -0.230000        0.0000           -1   0.00000   0.00000
     35034 MEOH     1934     MEOH     C1       CD33B    2.314100       11.6110           0   -1.00000   1.30000
     35035 MEOH     1934     MEOH     DC1      DRUD    -2.454100        0.4000           0   0.00000   0.00000
     35036 MEOH     1934     MEOH     O1       OD31H    2.488300       15.5990           0   -1.02800   1.30000
     35037 MEOH     1934     MEOH     DO1      DRUD    -2.488300        0.4000           0   0.00000   0.00000
     35038 MEOH     1934     MEOH     HO1      HDP1A    0.360000        1.0080           0   0.00000   0.00000
     35039 MEOH     1934     MEOH     HO2      DUMH     0.000000        1.0080           0   0.00000   0.00000
     35040 MEOH     1934     MEOH     H1A      HDA3B    0.080000        1.0080           0   0.00000   0.00000
     35041 MEOH     1934     MEOH     H1B      HDA3B    0.080000        1.0080           0   0.00000   0.00000
     35042 MEOH     1934     MEOH     H1C      HDA3B    0.080000        1.0080           0   0.00000   0.00000
     35043 MEOH     1934     MEOH     LP1A     LPD     -0.230000        0.0000           -1   0.00000   0.00000
     35044 MEOH     1934     MEOH     LP1B     LPD     -0.230000        0.0000           -1   0.00000   0.00000
     35045 MEOH     1935     MEOH     C1       CD33B    2.314100       11.6110           0   -1.00000   1.30000
     35046 MEOH     1935     MEOH     DC1      DRUD    -2.454100        0.4000           0   0.00000   0.00000
     35047 MEOH     1935     MEOH     O1       OD31H    2.488300       15.5990           0   -1.02800   1.30000
     35048 MEOH     1935     MEOH     DO1      DRUD    -2.488300        0.4000           0   0.00000   0.00000
     35049 MEOH     1935     MEOH     HO1      HDP1A    0.360000        1.0080           0   0.00000   0.00000
     35050 MEOH     1935     MEOH     HO2      DUMH     0.000000        1.0080           0   0.00000   0.00000
     35051 MEOH     1935     MEOH     H1A      HDA3B    0.080000        1.0080           0   0.00000   0.00000
     35052 MEOH     1935     MEOH     H1B      HDA3B    0.080000        1.0080           0   0.00000   0.00000
     35053 MEOH     1935     MEOH     H1C      HDA3B    0.080000        1.0080           0   0.00000   0.00000
     35054 MEOH     1935     MEOH     LP1A     LPD     -0.230000        0.0000           -1   0.00000   0.00000
     35055 MEOH     1935     MEOH     LP1B     LPD     -0.230000        0.0000           -1   0.00000   0.00000
     35056 MEOH     1936     MEOH     C1       CD33B    2.314100       11.6110           0   -1.00000   1.30000
     35057 MEOH     1936     MEOH     DC1      DRUD    -2.454100        0.4000           0   0.00000   0.00000
     35058 MEOH     1936     MEOH     O1       OD31H    2.488300       15.5990           0   -1.02800   1.30000
     35059 MEOH     1936     MEOH     DO1      DRUD    -2.488300        0.4000           0   0.00000   0.00000
     35060 MEOH     1936     MEOH     HO1      HDP1A    0.360000        1.0080           0   0.00000   0.00000
     35061 MEOH     1936     MEOH     HO2      DUMH     0.000000        1.0080           0   0.00000   0.00000
     35062 MEOH     1936     MEOH     H1A      HDA3B    0.080000        1.0080           0   0.00000   0.00000
     35063 MEOH     1936     MEOH     H1B      HDA3B    0.080000        1.0080           0   0.00000   0.00000
     35064 MEOH     1936     MEOH     H1C      HDA3B    0.080000        1.0080           0   0.00000   0.00000
     35065 MEOH     1936     MEOH     LP1A     LPD     -0.230000        0.0000           -1   0.00000   0.00000
     35066 MEOH     1936     MEOH     LP1B     LPD     -0.230000        0.0000           -1   0.00000   0.00000
     35067 MEOH     1937     MEOH     C1       CD33B    2.314100       11.6110           0   -1.00000   1.30000
     35068 MEOH     1937     MEOH     DC1      DRUD    -2.454100        0.4000           0   0.00000   0.00000
     35069 MEOH     1937     MEOH     O1       OD31H    2.488300       15.5990           0   -1.02800   1.30000
     35070 MEOH     1937     MEOH     DO1      DRUD    -2.488300        0.4000           0   0.00000   0.00000
     35071 MEOH     1937     MEOH     HO1      HDP1A    0.360000        1.0080           0   0.00000   0.00000
     35072 MEOH     1937     MEOH     HO2      DUMH     0.000000        1.0080           0   0.00000   0.00000
     35073 MEOH     1937     MEOH     H1A      HDA3B    0.080000        1.0080           0   0.00000   0.00000
     35074 MEOH     1937     MEOH     H1B      HDA3B    0.080000        1.0080           0   0.00000   0.00000
     35075 MEOH     1937     MEOH     H1C      HDA3B    0.080000        1.0080           0   0.00000   0.00000
     35076 MEOH     1937     MEOH     LP1A     LPD     -0.230000        0.0000           -1   0.00000   0.00000
     35077 MEOH     1937     MEOH     LP1B     LPD     -0.230000        0.0000           -1   0.00000   0.00000
     35078 MEOH     1938     MEOH     C1       CD33B    2.314100       11.6110           0   -1.00000   1.30000
     35079 MEOH     1938     MEOH     DC1      DRUD    -2.454100        0.4000           0   0.00000   0.00000
     35080 MEOH     1938     MEOH     O1       OD31H    2.488300       15.5990           0   -1.02800   1.30000
     35081 MEOH     1938     MEOH     DO1      DRUD    -2.488300        0.4000           0   0.00000   0.00000
     35082 MEOH     1938     MEOH     HO1      HDP1A    0.360000        1.0080           0   0.00000   0.00000
     35083 MEOH     1938     MEOH     HO2      DUMH     0.000000        1.0080           0   0.00000   0.00000
     35084 MEOH     1938     MEOH     H1A      HDA3B    0.080000        1.0080           0   0.00000   0.00000
     35085 MEOH     1938     MEOH     H1B      HDA3B    0.080000        1.0080           0   0.00000   0.00000
     35086 MEOH     1938     MEOH     H1C      HDA3B    0.080000        1.0080           0   0.00000   0.00000
     35087 MEOH     1938     MEOH     LP1A     LPD     -0.230000        0.0000           -1   0.00000   0.00000
     35088 MEOH     1938     MEOH     LP1B     LPD     -0.230000        0.0000           -1   0.00000   0.00000
     35089 MEOH     1939     MEOH     C1       CD33B    2.314100       11.6110           0   -1.00000   1.30000
     35090 MEOH     1939     MEOH     DC1      DRUD    -2.454100        0.4000           0   0.00000   0.00000
     35091 MEOH     1939     MEOH     O1       OD31H    2.488300       15.5990           0   -1.02800   1.30000
     35092 MEOH     1939     MEOH     DO1      DRUD    -2.488300        0.4000           0   0.00000   0.00000
     35093 MEOH     1939     MEOH     HO1      HDP1A    0.360000        1.0080           0   0.00000   0.00000
     35094 MEOH     1939     MEOH     HO2      DUMH     0.000000        1.0080           0   0.00000   0.00000
     35095 MEOH     1939     MEOH     H1A      HDA3B    0.080000        1.0080           0   0.00000   0.00000
     35096 MEOH     1939     MEOH     H1B      HDA3B    0.080000        1.0080           0   0.00000   0.00000
     35097 MEOH     1939     MEOH     H1C      HDA3B    0.080000        1.0080           0   0.00000   0.00000
     35098 MEOH     1939     MEOH     LP1A     LPD     -0.230000        0.0000           -1   0.00000   0.00000
     35099 MEOH     1939     MEOH     LP1B     LPD     -0.230000        0.0000           -1   0.00000   0.00000
     35100 MEOH     1940     MEOH     C1       CD33B    2.314100       11.6110           0   -1.00000   1.30000
     35101 MEOH     1940     MEOH     DC1      DRUD    -2.454100        0.4000           0   0.00000   0.00000
     35102 MEOH     1940     MEOH     O1       OD31H    2.488300       15.5990           0   -1.02800   1.30000
     35103 MEOH     1940     MEOH     DO1      DRUD    -2.488300        0.4000           0   0.00000   0.00000
     35104 MEOH     1940     MEOH     HO1      HDP1A    0.360000        1.0080           0   0.00000   0.00000
     35105 MEOH     1940     MEOH     HO2      DUMH     0.000000        1.0080           0   0.00000   0.00000
     35106 MEOH     1940     MEOH     H1A      HDA3B    0.080000        1.0080           0   0.00000   0.00000
     35107 MEOH     1940     MEOH     H1B      HDA3B    0.080000        1.0080           0   0.00000   0.00000
     35108 MEOH     1940     MEOH     H1C      HDA3B    0.080000        1.0080           0   0.00000   0.00000
     35109 MEOH     1940     MEOH     LP1A     LPD     -0.230000        0.0000           -1   0.00000   0.00000
     35110 MEOH     1940     MEOH     LP1B     LPD     -0.230000        0.0000           -1   0.00000   0.00000
     35111 MEOH     1941     MEOH     C1       CD33B    2.314100       11.6110           0   -1.00000   1.30000
     35112 MEOH     1941     MEOH     DC1      DRUD    -2.454100        0.4000           0   0.00000   0.00000
     35113 MEOH     1941     MEOH     O1       OD31H    2.488300       15.5990           0   -1.02800   1.30000
     35114 MEOH     1941     MEOH     DO1      DRUD    -2.488300        0.4000           0   0.00000   0.00000
     35115 MEOH     1941     MEOH     HO1      HDP1A    0.360000        1.0080           0   0.00000   0.00000
     35116 MEOH     1941     MEOH     HO2      DUMH     0.000000        1.0080           0   0.00000   0.00000
     35117 MEOH     1941     MEOH     H1A      HDA3B    0.080000        1.0080           0   0.00000   0.00000
     35118 MEOH     1941     MEOH     H1B      HDA3B    0.080000        1.0080           0   0.00000   0.00000
     35119 MEOH     1941     MEOH     H1C      HDA3B    0.080000        1.0080           0   0.00000   0.00000
     35120 MEOH     1941     MEOH     LP1A     LPD     -0.230000        0.0000           -1   0.00000   0.00000
     35121 MEOH     1941     MEOH     LP1B     LPD     -0.230000        0.0000           -1   0.00000   0.00000
     35122 MEOH     1942     MEOH     C1       CD33B    2.314100       11.6110           0   -1.00000   1.30000
     35123 MEOH     1942     MEOH     DC1      DRUD    -2.454100        0.4000           0   0.00000   0.00000
     35124 MEOH     1942     MEOH     O1       OD31H    2.488300       15.5990           0   -1.02800   1.30000
     35125 MEOH     1942     MEOH     DO1      DRUD    -2.488300        0.4000           0   0.00000   0.00000
     35126 MEOH     1942     MEOH     HO1      HDP1A    0.360000        1.0080           0   0.00000   0.00000
     35127 MEOH     1942     MEOH     HO2      DUMH     0.000000        1.0080           0   0.00000   0.00000
     35128 MEOH     1942     MEOH     H1A      HDA3B    0.080000        1.0080           0   0.00000   0.00000
     35129 MEOH     1942     MEOH     H1B      HDA3B    0.080000        1.0080           0   0.00000   0.00000
     35130 MEOH     1942     MEOH     H1C      HDA3B    0.080000        1.0080           0   0.00000   0.00000
     35131 MEOH     1942     MEOH     LP1A     LPD     -0.230000        0.0000           -1   0.00000   0.00000
     35132 MEOH     1942     MEOH     LP1B     LPD     -0.230000        0.0000           -1   0.00000   0.00000
     35133 MEOH     1943     MEOH     C1       CD33B    2.314100       11.6110           0   -1.00000   1.30000
     35134 MEOH     1943     MEOH     DC1      DRUD    -2.454100        0.4000           0   0.00000   0.00000
     35135 MEOH     1943     MEOH     O1       OD31H    2.488300       15.5990           0   -1.02800   1.30000
     35136 MEOH     1943     MEOH     DO1      DRUD    -2.488300        0.4000           0   0.00000   0.00000
     35137 MEOH     1943     MEOH     HO1      HDP1A    0.360000        1.0080           0   0.00000   0.00000
     35138 MEOH     1943     MEOH     HO2      DUMH     0.000000        1.0080           0   0.00000   0.00000
     35139 MEOH     1943     MEOH     H1A      HDA3B    0.080000        1.0080           0   0.00000   0.00000
     35140 MEOH     1943     MEOH     H1B      HDA3B    0.080000        1.0080           0   0.00000   0.00000
     35141 MEOH     1943     MEOH     H1C      HDA3B    0.080000        1.0080           0   0.00000   0.00000
     35142 MEOH     1943     MEOH     LP1A     LPD     -0.230000        0.0000           -1   0.00000   0.00000
     35143 MEOH     1943     MEOH     LP1B     LPD     -0.230000        0.0000           -1   0.00000   0.00000
     35144 MEOH     1944     MEOH     C1       CD33B    2.314100       11.6110           0   -1.00000   1.30000
     35145 MEOH     1944     MEOH     DC1      DRUD    -2.454100        0.4000           0   0.00000   0.00000
     35146 MEOH     1944     MEOH     O1       OD31H    2.488300       15.5990           0   -1.02800   1.30000
     35147 MEOH     1944     MEOH     DO1      DRUD    -2.488300        0.4000           0   0.00000   0.00000
     35148 MEOH     1944     MEOH     HO1      HDP1A    0.360000        1.0080           0   0.00000   0.00000
     35149 MEOH     1944     MEOH     HO2      DUMH     0.000000        1.0080           0   0.00000   0.00000
     35150 MEOH     1944     MEOH     H1A      HDA3B    0.080000        1.0080           0   0.00000   0.00000
     35151 MEOH     1944     MEOH     H1B      HDA3B    0.080000        1.0080           0   0.00000   0.00000
     35152 MEOH     1944     MEOH     H1C      HDA3B    0.080000        1.0080           0   0.00000   0.00000
     35153 MEOH     1944     MEOH     LP1A     LPD     -0.230000        0.0000           -1   0.00000   0.00000
     35154 MEOH     1944     MEOH     LP1B     LPD     -0.230000        0.0000           -1   0.00000   0.00000
     35155 MEOH     1945     MEOH     C1       CD33B    2.314100       11.6110           0   -1.00000   1.30000
     35156 MEOH     1945     MEOH     DC1      DRUD    -2.454100        0.4000           0   0.00000   0.00000
     35157 MEOH     1945     MEOH     O1       OD31H    2.488300       15.5990           0   -1.02800   1.30000
     35158 MEOH     1945     MEOH     DO1      DRUD    -2.488300        0.4000           0   0.00000   0.00000
     35159 MEOH     1945     MEOH     HO1      HDP1A    0.360000        1.0080           0   0.00000   0.00000
     35160 MEOH     1945     MEOH     HO2      DUMH     0.000000        1.0080           0   0.00000   0.00000
     35161 MEOH     1945     MEOH     H1A      HDA3B    0.080000        1.0080           0   0.00000   0.00000
     35162 MEOH     1945     MEOH     H1B      HDA3B    0.080000        1.0080           0   0.00000   0.00000
     35163 MEOH     1945     MEOH     H1C      HDA3B    0.080000        1.0080           0   0.00000   0.00000
     35164 MEOH     1945     MEOH     LP1A     LPD     -0.230000        0.0000           -1   0.00000   0.00000
     35165 MEOH     1945     MEOH     LP1B     LPD     -0.230000        0.0000           -1   0.00000   0.00000
     35166 MEOH     1946     MEOH     C1       CD33B    2.314100       11.6110           0   -1.00000   1.30000
     35167 MEOH     1946     MEOH     DC1      DRUD    -2.454100        0.4000           0   0.00000   0.00000
     35168 MEOH     1946     MEOH     O1       OD31H    2.488300       15.5990           0   -1.02800   1.30000
     35169 MEOH     1946     MEOH     DO1      DRUD    -2.488300        0.4000           0   0.00000   0.00000
     35170 MEOH     1946     MEOH     HO1      HDP1A    0.360000        1.0080           0   0.00000   0.00000
     35171 MEOH     1946     MEOH     HO2      DUMH     0.000000        1.0080           0   0.00000   0.00000
     35172 MEOH     1946     MEOH     H1A      HDA3B    0.080000        1.0080           0   0.00000   0.00000
     35173 MEOH     1946     MEOH     H1B      HDA3B    0.080000        1.0080           0   0.00000   0.00000
     35174 MEOH     1946     MEOH     H1C      HDA3B    0.080000        1.0080           0   0.00000   0.00000
     35175 MEOH     1946     MEOH     LP1A     LPD     -0.230000        0.0000           -1   0.00000   0.00000
     35176 MEOH     1946     MEOH     LP1B     LPD     -0.230000        0.0000           -1   0.00000   0.00000
     35177 MEOH     1947     MEOH     C1       CD33B    2.314100       11.6110           0   -1.00000   1.30000
     35178 MEOH     1947     MEOH     DC1      DRUD    -2.454100        0.4000           0   0.00000   0.00000
     35179 MEOH     1947     MEOH     O1       OD31H    2.488300       15.5990           0   -1.02800   1.30000
     35180 MEOH     1947     MEOH     DO1      DRUD    -2.488300        0.4000           0   0.00000   0.00000
     35181 MEOH     1947     MEOH     HO1      HDP1A    0.360000        1.0080           0   0.00000   0.00000
     35182 MEOH     1947     MEOH     HO2      DUMH     0.000000        1.0080           0   0.00000   0.00000
     35183 MEOH     1947     MEOH     H1A      HDA3B    0.080000        1.0080           0   0.00000   0.00000
     35184 MEOH     1947     MEOH     H1B      HDA3B    0.080000        1.0080           0   0.00000   0.00000
     35185 MEOH     1947     MEOH     H1C      HDA3B    0.080000        1.0080           0   0.00000   0.00000
     35186 MEOH     1947     MEOH     LP1A     LPD     -0.230000        0.0000           -1   0.00000   0.00000
     35187 MEOH     1947     MEOH     LP1B     LPD     -0.230000        0.0000           -1   0.00000   0.00000
     35188 MEOH     1948     MEOH     C1       CD33B    2.314100       11.6110           0   -1.00000   1.30000
     35189 MEOH     1948     MEOH     DC1      DRUD    -2.454100        0.4000           0   0.00000   0.00000
     35190 MEOH     1948     MEOH     O1       OD31H    2.488300       15.5990           0   -1.02800   1.30000
     35191 MEOH     1948     MEOH     DO1      DRUD    -2.488300        0.4000           0   0.00000   0.00000
     35192 MEOH     1948     MEOH     HO1      HDP1A    0.360000        1.0080           0   0.00000   0.00000
     35193 MEOH     1948     MEOH     HO2      DUMH     0.000000        1.0080           0   0.00000   0.00000
     35194 MEOH     1948     MEOH     H1A      HDA3B    0.080000        1.0080           0   0.00000   0.00000
     35195 MEOH     1948     MEOH     H1B      HDA3B    0.080000        1.0080           0   0.00000   0.00000
     35196 MEOH     1948     MEOH     H1C      HDA3B    0.080000        1.0080           0   0.00000   0.00000
     35197 MEOH     1948     MEOH     LP1A     LPD     -0.230000        0.0000           -1   0.00000   0.00000
     35198 MEOH     1948     MEOH     LP1B     LPD     -0.230000        0.0000           -1   0.00000   0.00000
     35199 MEOH     1949     MEOH     C1       CD33B    2.314100       11.6110           0   -1.00000   1.30000
     35200 MEOH     1949     MEOH     DC1      DRUD    -2.454100        0.4000           0   0.00000   0.00000
     35201 MEOH     1949     MEOH     O1       OD31H    2.488300       15.5990           0   -1.02800   1.30000
     35202 MEOH     1949     MEOH     DO1      DRUD    -2.488300        0.4000           0   0.00000   0.00000
     35203 MEOH     1949     MEOH     HO1      HDP1A    0.360000        1.0080           0   0.00000   0.00000
     35204 MEOH     1949     MEOH     HO2      DUMH     0.000000        1.0080           0   0.00000   0.00000
     35205 MEOH     1949     MEOH     H1A      HDA3B    0.080000        1.0080           0   0.00000   0.00000
     35206 MEOH     1949     MEOH     H1B      HDA3B    0.080000        1.0080           0   0.00000   0.00000
     35207 MEOH     1949     MEOH     H1C      HDA3B    0.080000        1.0080           0   0.00000   0.00000
     35208 MEOH     1949     MEOH     LP1A     LPD     -0.230000        0.0000           -1   0.00000   0.00000
     35209 MEOH     1949     MEOH     LP1B     LPD     -0.230000        0.0000           -1   0.00000   0.00000
     35210 MEOH     1950     MEOH     C1       CD33B    2.314100       11.6110           0   -1.00000   1.30000
     35211 MEOH     1950     MEOH     DC1      DRUD    -2.454100        0.4000           0   0.00000   0.00000
     35212 MEOH     1950     MEOH     O1       OD31H    2.488300       15.5990           0   -1.02800   1.30000
     35213 MEOH     1950     MEOH     DO1      DRUD    -2.488300        0.4000           0   0.00000   0.00000
     35214 MEOH     1950     MEOH     HO1      HDP1A    0.360000        1.0080           0   0.00000   0.00000
     35215 MEOH     1950     MEOH     HO2      DUMH     0.000000        1.0080           0   0.00000   0.00000
     35216 MEOH     1950     MEOH     H1A      HDA3B    0.080000        1.0080           0   0.00000   0.00000
     35217 MEOH     1950     MEOH     H1B      HDA3B    0.080000        1.0080           0   0.00000   0.00000
     35218 MEOH     1950     MEOH     H1C      HDA3B    0.080000        1.0080           0   0.00000   0.00000
     35219 MEOH     1950     MEOH     LP1A     LPD     -0.230000        0.0000           -1   0.00000   0.00000
     35220 MEOH     1950     MEOH     LP1B     LPD     -0.230000        0.0000           -1   0.00000   0.00000
     35221 MEOH     1951     MEOH     C1       CD33B    2.314100       11.6110           0   -1.00000   1.30000
     35222 MEOH     1951     MEOH     DC1      DRUD    -2.454100        0.4000           0   0.00000   0.00000
     35223 MEOH     1951     MEOH     O1       OD31H    2.488300       15.5990           0   -1.02800   1.30000
     35224 MEOH     1951     MEOH     DO1      DRUD    -2.488300        0.4000           0   0.00000   0.00000
     35225 MEOH     1951     MEOH     HO1      HDP1A    0.360000        1.0080           0   0.00000   0.00000
     35226 MEOH     1951     MEOH     HO2      DUMH     0.000000        1.0080           0   0.00000   0.00000
     35227 MEOH     1951     MEOH     H1A      HDA3B    0.080000        1.0080           0   0.00000   0.00000
     35228 MEOH     1951     MEOH     H1B      HDA3B    0.080000        1.0080           0   0.00000   0.00000
     35229 MEOH     1951     MEOH     H1C      HDA3B    0.080000        1.0080           0   0.00000   0.00000
     35230 MEOH     1951     MEOH     LP1A     LPD     -0.230000        0.0000           -1   0.00000   0.00000
     35231 MEOH     1951     MEOH     LP1B     LPD     -0.230000        0.0000           -1   0.00000   0.00000
     35232 MEOH     1952     MEOH     C1       CD33B    2.314100       11.6110           0   -1.00000   1.30000
     35233 MEOH     1952     MEOH     DC1      DRUD    -2.454100        0.4000           0   0.00000   0.00000
     35234 MEOH     1952     MEOH     O1       OD31H    2.488300       15.5990           0   -1.02800   1.30000
     35235 MEOH     1952     MEOH     DO1      DRUD    -2.488300        0.4000           0   0.00000   0.00000
     35236 MEOH     1952     MEOH     HO1      HDP1A    0.360000        1.0080           0   0.00000   0.00000
     35237 MEOH     1952     MEOH     HO2      DUMH     0.000000        1.0080           0   0.00000   0.00000
     35238 MEOH     1952     MEOH     H1A      HDA3B    0.080000        1.0080           0   0.00000   0.00000
     35239 MEOH     1952     MEOH     H1B      HDA3B    0.080000        1.0080           0   0.00000   0.00000
     35240 MEOH     1952     MEOH     H1C      HDA3B    0.080000        1.0080           0   0.00000   0.00000
     35241 MEOH     1952     MEOH     LP1A     LPD     -0.230000        0.0000           -1   0.00000   0.00000
     35242 MEOH     1952     MEOH     LP1B     LPD     -0.230000        0.0000           -1   0.00000   0.00000
     35243 MEOH     1953     MEOH     C1       CD33B    2.314100       11.6110           0   -1.00000   1.30000
     35244 MEOH     1953     MEOH     DC1      DRUD    -2.454100        0.4000           0   0.00000   0.00000
     35245 MEOH     1953     MEOH     O1       OD31H    2.488300       15.5990           0   -1.02800   1.30000
     35246 MEOH     1953     MEOH     DO1      DRUD    -2.488300        0.4000           0   0.00000   0.00000
     35247 MEOH     1953     MEOH     HO1      HDP1A    0.360000        1.0080           0   0.00000   0.00000
     35248 MEOH     1953     MEOH     HO2      DUMH     0.000000        1.0080           0   0.00000   0.00000
     35249 MEOH     1953     MEOH     H1A      HDA3B    0.080000        1.0080           0   0.00000   0.00000
     35250 MEOH     1953     MEOH     H1B      HDA3B    0.080000        1.0080           0   0.00000   0.00000
     35251 MEOH     1953     MEOH     H1C      HDA3B    0.080000        1.0080           0   0.00000   0.00000
     35252 MEOH     1953     MEOH     LP1A     LPD     -0.230000        0.0000           -1   0.00000   0.00000
     35253 MEOH     1953     MEOH     LP1B     LPD     -0.230000        0.0000           -1   0.00000   0.00000
     35254 MEOH     1954     MEOH     C1       CD33B    2.314100       11.6110           0   -1.00000   1.30000
     35255 MEOH     1954     MEOH     DC1      DRUD    -2.454100        0.4000           0   0.00000   0.00000
     35256 MEOH     1954     MEOH     O1       OD31H    2.488300       15.5990           0   -1.02800   1.30000
     35257 MEOH     1954     MEOH     DO1      DRUD    -2.488300        0.4000           0   0.00000   0.00000
     35258 MEOH     1954     MEOH     HO1      HDP1A    0.360000        1.0080           0   0.00000   0.00000
     35259 MEOH     1954     MEOH     HO2      DUMH     0.000000        1.0080           0   0.00000   0.00000
     35260 MEOH     1954     MEOH     H1A      HDA3B    0.080000        1.0080           0   0.00000   0.00000
     35261 MEOH     1954     MEOH     H1B      HDA3B    0.080000        1.0080           0   0.00000   0.00000
     35262 MEOH     1954     MEOH     H1C      HDA3B    0.080000        1.0080           0   0.00000   0.00000
     35263 MEOH     1954     MEOH     LP1A     LPD     -0.230000        0.0000           -1   0.00000   0.00000
     35264 MEOH     1954     MEOH     LP1B     LPD     -0.230000        0.0000           -1   0.00000   0.00000
     35265 MEOH     1955     MEOH     C1       CD33B    2.314100       11.6110           0   -1.00000   1.30000
     35266 MEOH     1955     MEOH     DC1      DRUD    -2.454100        0.4000           0   0.00000   0.00000
     35267 MEOH     1955     MEOH     O1       OD31H    2.488300       15.5990           0   -1.02800   1.30000
     35268 MEOH     1955     MEOH     DO1      DRUD    -2.488300        0.4000           0   0.00000   0.00000
     35269 MEOH     1955     MEOH     HO1      HDP1A    0.360000        1.0080           0   0.00000   0.00000
     35270 MEOH     1955     MEOH     HO2      DUMH     0.000000        1.0080           0   0.00000   0.00000
     35271 MEOH     1955     MEOH     H1A      HDA3B    0.080000        1.0080           0   0.00000   0.00000
     35272 MEOH     1955     MEOH     H1B      HDA3B    0.080000        1.0080           0   0.00000   0.00000
     35273 MEOH     1955     MEOH     H1C      HDA3B    0.080000        1.0080           0   0.00000   0.00000
     35274 MEOH     1955     MEOH     LP1A     LPD     -0.230000        0.0000           -1   0.00000   0.00000
     35275 MEOH     1955     MEOH     LP1B     LPD     -0.230000        0.0000           -1   0.00000   0.00000
     35276 MEOH     1956     MEOH     C1       CD33B    2.314100       11.6110           0   -1.00000   1.30000
     35277 MEOH     1956     MEOH     DC1      DRUD    -2.454100        0.4000           0   0.00000   0.00000
     35278 MEOH     1956     MEOH     O1       OD31H    2.488300       15.5990           0   -1.02800   1.30000
     35279 MEOH     1956     MEOH     DO1      DRUD    -2.488300        0.4000           0   0.00000   0.00000
     35280 MEOH     1956     MEOH     HO1      HDP1A    0.360000        1.0080           0   0.00000   0.00000
     35281 MEOH     1956     MEOH     HO2      DUMH     0.000000        1.0080           0   0.00000   0.00000
     35282 MEOH     1956     MEOH     H1A      HDA3B    0.080000        1.0080           0   0.00000   0.00000
     35283 MEOH     1956     MEOH     H1B      HDA3B    0.080000        1.0080           0   0.00000   0.00000
     35284 MEOH     1956     MEOH     H1C      HDA3B    0.080000        1.0080           0   0.00000   0.00000
     35285 MEOH     1956     MEOH     LP1A     LPD     -0.230000        0.0000           -1   0.00000   0.00000
     35286 MEOH     1956     MEOH     LP1B     LPD     -0.230000        0.0000           -1   0.00000   0.00000
     35287 MEOH     1957     MEOH     C1       CD33B    2.314100       11.6110           0   -1.00000   1.30000
     35288 MEOH     1957     MEOH     DC1      DRUD    -2.454100        0.4000           0   0.00000   0.00000
     35289 MEOH     1957     MEOH     O1       OD31H    2.488300       15.5990           0   -1.02800   1.30000
     35290 MEOH     1957     MEOH     DO1      DRUD    -2.488300        0.4000           0   0.00000   0.00000
     35291 MEOH     1957     MEOH     HO1      HDP1A    0.360000        1.0080           0   0.00000   0.00000
     35292 MEOH     1957     MEOH     HO2      DUMH     0.000000        1.0080           0   0.00000   0.00000
     35293 MEOH     1957     MEOH     H1A      HDA3B    0.080000        1.0080           0   0.00000   0.00000
     35294 MEOH     1957     MEOH     H1B      HDA3B    0.080000        1.0080           0   0.00000   0.00000
     35295 MEOH     1957     MEOH     H1C      HDA3B    0.080000        1.0080           0   0.00000   0.00000
     35296 MEOH     1957     MEOH     LP1A     LPD     -0.230000        0.0000           -1   0.00000   0.00000
     35297 MEOH     1957     MEOH     LP1B     LPD     -0.230000        0.0000           -1   0.00000   0.00000
     35298 MEOH     1958     MEOH     C1       CD33B    2.314100       11.6110           0   -1.00000   1.30000
     35299 MEOH     1958     MEOH     DC1      DRUD    -2.454100        0.4000           0   0.00000   0.00000
     35300 MEOH     1958     MEOH     O1       OD31H    2.488300       15.5990           0   -1.02800   1.30000
     35301 MEOH     1958     MEOH     DO1      DRUD    -2.488300        0.4000           0   0.00000   0.00000
     35302 MEOH     1958     MEOH     HO1      HDP1A    0.360000        1.0080           0   0.00000   0.00000
     35303 MEOH     1958     MEOH     HO2      DUMH     0.000000        1.0080           0   0.00000   0.00000
     35304 MEOH     1958     MEOH     H1A      HDA3B    0.080000        1.0080           0   0.00000   0.00000
     35305 MEOH     1958     MEOH     H1B      HDA3B    0.080000        1.0080           0   0.00000   0.00000
     35306 MEOH     1958     MEOH     H1C      HDA3B    0.080000        1.0080           0   0.00000   0.00000
     35307 MEOH     1958     MEOH     LP1A     LPD     -0.230000        0.0000           -1   0.00000   0.00000
     35308 MEOH     1958     MEOH     LP1B     LPD     -0.230000        0.0000           -1   0.00000   0.00000
     35309 MEOH     1959     MEOH     C1       CD33B    2.314100       11.6110           0   -1.00000   1.30000
     35310 MEOH     1959     MEOH     DC1      DRUD    -2.454100        0.4000           0   0.00000   0.00000
     35311 MEOH     1959     MEOH     O1       OD31H    2.488300       15.5990           0   -1.02800   1.30000
     35312 MEOH     1959     MEOH     DO1      DRUD    -2.488300        0.4000           0   0.00000   0.00000
     35313 MEOH     1959     MEOH     HO1      HDP1A    0.360000        1.0080           0   0.00000   0.00000
     35314 MEOH     1959     MEOH     HO2      DUMH     0.000000        1.0080           0   0.00000   0.00000
     35315 MEOH     1959     MEOH     H1A      HDA3B    0.080000        1.0080           0   0.00000   0.00000
     35316 MEOH     1959     MEOH     H1B      HDA3B    0.080000        1.0080           0   0.00000   0.00000
     35317 MEOH     1959     MEOH     H1C      HDA3B    0.080000        1.0080           0   0.00000   0.00000
     35318 MEOH     1959     MEOH     LP1A     LPD     -0.230000        0.0000           -1   0.00000   0.00000
     35319 MEOH     1959     MEOH     LP1B     LPD     -0.230000        0.0000           -1   0.00000   0.00000
     35320 MEOH     1960     MEOH     C1       CD33B    2.314100       11.6110           0   -1.00000   1.30000
     35321 MEOH     1960     MEOH     DC1      DRUD    -2.454100        0.4000           0   0.00000   0.00000
     35322 MEOH     1960     MEOH     O1       OD31H    2.488300       15.5990           0   -1.02800   1.30000
     35323 MEOH     1960     MEOH     DO1      DRUD    -2.488300        0.4000           0   0.00000   0.00000
     35324 MEOH     1960     MEOH     HO1      HDP1A    0.360000        1.0080           0   0.00000   0.00000
     35325 MEOH     1960     MEOH     HO2      DUMH     0.000000        1.0080           0   0.00000   0.00000
     35326 MEOH     1960     MEOH     H1A      HDA3B    0.080000        1.0080           0   0.00000   0.00000
     35327 MEOH     1960     MEOH     H1B      HDA3B    0.080000        1.0080           0   0.00000   0.00000
     35328 MEOH     1960     MEOH     H1C      HDA3B    0.080000        1.0080           0   0.00000   0.00000
     35329 MEOH     1960     MEOH     LP1A     LPD     -0.230000        0.0000           -1   0.00000   0.00000
     35330 MEOH     1960     MEOH     LP1B     LPD     -0.230000        0.0000           -1   0.00000   0.00000
     35331 MEOH     1961     MEOH     C1       CD33B    2.314100       11.6110           0   -1.00000   1.30000
     35332 MEOH     1961     MEOH     DC1      DRUD    -2.454100        0.4000           0   0.00000   0.00000
     35333 MEOH     1961     MEOH     O1       OD31H    2.488300       15.5990           0   -1.02800   1.30000
     35334 MEOH     1961     MEOH     DO1      DRUD    -2.488300        0.4000           0   0.00000   0.00000
     35335 MEOH     1961     MEOH     HO1      HDP1A    0.360000        1.0080           0   0.00000   0.00000
     35336 MEOH     1961     MEOH     HO2      DUMH     0.000000        1.0080           0   0.00000   0.00000
     35337 MEOH     1961     MEOH     H1A      HDA3B    0.080000        1.0080           0   0.00000   0.00000
     35338 MEOH     1961     MEOH     H1B      HDA3B    0.080000        1.0080           0   0.00000   0.00000
     35339 MEOH     1961     MEOH     H1C      HDA3B    0.080000        1.0080           0   0.00000   0.00000
     35340 MEOH     1961     MEOH     LP1A     LPD     -0.230000        0.0000           -1   0.00000   0.00000
     35341 MEOH     1961     MEOH     LP1B     LPD     -0.230000        0.0000           -1   0.00000   0.00000
     35342 MEOH     1962     MEOH     C1       CD33B    2.314100       11.6110           0   -1.00000   1.30000
     35343 MEOH     1962     MEOH     DC1      DRUD    -2.454100        0.4000           0   0.00000   0.00000
     35344 MEOH     1962     MEOH     O1       OD31H    2.488300       15.5990           0   -1.02800   1.30000
     35345 MEOH     1962     MEOH     DO1      DRUD    -2.488300        0.4000           0   0.00000   0.00000
     35346 MEOH     1962     MEOH     HO1      HDP1A    0.360000        1.0080           0   0.00000   0.00000
     35347 MEOH     1962     MEOH     HO2      DUMH     0.000000        1.0080           0   0.00000   0.00000
     35348 MEOH     1962     MEOH     H1A      HDA3B    0.080000        1.0080           0   0.00000   0.00000
     35349 MEOH     1962     MEOH     H1B      HDA3B    0.080000        1.0080           0   0.00000   0.00000
     35350 MEOH     1962     MEOH     H1C      HDA3B    0.080000        1.0080           0   0.00000   0.00000
     35351 MEOH     1962     MEOH     LP1A     LPD     -0.230000        0.0000           -1   0.00000   0.00000
     35352 MEOH     1962     MEOH     LP1B     LPD     -0.230000        0.0000           -1   0.00000   0.00000
     35353 MEOH     1963     MEOH     C1       CD33B    2.314100       11.6110           0   -1.00000   1.30000
     35354 MEOH     1963     MEOH     DC1      DRUD    -2.454100        0.4000           0   0.00000   0.00000
     35355 MEOH     1963     MEOH     O1       OD31H    2.488300       15.5990           0   -1.02800   1.30000
     35356 MEOH     1963     MEOH     DO1      DRUD    -2.488300        0.4000           0   0.00000   0.00000
     35357 MEOH     1963     MEOH     HO1      HDP1A    0.360000        1.0080           0   0.00000   0.00000
     35358 MEOH     1963     MEOH     HO2      DUMH     0.000000        1.0080           0   0.00000   0.00000
     35359 MEOH     1963     MEOH     H1A      HDA3B    0.080000        1.0080           0   0.00000   0.00000
     35360 MEOH     1963     MEOH     H1B      HDA3B    0.080000        1.0080           0   0.00000   0.00000
     35361 MEOH     1963     MEOH     H1C      HDA3B    0.080000        1.0080           0   0.00000   0.00000
     35362 MEOH     1963     MEOH     LP1A     LPD     -0.230000        0.0000           -1   0.00000   0.00000
     35363 MEOH     1963     MEOH     LP1B     LPD     -0.230000        0.0000           -1   0.00000   0.00000
     35364 MEOH     1964     MEOH     C1       CD33B    2.314100       11.6110           0   -1.00000   1.30000
     35365 MEOH     1964     MEOH     DC1      DRUD    -2.454100        0.4000           0   0.00000   0.00000
     35366 MEOH     1964     MEOH     O1       OD31H    2.488300       15.5990           0   -1.02800   1.30000
     35367 MEOH     1964     MEOH     DO1      DRUD    -2.488300        0.4000           0   0.00000   0.00000
     35368 MEOH     1964     MEOH     HO1      HDP1A    0.360000        1.0080           0   0.00000   0.00000
     35369 MEOH     1964     MEOH     HO2      DUMH     0.000000        1.0080           0   0.00000   0.00000
     35370 MEOH     1964     MEOH     H1A      HDA3B    0.080000        1.0080           0   0.00000   0.00000
     35371 MEOH     1964     MEOH     H1B      HDA3B    0.080000        1.0080           0   0.00000   0.00000
     35372 MEOH     1964     MEOH     H1C      HDA3B    0.080000        1.0080           0   0.00000   0.00000
     35373 MEOH     1964     MEOH     LP1A     LPD     -0.230000        0.0000           -1   0.00000   0.00000
     35374 MEOH     1964     MEOH     LP1B     LPD     -0.230000        0.0000           -1   0.00000   0.00000
     35375 MEOH     1965     MEOH     C1       CD33B    2.314100       11.6110           0   -1.00000   1.30000
     35376 MEOH     1965     MEOH     DC1      DRUD    -2.454100        0.4000           0   0.00000   0.00000
     35377 MEOH     1965     MEOH     O1       OD31H    2.488300       15.5990           0   -1.02800   1.30000
     35378 MEOH     1965     MEOH     DO1      DRUD    -2.488300        0.4000           0   0.00000   0.00000
     35379 MEOH     1965     MEOH     HO1      HDP1A    0.360000        1.0080           0   0.00000   0.00000
     35380 MEOH     1965     MEOH     HO2      DUMH     0.000000        1.0080           0   0.00000   0.00000
     35381 MEOH     1965     MEOH     H1A      HDA3B    0.080000        1.0080           0   0.00000   0.00000
     35382 MEOH     1965     MEOH     H1B      HDA3B    0.080000        1.0080           0   0.00000   0.00000
     35383 MEOH     1965     MEOH     H1C      HDA3B    0.080000        1.0080           0   0.00000   0.00000
     35384 MEOH     1965     MEOH     LP1A     LPD     -0.230000        0.0000           -1   0.00000   0.00000
     35385 MEOH     1965     MEOH     LP1B     LPD     -0.230000        0.0000           -1   0.00000   0.00000
     35386 MEOH     1966     MEOH     C1       CD33B    2.314100       11.6110           0   -1.00000   1.30000
     35387 MEOH     1966     MEOH     DC1      DRUD    -2.454100        0.4000           0   0.00000   0.00000
     35388 MEOH     1966     MEOH     O1       OD31H    2.488300       15.5990           0   -1.02800   1.30000
     35389 MEOH     1966     MEOH     DO1      DRUD    -2.488300        0.4000           0   0.00000   0.00000
     35390 MEOH     1966     MEOH     HO1      HDP1A    0.360000        1.0080           0   0.00000   0.00000
     35391 MEOH     1966     MEOH     HO2      DUMH     0.000000        1.0080           0   0.00000   0.00000
     35392 MEOH     1966     MEOH     H1A      HDA3B    0.080000        1.0080           0   0.00000   0.00000
     35393 MEOH     1966     MEOH     H1B      HDA3B    0.080000        1.0080           0   0.00000   0.00000
     35394 MEOH     1966     MEOH     H1C      HDA3B    0.080000        1.0080           0   0.00000   0.00000
     35395 MEOH     1966     MEOH     LP1A     LPD     -0.230000        0.0000           -1   0.00000   0.00000
     35396 MEOH     1966     MEOH     LP1B     LPD     -0.230000        0.0000           -1   0.00000   0.00000
     35397 MEOH     1967     MEOH     C1       CD33B    2.314100       11.6110           0   -1.00000   1.30000
     35398 MEOH     1967     MEOH     DC1      DRUD    -2.454100        0.4000           0   0.00000   0.00000
     35399 MEOH     1967     MEOH     O1       OD31H    2.488300       15.5990           0   -1.02800   1.30000
     35400 MEOH     1967     MEOH     DO1      DRUD    -2.488300        0.4000           0   0.00000   0.00000
     35401 MEOH     1967     MEOH     HO1      HDP1A    0.360000        1.0080           0   0.00000   0.00000
     35402 MEOH     1967     MEOH     HO2      DUMH     0.000000        1.0080           0   0.00000   0.00000
     35403 MEOH     1967     MEOH     H1A      HDA3B    0.080000        1.0080           0   0.00000   0.00000
     35404 MEOH     1967     MEOH     H1B      HDA3B    0.080000        1.0080           0   0.00000   0.00000
     35405 MEOH     1967     MEOH     H1C      HDA3B    0.080000        1.0080           0   0.00000   0.00000
     35406 MEOH     1967     MEOH     LP1A     LPD     -0.230000        0.0000           -1   0.00000   0.00000
     35407 MEOH     1967     MEOH     LP1B     LPD     -0.230000        0.0000           -1   0.00000   0.00000
     35408 MEOH     1968     MEOH     C1       CD33B    2.314100       11.6110           0   -1.00000   1.30000
     35409 MEOH     1968     MEOH     DC1      DRUD    -2.454100        0.4000           0   0.00000   0.00000
     35410 MEOH     1968     MEOH     O1       OD31H    2.488300       15.5990           0   -1.02800   1.30000
     35411 MEOH     1968     MEOH     DO1      DRUD    -2.488300        0.4000           0   0.00000   0.00000
     35412 MEOH     1968     MEOH     HO1      HDP1A    0.360000        1.0080           0   0.00000   0.00000
     35413 MEOH     1968     MEOH     HO2      DUMH     0.000000        1.0080           0   0.00000   0.00000
     35414 MEOH     1968     MEOH     H1A      HDA3B    0.080000        1.0080           0   0.00000   0.00000
     35415 MEOH     1968     MEOH     H1B      HDA3B    0.080000        1.0080           0   0.00000   0.00000
     35416 MEOH     1968     MEOH     H1C      HDA3B    0.080000        1.0080           0   0.00000   0.00000
     35417 MEOH     1968     MEOH     LP1A     LPD     -0.230000        0.0000           -1   0.00000   0.00000
     35418 MEOH     1968     MEOH     LP1B     LPD     -0.230000        0.0000           -1   0.00000   0.00000
     35419 MEOH     1969     MEOH     C1       CD33B    2.314100       11.6110           0   -1.00000   1.30000
     35420 MEOH     1969     MEOH     DC1      DRUD    -2.454100        0.4000           0   0.00000   0.00000
     35421 MEOH     1969     MEOH     O1       OD31H    2.488300       15.5990           0   -1.02800   1.30000
     35422 MEOH     1969     MEOH     DO1      DRUD    -2.488300        0.4000           0   0.00000   0.00000
     35423 MEOH     1969     MEOH     HO1      HDP1A    0.360000        1.0080           0   0.00000   0.00000
     35424 MEOH     1969     MEOH     HO2      DUMH     0.000000        1.0080           0   0.00000   0.00000
     35425 MEOH     1969     MEOH     H1A      HDA3B    0.080000        1.0080           0   0.00000   0.00000
     35426 MEOH     1969     MEOH     H1B      HDA3B    0.080000        1.0080           0   0.00000   0.00000
     35427 MEOH     1969     MEOH     H1C      HDA3B    0.080000        1.0080           0   0.00000   0.00000
     35428 MEOH     1969     MEOH     LP1A     LPD     -0.230000        0.0000           -1   0.00000   0.00000
     35429 MEOH     1969     MEOH     LP1B     LPD     -0.230000        0.0000           -1   0.00000   0.00000
     35430 MEOH     1970     MEOH     C1       CD33B    2.314100       11.6110           0   -1.00000   1.30000
     35431 MEOH     1970     MEOH     DC1      DRUD    -2.454100        0.4000           0   0.00000   0.00000
     35432 MEOH     1970     MEOH     O1       OD31H    2.488300       15.5990           0   -1.02800   1.30000
     35433 MEOH     1970     MEOH     DO1      DRUD    -2.488300        0.4000           0   0.00000   0.00000
     35434 MEOH     1970     MEOH     HO1      HDP1A    0.360000        1.0080           0   0.00000   0.00000
     35435 MEOH     1970     MEOH     HO2      DUMH     0.000000        1.0080           0   0.00000   0.00000
     35436 MEOH     1970     MEOH     H1A      HDA3B    0.080000        1.0080           0   0.00000   0.00000
     35437 MEOH     1970     MEOH     H1B      HDA3B    0.080000        1.0080           0   0.00000   0.00000
     35438 MEOH     1970     MEOH     H1C      HDA3B    0.080000        1.0080           0   0.00000   0.00000
     35439 MEOH     1970     MEOH     LP1A     LPD     -0.230000        0.0000           -1   0.00000   0.00000
     35440 MEOH     1970     MEOH     LP1B     LPD     -0.230000        0.0000           -1   0.00000   0.00000
     35441 MEOH     1971     MEOH     C1       CD33B    2.314100       11.6110           0   -1.00000   1.30000
     35442 MEOH     1971     MEOH     DC1      DRUD    -2.454100        0.4000           0   0.00000   0.00000
     35443 MEOH     1971     MEOH     O1       OD31H    2.488300       15.5990           0   -1.02800   1.30000
     35444 MEOH     1971     MEOH     DO1      DRUD    -2.488300        0.4000           0   0.00000   0.00000
     35445 MEOH     1971     MEOH     HO1      HDP1A    0.360000        1.0080           0   0.00000   0.00000
     35446 MEOH     1971     MEOH     HO2      DUMH     0.000000        1.0080           0   0.00000   0.00000
     35447 MEOH     1971     MEOH     H1A      HDA3B    0.080000        1.0080           0   0.00000   0.00000
     35448 MEOH     1971     MEOH     H1B      HDA3B    0.080000        1.0080           0   0.00000   0.00000
     35449 MEOH     1971     MEOH     H1C      HDA3B    0.080000        1.0080           0   0.00000   0.00000
     35450 MEOH     1971     MEOH     LP1A     LPD     -0.230000        0.0000           -1   0.00000   0.00000
     35451 MEOH     1971     MEOH     LP1B     LPD     -0.230000        0.0000           -1   0.00000   0.00000
     35452 MEOH     1972     MEOH     C1       CD33B    2.314100       11.6110           0   -1.00000   1.30000
     35453 MEOH     1972     MEOH     DC1      DRUD    -2.454100        0.4000           0   0.00000   0.00000
     35454 MEOH     1972     MEOH     O1       OD31H    2.488300       15.5990           0   -1.02800   1.30000
     35455 MEOH     1972     MEOH     DO1      DRUD    -2.488300        0.4000           0   0.00000   0.00000
     35456 MEOH     1972     MEOH     HO1      HDP1A    0.360000        1.0080           0   0.00000   0.00000
     35457 MEOH     1972     MEOH     HO2      DUMH     0.000000        1.0080           0   0.00000   0.00000
     35458 MEOH     1972     MEOH     H1A      HDA3B    0.080000        1.0080           0   0.00000   0.00000
     35459 MEOH     1972     MEOH     H1B      HDA3B    0.080000        1.0080           0   0.00000   0.00000
     35460 MEOH     1972     MEOH     H1C      HDA3B    0.080000        1.0080           0   0.00000   0.00000
     35461 MEOH     1972     MEOH     LP1A     LPD     -0.230000        0.0000           -1   0.00000   0.00000
     35462 MEOH     1972     MEOH     LP1B     LPD     -0.230000        0.0000           -1   0.00000   0.00000
     35463 MEOH     1973     MEOH     C1       CD33B    2.314100       11.6110           0   -1.00000   1.30000
     35464 MEOH     1973     MEOH     DC1      DRUD    -2.454100        0.4000           0   0.00000   0.00000
     35465 MEOH     1973     MEOH     O1       OD31H    2.488300       15.5990           0   -1.02800   1.30000
     35466 MEOH     1973     MEOH     DO1      DRUD    -2.488300        0.4000           0   0.00000   0.00000
     35467 MEOH     1973     MEOH     HO1      HDP1A    0.360000        1.0080           0   0.00000   0.00000
     35468 MEOH     1973     MEOH     HO2      DUMH     0.000000        1.0080           0   0.00000   0.00000
     35469 MEOH     1973     MEOH     H1A      HDA3B    0.080000        1.0080           0   0.00000   0.00000
     35470 MEOH     1973     MEOH     H1B      HDA3B    0.080000        1.0080           0   0.00000   0.00000
     35471 MEOH     1973     MEOH     H1C      HDA3B    0.080000        1.0080           0   0.00000   0.00000
     35472 MEOH     1973     MEOH     LP1A     LPD     -0.230000        0.0000           -1   0.00000   0.00000
     35473 MEOH     1973     MEOH     LP1B     LPD     -0.230000        0.0000           -1   0.00000   0.00000
     35474 MEOH     1974     MEOH     C1       CD33B    2.314100       11.6110           0   -1.00000   1.30000
     35475 MEOH     1974     MEOH     DC1      DRUD    -2.454100        0.4000           0   0.00000   0.00000
     35476 MEOH     1974     MEOH     O1       OD31H    2.488300       15.5990           0   -1.02800   1.30000
     35477 MEOH     1974     MEOH     DO1      DRUD    -2.488300        0.4000           0   0.00000   0.00000
     35478 MEOH     1974     MEOH     HO1      HDP1A    0.360000        1.0080           0   0.00000   0.00000
     35479 MEOH     1974     MEOH     HO2      DUMH     0.000000        1.0080           0   0.00000   0.00000
     35480 MEOH     1974     MEOH     H1A      HDA3B    0.080000        1.0080           0   0.00000   0.00000
     35481 MEOH     1974     MEOH     H1B      HDA3B    0.080000        1.0080           0   0.00000   0.00000
     35482 MEOH     1974     MEOH     H1C      HDA3B    0.080000        1.0080           0   0.00000   0.00000
     35483 MEOH     1974     MEOH     LP1A     LPD     -0.230000        0.0000           -1   0.00000   0.00000
     35484 MEOH     1974     MEOH     LP1B     LPD     -0.230000        0.0000           -1   0.00000   0.00000
     35485 MEOH     1975     MEOH     C1       CD33B    2.314100       11.6110           0   -1.00000   1.30000
     35486 MEOH     1975     MEOH     DC1      DRUD    -2.454100        0.4000           0   0.00000   0.00000
     35487 MEOH     1975     MEOH     O1       OD31H    2.488300       15.5990           0   -1.02800   1.30000
     35488 MEOH     1975     MEOH     DO1      DRUD    -2.488300        0.4000           0   0.00000   0.00000
     35489 MEOH     1975     MEOH     HO1      HDP1A    0.360000        1.0080           0   0.00000   0.00000
     35490 MEOH     1975     MEOH     HO2      DUMH     0.000000        1.0080           0   0.00000   0.00000
     35491 MEOH     1975     MEOH     H1A      HDA3B    0.080000        1.0080           0   0.00000   0.00000
     35492 MEOH     1975     MEOH     H1B      HDA3B    0.080000        1.0080           0   0.00000   0.00000
     35493 MEOH     1975     MEOH     H1C      HDA3B    0.080000        1.0080           0   0.00000   0.00000
     35494 MEOH     1975     MEOH     LP1A     LPD     -0.230000        0.0000           -1   0.00000   0.00000
     35495 MEOH     1975     MEOH     LP1B     LPD     -0.230000        0.0000           -1   0.00000   0.00000
     35496 MEOH     1976     MEOH     C1       CD33B    2.314100       11.6110           0   -1.00000   1.30000
     35497 MEOH     1976     MEOH     DC1      DRUD    -2.454100        0.4000           0   0.00000   0.00000
     35498 MEOH     1976     MEOH     O1       OD31H    2.488300       15.5990           0   -1.02800   1.30000
     35499 MEOH     1976     MEOH     DO1      DRUD    -2.488300        0.4000           0   0.00000   0.00000
     35500 MEOH     1976     MEOH     HO1      HDP1A    0.360000        1.0080           0   0.00000   0.00000
     35501 MEOH     1976     MEOH     HO2      DUMH     0.000000        1.0080           0   0.00000   0.00000
     35502 MEOH     1976     MEOH     H1A      HDA3B    0.080000        1.0080           0   0.00000   0.00000
     35503 MEOH     1976     MEOH     H1B      HDA3B    0.080000        1.0080           0   0.00000   0.00000
     35504 MEOH     1976     MEOH     H1C      HDA3B    0.080000        1.0080           0   0.00000   0.00000
     35505 MEOH     1976     MEOH     LP1A     LPD     -0.230000        0.0000           -1   0.00000   0.00000
     35506 MEOH     1976     MEOH     LP1B     LPD     -0.230000        0.0000           -1   0.00000   0.00000
     35507 MEOH     1977     MEOH     C1       CD33B    2.314100       11.6110           0   -1.00000   1.30000
     35508 MEOH     1977     MEOH     DC1      DRUD    -2.454100        0.4000           0   0.00000   0.00000
     35509 MEOH     1977     MEOH     O1       OD31H    2.488300       15.5990           0   -1.02800   1.30000
     35510 MEOH     1977     MEOH     DO1      DRUD    -2.488300        0.4000           0   0.00000   0.00000
     35511 MEOH     1977     MEOH     HO1      HDP1A    0.360000        1.0080           0   0.00000   0.00000
     35512 MEOH     1977     MEOH     HO2      DUMH     0.000000        1.0080           0   0.00000   0.00000
     35513 MEOH     1977     MEOH     H1A      HDA3B    0.080000        1.0080           0   0.00000   0.00000
     35514 MEOH     1977     MEOH     H1B      HDA3B    0.080000        1.0080           0   0.00000   0.00000
     35515 MEOH     1977     MEOH     H1C      HDA3B    0.080000        1.0080           0   0.00000   0.00000
     35516 MEOH     1977     MEOH     LP1A     LPD     -0.230000        0.0000           -1   0.00000   0.00000
     35517 MEOH     1977     MEOH     LP1B     LPD     -0.230000        0.0000           -1   0.00000   0.00000
     35518 MEOH     1978     MEOH     C1       CD33B    2.314100       11.6110           0   -1.00000   1.30000
     35519 MEOH     1978     MEOH     DC1      DRUD    -2.454100        0.4000           0   0.00000   0.00000
     35520 MEOH     1978     MEOH     O1       OD31H    2.488300       15.5990           0   -1.02800   1.30000
     35521 MEOH     1978     MEOH     DO1      DRUD    -2.488300        0.4000           0   0.00000   0.00000
     35522 MEOH     1978     MEOH     HO1      HDP1A    0.360000        1.0080           0   0.00000   0.00000
     35523 MEOH     1978     MEOH     HO2      DUMH     0.000000        1.0080           0   0.00000   0.00000
     35524 MEOH     1978     MEOH     H1A      HDA3B    0.080000        1.0080           0   0.00000   0.00000
     35525 MEOH     1978     MEOH     H1B      HDA3B    0.080000        1.0080           0   0.00000   0.00000
     35526 MEOH     1978     MEOH     H1C      HDA3B    0.080000        1.0080           0   0.00000   0.00000
     35527 MEOH     1978     MEOH     LP1A     LPD     -0.230000        0.0000           -1   0.00000   0.00000
     35528 MEOH     1978     MEOH     LP1B     LPD     -0.230000        0.0000           -1   0.00000   0.00000
     35529 MEOH     1979     MEOH     C1       CD33B    2.314100       11.6110           0   -1.00000   1.30000
     35530 MEOH     1979     MEOH     DC1      DRUD    -2.454100        0.4000           0   0.00000   0.00000
     35531 MEOH     1979     MEOH     O1       OD31H    2.488300       15.5990           0   -1.02800   1.30000
     35532 MEOH     1979     MEOH     DO1      DRUD    -2.488300        0.4000           0   0.00000   0.00000
     35533 MEOH     1979     MEOH     HO1      HDP1A    0.360000        1.0080           0   0.00000   0.00000
     35534 MEOH     1979     MEOH     HO2      DUMH     0.000000        1.0080           0   0.00000   0.00000
     35535 MEOH     1979     MEOH     H1A      HDA3B    0.080000        1.0080           0   0.00000   0.00000
     35536 MEOH     1979     MEOH     H1B      HDA3B    0.080000        1.0080           0   0.00000   0.00000
     35537 MEOH     1979     MEOH     H1C      HDA3B    0.080000        1.0080           0   0.00000   0.00000
     35538 MEOH     1979     MEOH     LP1A     LPD     -0.230000        0.0000           -1   0.00000   0.00000
     35539 MEOH     1979     MEOH     LP1B     LPD     -0.230000        0.0000           -1   0.00000   0.00000
     35540 MEOH     1980     MEOH     C1       CD33B    2.314100       11.6110           0   -1.00000   1.30000
     35541 MEOH     1980     MEOH     DC1      DRUD    -2.454100        0.4000           0   0.00000   0.00000
     35542 MEOH     1980     MEOH     O1       OD31H    2.488300       15.5990           0   -1.02800   1.30000
     35543 MEOH     1980     MEOH     DO1      DRUD    -2.488300        0.4000           0   0.00000   0.00000
     35544 MEOH     1980     MEOH     HO1      HDP1A    0.360000        1.0080           0   0.00000   0.00000
     35545 MEOH     1980     MEOH     HO2      DUMH     0.000000        1.0080           0   0.00000   0.00000
     35546 MEOH     1980     MEOH     H1A      HDA3B    0.080000        1.0080           0   0.00000   0.00000
     35547 MEOH     1980     MEOH     H1B      HDA3B    0.080000        1.0080           0   0.00000   0.00000
     35548 MEOH     1980     MEOH     H1C      HDA3B    0.080000        1.0080           0   0.00000   0.00000
     35549 MEOH     1980     MEOH     LP1A     LPD     -0.230000        0.0000           -1   0.00000   0.00000
     35550 MEOH     1980     MEOH     LP1B     LPD     -0.230000        0.0000           -1   0.00000   0.00000
     35551 MEOH     1981     MEOH     C1       CD33B    2.314100       11.6110           0   -1.00000   1.30000
     35552 MEOH     1981     MEOH     DC1      DRUD    -2.454100        0.4000           0   0.00000   0.00000
     35553 MEOH     1981     MEOH     O1       OD31H    2.488300       15.5990           0   -1.02800   1.30000
     35554 MEOH     1981     MEOH     DO1      DRUD    -2.488300        0.4000           0   0.00000   0.00000
     35555 MEOH     1981     MEOH     HO1      HDP1A    0.360000        1.0080           0   0.00000   0.00000
     35556 MEOH     1981     MEOH     HO2      DUMH     0.000000        1.0080           0   0.00000   0.00000
     35557 MEOH     1981     MEOH     H1A      HDA3B    0.080000        1.0080           0   0.00000   0.00000
     35558 MEOH     1981     MEOH     H1B      HDA3B    0.080000        1.0080           0   0.00000   0.00000
     35559 MEOH     1981     MEOH     H1C      HDA3B    0.080000        1.0080           0   0.00000   0.00000
     35560 MEOH     1981     MEOH     LP1A     LPD     -0.230000        0.0000           -1   0.00000   0.00000
     35561 MEOH     1981     MEOH     LP1B     LPD     -0.230000        0.0000           -1   0.00000   0.00000
     35562 MEOH     1982     MEOH     C1       CD33B    2.314100       11.6110           0   -1.00000   1.30000
     35563 MEOH     1982     MEOH     DC1      DRUD    -2.454100        0.4000           0   0.00000   0.00000
     35564 MEOH     1982     MEOH     O1       OD31H    2.488300       15.5990           0   -1.02800   1.30000
     35565 MEOH     1982     MEOH     DO1      DRUD    -2.488300        0.4000           0   0.00000   0.00000
     35566 MEOH     1982     MEOH     HO1      HDP1A    0.360000        1.0080           0   0.00000   0.00000
     35567 MEOH     1982     MEOH     HO2      DUMH     0.000000        1.0080           0   0.00000   0.00000
     35568 MEOH     1982     MEOH     H1A      HDA3B    0.080000        1.0080           0   0.00000   0.00000
     35569 MEOH     1982     MEOH     H1B      HDA3B    0.080000        1.0080           0   0.00000   0.00000
     35570 MEOH     1982     MEOH     H1C      HDA3B    0.080000        1.0080           0   0.00000   0.00000
     35571 MEOH     1982     MEOH     LP1A     LPD     -0.230000        0.0000           -1   0.00000   0.00000
     35572 MEOH     1982     MEOH     LP1B     LPD     -0.230000        0.0000           -1   0.00000   0.00000
     35573 MEOH     1983     MEOH     C1       CD33B    2.314100       11.6110           0   -1.00000   1.30000
     35574 MEOH     1983     MEOH     DC1      DRUD    -2.454100        0.4000           0   0.00000   0.00000
     35575 MEOH     1983     MEOH     O1       OD31H    2.488300       15.5990           0   -1.02800   1.30000
     35576 MEOH     1983     MEOH     DO1      DRUD    -2.488300        0.4000           0   0.00000   0.00000
     35577 MEOH     1983     MEOH     HO1      HDP1A    0.360000        1.0080           0   0.00000   0.00000
     35578 MEOH     1983     MEOH     HO2      DUMH     0.000000        1.0080           0   0.00000   0.00000
     35579 MEOH     1983     MEOH     H1A      HDA3B    0.080000        1.0080           0   0.00000   0.00000
     35580 MEOH     1983     MEOH     H1B      HDA3B    0.080000        1.0080           0   0.00000   0.00000
     35581 MEOH     1983     MEOH     H1C      HDA3B    0.080000        1.0080           0   0.00000   0.00000
     35582 MEOH     1983     MEOH     LP1A     LPD     -0.230000        0.0000           -1   0.00000   0.00000
     35583 MEOH     1983     MEOH     LP1B     LPD     -0.230000        0.0000           -1   0.00000   0.00000
     35584 MEOH     1984     MEOH     C1       CD33B    2.314100       11.6110           0   -1.00000   1.30000
     35585 MEOH     1984     MEOH     DC1      DRUD    -2.454100        0.4000           0   0.00000   0.00000
     35586 MEOH     1984     MEOH     O1       OD31H    2.488300       15.5990           0   -1.02800   1.30000
     35587 MEOH     1984     MEOH     DO1      DRUD    -2.488300        0.4000           0   0.00000   0.00000
     35588 MEOH     1984     MEOH     HO1      HDP1A    0.360000        1.0080           0   0.00000   0.00000
     35589 MEOH     1984     MEOH     HO2      DUMH     0.000000        1.0080           0   0.00000   0.00000
     35590 MEOH     1984     MEOH     H1A      HDA3B    0.080000        1.0080           0   0.00000   0.00000
     35591 MEOH     1984     MEOH     H1B      HDA3B    0.080000        1.0080           0   0.00000   0.00000
     35592 MEOH     1984     MEOH     H1C      HDA3B    0.080000        1.0080           0   0.00000   0.00000
     35593 MEOH     1984     MEOH     LP1A     LPD     -0.230000        0.0000           -1   0.00000   0.00000
     35594 MEOH     1984     MEOH     LP1B     LPD     -0.230000        0.0000           -1   0.00000   0.00000
     35595 MEOH     1985     MEOH     C1       CD33B    2.314100       11.6110           0   -1.00000   1.30000
     35596 MEOH     1985     MEOH     DC1      DRUD    -2.454100        0.4000           0   0.00000   0.00000
     35597 MEOH     1985     MEOH     O1       OD31H    2.488300       15.5990           0   -1.02800   1.30000
     35598 MEOH     1985     MEOH     DO1      DRUD    -2.488300        0.4000           0   0.00000   0.00000
     35599 MEOH     1985     MEOH     HO1      HDP1A    0.360000        1.0080           0   0.00000   0.00000
     35600 MEOH     1985     MEOH     HO2      DUMH     0.000000        1.0080           0   0.00000   0.00000
     35601 MEOH     1985     MEOH     H1A      HDA3B    0.080000        1.0080           0   0.00000   0.00000
     35602 MEOH     1985     MEOH     H1B      HDA3B    0.080000        1.0080           0   0.00000   0.00000
     35603 MEOH     1985     MEOH     H1C      HDA3B    0.080000        1.0080           0   0.00000   0.00000
     35604 MEOH     1985     MEOH     LP1A     LPD     -0.230000        0.0000           -1   0.00000   0.00000
     35605 MEOH     1985     MEOH     LP1B     LPD     -0.230000        0.0000           -1   0.00000   0.00000
     35606 MEOH     1986     MEOH     C1       CD33B    2.314100       11.6110           0   -1.00000   1.30000
     35607 MEOH     1986     MEOH     DC1      DRUD    -2.454100        0.4000           0   0.00000   0.00000
     35608 MEOH     1986     MEOH     O1       OD31H    2.488300       15.5990           0   -1.02800   1.30000
     35609 MEOH     1986     MEOH     DO1      DRUD    -2.488300        0.4000           0   0.00000   0.00000
     35610 MEOH     1986     MEOH     HO1      HDP1A    0.360000        1.0080           0   0.00000   0.00000
     35611 MEOH     1986     MEOH     HO2      DUMH     0.000000        1.0080           0   0.00000   0.00000
     35612 MEOH     1986     MEOH     H1A      HDA3B    0.080000        1.0080           0   0.00000   0.00000
     35613 MEOH     1986     MEOH     H1B      HDA3B    0.080000        1.0080           0   0.00000   0.00000
     35614 MEOH     1986     MEOH     H1C      HDA3B    0.080000        1.0080           0   0.00000   0.00000
     35615 MEOH     1986     MEOH     LP1A     LPD     -0.230000        0.0000           -1   0.00000   0.00000
     35616 MEOH     1986     MEOH     LP1B     LPD     -0.230000        0.0000           -1   0.00000   0.00000
     35617 MEOH     1987     MEOH     C1       CD33B    2.314100       11.6110           0   -1.00000   1.30000
     35618 MEOH     1987     MEOH     DC1      DRUD    -2.454100        0.4000           0   0.00000   0.00000
     35619 MEOH     1987     MEOH     O1       OD31H    2.488300       15.5990           0   -1.02800   1.30000
     35620 MEOH     1987     MEOH     DO1      DRUD    -2.488300        0.4000           0   0.00000   0.00000
     35621 MEOH     1987     MEOH     HO1      HDP1A    0.360000        1.0080           0   0.00000   0.00000
     35622 MEOH     1987     MEOH     HO2      DUMH     0.000000        1.0080           0   0.00000   0.00000
     35623 MEOH     1987     MEOH     H1A      HDA3B    0.080000        1.0080           0   0.00000   0.00000
     35624 MEOH     1987     MEOH     H1B      HDA3B    0.080000        1.0080           0   0.00000   0.00000
     35625 MEOH     1987     MEOH     H1C      HDA3B    0.080000        1.0080           0   0.00000   0.00000
     35626 MEOH     1987     MEOH     LP1A     LPD     -0.230000        0.0000           -1   0.00000   0.00000
     35627 MEOH     1987     MEOH     LP1B     LPD     -0.230000        0.0000           -1   0.00000   0.00000
     35628 MEOH     1988     MEOH     C1       CD33B    2.314100       11.6110           0   -1.00000   1.30000
     35629 MEOH     1988     MEOH     DC1      DRUD    -2.454100        0.4000           0   0.00000   0.00000
     35630 MEOH     1988     MEOH     O1       OD31H    2.488300       15.5990           0   -1.02800   1.30000
     35631 MEOH     1988     MEOH     DO1      DRUD    -2.488300        0.4000           0   0.00000   0.00000
     35632 MEOH     1988     MEOH     HO1      HDP1A    0.360000        1.0080           0   0.00000   0.00000
     35633 MEOH     1988     MEOH     HO2      DUMH     0.000000        1.0080           0   0.00000   0.00000
     35634 MEOH     1988     MEOH     H1A      HDA3B    0.080000        1.0080           0   0.00000   0.00000
     35635 MEOH     1988     MEOH     H1B      HDA3B    0.080000        1.0080           0   0.00000   0.00000
     35636 MEOH     1988     MEOH     H1C      HDA3B    0.080000        1.0080           0   0.00000   0.00000
     35637 MEOH     1988     MEOH     LP1A     LPD     -0.230000        0.0000           -1   0.00000   0.00000
     35638 MEOH     1988     MEOH     LP1B     LPD     -0.230000        0.0000           -1   0.00000   0.00000
     35639 MEOH     1989     MEOH     C1       CD33B    2.314100       11.6110           0   -1.00000   1.30000
     35640 MEOH     1989     MEOH     DC1      DRUD    -2.454100        0.4000           0   0.00000   0.00000
     35641 MEOH     1989     MEOH     O1       OD31H    2.488300       15.5990           0   -1.02800   1.30000
     35642 MEOH     1989     MEOH     DO1      DRUD    -2.488300        0.4000           0   0.00000   0.00000
     35643 MEOH     1989     MEOH     HO1      HDP1A    0.360000        1.0080           0   0.00000   0.00000
     35644 MEOH     1989     MEOH     HO2      DUMH     0.000000        1.0080           0   0.00000   0.00000
     35645 MEOH     1989     MEOH     H1A      HDA3B    0.080000        1.0080           0   0.00000   0.00000
     35646 MEOH     1989     MEOH     H1B      HDA3B    0.080000        1.0080           0   0.00000   0.00000
     35647 MEOH     1989     MEOH     H1C      HDA3B    0.080000        1.0080           0   0.00000   0.00000
     35648 MEOH     1989     MEOH     LP1A     LPD     -0.230000        0.0000           -1   0.00000   0.00000
     35649 MEOH     1989     MEOH     LP1B     LPD     -0.230000        0.0000           -1   0.00000   0.00000
     35650 MEOH     1990     MEOH     C1       CD33B    2.314100       11.6110           0   -1.00000   1.30000
     35651 MEOH     1990     MEOH     DC1      DRUD    -2.454100        0.4000           0   0.00000   0.00000
     35652 MEOH     1990     MEOH     O1       OD31H    2.488300       15.5990           0   -1.02800   1.30000
     35653 MEOH     1990     MEOH     DO1      DRUD    -2.488300        0.4000           0   0.00000   0.00000
     35654 MEOH     1990     MEOH     HO1      HDP1A    0.360000        1.0080           0   0.00000   0.00000
     35655 MEOH     1990     MEOH     HO2      DUMH     0.000000        1.0080           0   0.00000   0.00000
     35656 MEOH     1990     MEOH     H1A      HDA3B    0.080000        1.0080           0   0.00000   0.00000
     35657 MEOH     1990     MEOH     H1B      HDA3B    0.080000        1.0080           0   0.00000   0.00000
     35658 MEOH     1990     MEOH     H1C      HDA3B    0.080000        1.0080           0   0.00000   0.00000
     35659 MEOH     1990     MEOH     LP1A     LPD     -0.230000        0.0000           -1   0.00000   0.00000
     35660 MEOH     1990     MEOH     LP1B     LPD     -0.230000        0.0000           -1   0.00000   0.00000
     35661 MEOH     1991     MEOH     C1       CD33B    2.314100       11.6110           0   -1.00000   1.30000
     35662 MEOH     1991     MEOH     DC1      DRUD    -2.454100        0.4000           0   0.00000   0.00000
     35663 MEOH     1991     MEOH     O1       OD31H    2.488300       15.5990           0   -1.02800   1.30000
     35664 MEOH     1991     MEOH     DO1      DRUD    -2.488300        0.4000           0   0.00000   0.00000
     35665 MEOH     1991     MEOH     HO1      HDP1A    0.360000        1.0080           0   0.00000   0.00000
     35666 MEOH     1991     MEOH     HO2      DUMH     0.000000        1.0080           0   0.00000   0.00000
     35667 MEOH     1991     MEOH     H1A      HDA3B    0.080000        1.0080           0   0.00000   0.00000
     35668 MEOH     1991     MEOH     H1B      HDA3B    0.080000        1.0080           0   0.00000   0.00000
     35669 MEOH     1991     MEOH     H1C      HDA3B    0.080000        1.0080           0   0.00000   0.00000
     35670 MEOH     1991     MEOH     LP1A     LPD     -0.230000        0.0000           -1   0.00000   0.00000
     35671 MEOH     1991     MEOH     LP1B     LPD     -0.230000        0.0000           -1   0.00000   0.00000
     35672 MEOH     1992     MEOH     C1       CD33B    2.314100       11.6110           0   -1.00000   1.30000
     35673 MEOH     1992     MEOH     DC1      DRUD    -2.454100        0.4000           0   0.00000   0.00000
     35674 MEOH     1992     MEOH     O1       OD31H    2.488300       15.5990           0   -1.02800   1.30000
     35675 MEOH     1992     MEOH     DO1      DRUD    -2.488300        0.4000           0   0.00000   0.00000
     35676 MEOH     1992     MEOH     HO1      HDP1A    0.360000        1.0080           0   0.00000   0.00000
     35677 MEOH     1992     MEOH     HO2      DUMH     0.000000        1.0080           0   0.00000   0.00000
     35678 MEOH     1992     MEOH     H1A      HDA3B    0.080000        1.0080           0   0.00000   0.00000
     35679 MEOH     1992     MEOH     H1B      HDA3B    0.080000        1.0080           0   0.00000   0.00000
     35680 MEOH     1992     MEOH     H1C      HDA3B    0.080000        1.0080           0   0.00000   0.00000
     35681 MEOH     1992     MEOH     LP1A     LPD     -0.230000        0.0000           -1   0.00000   0.00000
     35682 MEOH     1992     MEOH     LP1B     LPD     -0.230000        0.0000           -1   0.00000   0.00000
     35683 MEOH     1993     MEOH     C1       CD33B    2.314100       11.6110           0   -1.00000   1.30000
     35684 MEOH     1993     MEOH     DC1      DRUD    -2.454100        0.4000           0   0.00000   0.00000
     35685 MEOH     1993     MEOH     O1       OD31H    2.488300       15.5990           0   -1.02800   1.30000
     35686 MEOH     1993     MEOH     DO1      DRUD    -2.488300        0.4000           0   0.00000   0.00000
     35687 MEOH     1993     MEOH     HO1      HDP1A    0.360000        1.0080           0   0.00000   0.00000
     35688 MEOH     1993     MEOH     HO2      DUMH     0.000000        1.0080           0   0.00000   0.00000
     35689 MEOH     1993     MEOH     H1A      HDA3B    0.080000        1.0080           0   0.00000   0.00000
     35690 MEOH     1993     MEOH     H1B      HDA3B    0.080000        1.0080           0   0.00000   0.00000
     35691 MEOH     1993     MEOH     H1C      HDA3B    0.080000        1.0080           0   0.00000   0.00000
     35692 MEOH     1993     MEOH     LP1A     LPD     -0.230000        0.0000           -1   0.00000   0.00000
     35693 MEOH     1993     MEOH     LP1B     LPD     -0.230000        0.0000           -1   0.00000   0.00000
     35694 MEOH     1994     MEOH     C1       CD33B    2.314100       11.6110           0   -1.00000   1.30000
     35695 MEOH     1994     MEOH     DC1      DRUD    -2.454100        0.4000           0   0.00000   0.00000
     35696 MEOH     1994     MEOH     O1       OD31H    2.488300       15.5990           0   -1.02800   1.30000
     35697 MEOH     1994     MEOH     DO1      DRUD    -2.488300        0.4000           0   0.00000   0.00000
     35698 MEOH     1994     MEOH     HO1      HDP1A    0.360000        1.0080           0   0.00000   0.00000
     35699 MEOH     1994     MEOH     HO2      DUMH     0.000000        1.0080           0   0.00000   0.00000
     35700 MEOH     1994     MEOH     H1A      HDA3B    0.080000        1.0080           0   0.00000   0.00000
     35701 MEOH     1994     MEOH     H1B      HDA3B    0.080000        1.0080           0   0.00000   0.00000
     35702 MEOH     1994     MEOH     H1C      HDA3B    0.080000        1.0080           0   0.00000   0.00000
     35703 MEOH     1994     MEOH     LP1A     LPD     -0.230000        0.0000           -1   0.00000   0.00000
     35704 MEOH     1994     MEOH     LP1B     LPD     -0.230000        0.0000           -1   0.00000   0.00000
     35705 MEOH     1995     MEOH     C1       CD33B    2.314100       11.6110           0   -1.00000   1.30000
     35706 MEOH     1995     MEOH     DC1      DRUD    -2.454100        0.4000           0   0.00000   0.00000
     35707 MEOH     1995     MEOH     O1       OD31H    2.488300       15.5990           0   -1.02800   1.30000
     35708 MEOH     1995     MEOH     DO1      DRUD    -2.488300        0.4000           0   0.00000   0.00000
     35709 MEOH     1995     MEOH     HO1      HDP1A    0.360000        1.0080           0   0.00000   0.00000
     35710 MEOH     1995     MEOH     HO2      DUMH     0.000000        1.0080           0   0.00000   0.00000
     35711 MEOH     1995     MEOH     H1A      HDA3B    0.080000        1.0080           0   0.00000   0.00000
     35712 MEOH     1995     MEOH     H1B      HDA3B    0.080000        1.0080           0   0.00000   0.00000
     35713 MEOH     1995     MEOH     H1C      HDA3B    0.080000        1.0080           0   0.00000   0.00000
     35714 MEOH     1995     MEOH     LP1A     LPD     -0.230000        0.0000           -1   0.00000   0.00000
     35715 MEOH     1995     MEOH     LP1B     LPD     -0.230000        0.0000           -1   0.00000   0.00000
     35716 MEOH     1996     MEOH     C1       CD33B    2.314100       11.6110           0   -1.00000   1.30000
     35717 MEOH     1996     MEOH     DC1      DRUD    -2.454100        0.4000           0   0.00000   0.00000
     35718 MEOH     1996     MEOH     O1       OD31H    2.488300       15.5990           0   -1.02800   1.30000
     35719 MEOH     1996     MEOH     DO1      DRUD    -2.488300        0.4000           0   0.00000   0.00000
     35720 MEOH     1996     MEOH     HO1      HDP1A    0.360000        1.0080           0   0.00000   0.00000
     35721 MEOH     1996     MEOH     HO2      DUMH     0.000000        1.0080           0   0.00000   0.00000
     35722 MEOH     1996     MEOH     H1A      HDA3B    0.080000        1.0080           0   0.00000   0.00000
     35723 MEOH     1996     MEOH     H1B      HDA3B    0.080000        1.0080           0   0.00000   0.00000
     35724 MEOH     1996     MEOH     H1C      HDA3B    0.080000        1.0080           0   0.00000   0.00000
     35725 MEOH     1996     MEOH     LP1A     LPD     -0.230000        0.0000           -1   0.00000   0.00000
     35726 MEOH     1996     MEOH     LP1B     LPD     -0.230000        0.0000           -1   0.00000   0.00000
     35727 MEOH     1997     MEOH     C1       CD33B    2.314100       11.6110           0   -1.00000   1.30000
     35728 MEOH     1997     MEOH     DC1      DRUD    -2.454100        0.4000           0   0.00000   0.00000
     35729 MEOH     1997     MEOH     O1       OD31H    2.488300       15.5990           0   -1.02800   1.30000
     35730 MEOH     1997     MEOH     DO1      DRUD    -2.488300        0.4000           0   0.00000   0.00000
     35731 MEOH     1997     MEOH     HO1      HDP1A    0.360000        1.0080           0   0.00000   0.00000
     35732 MEOH     1997     MEOH     HO2      DUMH     0.000000        1.0080           0   0.00000   0.00000
     35733 MEOH     1997     MEOH     H1A      HDA3B    0.080000        1.0080           0   0.00000   0.00000
     35734 MEOH     1997     MEOH     H1B      HDA3B    0.080000        1.0080           0   0.00000   0.00000
     35735 MEOH     1997     MEOH     H1C      HDA3B    0.080000        1.0080           0   0.00000   0.00000
     35736 MEOH     1997     MEOH     LP1A     LPD     -0.230000        0.0000           -1   0.00000   0.00000
     35737 MEOH     1997     MEOH     LP1B     LPD     -0.230000        0.0000           -1   0.00000   0.00000
     35738 MEOH     1998     MEOH     C1       CD33B    2.314100       11.6110           0   -1.00000   1.30000
     35739 MEOH     1998     MEOH     DC1      DRUD    -2.454100        0.4000           0   0.00000   0.00000
     35740 MEOH     1998     MEOH     O1       OD31H    2.488300       15.5990           0   -1.02800   1.30000
     35741 MEOH     1998     MEOH     DO1      DRUD    -2.488300        0.4000           0   0.00000   0.00000
     35742 MEOH     1998     MEOH     HO1      HDP1A    0.360000        1.0080           0   0.00000   0.00000
     35743 MEOH     1998     MEOH     HO2      DUMH     0.000000        1.0080           0   0.00000   0.00000
     35744 MEOH     1998     MEOH     H1A      HDA3B    0.080000        1.0080           0   0.00000   0.00000
     35745 MEOH     1998     MEOH     H1B      HDA3B    0.080000        1.0080           0   0.00000   0.00000
     35746 MEOH     1998     MEOH     H1C      HDA3B    0.080000        1.0080           0   0.00000   0.00000
     35747 MEOH     1998     MEOH     LP1A     LPD     -0.230000        0.0000           -1   0.00000   0.00000
     35748 MEOH     1998     MEOH     LP1B     LPD     -0.230000        0.0000           -1   0.00000   0.00000
     35749 MEOH     1999     MEOH     C1       CD33B    2.314100       11.6110           0   -1.00000   1.30000
     35750 MEOH     1999     MEOH     DC1      DRUD    -2.454100        0.4000           0   0.00000   0.00000
     35751 MEOH     1999     MEOH     O1       OD31H    2.488300       15.5990           0   -1.02800   1.30000
     35752 MEOH     1999     MEOH     DO1      DRUD    -2.488300        0.4000           0   0.00000   0.00000
     35753 MEOH     1999     MEOH     HO1      HDP1A    0.360000        1.0080           0   0.00000   0.00000
     35754 MEOH     1999     MEOH     HO2      DUMH     0.000000        1.0080           0   0.00000   0.00000
     35755 MEOH     1999     MEOH     H1A      HDA3B    0.080000        1.0080           0   0.00000   0.00000
     35756 MEOH     1999     MEOH     H1B      HDA3B    0.080000        1.0080           0   0.00000   0.00000
     35757 MEOH     1999     MEOH     H1C      HDA3B    0.080000        1.0080           0   0.00000   0.00000
     35758 MEOH     1999     MEOH     LP1A     LPD     -0.230000        0.0000           -1   0.00000   0.00000
     35759 MEOH     1999     MEOH     LP1B     LPD     -0.230000        0.0000           -1   0.00000   0.00000
     35760 MEOH     2000     MEOH     C1       CD33B    2.314100       11.6110           0   -1.00000   1.30000
     35761 MEOH     2000     MEOH     DC1      DRUD    -2.454100        0.4000           0   0.00000   0.00000
     35762 MEOH     2000     MEOH     O1       OD31H    2.488300       15.5990           0   -1.02800   1.30000
     35763 MEOH     2000     MEOH     DO1      DRUD    -2.488300        0.4000           0   0.00000   0.00000
     35764 MEOH     2000     MEOH     HO1      HDP1A    0.360000        1.0080           0   0.00000   0.00000
     35765 MEOH     2000     MEOH     HO2      DUMH     0.000000        1.0080           0   0.00000   0.00000
     35766 MEOH     2000     MEOH     H1A      HDA3B    0.080000        1.0080           0   0.00000   0.00000
     35767 MEOH     2000     MEOH     H1B      HDA3B    0.080000        1.0080           0   0.00000   0.00000
     35768 MEOH     2000     MEOH     H1C      HDA3B    0.080000        1.0080           0   0.00000   0.00000
     35769 MEOH     2000     MEOH     LP1A     LPD     -0.230000        0.0000           -1   0.00000   0.00000
     35770 MEOH     2000     MEOH     LP1B     LPD     -0.230000        0.0000           -1   0.00000   0.00000
     35771 MEOH     2001     MEOH     C1       CD33B    2.314100       11.6110           0   -1.00000   1.30000
     35772 MEOH     2001     MEOH     DC1      DRUD    -2.454100        0.4000           0   0.00000   0.00000
     35773 MEOH     2001     MEOH     O1       OD31H    2.488300       15.5990           0   -1.02800   1.30000
     35774 MEOH     2001     MEOH     DO1      DRUD    -2.488300        0.4000           0   0.00000   0.00000
     35775 MEOH     2001     MEOH     HO1      HDP1A    0.360000        1.0080           0   0.00000   0.00000
     35776 MEOH     2001     MEOH     HO2      DUMH     0.000000        1.0080           0   0.00000   0.00000
     35777 MEOH     2001     MEOH     H1A      HDA3B    0.080000        1.0080           0   0.00000   0.00000
     35778 MEOH     2001     MEOH     H1B      HDA3B    0.080000        1.0080           0   0.00000   0.00000
     35779 MEOH     2001     MEOH     H1C      HDA3B    0.080000        1.0080           0   0.00000   0.00000
     35780 MEOH     2001     MEOH     LP1A     LPD     -0.230000        0.0000           -1   0.00000   0.00000
     35781 MEOH     2001     MEOH     LP1B     LPD     -0.230000        0.0000           -1   0.00000   0.00000
     35782 MEOH     2002     MEOH     C1       CD33B    2.314100       11.6110           0   -1.00000   1.30000
     35783 MEOH     2002     MEOH     DC1      DRUD    -2.454100        0.4000           0   0.00000   0.00000
     35784 MEOH     2002     MEOH     O1       OD31H    2.488300       15.5990           0   -1.02800   1.30000
     35785 MEOH     2002     MEOH     DO1      DRUD    -2.488300        0.4000           0   0.00000   0.00000
     35786 MEOH     2002     MEOH     HO1      HDP1A    0.360000        1.0080           0   0.00000   0.00000
     35787 MEOH     2002     MEOH     HO2      DUMH     0.000000        1.0080           0   0.00000   0.00000
     35788 MEOH     2002     MEOH     H1A      HDA3B    0.080000        1.0080           0   0.00000   0.00000
     35789 MEOH     2002     MEOH     H1B      HDA3B    0.080000        1.0080           0   0.00000   0.00000
     35790 MEOH     2002     MEOH     H1C      HDA3B    0.080000        1.0080           0   0.00000   0.00000
     35791 MEOH     2002     MEOH     LP1A     LPD     -0.230000        0.0000           -1   0.00000   0.00000
     35792 MEOH     2002     MEOH     LP1B     LPD     -0.230000        0.0000           -1   0.00000   0.00000
     35793 MEOH     2003     MEOH     C1       CD33B    2.314100       11.6110           0   -1.00000   1.30000
     35794 MEOH     2003     MEOH     DC1      DRUD    -2.454100        0.4000           0   0.00000   0.00000
     35795 MEOH     2003     MEOH     O1       OD31H    2.488300       15.5990           0   -1.02800   1.30000
     35796 MEOH     2003     MEOH     DO1      DRUD    -2.488300        0.4000           0   0.00000   0.00000
     35797 MEOH     2003     MEOH     HO1      HDP1A    0.360000        1.0080           0   0.00000   0.00000
     35798 MEOH     2003     MEOH     HO2      DUMH     0.000000        1.0080           0   0.00000   0.00000
     35799 MEOH     2003     MEOH     H1A      HDA3B    0.080000        1.0080           0   0.00000   0.00000
     35800 MEOH     2003     MEOH     H1B      HDA3B    0.080000        1.0080           0   0.00000   0.00000
     35801 MEOH     2003     MEOH     H1C      HDA3B    0.080000        1.0080           0   0.00000   0.00000
     35802 MEOH     2003     MEOH     LP1A     LPD     -0.230000        0.0000           -1   0.00000   0.00000
     35803 MEOH     2003     MEOH     LP1B     LPD     -0.230000        0.0000           -1   0.00000   0.00000
     35804 MEOH     2004     MEOH     C1       CD33B    2.314100       11.6110           0   -1.00000   1.30000
     35805 MEOH     2004     MEOH     DC1      DRUD    -2.454100        0.4000           0   0.00000   0.00000
     35806 MEOH     2004     MEOH     O1       OD31H    2.488300       15.5990           0   -1.02800   1.30000
     35807 MEOH     2004     MEOH     DO1      DRUD    -2.488300        0.4000           0   0.00000   0.00000
     35808 MEOH     2004     MEOH     HO1      HDP1A    0.360000        1.0080           0   0.00000   0.00000
     35809 MEOH     2004     MEOH     HO2      DUMH     0.000000        1.0080           0   0.00000   0.00000
     35810 MEOH     2004     MEOH     H1A      HDA3B    0.080000        1.0080           0   0.00000   0.00000
     35811 MEOH     2004     MEOH     H1B      HDA3B    0.080000        1.0080           0   0.00000   0.00000
     35812 MEOH     2004     MEOH     H1C      HDA3B    0.080000        1.0080           0   0.00000   0.00000
     35813 MEOH     2004     MEOH     LP1A     LPD     -0.230000        0.0000           -1   0.00000   0.00000
     35814 MEOH     2004     MEOH     LP1B     LPD     -0.230000        0.0000           -1   0.00000   0.00000
     35815 MEOH     2005     MEOH     C1       CD33B    2.314100       11.6110           0   -1.00000   1.30000
     35816 MEOH     2005     MEOH     DC1      DRUD    -2.454100        0.4000           0   0.00000   0.00000
     35817 MEOH     2005     MEOH     O1       OD31H    2.488300       15.5990           0   -1.02800   1.30000
     35818 MEOH     2005     MEOH     DO1      DRUD    -2.488300        0.4000           0   0.00000   0.00000
     35819 MEOH     2005     MEOH     HO1      HDP1A    0.360000        1.0080           0   0.00000   0.00000
     35820 MEOH     2005     MEOH     HO2      DUMH     0.000000        1.0080           0   0.00000   0.00000
     35821 MEOH     2005     MEOH     H1A      HDA3B    0.080000        1.0080           0   0.00000   0.00000
     35822 MEOH     2005     MEOH     H1B      HDA3B    0.080000        1.0080           0   0.00000   0.00000
     35823 MEOH     2005     MEOH     H1C      HDA3B    0.080000        1.0080           0   0.00000   0.00000
     35824 MEOH     2005     MEOH     LP1A     LPD     -0.230000        0.0000           -1   0.00000   0.00000
     35825 MEOH     2005     MEOH     LP1B     LPD     -0.230000        0.0000           -1   0.00000   0.00000
     35826 MEOH     2006     MEOH     C1       CD33B    2.314100       11.6110           0   -1.00000   1.30000
     35827 MEOH     2006     MEOH     DC1      DRUD    -2.454100        0.4000           0   0.00000   0.00000
     35828 MEOH     2006     MEOH     O1       OD31H    2.488300       15.5990           0   -1.02800   1.30000
     35829 MEOH     2006     MEOH     DO1      DRUD    -2.488300        0.4000           0   0.00000   0.00000
     35830 MEOH     2006     MEOH     HO1      HDP1A    0.360000        1.0080           0   0.00000   0.00000
     35831 MEOH     2006     MEOH     HO2      DUMH     0.000000        1.0080           0   0.00000   0.00000
     35832 MEOH     2006     MEOH     H1A      HDA3B    0.080000        1.0080           0   0.00000   0.00000
     35833 MEOH     2006     MEOH     H1B      HDA3B    0.080000        1.0080           0   0.00000   0.00000
     35834 MEOH     2006     MEOH     H1C      HDA3B    0.080000        1.0080           0   0.00000   0.00000
     35835 MEOH     2006     MEOH     LP1A     LPD     -0.230000        0.0000           -1   0.00000   0.00000
     35836 MEOH     2006     MEOH     LP1B     LPD     -0.230000        0.0000           -1   0.00000   0.00000
     35837 MEOH     2007     MEOH     C1       CD33B    2.314100       11.6110           0   -1.00000   1.30000
     35838 MEOH     2007     MEOH     DC1      DRUD    -2.454100        0.4000           0   0.00000   0.00000
     35839 MEOH     2007     MEOH     O1       OD31H    2.488300       15.5990           0   -1.02800   1.30000
     35840 MEOH     2007     MEOH     DO1      DRUD    -2.488300        0.4000           0   0.00000   0.00000
     35841 MEOH     2007     MEOH     HO1      HDP1A    0.360000        1.0080           0   0.00000   0.00000
     35842 MEOH     2007     MEOH     HO2      DUMH     0.000000        1.0080           0   0.00000   0.00000
     35843 MEOH     2007     MEOH     H1A      HDA3B    0.080000        1.0080           0   0.00000   0.00000
     35844 MEOH     2007     MEOH     H1B      HDA3B    0.080000        1.0080           0   0.00000   0.00000
     35845 MEOH     2007     MEOH     H1C      HDA3B    0.080000        1.0080           0   0.00000   0.00000
     35846 MEOH     2007     MEOH     LP1A     LPD     -0.230000        0.0000           -1   0.00000   0.00000
     35847 MEOH     2007     MEOH     LP1B     LPD     -0.230000        0.0000           -1   0.00000   0.00000
     35848 MEOH     2008     MEOH     C1       CD33B    2.314100       11.6110           0   -1.00000   1.30000
     35849 MEOH     2008     MEOH     DC1      DRUD    -2.454100        0.4000           0   0.00000   0.00000
     35850 MEOH     2008     MEOH     O1       OD31H    2.488300       15.5990           0   -1.02800   1.30000
     35851 MEOH     2008     MEOH     DO1      DRUD    -2.488300        0.4000           0   0.00000   0.00000
     35852 MEOH     2008     MEOH     HO1      HDP1A    0.360000        1.0080           0   0.00000   0.00000
     35853 MEOH     2008     MEOH     HO2      DUMH     0.000000        1.0080           0   0.00000   0.00000
     35854 MEOH     2008     MEOH     H1A      HDA3B    0.080000        1.0080           0   0.00000   0.00000
     35855 MEOH     2008     MEOH     H1B      HDA3B    0.080000        1.0080           0   0.00000   0.00000
     35856 MEOH     2008     MEOH     H1C      HDA3B    0.080000        1.0080           0   0.00000   0.00000
     35857 MEOH     2008     MEOH     LP1A     LPD     -0.230000        0.0000           -1   0.00000   0.00000
     35858 MEOH     2008     MEOH     LP1B     LPD     -0.230000        0.0000           -1   0.00000   0.00000
     35859 MEOH     2009     MEOH     C1       CD33B    2.314100       11.6110           0   -1.00000   1.30000
     35860 MEOH     2009     MEOH     DC1      DRUD    -2.454100        0.4000           0   0.00000   0.00000
     35861 MEOH     2009     MEOH     O1       OD31H    2.488300       15.5990           0   -1.02800   1.30000
     35862 MEOH     2009     MEOH     DO1      DRUD    -2.488300        0.4000           0   0.00000   0.00000
     35863 MEOH     2009     MEOH     HO1      HDP1A    0.360000        1.0080           0   0.00000   0.00000
     35864 MEOH     2009     MEOH     HO2      DUMH     0.000000        1.0080           0   0.00000   0.00000
     35865 MEOH     2009     MEOH     H1A      HDA3B    0.080000        1.0080           0   0.00000   0.00000
     35866 MEOH     2009     MEOH     H1B      HDA3B    0.080000        1.0080           0   0.00000   0.00000
     35867 MEOH     2009     MEOH     H1C      HDA3B    0.080000        1.0080           0   0.00000   0.00000
     35868 MEOH     2009     MEOH     LP1A     LPD     -0.230000        0.0000           -1   0.00000   0.00000
     35869 MEOH     2009     MEOH     LP1B     LPD     -0.230000        0.0000           -1   0.00000   0.00000
     35870 MEOH     2010     MEOH     C1       CD33B    2.314100       11.6110           0   -1.00000   1.30000
     35871 MEOH     2010     MEOH     DC1      DRUD    -2.454100        0.4000           0   0.00000   0.00000
     35872 MEOH     2010     MEOH     O1       OD31H    2.488300       15.5990           0   -1.02800   1.30000
     35873 MEOH     2010     MEOH     DO1      DRUD    -2.488300        0.4000           0   0.00000   0.00000
     35874 MEOH     2010     MEOH     HO1      HDP1A    0.360000        1.0080           0   0.00000   0.00000
     35875 MEOH     2010     MEOH     HO2      DUMH     0.000000        1.0080           0   0.00000   0.00000
     35876 MEOH     2010     MEOH     H1A      HDA3B    0.080000        1.0080           0   0.00000   0.00000
     35877 MEOH     2010     MEOH     H1B      HDA3B    0.080000        1.0080           0   0.00000   0.00000
     35878 MEOH     2010     MEOH     H1C      HDA3B    0.080000        1.0080           0   0.00000   0.00000
     35879 MEOH     2010     MEOH     LP1A     LPD     -0.230000        0.0000           -1   0.00000   0.00000
     35880 MEOH     2010     MEOH     LP1B     LPD     -0.230000        0.0000           -1   0.00000   0.00000
     35881 MEOH     2011     MEOH     C1       CD33B    2.314100       11.6110           0   -1.00000   1.30000
     35882 MEOH     2011     MEOH     DC1      DRUD    -2.454100        0.4000           0   0.00000   0.00000
     35883 MEOH     2011     MEOH     O1       OD31H    2.488300       15.5990           0   -1.02800   1.30000
     35884 MEOH     2011     MEOH     DO1      DRUD    -2.488300        0.4000           0   0.00000   0.00000
     35885 MEOH     2011     MEOH     HO1      HDP1A    0.360000        1.0080           0   0.00000   0.00000
     35886 MEOH     2011     MEOH     HO2      DUMH     0.000000        1.0080           0   0.00000   0.00000
     35887 MEOH     2011     MEOH     H1A      HDA3B    0.080000        1.0080           0   0.00000   0.00000
     35888 MEOH     2011     MEOH     H1B      HDA3B    0.080000        1.0080           0   0.00000   0.00000
     35889 MEOH     2011     MEOH     H1C      HDA3B    0.080000        1.0080           0   0.00000   0.00000
     35890 MEOH     2011     MEOH     LP1A     LPD     -0.230000        0.0000           -1   0.00000   0.00000
     35891 MEOH     2011     MEOH     LP1B     LPD     -0.230000        0.0000           -1   0.00000   0.00000
     35892 MEOH     2012     MEOH     C1       CD33B    2.314100       11.6110           0   -1.00000   1.30000
     35893 MEOH     2012     MEOH     DC1      DRUD    -2.454100        0.4000           0   0.00000   0.00000
     35894 MEOH     2012     MEOH     O1       OD31H    2.488300       15.5990           0   -1.02800   1.30000
     35895 MEOH     2012     MEOH     DO1      DRUD    -2.488300        0.4000           0   0.00000   0.00000
     35896 MEOH     2012     MEOH     HO1      HDP1A    0.360000        1.0080           0   0.00000   0.00000
     35897 MEOH     2012     MEOH     HO2      DUMH     0.000000        1.0080           0   0.00000   0.00000
     35898 MEOH     2012     MEOH     H1A      HDA3B    0.080000        1.0080           0   0.00000   0.00000
     35899 MEOH     2012     MEOH     H1B      HDA3B    0.080000        1.0080           0   0.00000   0.00000
     35900 MEOH     2012     MEOH     H1C      HDA3B    0.080000        1.0080           0   0.00000   0.00000
     35901 MEOH     2012     MEOH     LP1A     LPD     -0.230000        0.0000           -1   0.00000   0.00000
     35902 MEOH     2012     MEOH     LP1B     LPD     -0.230000        0.0000           -1   0.00000   0.00000
     35903 MEOH     2013     MEOH     C1       CD33B    2.314100       11.6110           0   -1.00000   1.30000
     35904 MEOH     2013     MEOH     DC1      DRUD    -2.454100        0.4000           0   0.00000   0.00000
     35905 MEOH     2013     MEOH     O1       OD31H    2.488300       15.5990           0   -1.02800   1.30000
     35906 MEOH     2013     MEOH     DO1      DRUD    -2.488300        0.4000           0   0.00000   0.00000
     35907 MEOH     2013     MEOH     HO1      HDP1A    0.360000        1.0080           0   0.00000   0.00000
     35908 MEOH     2013     MEOH     HO2      DUMH     0.000000        1.0080           0   0.00000   0.00000
     35909 MEOH     2013     MEOH     H1A      HDA3B    0.080000        1.0080           0   0.00000   0.00000
     35910 MEOH     2013     MEOH     H1B      HDA3B    0.080000        1.0080           0   0.00000   0.00000
     35911 MEOH     2013     MEOH     H1C      HDA3B    0.080000        1.0080           0   0.00000   0.00000
     35912 MEOH     2013     MEOH     LP1A     LPD     -0.230000        0.0000           -1   0.00000   0.00000
     35913 MEOH     2013     MEOH     LP1B     LPD     -0.230000        0.0000           -1   0.00000   0.00000
     35914 MEOH     2014     MEOH     C1       CD33B    2.314100       11.6110           0   -1.00000   1.30000
     35915 MEOH     2014     MEOH     DC1      DRUD    -2.454100        0.4000           0   0.00000   0.00000
     35916 MEOH     2014     MEOH     O1       OD31H    2.488300       15.5990           0   -1.02800   1.30000
     35917 MEOH     2014     MEOH     DO1      DRUD    -2.488300        0.4000           0   0.00000   0.00000
     35918 MEOH     2014     MEOH     HO1      HDP1A    0.360000        1.0080           0   0.00000   0.00000
     35919 MEOH     2014     MEOH     HO2      DUMH     0.000000        1.0080           0   0.00000   0.00000
     35920 MEOH     2014     MEOH     H1A      HDA3B    0.080000        1.0080           0   0.00000   0.00000
     35921 MEOH     2014     MEOH     H1B      HDA3B    0.080000        1.0080           0   0.00000   0.00000
     35922 MEOH     2014     MEOH     H1C      HDA3B    0.080000        1.0080           0   0.00000   0.00000
     35923 MEOH     2014     MEOH     LP1A     LPD     -0.230000        0.0000           -1   0.00000   0.00000
     35924 MEOH     2014     MEOH     LP1B     LPD     -0.230000        0.0000           -1   0.00000   0.00000
     35925 MEOH     2015     MEOH     C1       CD33B    2.314100       11.6110           0   -1.00000   1.30000
     35926 MEOH     2015     MEOH     DC1      DRUD    -2.454100        0.4000           0   0.00000   0.00000
     35927 MEOH     2015     MEOH     O1       OD31H    2.488300       15.5990           0   -1.02800   1.30000
     35928 MEOH     2015     MEOH     DO1      DRUD    -2.488300        0.4000           0   0.00000   0.00000
     35929 MEOH     2015     MEOH     HO1      HDP1A    0.360000        1.0080           0   0.00000   0.00000
     35930 MEOH     2015     MEOH     HO2      DUMH     0.000000        1.0080           0   0.00000   0.00000
     35931 MEOH     2015     MEOH     H1A      HDA3B    0.080000        1.0080           0   0.00000   0.00000
     35932 MEOH     2015     MEOH     H1B      HDA3B    0.080000        1.0080           0   0.00000   0.00000
     35933 MEOH     2015     MEOH     H1C      HDA3B    0.080000        1.0080           0   0.00000   0.00000
     35934 MEOH     2015     MEOH     LP1A     LPD     -0.230000        0.0000           -1   0.00000   0.00000
     35935 MEOH     2015     MEOH     LP1B     LPD     -0.230000        0.0000           -1   0.00000   0.00000
     35936 MEOH     2016     MEOH     C1       CD33B    2.314100       11.6110           0   -1.00000   1.30000
     35937 MEOH     2016     MEOH     DC1      DRUD    -2.454100        0.4000           0   0.00000   0.00000
     35938 MEOH     2016     MEOH     O1       OD31H    2.488300       15.5990           0   -1.02800   1.30000
     35939 MEOH     2016     MEOH     DO1      DRUD    -2.488300        0.4000           0   0.00000   0.00000
     35940 MEOH     2016     MEOH     HO1      HDP1A    0.360000        1.0080           0   0.00000   0.00000
     35941 MEOH     2016     MEOH     HO2      DUMH     0.000000        1.0080           0   0.00000   0.00000
     35942 MEOH     2016     MEOH     H1A      HDA3B    0.080000        1.0080           0   0.00000   0.00000
     35943 MEOH     2016     MEOH     H1B      HDA3B    0.080000        1.0080           0   0.00000   0.00000
     35944 MEOH     2016     MEOH     H1C      HDA3B    0.080000        1.0080           0   0.00000   0.00000
     35945 MEOH     2016     MEOH     LP1A     LPD     -0.230000        0.0000           -1   0.00000   0.00000
     35946 MEOH     2016     MEOH     LP1B     LPD     -0.230000        0.0000           -1   0.00000   0.00000
     35947 MEOH     2017     MEOH     C1       CD33B    2.314100       11.6110           0   -1.00000   1.30000
     35948 MEOH     2017     MEOH     DC1      DRUD    -2.454100        0.4000           0   0.00000   0.00000
     35949 MEOH     2017     MEOH     O1       OD31H    2.488300       15.5990           0   -1.02800   1.30000
     35950 MEOH     2017     MEOH     DO1      DRUD    -2.488300        0.4000           0   0.00000   0.00000
     35951 MEOH     2017     MEOH     HO1      HDP1A    0.360000        1.0080           0   0.00000   0.00000
     35952 MEOH     2017     MEOH     HO2      DUMH     0.000000        1.0080           0   0.00000   0.00000
     35953 MEOH     2017     MEOH     H1A      HDA3B    0.080000        1.0080           0   0.00000   0.00000
     35954 MEOH     2017     MEOH     H1B      HDA3B    0.080000        1.0080           0   0.00000   0.00000
     35955 MEOH     2017     MEOH     H1C      HDA3B    0.080000        1.0080           0   0.00000   0.00000
     35956 MEOH     2017     MEOH     LP1A     LPD     -0.230000        0.0000           -1   0.00000   0.00000
     35957 MEOH     2017     MEOH     LP1B     LPD     -0.230000        0.0000           -1   0.00000   0.00000
     35958 MEOH     2018     MEOH     C1       CD33B    2.314100       11.6110           0   -1.00000   1.30000
     35959 MEOH     2018     MEOH     DC1      DRUD    -2.454100        0.4000           0   0.00000   0.00000
     35960 MEOH     2018     MEOH     O1       OD31H    2.488300       15.5990           0   -1.02800   1.30000
     35961 MEOH     2018     MEOH     DO1      DRUD    -2.488300        0.4000           0   0.00000   0.00000
     35962 MEOH     2018     MEOH     HO1      HDP1A    0.360000        1.0080           0   0.00000   0.00000
     35963 MEOH     2018     MEOH     HO2      DUMH     0.000000        1.0080           0   0.00000   0.00000
     35964 MEOH     2018     MEOH     H1A      HDA3B    0.080000        1.0080           0   0.00000   0.00000
     35965 MEOH     2018     MEOH     H1B      HDA3B    0.080000        1.0080           0   0.00000   0.00000
     35966 MEOH     2018     MEOH     H1C      HDA3B    0.080000        1.0080           0   0.00000   0.00000
     35967 MEOH     2018     MEOH     LP1A     LPD     -0.230000        0.0000           -1   0.00000   0.00000
     35968 MEOH     2018     MEOH     LP1B     LPD     -0.230000        0.0000           -1   0.00000   0.00000
     35969 MEOH     2019     MEOH     C1       CD33B    2.314100       11.6110           0   -1.00000   1.30000
     35970 MEOH     2019     MEOH     DC1      DRUD    -2.454100        0.4000           0   0.00000   0.00000
     35971 MEOH     2019     MEOH     O1       OD31H    2.488300       15.5990           0   -1.02800   1.30000
     35972 MEOH     2019     MEOH     DO1      DRUD    -2.488300        0.4000           0   0.00000   0.00000
     35973 MEOH     2019     MEOH     HO1      HDP1A    0.360000        1.0080           0   0.00000   0.00000
     35974 MEOH     2019     MEOH     HO2      DUMH     0.000000        1.0080           0   0.00000   0.00000
     35975 MEOH     2019     MEOH     H1A      HDA3B    0.080000        1.0080           0   0.00000   0.00000
     35976 MEOH     2019     MEOH     H1B      HDA3B    0.080000        1.0080           0   0.00000   0.00000
     35977 MEOH     2019     MEOH     H1C      HDA3B    0.080000        1.0080           0   0.00000   0.00000
     35978 MEOH     2019     MEOH     LP1A     LPD     -0.230000        0.0000           -1   0.00000   0.00000
     35979 MEOH     2019     MEOH     LP1B     LPD     -0.230000        0.0000           -1   0.00000   0.00000
     35980 MEOH     2020     MEOH     C1       CD33B    2.314100       11.6110           0   -1.00000   1.30000
     35981 MEOH     2020     MEOH     DC1      DRUD    -2.454100        0.4000           0   0.00000   0.00000
     35982 MEOH     2020     MEOH     O1       OD31H    2.488300       15.5990           0   -1.02800   1.30000
     35983 MEOH     2020     MEOH     DO1      DRUD    -2.488300        0.4000           0   0.00000   0.00000
     35984 MEOH     2020     MEOH     HO1      HDP1A    0.360000        1.0080           0   0.00000   0.00000
     35985 MEOH     2020     MEOH     HO2      DUMH     0.000000        1.0080           0   0.00000   0.00000
     35986 MEOH     2020     MEOH     H1A      HDA3B    0.080000        1.0080           0   0.00000   0.00000
     35987 MEOH     2020     MEOH     H1B      HDA3B    0.080000        1.0080           0   0.00000   0.00000
     35988 MEOH     2020     MEOH     H1C      HDA3B    0.080000        1.0080           0   0.00000   0.00000
     35989 MEOH     2020     MEOH     LP1A     LPD     -0.230000        0.0000           -1   0.00000   0.00000
     35990 MEOH     2020     MEOH     LP1B     LPD     -0.230000        0.0000           -1   0.00000   0.00000
     35991 MEOH     2021     MEOH     C1       CD33B    2.314100       11.6110           0   -1.00000   1.30000
     35992 MEOH     2021     MEOH     DC1      DRUD    -2.454100        0.4000           0   0.00000   0.00000
     35993 MEOH     2021     MEOH     O1       OD31H    2.488300       15.5990           0   -1.02800   1.30000
     35994 MEOH     2021     MEOH     DO1      DRUD    -2.488300        0.4000           0   0.00000   0.00000
     35995 MEOH     2021     MEOH     HO1      HDP1A    0.360000        1.0080           0   0.00000   0.00000
     35996 MEOH     2021     MEOH     HO2      DUMH     0.000000        1.0080           0   0.00000   0.00000
     35997 MEOH     2021     MEOH     H1A      HDA3B    0.080000        1.0080           0   0.00000   0.00000
     35998 MEOH     2021     MEOH     H1B      HDA3B    0.080000        1.0080           0   0.00000   0.00000
     35999 MEOH     2021     MEOH     H1C      HDA3B    0.080000        1.0080           0   0.00000   0.00000
     36000 MEOH     2021     MEOH     LP1A     LPD     -0.230000        0.0000           -1   0.00000   0.00000
     36001 MEOH     2021     MEOH     LP1B     LPD     -0.230000        0.0000           -1   0.00000   0.00000
     36002 MEOH     2022     MEOH     C1       CD33B    2.314100       11.6110           0   -1.00000   1.30000
     36003 MEOH     2022     MEOH     DC1      DRUD    -2.454100        0.4000           0   0.00000   0.00000
     36004 MEOH     2022     MEOH     O1       OD31H    2.488300       15.5990           0   -1.02800   1.30000
     36005 MEOH     2022     MEOH     DO1      DRUD    -2.488300        0.4000           0   0.00000   0.00000
     36006 MEOH     2022     MEOH     HO1      HDP1A    0.360000        1.0080           0   0.00000   0.00000
     36007 MEOH     2022     MEOH     HO2      DUMH     0.000000        1.0080           0   0.00000   0.00000
     36008 MEOH     2022     MEOH     H1A      HDA3B    0.080000        1.0080           0   0.00000   0.00000
     36009 MEOH     2022     MEOH     H1B      HDA3B    0.080000        1.0080           0   0.00000   0.00000
     36010 MEOH     2022     MEOH     H1C      HDA3B    0.080000        1.0080           0   0.00000   0.00000
     36011 MEOH     2022     MEOH     LP1A     LPD     -0.230000        0.0000           -1   0.00000   0.00000
     36012 MEOH     2022     MEOH     LP1B     LPD     -0.230000        0.0000           -1   0.00000   0.00000
     36013 MEOH     2023     MEOH     C1       CD33B    2.314100       11.6110           0   -1.00000   1.30000
     36014 MEOH     2023     MEOH     DC1      DRUD    -2.454100        0.4000           0   0.00000   0.00000
     36015 MEOH     2023     MEOH     O1       OD31H    2.488300       15.5990           0   -1.02800   1.30000
     36016 MEOH     2023     MEOH     DO1      DRUD    -2.488300        0.4000           0   0.00000   0.00000
     36017 MEOH     2023     MEOH     HO1      HDP1A    0.360000        1.0080           0   0.00000   0.00000
     36018 MEOH     2023     MEOH     HO2      DUMH     0.000000        1.0080           0   0.00000   0.00000
     36019 MEOH     2023     MEOH     H1A      HDA3B    0.080000        1.0080           0   0.00000   0.00000
     36020 MEOH     2023     MEOH     H1B      HDA3B    0.080000        1.0080           0   0.00000   0.00000
     36021 MEOH     2023     MEOH     H1C      HDA3B    0.080000        1.0080           0   0.00000   0.00000
     36022 MEOH     2023     MEOH     LP1A     LPD     -0.230000        0.0000           -1   0.00000   0.00000
     36023 MEOH     2023     MEOH     LP1B     LPD     -0.230000        0.0000           -1   0.00000   0.00000
     36024 MEOH     2024     MEOH     C1       CD33B    2.314100       11.6110           0   -1.00000   1.30000
     36025 MEOH     2024     MEOH     DC1      DRUD    -2.454100        0.4000           0   0.00000   0.00000
     36026 MEOH     2024     MEOH     O1       OD31H    2.488300       15.5990           0   -1.02800   1.30000
     36027 MEOH     2024     MEOH     DO1      DRUD    -2.488300        0.4000           0   0.00000   0.00000
     36028 MEOH     2024     MEOH     HO1      HDP1A    0.360000        1.0080           0   0.00000   0.00000
     36029 MEOH     2024     MEOH     HO2      DUMH     0.000000        1.0080           0   0.00000   0.00000
     36030 MEOH     2024     MEOH     H1A      HDA3B    0.080000        1.0080           0   0.00000   0.00000
     36031 MEOH     2024     MEOH     H1B      HDA3B    0.080000        1.0080           0   0.00000   0.00000
     36032 MEOH     2024     MEOH     H1C      HDA3B    0.080000        1.0080           0   0.00000   0.00000
     36033 MEOH     2024     MEOH     LP1A     LPD     -0.230000        0.0000           -1   0.00000   0.00000
     36034 MEOH     2024     MEOH     LP1B     LPD     -0.230000        0.0000           -1   0.00000   0.00000
     36035 MEOH     2025     MEOH     C1       CD33B    2.314100       11.6110           0   -1.00000   1.30000
     36036 MEOH     2025     MEOH     DC1      DRUD    -2.454100        0.4000           0   0.00000   0.00000
     36037 MEOH     2025     MEOH     O1       OD31H    2.488300       15.5990           0   -1.02800   1.30000
     36038 MEOH     2025     MEOH     DO1      DRUD    -2.488300        0.4000           0   0.00000   0.00000
     36039 MEOH     2025     MEOH     HO1      HDP1A    0.360000        1.0080           0   0.00000   0.00000
     36040 MEOH     2025     MEOH     HO2      DUMH     0.000000        1.0080           0   0.00000   0.00000
     36041 MEOH     2025     MEOH     H1A      HDA3B    0.080000        1.0080           0   0.00000   0.00000
     36042 MEOH     2025     MEOH     H1B      HDA3B    0.080000        1.0080           0   0.00000   0.00000
     36043 MEOH     2025     MEOH     H1C      HDA3B    0.080000        1.0080           0   0.00000   0.00000
     36044 MEOH     2025     MEOH     LP1A     LPD     -0.230000        0.0000           -1   0.00000   0.00000
     36045 MEOH     2025     MEOH     LP1B     LPD     -0.230000        0.0000           -1   0.00000   0.00000
     36046 MEOH     2026     MEOH     C1       CD33B    2.314100       11.6110           0   -1.00000   1.30000
     36047 MEOH     2026     MEOH     DC1      DRUD    -2.454100        0.4000           0   0.00000   0.00000
     36048 MEOH     2026     MEOH     O1       OD31H    2.488300       15.5990           0   -1.02800   1.30000
     36049 MEOH     2026     MEOH     DO1      DRUD    -2.488300        0.4000           0   0.00000   0.00000
     36050 MEOH     2026     MEOH     HO1      HDP1A    0.360000        1.0080           0   0.00000   0.00000
     36051 MEOH     2026     MEOH     HO2      DUMH     0.000000        1.0080           0   0.00000   0.00000
     36052 MEOH     2026     MEOH     H1A      HDA3B    0.080000        1.0080           0   0.00000   0.00000
     36053 MEOH     2026     MEOH     H1B      HDA3B    0.080000        1.0080           0   0.00000   0.00000
     36054 MEOH     2026     MEOH     H1C      HDA3B    0.080000        1.0080           0   0.00000   0.00000
     36055 MEOH     2026     MEOH     LP1A     LPD     -0.230000        0.0000           -1   0.00000   0.00000
     36056 MEOH     2026     MEOH     LP1B     LPD     -0.230000        0.0000           -1   0.00000   0.00000
     36057 MEOH     2027     MEOH     C1       CD33B    2.314100       11.6110           0   -1.00000   1.30000
     36058 MEOH     2027     MEOH     DC1      DRUD    -2.454100        0.4000           0   0.00000   0.00000
     36059 MEOH     2027     MEOH     O1       OD31H    2.488300       15.5990           0   -1.02800   1.30000
     36060 MEOH     2027     MEOH     DO1      DRUD    -2.488300        0.4000           0   0.00000   0.00000
     36061 MEOH     2027     MEOH     HO1      HDP1A    0.360000        1.0080           0   0.00000   0.00000
     36062 MEOH     2027     MEOH     HO2      DUMH     0.000000        1.0080           0   0.00000   0.00000
     36063 MEOH     2027     MEOH     H1A      HDA3B    0.080000        1.0080           0   0.00000   0.00000
     36064 MEOH     2027     MEOH     H1B      HDA3B    0.080000        1.0080           0   0.00000   0.00000
     36065 MEOH     2027     MEOH     H1C      HDA3B    0.080000        1.0080           0   0.00000   0.00000
     36066 MEOH     2027     MEOH     LP1A     LPD     -0.230000        0.0000           -1   0.00000   0.00000
     36067 MEOH     2027     MEOH     LP1B     LPD     -0.230000        0.0000           -1   0.00000   0.00000
     36068 MEOH     2028     MEOH     C1       CD33B    2.314100       11.6110           0   -1.00000   1.30000
     36069 MEOH     2028     MEOH     DC1      DRUD    -2.454100        0.4000           0   0.00000   0.00000
     36070 MEOH     2028     MEOH     O1       OD31H    2.488300       15.5990           0   -1.02800   1.30000
     36071 MEOH     2028     MEOH     DO1      DRUD    -2.488300        0.4000           0   0.00000   0.00000
     36072 MEOH     2028     MEOH     HO1      HDP1A    0.360000        1.0080           0   0.00000   0.00000
     36073 MEOH     2028     MEOH     HO2      DUMH     0.000000        1.0080           0   0.00000   0.00000
     36074 MEOH     2028     MEOH     H1A      HDA3B    0.080000        1.0080           0   0.00000   0.00000
     36075 MEOH     2028     MEOH     H1B      HDA3B    0.080000        1.0080           0   0.00000   0.00000
     36076 MEOH     2028     MEOH     H1C      HDA3B    0.080000        1.0080           0   0.00000   0.00000
     36077 MEOH     2028     MEOH     LP1A     LPD     -0.230000        0.0000           -1   0.00000   0.00000
     36078 MEOH     2028     MEOH     LP1B     LPD     -0.230000        0.0000           -1   0.00000   0.00000
     36079 MEOH     2029     MEOH     C1       CD33B    2.314100       11.6110           0   -1.00000   1.30000
     36080 MEOH     2029     MEOH     DC1      DRUD    -2.454100        0.4000           0   0.00000   0.00000
     36081 MEOH     2029     MEOH     O1       OD31H    2.488300       15.5990           0   -1.02800   1.30000
     36082 MEOH     2029     MEOH     DO1      DRUD    -2.488300        0.4000           0   0.00000   0.00000
     36083 MEOH     2029     MEOH     HO1      HDP1A    0.360000        1.0080           0   0.00000   0.00000
     36084 MEOH     2029     MEOH     HO2      DUMH     0.000000        1.0080           0   0.00000   0.00000
     36085 MEOH     2029     MEOH     H1A      HDA3B    0.080000        1.0080           0   0.00000   0.00000
     36086 MEOH     2029     MEOH     H1B      HDA3B    0.080000        1.0080           0   0.00000   0.00000
     36087 MEOH     2029     MEOH     H1C      HDA3B    0.080000        1.0080           0   0.00000   0.00000
     36088 MEOH     2029     MEOH     LP1A     LPD     -0.230000        0.0000           -1   0.00000   0.00000
     36089 MEOH     2029     MEOH     LP1B     LPD     -0.230000        0.0000           -1   0.00000   0.00000
     36090 MEOH     2030     MEOH     C1       CD33B    2.314100       11.6110           0   -1.00000   1.30000
     36091 MEOH     2030     MEOH     DC1      DRUD    -2.454100        0.4000           0   0.00000   0.00000
     36092 MEOH     2030     MEOH     O1       OD31H    2.488300       15.5990           0   -1.02800   1.30000
     36093 MEOH     2030     MEOH     DO1      DRUD    -2.488300        0.4000           0   0.00000   0.00000
     36094 MEOH     2030     MEOH     HO1      HDP1A    0.360000        1.0080           0   0.00000   0.00000
     36095 MEOH     2030     MEOH     HO2      DUMH     0.000000        1.0080           0   0.00000   0.00000
     36096 MEOH     2030     MEOH     H1A      HDA3B    0.080000        1.0080           0   0.00000   0.00000
     36097 MEOH     2030     MEOH     H1B      HDA3B    0.080000        1.0080           0   0.00000   0.00000
     36098 MEOH     2030     MEOH     H1C      HDA3B    0.080000        1.0080           0   0.00000   0.00000
     36099 MEOH     2030     MEOH     LP1A     LPD     -0.230000        0.0000           -1   0.00000   0.00000
     36100 MEOH     2030     MEOH     LP1B     LPD     -0.230000        0.0000           -1   0.00000   0.00000
     36101 MEOH     2031     MEOH     C1       CD33B    2.314100       11.6110           0   -1.00000   1.30000
     36102 MEOH     2031     MEOH     DC1      DRUD    -2.454100        0.4000           0   0.00000   0.00000
     36103 MEOH     2031     MEOH     O1       OD31H    2.488300       15.5990           0   -1.02800   1.30000
     36104 MEOH     2031     MEOH     DO1      DRUD    -2.488300        0.4000           0   0.00000   0.00000
     36105 MEOH     2031     MEOH     HO1      HDP1A    0.360000        1.0080           0   0.00000   0.00000
     36106 MEOH     2031     MEOH     HO2      DUMH     0.000000        1.0080           0   0.00000   0.00000
     36107 MEOH     2031     MEOH     H1A      HDA3B    0.080000        1.0080           0   0.00000   0.00000
     36108 MEOH     2031     MEOH     H1B      HDA3B    0.080000        1.0080           0   0.00000   0.00000
     36109 MEOH     2031     MEOH     H1C      HDA3B    0.080000        1.0080           0   0.00000   0.00000
     36110 MEOH     2031     MEOH     LP1A     LPD     -0.230000        0.0000           -1   0.00000   0.00000
     36111 MEOH     2031     MEOH     LP1B     LPD     -0.230000        0.0000           -1   0.00000   0.00000
     36112 MEOH     2032     MEOH     C1       CD33B    2.314100       11.6110           0   -1.00000   1.30000
     36113 MEOH     2032     MEOH     DC1      DRUD    -2.454100        0.4000           0   0.00000   0.00000
     36114 MEOH     2032     MEOH     O1       OD31H    2.488300       15.5990           0   -1.02800   1.30000
     36115 MEOH     2032     MEOH     DO1      DRUD    -2.488300        0.4000           0   0.00000   0.00000
     36116 MEOH     2032     MEOH     HO1      HDP1A    0.360000        1.0080           0   0.00000   0.00000
     36117 MEOH     2032     MEOH     HO2      DUMH     0.000000        1.0080           0   0.00000   0.00000
     36118 MEOH     2032     MEOH     H1A      HDA3B    0.080000        1.0080           0   0.00000   0.00000
     36119 MEOH     2032     MEOH     H1B      HDA3B    0.080000        1.0080           0   0.00000   0.00000
     36120 MEOH     2032     MEOH     H1C      HDA3B    0.080000        1.0080           0   0.00000   0.00000
     36121 MEOH     2032     MEOH     LP1A     LPD     -0.230000        0.0000           -1   0.00000   0.00000
     36122 MEOH     2032     MEOH     LP1B     LPD     -0.230000        0.0000           -1   0.00000   0.00000
     36123 MEOH     2033     MEOH     C1       CD33B    2.314100       11.6110           0   -1.00000   1.30000
     36124 MEOH     2033     MEOH     DC1      DRUD    -2.454100        0.4000           0   0.00000   0.00000
     36125 MEOH     2033     MEOH     O1       OD31H    2.488300       15.5990           0   -1.02800   1.30000
     36126 MEOH     2033     MEOH     DO1      DRUD    -2.488300        0.4000           0   0.00000   0.00000
     36127 MEOH     2033     MEOH     HO1      HDP1A    0.360000        1.0080           0   0.00000   0.00000
     36128 MEOH     2033     MEOH     HO2      DUMH     0.000000        1.0080           0   0.00000   0.00000
     36129 MEOH     2033     MEOH     H1A      HDA3B    0.080000        1.0080           0   0.00000   0.00000
     36130 MEOH     2033     MEOH     H1B      HDA3B    0.080000        1.0080           0   0.00000   0.00000
     36131 MEOH     2033     MEOH     H1C      HDA3B    0.080000        1.0080           0   0.00000   0.00000
     36132 MEOH     2033     MEOH     LP1A     LPD     -0.230000        0.0000           -1   0.00000   0.00000
     36133 MEOH     2033     MEOH     LP1B     LPD     -0.230000        0.0000           -1   0.00000   0.00000
     36134 MEOH     2034     MEOH     C1       CD33B    2.314100       11.6110           0   -1.00000   1.30000
     36135 MEOH     2034     MEOH     DC1      DRUD    -2.454100        0.4000           0   0.00000   0.00000
     36136 MEOH     2034     MEOH     O1       OD31H    2.488300       15.5990           0   -1.02800   1.30000
     36137 MEOH     2034     MEOH     DO1      DRUD    -2.488300        0.4000           0   0.00000   0.00000
     36138 MEOH     2034     MEOH     HO1      HDP1A    0.360000        1.0080           0   0.00000   0.00000
     36139 MEOH     2034     MEOH     HO2      DUMH     0.000000        1.0080           0   0.00000   0.00000
     36140 MEOH     2034     MEOH     H1A      HDA3B    0.080000        1.0080           0   0.00000   0.00000
     36141 MEOH     2034     MEOH     H1B      HDA3B    0.080000        1.0080           0   0.00000   0.00000
     36142 MEOH     2034     MEOH     H1C      HDA3B    0.080000        1.0080           0   0.00000   0.00000
     36143 MEOH     2034     MEOH     LP1A     LPD     -0.230000        0.0000           -1   0.00000   0.00000
     36144 MEOH     2034     MEOH     LP1B     LPD     -0.230000        0.0000           -1   0.00000   0.00000
     36145 MEOH     2035     MEOH     C1       CD33B    2.314100       11.6110           0   -1.00000   1.30000
     36146 MEOH     2035     MEOH     DC1      DRUD    -2.454100        0.4000           0   0.00000   0.00000
     36147 MEOH     2035     MEOH     O1       OD31H    2.488300       15.5990           0   -1.02800   1.30000
     36148 MEOH     2035     MEOH     DO1      DRUD    -2.488300        0.4000           0   0.00000   0.00000
     36149 MEOH     2035     MEOH     HO1      HDP1A    0.360000        1.0080           0   0.00000   0.00000
     36150 MEOH     2035     MEOH     HO2      DUMH     0.000000        1.0080           0   0.00000   0.00000
     36151 MEOH     2035     MEOH     H1A      HDA3B    0.080000        1.0080           0   0.00000   0.00000
     36152 MEOH     2035     MEOH     H1B      HDA3B    0.080000        1.0080           0   0.00000   0.00000
     36153 MEOH     2035     MEOH     H1C      HDA3B    0.080000        1.0080           0   0.00000   0.00000
     36154 MEOH     2035     MEOH     LP1A     LPD     -0.230000        0.0000           -1   0.00000   0.00000
     36155 MEOH     2035     MEOH     LP1B     LPD     -0.230000        0.0000           -1   0.00000   0.00000
     36156 MEOH     2036     MEOH     C1       CD33B    2.314100       11.6110           0   -1.00000   1.30000
     36157 MEOH     2036     MEOH     DC1      DRUD    -2.454100        0.4000           0   0.00000   0.00000
     36158 MEOH     2036     MEOH     O1       OD31H    2.488300       15.5990           0   -1.02800   1.30000
     36159 MEOH     2036     MEOH     DO1      DRUD    -2.488300        0.4000           0   0.00000   0.00000
     36160 MEOH     2036     MEOH     HO1      HDP1A    0.360000        1.0080           0   0.00000   0.00000
     36161 MEOH     2036     MEOH     HO2      DUMH     0.000000        1.0080           0   0.00000   0.00000
     36162 MEOH     2036     MEOH     H1A      HDA3B    0.080000        1.0080           0   0.00000   0.00000
     36163 MEOH     2036     MEOH     H1B      HDA3B    0.080000        1.0080           0   0.00000   0.00000
     36164 MEOH     2036     MEOH     H1C      HDA3B    0.080000        1.0080           0   0.00000   0.00000
     36165 MEOH     2036     MEOH     LP1A     LPD     -0.230000        0.0000           -1   0.00000   0.00000
     36166 MEOH     2036     MEOH     LP1B     LPD     -0.230000        0.0000           -1   0.00000   0.00000
     36167 MEOH     2037     MEOH     C1       CD33B    2.314100       11.6110           0   -1.00000   1.30000
     36168 MEOH     2037     MEOH     DC1      DRUD    -2.454100        0.4000           0   0.00000   0.00000
     36169 MEOH     2037     MEOH     O1       OD31H    2.488300       15.5990           0   -1.02800   1.30000
     36170 MEOH     2037     MEOH     DO1      DRUD    -2.488300        0.4000           0   0.00000   0.00000
     36171 MEOH     2037     MEOH     HO1      HDP1A    0.360000        1.0080           0   0.00000   0.00000
     36172 MEOH     2037     MEOH     HO2      DUMH     0.000000        1.0080           0   0.00000   0.00000
     36173 MEOH     2037     MEOH     H1A      HDA3B    0.080000        1.0080           0   0.00000   0.00000
     36174 MEOH     2037     MEOH     H1B      HDA3B    0.080000        1.0080           0   0.00000   0.00000
     36175 MEOH     2037     MEOH     H1C      HDA3B    0.080000        1.0080           0   0.00000   0.00000
     36176 MEOH     2037     MEOH     LP1A     LPD     -0.230000        0.0000           -1   0.00000   0.00000
     36177 MEOH     2037     MEOH     LP1B     LPD     -0.230000        0.0000           -1   0.00000   0.00000
     36178 MEOH     2038     MEOH     C1       CD33B    2.314100       11.6110           0   -1.00000   1.30000
     36179 MEOH     2038     MEOH     DC1      DRUD    -2.454100        0.4000           0   0.00000   0.00000
     36180 MEOH     2038     MEOH     O1       OD31H    2.488300       15.5990           0   -1.02800   1.30000
     36181 MEOH     2038     MEOH     DO1      DRUD    -2.488300        0.4000           0   0.00000   0.00000
     36182 MEOH     2038     MEOH     HO1      HDP1A    0.360000        1.0080           0   0.00000   0.00000
     36183 MEOH     2038     MEOH     HO2      DUMH     0.000000        1.0080           0   0.00000   0.00000
     36184 MEOH     2038     MEOH     H1A      HDA3B    0.080000        1.0080           0   0.00000   0.00000
     36185 MEOH     2038     MEOH     H1B      HDA3B    0.080000        1.0080           0   0.00000   0.00000
     36186 MEOH     2038     MEOH     H1C      HDA3B    0.080000        1.0080           0   0.00000   0.00000
     36187 MEOH     2038     MEOH     LP1A     LPD     -0.230000        0.0000           -1   0.00000   0.00000
     36188 MEOH     2038     MEOH     LP1B     LPD     -0.230000        0.0000           -1   0.00000   0.00000
     36189 MEOH     2039     MEOH     C1       CD33B    2.314100       11.6110           0   -1.00000   1.30000
     36190 MEOH     2039     MEOH     DC1      DRUD    -2.454100        0.4000           0   0.00000   0.00000
     36191 MEOH     2039     MEOH     O1       OD31H    2.488300       15.5990           0   -1.02800   1.30000
     36192 MEOH     2039     MEOH     DO1      DRUD    -2.488300        0.4000           0   0.00000   0.00000
     36193 MEOH     2039     MEOH     HO1      HDP1A    0.360000        1.0080           0   0.00000   0.00000
     36194 MEOH     2039     MEOH     HO2      DUMH     0.000000        1.0080           0   0.00000   0.00000
     36195 MEOH     2039     MEOH     H1A      HDA3B    0.080000        1.0080           0   0.00000   0.00000
     36196 MEOH     2039     MEOH     H1B      HDA3B    0.080000        1.0080           0   0.00000   0.00000
     36197 MEOH     2039     MEOH     H1C      HDA3B    0.080000        1.0080           0   0.00000   0.00000
     36198 MEOH     2039     MEOH     LP1A     LPD     -0.230000        0.0000           -1   0.00000   0.00000
     36199 MEOH     2039     MEOH     LP1B     LPD     -0.230000        0.0000           -1   0.00000   0.00000
     36200 MEOH     2040     MEOH     C1       CD33B    2.314100       11.6110           0   -1.00000   1.30000
     36201 MEOH     2040     MEOH     DC1      DRUD    -2.454100        0.4000           0   0.00000   0.00000
     36202 MEOH     2040     MEOH     O1       OD31H    2.488300       15.5990           0   -1.02800   1.30000
     36203 MEOH     2040     MEOH     DO1      DRUD    -2.488300        0.4000           0   0.00000   0.00000
     36204 MEOH     2040     MEOH     HO1      HDP1A    0.360000        1.0080           0   0.00000   0.00000
     36205 MEOH     2040     MEOH     HO2      DUMH     0.000000        1.0080           0   0.00000   0.00000
     36206 MEOH     2040     MEOH     H1A      HDA3B    0.080000        1.0080           0   0.00000   0.00000
     36207 MEOH     2040     MEOH     H1B      HDA3B    0.080000        1.0080           0   0.00000   0.00000
     36208 MEOH     2040     MEOH     H1C      HDA3B    0.080000        1.0080           0   0.00000   0.00000
     36209 MEOH     2040     MEOH     LP1A     LPD     -0.230000        0.0000           -1   0.00000   0.00000
     36210 MEOH     2040     MEOH     LP1B     LPD     -0.230000        0.0000           -1   0.00000   0.00000
     36211 MEOH     2041     MEOH     C1       CD33B    2.314100       11.6110           0   -1.00000   1.30000
     36212 MEOH     2041     MEOH     DC1      DRUD    -2.454100        0.4000           0   0.00000   0.00000
     36213 MEOH     2041     MEOH     O1       OD31H    2.488300       15.5990           0   -1.02800   1.30000
     36214 MEOH     2041     MEOH     DO1      DRUD    -2.488300        0.4000           0   0.00000   0.00000
     36215 MEOH     2041     MEOH     HO1      HDP1A    0.360000        1.0080           0   0.00000   0.00000
     36216 MEOH     2041     MEOH     HO2      DUMH     0.000000        1.0080           0   0.00000   0.00000
     36217 MEOH     2041     MEOH     H1A      HDA3B    0.080000        1.0080           0   0.00000   0.00000
     36218 MEOH     2041     MEOH     H1B      HDA3B    0.080000        1.0080           0   0.00000   0.00000
     36219 MEOH     2041     MEOH     H1C      HDA3B    0.080000        1.0080           0   0.00000   0.00000
     36220 MEOH     2041     MEOH     LP1A     LPD     -0.230000        0.0000           -1   0.00000   0.00000
     36221 MEOH     2041     MEOH     LP1B     LPD     -0.230000        0.0000           -1   0.00000   0.00000
     36222 MEOH     2042     MEOH     C1       CD33B    2.314100       11.6110           0   -1.00000   1.30000
     36223 MEOH     2042     MEOH     DC1      DRUD    -2.454100        0.4000           0   0.00000   0.00000
     36224 MEOH     2042     MEOH     O1       OD31H    2.488300       15.5990           0   -1.02800   1.30000
     36225 MEOH     2042     MEOH     DO1      DRUD    -2.488300        0.4000           0   0.00000   0.00000
     36226 MEOH     2042     MEOH     HO1      HDP1A    0.360000        1.0080           0   0.00000   0.00000
     36227 MEOH     2042     MEOH     HO2      DUMH     0.000000        1.0080           0   0.00000   0.00000
     36228 MEOH     2042     MEOH     H1A      HDA3B    0.080000        1.0080           0   0.00000   0.00000
     36229 MEOH     2042     MEOH     H1B      HDA3B    0.080000        1.0080           0   0.00000   0.00000
     36230 MEOH     2042     MEOH     H1C      HDA3B    0.080000        1.0080           0   0.00000   0.00000
     36231 MEOH     2042     MEOH     LP1A     LPD     -0.230000        0.0000           -1   0.00000   0.00000
     36232 MEOH     2042     MEOH     LP1B     LPD     -0.230000        0.0000           -1   0.00000   0.00000
     36233 MEOH     2043     MEOH     C1       CD33B    2.314100       11.6110           0   -1.00000   1.30000
     36234 MEOH     2043     MEOH     DC1      DRUD    -2.454100        0.4000           0   0.00000   0.00000
     36235 MEOH     2043     MEOH     O1       OD31H    2.488300       15.5990           0   -1.02800   1.30000
     36236 MEOH     2043     MEOH     DO1      DRUD    -2.488300        0.4000           0   0.00000   0.00000
     36237 MEOH     2043     MEOH     HO1      HDP1A    0.360000        1.0080           0   0.00000   0.00000
     36238 MEOH     2043     MEOH     HO2      DUMH     0.000000        1.0080           0   0.00000   0.00000
     36239 MEOH     2043     MEOH     H1A      HDA3B    0.080000        1.0080           0   0.00000   0.00000
     36240 MEOH     2043     MEOH     H1B      HDA3B    0.080000        1.0080           0   0.00000   0.00000
     36241 MEOH     2043     MEOH     H1C      HDA3B    0.080000        1.0080           0   0.00000   0.00000
     36242 MEOH     2043     MEOH     LP1A     LPD     -0.230000        0.0000           -1   0.00000   0.00000
     36243 MEOH     2043     MEOH     LP1B     LPD     -0.230000        0.0000           -1   0.00000   0.00000
     36244 MEOH     2044     MEOH     C1       CD33B    2.314100       11.6110           0   -1.00000   1.30000
     36245 MEOH     2044     MEOH     DC1      DRUD    -2.454100        0.4000           0   0.00000   0.00000
     36246 MEOH     2044     MEOH     O1       OD31H    2.488300       15.5990           0   -1.02800   1.30000
     36247 MEOH     2044     MEOH     DO1      DRUD    -2.488300        0.4000           0   0.00000   0.00000
     36248 MEOH     2044     MEOH     HO1      HDP1A    0.360000        1.0080           0   0.00000   0.00000
     36249 MEOH     2044     MEOH     HO2      DUMH     0.000000        1.0080           0   0.00000   0.00000
     36250 MEOH     2044     MEOH     H1A      HDA3B    0.080000        1.0080           0   0.00000   0.00000
     36251 MEOH     2044     MEOH     H1B      HDA3B    0.080000        1.0080           0   0.00000   0.00000
     36252 MEOH     2044     MEOH     H1C      HDA3B    0.080000        1.0080           0   0.00000   0.00000
     36253 MEOH     2044     MEOH     LP1A     LPD     -0.230000        0.0000           -1   0.00000   0.00000
     36254 MEOH     2044     MEOH     LP1B     LPD     -0.230000        0.0000           -1   0.00000   0.00000
     36255 MEOH     2045     MEOH     C1       CD33B    2.314100       11.6110           0   -1.00000   1.30000
     36256 MEOH     2045     MEOH     DC1      DRUD    -2.454100        0.4000           0   0.00000   0.00000
     36257 MEOH     2045     MEOH     O1       OD31H    2.488300       15.5990           0   -1.02800   1.30000
     36258 MEOH     2045     MEOH     DO1      DRUD    -2.488300        0.4000           0   0.00000   0.00000
     36259 MEOH     2045     MEOH     HO1      HDP1A    0.360000        1.0080           0   0.00000   0.00000
     36260 MEOH     2045     MEOH     HO2      DUMH     0.000000        1.0080           0   0.00000   0.00000
     36261 MEOH     2045     MEOH     H1A      HDA3B    0.080000        1.0080           0   0.00000   0.00000
     36262 MEOH     2045     MEOH     H1B      HDA3B    0.080000        1.0080           0   0.00000   0.00000
     36263 MEOH     2045     MEOH     H1C      HDA3B    0.080000        1.0080           0   0.00000   0.00000
     36264 MEOH     2045     MEOH     LP1A     LPD     -0.230000        0.0000           -1   0.00000   0.00000
     36265 MEOH     2045     MEOH     LP1B     LPD     -0.230000        0.0000           -1   0.00000   0.00000
     36266 MEOH     2046     MEOH     C1       CD33B    2.314100       11.6110           0   -1.00000   1.30000
     36267 MEOH     2046     MEOH     DC1      DRUD    -2.454100        0.4000           0   0.00000   0.00000
     36268 MEOH     2046     MEOH     O1       OD31H    2.488300       15.5990           0   -1.02800   1.30000
     36269 MEOH     2046     MEOH     DO1      DRUD    -2.488300        0.4000           0   0.00000   0.00000
     36270 MEOH     2046     MEOH     HO1      HDP1A    0.360000        1.0080           0   0.00000   0.00000
     36271 MEOH     2046     MEOH     HO2      DUMH     0.000000        1.0080           0   0.00000   0.00000
     36272 MEOH     2046     MEOH     H1A      HDA3B    0.080000        1.0080           0   0.00000   0.00000
     36273 MEOH     2046     MEOH     H1B      HDA3B    0.080000        1.0080           0   0.00000   0.00000
     36274 MEOH     2046     MEOH     H1C      HDA3B    0.080000        1.0080           0   0.00000   0.00000
     36275 MEOH     2046     MEOH     LP1A     LPD     -0.230000        0.0000           -1   0.00000   0.00000
     36276 MEOH     2046     MEOH     LP1B     LPD     -0.230000        0.0000           -1   0.00000   0.00000
     36277 MEOH     2047     MEOH     C1       CD33B    2.314100       11.6110           0   -1.00000   1.30000
     36278 MEOH     2047     MEOH     DC1      DRUD    -2.454100        0.4000           0   0.00000   0.00000
     36279 MEOH     2047     MEOH     O1       OD31H    2.488300       15.5990           0   -1.02800   1.30000
     36280 MEOH     2047     MEOH     DO1      DRUD    -2.488300        0.4000           0   0.00000   0.00000
     36281 MEOH     2047     MEOH     HO1      HDP1A    0.360000        1.0080           0   0.00000   0.00000
     36282 MEOH     2047     MEOH     HO2      DUMH     0.000000        1.0080           0   0.00000   0.00000
     36283 MEOH     2047     MEOH     H1A      HDA3B    0.080000        1.0080           0   0.00000   0.00000
     36284 MEOH     2047     MEOH     H1B      HDA3B    0.080000        1.0080           0   0.00000   0.00000
     36285 MEOH     2047     MEOH     H1C      HDA3B    0.080000        1.0080           0   0.00000   0.00000
     36286 MEOH     2047     MEOH     LP1A     LPD     -0.230000        0.0000           -1   0.00000   0.00000
     36287 MEOH     2047     MEOH     LP1B     LPD     -0.230000        0.0000           -1   0.00000   0.00000
     36288 MEOH     2048     MEOH     C1       CD33B    2.314100       11.6110           0   -1.00000   1.30000
     36289 MEOH     2048     MEOH     DC1      DRUD    -2.454100        0.4000           0   0.00000   0.00000
     36290 MEOH     2048     MEOH     O1       OD31H    2.488300       15.5990           0   -1.02800   1.30000
     36291 MEOH     2048     MEOH     DO1      DRUD    -2.488300        0.4000           0   0.00000   0.00000
     36292 MEOH     2048     MEOH     HO1      HDP1A    0.360000        1.0080           0   0.00000   0.00000
     36293 MEOH     2048     MEOH     HO2      DUMH     0.000000        1.0080           0   0.00000   0.00000
     36294 MEOH     2048     MEOH     H1A      HDA3B    0.080000        1.0080           0   0.00000   0.00000
     36295 MEOH     2048     MEOH     H1B      HDA3B    0.080000        1.0080           0   0.00000   0.00000
     36296 MEOH     2048     MEOH     H1C      HDA3B    0.080000        1.0080           0   0.00000   0.00000
     36297 MEOH     2048     MEOH     LP1A     LPD     -0.230000        0.0000           -1   0.00000   0.00000
     36298 MEOH     2048     MEOH     LP1B     LPD     -0.230000        0.0000           -1   0.00000   0.00000
     36299 MEOH     2049     MEOH     C1       CD33B    2.314100       11.6110           0   -1.00000   1.30000
     36300 MEOH     2049     MEOH     DC1      DRUD    -2.454100        0.4000           0   0.00000   0.00000
     36301 MEOH     2049     MEOH     O1       OD31H    2.488300       15.5990           0   -1.02800   1.30000
     36302 MEOH     2049     MEOH     DO1      DRUD    -2.488300        0.4000           0   0.00000   0.00000
     36303 MEOH     2049     MEOH     HO1      HDP1A    0.360000        1.0080           0   0.00000   0.00000
     36304 MEOH     2049     MEOH     HO2      DUMH     0.000000        1.0080           0   0.00000   0.00000
     36305 MEOH     2049     MEOH     H1A      HDA3B    0.080000        1.0080           0   0.00000   0.00000
     36306 MEOH     2049     MEOH     H1B      HDA3B    0.080000        1.0080           0   0.00000   0.00000
     36307 MEOH     2049     MEOH     H1C      HDA3B    0.080000        1.0080           0   0.00000   0.00000
     36308 MEOH     2049     MEOH     LP1A     LPD     -0.230000        0.0000           -1   0.00000   0.00000
     36309 MEOH     2049     MEOH     LP1B     LPD     -0.230000        0.0000           -1   0.00000   0.00000
     36310 MEOH     2050     MEOH     C1       CD33B    2.314100       11.6110           0   -1.00000   1.30000
     36311 MEOH     2050     MEOH     DC1      DRUD    -2.454100        0.4000           0   0.00000   0.00000
     36312 MEOH     2050     MEOH     O1       OD31H    2.488300       15.5990           0   -1.02800   1.30000
     36313 MEOH     2050     MEOH     DO1      DRUD    -2.488300        0.4000           0   0.00000   0.00000
     36314 MEOH     2050     MEOH     HO1      HDP1A    0.360000        1.0080           0   0.00000   0.00000
     36315 MEOH     2050     MEOH     HO2      DUMH     0.000000        1.0080           0   0.00000   0.00000
     36316 MEOH     2050     MEOH     H1A      HDA3B    0.080000        1.0080           0   0.00000   0.00000
     36317 MEOH     2050     MEOH     H1B      HDA3B    0.080000        1.0080           0   0.00000   0.00000
     36318 MEOH     2050     MEOH     H1C      HDA3B    0.080000        1.0080           0   0.00000   0.00000
     36319 MEOH     2050     MEOH     LP1A     LPD     -0.230000        0.0000           -1   0.00000   0.00000
     36320 MEOH     2050     MEOH     LP1B     LPD     -0.230000        0.0000           -1   0.00000   0.00000
     36321 MEOH     2051     MEOH     C1       CD33B    2.314100       11.6110           0   -1.00000   1.30000
     36322 MEOH     2051     MEOH     DC1      DRUD    -2.454100        0.4000           0   0.00000   0.00000
     36323 MEOH     2051     MEOH     O1       OD31H    2.488300       15.5990           0   -1.02800   1.30000
     36324 MEOH     2051     MEOH     DO1      DRUD    -2.488300        0.4000           0   0.00000   0.00000
     36325 MEOH     2051     MEOH     HO1      HDP1A    0.360000        1.0080           0   0.00000   0.00000
     36326 MEOH     2051     MEOH     HO2      DUMH     0.000000        1.0080           0   0.00000   0.00000
     36327 MEOH     2051     MEOH     H1A      HDA3B    0.080000        1.0080           0   0.00000   0.00000
     36328 MEOH     2051     MEOH     H1B      HDA3B    0.080000        1.0080           0   0.00000   0.00000
     36329 MEOH     2051     MEOH     H1C      HDA3B    0.080000        1.0080           0   0.00000   0.00000
     36330 MEOH     2051     MEOH     LP1A     LPD     -0.230000        0.0000           -1   0.00000   0.00000
     36331 MEOH     2051     MEOH     LP1B     LPD     -0.230000        0.0000           -1   0.00000   0.00000
     36332 MEOH     2052     MEOH     C1       CD33B    2.314100       11.6110           0   -1.00000   1.30000
     36333 MEOH     2052     MEOH     DC1      DRUD    -2.454100        0.4000           0   0.00000   0.00000
     36334 MEOH     2052     MEOH     O1       OD31H    2.488300       15.5990           0   -1.02800   1.30000
     36335 MEOH     2052     MEOH     DO1      DRUD    -2.488300        0.4000           0   0.00000   0.00000
     36336 MEOH     2052     MEOH     HO1      HDP1A    0.360000        1.0080           0   0.00000   0.00000
     36337 MEOH     2052     MEOH     HO2      DUMH     0.000000        1.0080           0   0.00000   0.00000
     36338 MEOH     2052     MEOH     H1A      HDA3B    0.080000        1.0080           0   0.00000   0.00000
     36339 MEOH     2052     MEOH     H1B      HDA3B    0.080000        1.0080           0   0.00000   0.00000
     36340 MEOH     2052     MEOH     H1C      HDA3B    0.080000        1.0080           0   0.00000   0.00000
     36341 MEOH     2052     MEOH     LP1A     LPD     -0.230000        0.0000           -1   0.00000   0.00000
     36342 MEOH     2052     MEOH     LP1B     LPD     -0.230000        0.0000           -1   0.00000   0.00000
     36343 MEOH     2053     MEOH     C1       CD33B    2.314100       11.6110           0   -1.00000   1.30000
     36344 MEOH     2053     MEOH     DC1      DRUD    -2.454100        0.4000           0   0.00000   0.00000
     36345 MEOH     2053     MEOH     O1       OD31H    2.488300       15.5990           0   -1.02800   1.30000
     36346 MEOH     2053     MEOH     DO1      DRUD    -2.488300        0.4000           0   0.00000   0.00000
     36347 MEOH     2053     MEOH     HO1      HDP1A    0.360000        1.0080           0   0.00000   0.00000
     36348 MEOH     2053     MEOH     HO2      DUMH     0.000000        1.0080           0   0.00000   0.00000
     36349 MEOH     2053     MEOH     H1A      HDA3B    0.080000        1.0080           0   0.00000   0.00000
     36350 MEOH     2053     MEOH     H1B      HDA3B    0.080000        1.0080           0   0.00000   0.00000
     36351 MEOH     2053     MEOH     H1C      HDA3B    0.080000        1.0080           0   0.00000   0.00000
     36352 MEOH     2053     MEOH     LP1A     LPD     -0.230000        0.0000           -1   0.00000   0.00000
     36353 MEOH     2053     MEOH     LP1B     LPD     -0.230000        0.0000           -1   0.00000   0.00000
     36354 MEOH     2054     MEOH     C1       CD33B    2.314100       11.6110           0   -1.00000   1.30000
     36355 MEOH     2054     MEOH     DC1      DRUD    -2.454100        0.4000           0   0.00000   0.00000
     36356 MEOH     2054     MEOH     O1       OD31H    2.488300       15.5990           0   -1.02800   1.30000
     36357 MEOH     2054     MEOH     DO1      DRUD    -2.488300        0.4000           0   0.00000   0.00000
     36358 MEOH     2054     MEOH     HO1      HDP1A    0.360000        1.0080           0   0.00000   0.00000
     36359 MEOH     2054     MEOH     HO2      DUMH     0.000000        1.0080           0   0.00000   0.00000
     36360 MEOH     2054     MEOH     H1A      HDA3B    0.080000        1.0080           0   0.00000   0.00000
     36361 MEOH     2054     MEOH     H1B      HDA3B    0.080000        1.0080           0   0.00000   0.00000
     36362 MEOH     2054     MEOH     H1C      HDA3B    0.080000        1.0080           0   0.00000   0.00000
     36363 MEOH     2054     MEOH     LP1A     LPD     -0.230000        0.0000           -1   0.00000   0.00000
     36364 MEOH     2054     MEOH     LP1B     LPD     -0.230000        0.0000           -1   0.00000   0.00000
     36365 MEOH     2055     MEOH     C1       CD33B    2.314100       11.6110           0   -1.00000   1.30000
     36366 MEOH     2055     MEOH     DC1      DRUD    -2.454100        0.4000           0   0.00000   0.00000
     36367 MEOH     2055     MEOH     O1       OD31H    2.488300       15.5990           0   -1.02800   1.30000
     36368 MEOH     2055     MEOH     DO1      DRUD    -2.488300        0.4000           0   0.00000   0.00000
     36369 MEOH     2055     MEOH     HO1      HDP1A    0.360000        1.0080           0   0.00000   0.00000
     36370 MEOH     2055     MEOH     HO2      DUMH     0.000000        1.0080           0   0.00000   0.00000
     36371 MEOH     2055     MEOH     H1A      HDA3B    0.080000        1.0080           0   0.00000   0.00000
     36372 MEOH     2055     MEOH     H1B      HDA3B    0.080000        1.0080           0   0.00000   0.00000
     36373 MEOH     2055     MEOH     H1C      HDA3B    0.080000        1.0080           0   0.00000   0.00000
     36374 MEOH     2055     MEOH     LP1A     LPD     -0.230000        0.0000           -1   0.00000   0.00000
     36375 MEOH     2055     MEOH     LP1B     LPD     -0.230000        0.0000           -1   0.00000   0.00000
     36376 MEOH     2056     MEOH     C1       CD33B    2.314100       11.6110           0   -1.00000   1.30000
     36377 MEOH     2056     MEOH     DC1      DRUD    -2.454100        0.4000           0   0.00000   0.00000
     36378 MEOH     2056     MEOH     O1       OD31H    2.488300       15.5990           0   -1.02800   1.30000
     36379 MEOH     2056     MEOH     DO1      DRUD    -2.488300        0.4000           0   0.00000   0.00000
     36380 MEOH     2056     MEOH     HO1      HDP1A    0.360000        1.0080           0   0.00000   0.00000
     36381 MEOH     2056     MEOH     HO2      DUMH     0.000000        1.0080           0   0.00000   0.00000
     36382 MEOH     2056     MEOH     H1A      HDA3B    0.080000        1.0080           0   0.00000   0.00000
     36383 MEOH     2056     MEOH     H1B      HDA3B    0.080000        1.0080           0   0.00000   0.00000
     36384 MEOH     2056     MEOH     H1C      HDA3B    0.080000        1.0080           0   0.00000   0.00000
     36385 MEOH     2056     MEOH     LP1A     LPD     -0.230000        0.0000           -1   0.00000   0.00000
     36386 MEOH     2056     MEOH     LP1B     LPD     -0.230000        0.0000           -1   0.00000   0.00000
     36387 MEOH     2057     MEOH     C1       CD33B    2.314100       11.6110           0   -1.00000   1.30000
     36388 MEOH     2057     MEOH     DC1      DRUD    -2.454100        0.4000           0   0.00000   0.00000
     36389 MEOH     2057     MEOH     O1       OD31H    2.488300       15.5990           0   -1.02800   1.30000
     36390 MEOH     2057     MEOH     DO1      DRUD    -2.488300        0.4000           0   0.00000   0.00000
     36391 MEOH     2057     MEOH     HO1      HDP1A    0.360000        1.0080           0   0.00000   0.00000
     36392 MEOH     2057     MEOH     HO2      DUMH     0.000000        1.0080           0   0.00000   0.00000
     36393 MEOH     2057     MEOH     H1A      HDA3B    0.080000        1.0080           0   0.00000   0.00000
     36394 MEOH     2057     MEOH     H1B      HDA3B    0.080000        1.0080           0   0.00000   0.00000
     36395 MEOH     2057     MEOH     H1C      HDA3B    0.080000        1.0080           0   0.00000   0.00000
     36396 MEOH     2057     MEOH     LP1A     LPD     -0.230000        0.0000           -1   0.00000   0.00000
     36397 MEOH     2057     MEOH     LP1B     LPD     -0.230000        0.0000           -1   0.00000   0.00000
     36398 MEOH     2058     MEOH     C1       CD33B    2.314100       11.6110           0   -1.00000   1.30000
     36399 MEOH     2058     MEOH     DC1      DRUD    -2.454100        0.4000           0   0.00000   0.00000
     36400 MEOH     2058     MEOH     O1       OD31H    2.488300       15.5990           0   -1.02800   1.30000
     36401 MEOH     2058     MEOH     DO1      DRUD    -2.488300        0.4000           0   0.00000   0.00000
     36402 MEOH     2058     MEOH     HO1      HDP1A    0.360000        1.0080           0   0.00000   0.00000
     36403 MEOH     2058     MEOH     HO2      DUMH     0.000000        1.0080           0   0.00000   0.00000
     36404 MEOH     2058     MEOH     H1A      HDA3B    0.080000        1.0080           0   0.00000   0.00000
     36405 MEOH     2058     MEOH     H1B      HDA3B    0.080000        1.0080           0   0.00000   0.00000
     36406 MEOH     2058     MEOH     H1C      HDA3B    0.080000        1.0080           0   0.00000   0.00000
     36407 MEOH     2058     MEOH     LP1A     LPD     -0.230000        0.0000           -1   0.00000   0.00000
     36408 MEOH     2058     MEOH     LP1B     LPD     -0.230000        0.0000           -1   0.00000   0.00000
     36409 MEOH     2059     MEOH     C1       CD33B    2.314100       11.6110           0   -1.00000   1.30000
     36410 MEOH     2059     MEOH     DC1      DRUD    -2.454100        0.4000           0   0.00000   0.00000
     36411 MEOH     2059     MEOH     O1       OD31H    2.488300       15.5990           0   -1.02800   1.30000
     36412 MEOH     2059     MEOH     DO1      DRUD    -2.488300        0.4000           0   0.00000   0.00000
     36413 MEOH     2059     MEOH     HO1      HDP1A    0.360000        1.0080           0   0.00000   0.00000
     36414 MEOH     2059     MEOH     HO2      DUMH     0.000000        1.0080           0   0.00000   0.00000
     36415 MEOH     2059     MEOH     H1A      HDA3B    0.080000        1.0080           0   0.00000   0.00000
     36416 MEOH     2059     MEOH     H1B      HDA3B    0.080000        1.0080           0   0.00000   0.00000
     36417 MEOH     2059     MEOH     H1C      HDA3B    0.080000        1.0080           0   0.00000   0.00000
     36418 MEOH     2059     MEOH     LP1A     LPD     -0.230000        0.0000           -1   0.00000   0.00000
     36419 MEOH     2059     MEOH     LP1B     LPD     -0.230000        0.0000           -1   0.00000   0.00000
     36420 MEOH     2060     MEOH     C1       CD33B    2.314100       11.6110           0   -1.00000   1.30000
     36421 MEOH     2060     MEOH     DC1      DRUD    -2.454100        0.4000           0   0.00000   0.00000
     36422 MEOH     2060     MEOH     O1       OD31H    2.488300       15.5990           0   -1.02800   1.30000
     36423 MEOH     2060     MEOH     DO1      DRUD    -2.488300        0.4000           0   0.00000   0.00000
     36424 MEOH     2060     MEOH     HO1      HDP1A    0.360000        1.0080           0   0.00000   0.00000
     36425 MEOH     2060     MEOH     HO2      DUMH     0.000000        1.0080           0   0.00000   0.00000
     36426 MEOH     2060     MEOH     H1A      HDA3B    0.080000        1.0080           0   0.00000   0.00000
     36427 MEOH     2060     MEOH     H1B      HDA3B    0.080000        1.0080           0   0.00000   0.00000
     36428 MEOH     2060     MEOH     H1C      HDA3B    0.080000        1.0080           0   0.00000   0.00000
     36429 MEOH     2060     MEOH     LP1A     LPD     -0.230000        0.0000           -1   0.00000   0.00000
     36430 MEOH     2060     MEOH     LP1B     LPD     -0.230000        0.0000           -1   0.00000   0.00000
     36431 MEOH     2061     MEOH     C1       CD33B    2.314100       11.6110           0   -1.00000   1.30000
     36432 MEOH     2061     MEOH     DC1      DRUD    -2.454100        0.4000           0   0.00000   0.00000
     36433 MEOH     2061     MEOH     O1       OD31H    2.488300       15.5990           0   -1.02800   1.30000
     36434 MEOH     2061     MEOH     DO1      DRUD    -2.488300        0.4000           0   0.00000   0.00000
     36435 MEOH     2061     MEOH     HO1      HDP1A    0.360000        1.0080           0   0.00000   0.00000
     36436 MEOH     2061     MEOH     HO2      DUMH     0.000000        1.0080           0   0.00000   0.00000
     36437 MEOH     2061     MEOH     H1A      HDA3B    0.080000        1.0080           0   0.00000   0.00000
     36438 MEOH     2061     MEOH     H1B      HDA3B    0.080000        1.0080           0   0.00000   0.00000
     36439 MEOH     2061     MEOH     H1C      HDA3B    0.080000        1.0080           0   0.00000   0.00000
     36440 MEOH     2061     MEOH     LP1A     LPD     -0.230000        0.0000           -1   0.00000   0.00000
     36441 MEOH     2061     MEOH     LP1B     LPD     -0.230000        0.0000           -1   0.00000   0.00000
     36442 MEOH     2062     MEOH     C1       CD33B    2.314100       11.6110           0   -1.00000   1.30000
     36443 MEOH     2062     MEOH     DC1      DRUD    -2.454100        0.4000           0   0.00000   0.00000
     36444 MEOH     2062     MEOH     O1       OD31H    2.488300       15.5990           0   -1.02800   1.30000
     36445 MEOH     2062     MEOH     DO1      DRUD    -2.488300        0.4000           0   0.00000   0.00000
     36446 MEOH     2062     MEOH     HO1      HDP1A    0.360000        1.0080           0   0.00000   0.00000
     36447 MEOH     2062     MEOH     HO2      DUMH     0.000000        1.0080           0   0.00000   0.00000
     36448 MEOH     2062     MEOH     H1A      HDA3B    0.080000        1.0080           0   0.00000   0.00000
     36449 MEOH     2062     MEOH     H1B      HDA3B    0.080000        1.0080           0   0.00000   0.00000
     36450 MEOH     2062     MEOH     H1C      HDA3B    0.080000        1.0080           0   0.00000   0.00000
     36451 MEOH     2062     MEOH     LP1A     LPD     -0.230000        0.0000           -1   0.00000   0.00000
     36452 MEOH     2062     MEOH     LP1B     LPD     -0.230000        0.0000           -1   0.00000   0.00000
     36453 MEOH     2063     MEOH     C1       CD33B    2.314100       11.6110           0   -1.00000   1.30000
     36454 MEOH     2063     MEOH     DC1      DRUD    -2.454100        0.4000           0   0.00000   0.00000
     36455 MEOH     2063     MEOH     O1       OD31H    2.488300       15.5990           0   -1.02800   1.30000
     36456 MEOH     2063     MEOH     DO1      DRUD    -2.488300        0.4000           0   0.00000   0.00000
     36457 MEOH     2063     MEOH     HO1      HDP1A    0.360000        1.0080           0   0.00000   0.00000
     36458 MEOH     2063     MEOH     HO2      DUMH     0.000000        1.0080           0   0.00000   0.00000
     36459 MEOH     2063     MEOH     H1A      HDA3B    0.080000        1.0080           0   0.00000   0.00000
     36460 MEOH     2063     MEOH     H1B      HDA3B    0.080000        1.0080           0   0.00000   0.00000
     36461 MEOH     2063     MEOH     H1C      HDA3B    0.080000        1.0080           0   0.00000   0.00000
     36462 MEOH     2063     MEOH     LP1A     LPD     -0.230000        0.0000           -1   0.00000   0.00000
     36463 MEOH     2063     MEOH     LP1B     LPD     -0.230000        0.0000           -1   0.00000   0.00000
     36464 MEOH     2064     MEOH     C1       CD33B    2.314100       11.6110           0   -1.00000   1.30000
     36465 MEOH     2064     MEOH     DC1      DRUD    -2.454100        0.4000           0   0.00000   0.00000
     36466 MEOH     2064     MEOH     O1       OD31H    2.488300       15.5990           0   -1.02800   1.30000
     36467 MEOH     2064     MEOH     DO1      DRUD    -2.488300        0.4000           0   0.00000   0.00000
     36468 MEOH     2064     MEOH     HO1      HDP1A    0.360000        1.0080           0   0.00000   0.00000
     36469 MEOH     2064     MEOH     HO2      DUMH     0.000000        1.0080           0   0.00000   0.00000
     36470 MEOH     2064     MEOH     H1A      HDA3B    0.080000        1.0080           0   0.00000   0.00000
     36471 MEOH     2064     MEOH     H1B      HDA3B    0.080000        1.0080           0   0.00000   0.00000
     36472 MEOH     2064     MEOH     H1C      HDA3B    0.080000        1.0080           0   0.00000   0.00000
     36473 MEOH     2064     MEOH     LP1A     LPD     -0.230000        0.0000           -1   0.00000   0.00000
     36474 MEOH     2064     MEOH     LP1B     LPD     -0.230000        0.0000           -1   0.00000   0.00000
     36475 MEOH     2065     MEOH     C1       CD33B    2.314100       11.6110           0   -1.00000   1.30000
     36476 MEOH     2065     MEOH     DC1      DRUD    -2.454100        0.4000           0   0.00000   0.00000
     36477 MEOH     2065     MEOH     O1       OD31H    2.488300       15.5990           0   -1.02800   1.30000
     36478 MEOH     2065     MEOH     DO1      DRUD    -2.488300        0.4000           0   0.00000   0.00000
     36479 MEOH     2065     MEOH     HO1      HDP1A    0.360000        1.0080           0   0.00000   0.00000
     36480 MEOH     2065     MEOH     HO2      DUMH     0.000000        1.0080           0   0.00000   0.00000
     36481 MEOH     2065     MEOH     H1A      HDA3B    0.080000        1.0080           0   0.00000   0.00000
     36482 MEOH     2065     MEOH     H1B      HDA3B    0.080000        1.0080           0   0.00000   0.00000
     36483 MEOH     2065     MEOH     H1C      HDA3B    0.080000        1.0080           0   0.00000   0.00000
     36484 MEOH     2065     MEOH     LP1A     LPD     -0.230000        0.0000           -1   0.00000   0.00000
     36485 MEOH     2065     MEOH     LP1B     LPD     -0.230000        0.0000           -1   0.00000   0.00000
     36486 MEOH     2066     MEOH     C1       CD33B    2.314100       11.6110           0   -1.00000   1.30000
     36487 MEOH     2066     MEOH     DC1      DRUD    -2.454100        0.4000           0   0.00000   0.00000
     36488 MEOH     2066     MEOH     O1       OD31H    2.488300       15.5990           0   -1.02800   1.30000
     36489 MEOH     2066     MEOH     DO1      DRUD    -2.488300        0.4000           0   0.00000   0.00000
     36490 MEOH     2066     MEOH     HO1      HDP1A    0.360000        1.0080           0   0.00000   0.00000
     36491 MEOH     2066     MEOH     HO2      DUMH     0.000000        1.0080           0   0.00000   0.00000
     36492 MEOH     2066     MEOH     H1A      HDA3B    0.080000        1.0080           0   0.00000   0.00000
     36493 MEOH     2066     MEOH     H1B      HDA3B    0.080000        1.0080           0   0.00000   0.00000
     36494 MEOH     2066     MEOH     H1C      HDA3B    0.080000        1.0080           0   0.00000   0.00000
     36495 MEOH     2066     MEOH     LP1A     LPD     -0.230000        0.0000           -1   0.00000   0.00000
     36496 MEOH     2066     MEOH     LP1B     LPD     -0.230000        0.0000           -1   0.00000   0.00000
     36497 MEOH     2067     MEOH     C1       CD33B    2.314100       11.6110           0   -1.00000   1.30000
     36498 MEOH     2067     MEOH     DC1      DRUD    -2.454100        0.4000           0   0.00000   0.00000
     36499 MEOH     2067     MEOH     O1       OD31H    2.488300       15.5990           0   -1.02800   1.30000
     36500 MEOH     2067     MEOH     DO1      DRUD    -2.488300        0.4000           0   0.00000   0.00000
     36501 MEOH     2067     MEOH     HO1      HDP1A    0.360000        1.0080           0   0.00000   0.00000
     36502 MEOH     2067     MEOH     HO2      DUMH     0.000000        1.0080           0   0.00000   0.00000
     36503 MEOH     2067     MEOH     H1A      HDA3B    0.080000        1.0080           0   0.00000   0.00000
     36504 MEOH     2067     MEOH     H1B      HDA3B    0.080000        1.0080           0   0.00000   0.00000
     36505 MEOH     2067     MEOH     H1C      HDA3B    0.080000        1.0080           0   0.00000   0.00000
     36506 MEOH     2067     MEOH     LP1A     LPD     -0.230000        0.0000           -1   0.00000   0.00000
     36507 MEOH     2067     MEOH     LP1B     LPD     -0.230000        0.0000           -1   0.00000   0.00000
     36508 MEOH     2068     MEOH     C1       CD33B    2.314100       11.6110           0   -1.00000   1.30000
     36509 MEOH     2068     MEOH     DC1      DRUD    -2.454100        0.4000           0   0.00000   0.00000
     36510 MEOH     2068     MEOH     O1       OD31H    2.488300       15.5990           0   -1.02800   1.30000
     36511 MEOH     2068     MEOH     DO1      DRUD    -2.488300        0.4000           0   0.00000   0.00000
     36512 MEOH     2068     MEOH     HO1      HDP1A    0.360000        1.0080           0   0.00000   0.00000
     36513 MEOH     2068     MEOH     HO2      DUMH     0.000000        1.0080           0   0.00000   0.00000
     36514 MEOH     2068     MEOH     H1A      HDA3B    0.080000        1.0080           0   0.00000   0.00000
     36515 MEOH     2068     MEOH     H1B      HDA3B    0.080000        1.0080           0   0.00000   0.00000
     36516 MEOH     2068     MEOH     H1C      HDA3B    0.080000        1.0080           0   0.00000   0.00000
     36517 MEOH     2068     MEOH     LP1A     LPD     -0.230000        0.0000           -1   0.00000   0.00000
     36518 MEOH     2068     MEOH     LP1B     LPD     -0.230000        0.0000           -1   0.00000   0.00000
     36519 MEOH     2069     MEOH     C1       CD33B    2.314100       11.6110           0   -1.00000   1.30000
     36520 MEOH     2069     MEOH     DC1      DRUD    -2.454100        0.4000           0   0.00000   0.00000
     36521 MEOH     2069     MEOH     O1       OD31H    2.488300       15.5990           0   -1.02800   1.30000
     36522 MEOH     2069     MEOH     DO1      DRUD    -2.488300        0.4000           0   0.00000   0.00000
     36523 MEOH     2069     MEOH     HO1      HDP1A    0.360000        1.0080           0   0.00000   0.00000
     36524 MEOH     2069     MEOH     HO2      DUMH     0.000000        1.0080           0   0.00000   0.00000
     36525 MEOH     2069     MEOH     H1A      HDA3B    0.080000        1.0080           0   0.00000   0.00000
     36526 MEOH     2069     MEOH     H1B      HDA3B    0.080000        1.0080           0   0.00000   0.00000
     36527 MEOH     2069     MEOH     H1C      HDA3B    0.080000        1.0080           0   0.00000   0.00000
     36528 MEOH     2069     MEOH     LP1A     LPD     -0.230000        0.0000           -1   0.00000   0.00000
     36529 MEOH     2069     MEOH     LP1B     LPD     -0.230000        0.0000           -1   0.00000   0.00000
     36530 MEOH     2070     MEOH     C1       CD33B    2.314100       11.6110           0   -1.00000   1.30000
     36531 MEOH     2070     MEOH     DC1      DRUD    -2.454100        0.4000           0   0.00000   0.00000
     36532 MEOH     2070     MEOH     O1       OD31H    2.488300       15.5990           0   -1.02800   1.30000
     36533 MEOH     2070     MEOH     DO1      DRUD    -2.488300        0.4000           0   0.00000   0.00000
     36534 MEOH     2070     MEOH     HO1      HDP1A    0.360000        1.0080           0   0.00000   0.00000
     36535 MEOH     2070     MEOH     HO2      DUMH     0.000000        1.0080           0   0.00000   0.00000
     36536 MEOH     2070     MEOH     H1A      HDA3B    0.080000        1.0080           0   0.00000   0.00000
     36537 MEOH     2070     MEOH     H1B      HDA3B    0.080000        1.0080           0   0.00000   0.00000
     36538 MEOH     2070     MEOH     H1C      HDA3B    0.080000        1.0080           0   0.00000   0.00000
     36539 MEOH     2070     MEOH     LP1A     LPD     -0.230000        0.0000           -1   0.00000   0.00000
     36540 MEOH     2070     MEOH     LP1B     LPD     -0.230000        0.0000           -1   0.00000   0.00000
     36541 MEOH     2071     MEOH     C1       CD33B    2.314100       11.6110           0   -1.00000   1.30000
     36542 MEOH     2071     MEOH     DC1      DRUD    -2.454100        0.4000           0   0.00000   0.00000
     36543 MEOH     2071     MEOH     O1       OD31H    2.488300       15.5990           0   -1.02800   1.30000
     36544 MEOH     2071     MEOH     DO1      DRUD    -2.488300        0.4000           0   0.00000   0.00000
     36545 MEOH     2071     MEOH     HO1      HDP1A    0.360000        1.0080           0   0.00000   0.00000
     36546 MEOH     2071     MEOH     HO2      DUMH     0.000000        1.0080           0   0.00000   0.00000
     36547 MEOH     2071     MEOH     H1A      HDA3B    0.080000        1.0080           0   0.00000   0.00000
     36548 MEOH     2071     MEOH     H1B      HDA3B    0.080000        1.0080           0   0.00000   0.00000
     36549 MEOH     2071     MEOH     H1C      HDA3B    0.080000        1.0080           0   0.00000   0.00000
     36550 MEOH     2071     MEOH     LP1A     LPD     -0.230000        0.0000           -1   0.00000   0.00000
     36551 MEOH     2071     MEOH     LP1B     LPD     -0.230000        0.0000           -1   0.00000   0.00000
     36552 MEOH     2072     MEOH     C1       CD33B    2.314100       11.6110           0   -1.00000   1.30000
     36553 MEOH     2072     MEOH     DC1      DRUD    -2.454100        0.4000           0   0.00000   0.00000
     36554 MEOH     2072     MEOH     O1       OD31H    2.488300       15.5990           0   -1.02800   1.30000
     36555 MEOH     2072     MEOH     DO1      DRUD    -2.488300        0.4000           0   0.00000   0.00000
     36556 MEOH     2072     MEOH     HO1      HDP1A    0.360000        1.0080           0   0.00000   0.00000
     36557 MEOH     2072     MEOH     HO2      DUMH     0.000000        1.0080           0   0.00000   0.00000
     36558 MEOH     2072     MEOH     H1A      HDA3B    0.080000        1.0080           0   0.00000   0.00000
     36559 MEOH     2072     MEOH     H1B      HDA3B    0.080000        1.0080           0   0.00000   0.00000
     36560 MEOH     2072     MEOH     H1C      HDA3B    0.080000        1.0080           0   0.00000   0.00000
     36561 MEOH     2072     MEOH     LP1A     LPD     -0.230000        0.0000           -1   0.00000   0.00000
     36562 MEOH     2072     MEOH     LP1B     LPD     -0.230000        0.0000           -1   0.00000   0.00000
     36563 MEOH     2073     MEOH     C1       CD33B    2.314100       11.6110           0   -1.00000   1.30000
     36564 MEOH     2073     MEOH     DC1      DRUD    -2.454100        0.4000           0   0.00000   0.00000
     36565 MEOH     2073     MEOH     O1       OD31H    2.488300       15.5990           0   -1.02800   1.30000
     36566 MEOH     2073     MEOH     DO1      DRUD    -2.488300        0.4000           0   0.00000   0.00000
     36567 MEOH     2073     MEOH     HO1      HDP1A    0.360000        1.0080           0   0.00000   0.00000
     36568 MEOH     2073     MEOH     HO2      DUMH     0.000000        1.0080           0   0.00000   0.00000
     36569 MEOH     2073     MEOH     H1A      HDA3B    0.080000        1.0080           0   0.00000   0.00000
     36570 MEOH     2073     MEOH     H1B      HDA3B    0.080000        1.0080           0   0.00000   0.00000
     36571 MEOH     2073     MEOH     H1C      HDA3B    0.080000        1.0080           0   0.00000   0.00000
     36572 MEOH     2073     MEOH     LP1A     LPD     -0.230000        0.0000           -1   0.00000   0.00000
     36573 MEOH     2073     MEOH     LP1B     LPD     -0.230000        0.0000           -1   0.00000   0.00000
     36574 MEOH     2074     MEOH     C1       CD33B    2.314100       11.6110           0   -1.00000   1.30000
     36575 MEOH     2074     MEOH     DC1      DRUD    -2.454100        0.4000           0   0.00000   0.00000
     36576 MEOH     2074     MEOH     O1       OD31H    2.488300       15.5990           0   -1.02800   1.30000
     36577 MEOH     2074     MEOH     DO1      DRUD    -2.488300        0.4000           0   0.00000   0.00000
     36578 MEOH     2074     MEOH     HO1      HDP1A    0.360000        1.0080           0   0.00000   0.00000
     36579 MEOH     2074     MEOH     HO2      DUMH     0.000000        1.0080           0   0.00000   0.00000
     36580 MEOH     2074     MEOH     H1A      HDA3B    0.080000        1.0080           0   0.00000   0.00000
     36581 MEOH     2074     MEOH     H1B      HDA3B    0.080000        1.0080           0   0.00000   0.00000
     36582 MEOH     2074     MEOH     H1C      HDA3B    0.080000        1.0080           0   0.00000   0.00000
     36583 MEOH     2074     MEOH     LP1A     LPD     -0.230000        0.0000           -1   0.00000   0.00000
     36584 MEOH     2074     MEOH     LP1B     LPD     -0.230000        0.0000           -1   0.00000   0.00000
     36585 MEOH     2075     MEOH     C1       CD33B    2.314100       11.6110           0   -1.00000   1.30000
     36586 MEOH     2075     MEOH     DC1      DRUD    -2.454100        0.4000           0   0.00000   0.00000
     36587 MEOH     2075     MEOH     O1       OD31H    2.488300       15.5990           0   -1.02800   1.30000
     36588 MEOH     2075     MEOH     DO1      DRUD    -2.488300        0.4000           0   0.00000   0.00000
     36589 MEOH     2075     MEOH     HO1      HDP1A    0.360000        1.0080           0   0.00000   0.00000
     36590 MEOH     2075     MEOH     HO2      DUMH     0.000000        1.0080           0   0.00000   0.00000
     36591 MEOH     2075     MEOH     H1A      HDA3B    0.080000        1.0080           0   0.00000   0.00000
     36592 MEOH     2075     MEOH     H1B      HDA3B    0.080000        1.0080           0   0.00000   0.00000
     36593 MEOH     2075     MEOH     H1C      HDA3B    0.080000        1.0080           0   0.00000   0.00000
     36594 MEOH     2075     MEOH     LP1A     LPD     -0.230000        0.0000           -1   0.00000   0.00000
     36595 MEOH     2075     MEOH     LP1B     LPD     -0.230000        0.0000           -1   0.00000   0.00000
     36596 MEOH     2076     MEOH     C1       CD33B    2.314100       11.6110           0   -1.00000   1.30000
     36597 MEOH     2076     MEOH     DC1      DRUD    -2.454100        0.4000           0   0.00000   0.00000
     36598 MEOH     2076     MEOH     O1       OD31H    2.488300       15.5990           0   -1.02800   1.30000
     36599 MEOH     2076     MEOH     DO1      DRUD    -2.488300        0.4000           0   0.00000   0.00000
     36600 MEOH     2076     MEOH     HO1      HDP1A    0.360000        1.0080           0   0.00000   0.00000
     36601 MEOH     2076     MEOH     HO2      DUMH     0.000000        1.0080           0   0.00000   0.00000
     36602 MEOH     2076     MEOH     H1A      HDA3B    0.080000        1.0080           0   0.00000   0.00000
     36603 MEOH     2076     MEOH     H1B      HDA3B    0.080000        1.0080           0   0.00000   0.00000
     36604 MEOH     2076     MEOH     H1C      HDA3B    0.080000        1.0080           0   0.00000   0.00000
     36605 MEOH     2076     MEOH     LP1A     LPD     -0.230000        0.0000           -1   0.00000   0.00000
     36606 MEOH     2076     MEOH     LP1B     LPD     -0.230000        0.0000           -1   0.00000   0.00000
     36607 MEOH     2077     MEOH     C1       CD33B    2.314100       11.6110           0   -1.00000   1.30000
     36608 MEOH     2077     MEOH     DC1      DRUD    -2.454100        0.4000           0   0.00000   0.00000
     36609 MEOH     2077     MEOH     O1       OD31H    2.488300       15.5990           0   -1.02800   1.30000
     36610 MEOH     2077     MEOH     DO1      DRUD    -2.488300        0.4000           0   0.00000   0.00000
     36611 MEOH     2077     MEOH     HO1      HDP1A    0.360000        1.0080           0   0.00000   0.00000
     36612 MEOH     2077     MEOH     HO2      DUMH     0.000000        1.0080           0   0.00000   0.00000
     36613 MEOH     2077     MEOH     H1A      HDA3B    0.080000        1.0080           0   0.00000   0.00000
     36614 MEOH     2077     MEOH     H1B      HDA3B    0.080000        1.0080           0   0.00000   0.00000
     36615 MEOH     2077     MEOH     H1C      HDA3B    0.080000        1.0080           0   0.00000   0.00000
     36616 MEOH     2077     MEOH     LP1A     LPD     -0.230000        0.0000           -1   0.00000   0.00000
     36617 MEOH     2077     MEOH     LP1B     LPD     -0.230000        0.0000           -1   0.00000   0.00000
     36618 MEOH     2078     MEOH     C1       CD33B    2.314100       11.6110           0   -1.00000   1.30000
     36619 MEOH     2078     MEOH     DC1      DRUD    -2.454100        0.4000           0   0.00000   0.00000
     36620 MEOH     2078     MEOH     O1       OD31H    2.488300       15.5990           0   -1.02800   1.30000
     36621 MEOH     2078     MEOH     DO1      DRUD    -2.488300        0.4000           0   0.00000   0.00000
     36622 MEOH     2078     MEOH     HO1      HDP1A    0.360000        1.0080           0   0.00000   0.00000
     36623 MEOH     2078     MEOH     HO2      DUMH     0.000000        1.0080           0   0.00000   0.00000
     36624 MEOH     2078     MEOH     H1A      HDA3B    0.080000        1.0080           0   0.00000   0.00000
     36625 MEOH     2078     MEOH     H1B      HDA3B    0.080000        1.0080           0   0.00000   0.00000
     36626 MEOH     2078     MEOH     H1C      HDA3B    0.080000        1.0080           0   0.00000   0.00000
     36627 MEOH     2078     MEOH     LP1A     LPD     -0.230000        0.0000           -1   0.00000   0.00000
     36628 MEOH     2078     MEOH     LP1B     LPD     -0.230000        0.0000           -1   0.00000   0.00000
     36629 MEOH     2079     MEOH     C1       CD33B    2.314100       11.6110           0   -1.00000   1.30000
     36630 MEOH     2079     MEOH     DC1      DRUD    -2.454100        0.4000           0   0.00000   0.00000
     36631 MEOH     2079     MEOH     O1       OD31H    2.488300       15.5990           0   -1.02800   1.30000
     36632 MEOH     2079     MEOH     DO1      DRUD    -2.488300        0.4000           0   0.00000   0.00000
     36633 MEOH     2079     MEOH     HO1      HDP1A    0.360000        1.0080           0   0.00000   0.00000
     36634 MEOH     2079     MEOH     HO2      DUMH     0.000000        1.0080           0   0.00000   0.00000
     36635 MEOH     2079     MEOH     H1A      HDA3B    0.080000        1.0080           0   0.00000   0.00000
     36636 MEOH     2079     MEOH     H1B      HDA3B    0.080000        1.0080           0   0.00000   0.00000
     36637 MEOH     2079     MEOH     H1C      HDA3B    0.080000        1.0080           0   0.00000   0.00000
     36638 MEOH     2079     MEOH     LP1A     LPD     -0.230000        0.0000           -1   0.00000   0.00000
     36639 MEOH     2079     MEOH     LP1B     LPD     -0.230000        0.0000           -1   0.00000   0.00000
     36640 MEOH     2080     MEOH     C1       CD33B    2.314100       11.6110           0   -1.00000   1.30000
     36641 MEOH     2080     MEOH     DC1      DRUD    -2.454100        0.4000           0   0.00000   0.00000
     36642 MEOH     2080     MEOH     O1       OD31H    2.488300       15.5990           0   -1.02800   1.30000
     36643 MEOH     2080     MEOH     DO1      DRUD    -2.488300        0.4000           0   0.00000   0.00000
     36644 MEOH     2080     MEOH     HO1      HDP1A    0.360000        1.0080           0   0.00000   0.00000
     36645 MEOH     2080     MEOH     HO2      DUMH     0.000000        1.0080           0   0.00000   0.00000
     36646 MEOH     2080     MEOH     H1A      HDA3B    0.080000        1.0080           0   0.00000   0.00000
     36647 MEOH     2080     MEOH     H1B      HDA3B    0.080000        1.0080           0   0.00000   0.00000
     36648 MEOH     2080     MEOH     H1C      HDA3B    0.080000        1.0080           0   0.00000   0.00000
     36649 MEOH     2080     MEOH     LP1A     LPD     -0.230000        0.0000           -1   0.00000   0.00000
     36650 MEOH     2080     MEOH     LP1B     LPD     -0.230000        0.0000           -1   0.00000   0.00000
     36651 MEOH     2081     MEOH     C1       CD33B    2.314100       11.6110           0   -1.00000   1.30000
     36652 MEOH     2081     MEOH     DC1      DRUD    -2.454100        0.4000           0   0.00000   0.00000
     36653 MEOH     2081     MEOH     O1       OD31H    2.488300       15.5990           0   -1.02800   1.30000
     36654 MEOH     2081     MEOH     DO1      DRUD    -2.488300        0.4000           0   0.00000   0.00000
     36655 MEOH     2081     MEOH     HO1      HDP1A    0.360000        1.0080           0   0.00000   0.00000
     36656 MEOH     2081     MEOH     HO2      DUMH     0.000000        1.0080           0   0.00000   0.00000
     36657 MEOH     2081     MEOH     H1A      HDA3B    0.080000        1.0080           0   0.00000   0.00000
     36658 MEOH     2081     MEOH     H1B      HDA3B    0.080000        1.0080           0   0.00000   0.00000
     36659 MEOH     2081     MEOH     H1C      HDA3B    0.080000        1.0080           0   0.00000   0.00000
     36660 MEOH     2081     MEOH     LP1A     LPD     -0.230000        0.0000           -1   0.00000   0.00000
     36661 MEOH     2081     MEOH     LP1B     LPD     -0.230000        0.0000           -1   0.00000   0.00000
     36662 MEOH     2082     MEOH     C1       CD33B    2.314100       11.6110           0   -1.00000   1.30000
     36663 MEOH     2082     MEOH     DC1      DRUD    -2.454100        0.4000           0   0.00000   0.00000
     36664 MEOH     2082     MEOH     O1       OD31H    2.488300       15.5990           0   -1.02800   1.30000
     36665 MEOH     2082     MEOH     DO1      DRUD    -2.488300        0.4000           0   0.00000   0.00000
     36666 MEOH     2082     MEOH     HO1      HDP1A    0.360000        1.0080           0   0.00000   0.00000
     36667 MEOH     2082     MEOH     HO2      DUMH     0.000000        1.0080           0   0.00000   0.00000
     36668 MEOH     2082     MEOH     H1A      HDA3B    0.080000        1.0080           0   0.00000   0.00000
     36669 MEOH     2082     MEOH     H1B      HDA3B    0.080000        1.0080           0   0.00000   0.00000
     36670 MEOH     2082     MEOH     H1C      HDA3B    0.080000        1.0080           0   0.00000   0.00000
     36671 MEOH     2082     MEOH     LP1A     LPD     -0.230000        0.0000           -1   0.00000   0.00000
     36672 MEOH     2082     MEOH     LP1B     LPD     -0.230000        0.0000           -1   0.00000   0.00000
     36673 MEOH     2083     MEOH     C1       CD33B    2.314100       11.6110           0   -1.00000   1.30000
     36674 MEOH     2083     MEOH     DC1      DRUD    -2.454100        0.4000           0   0.00000   0.00000
     36675 MEOH     2083     MEOH     O1       OD31H    2.488300       15.5990           0   -1.02800   1.30000
     36676 MEOH     2083     MEOH     DO1      DRUD    -2.488300        0.4000           0   0.00000   0.00000
     36677 MEOH     2083     MEOH     HO1      HDP1A    0.360000        1.0080           0   0.00000   0.00000
     36678 MEOH     2083     MEOH     HO2      DUMH     0.000000        1.0080           0   0.00000   0.00000
     36679 MEOH     2083     MEOH     H1A      HDA3B    0.080000        1.0080           0   0.00000   0.00000
     36680 MEOH     2083     MEOH     H1B      HDA3B    0.080000        1.0080           0   0.00000   0.00000
     36681 MEOH     2083     MEOH     H1C      HDA3B    0.080000        1.0080           0   0.00000   0.00000
     36682 MEOH     2083     MEOH     LP1A     LPD     -0.230000        0.0000           -1   0.00000   0.00000
     36683 MEOH     2083     MEOH     LP1B     LPD     -0.230000        0.0000           -1   0.00000   0.00000
     36684 MEOH     2084     MEOH     C1       CD33B    2.314100       11.6110           0   -1.00000   1.30000
     36685 MEOH     2084     MEOH     DC1      DRUD    -2.454100        0.4000           0   0.00000   0.00000
     36686 MEOH     2084     MEOH     O1       OD31H    2.488300       15.5990           0   -1.02800   1.30000
     36687 MEOH     2084     MEOH     DO1      DRUD    -2.488300        0.4000           0   0.00000   0.00000
     36688 MEOH     2084     MEOH     HO1      HDP1A    0.360000        1.0080           0   0.00000   0.00000
     36689 MEOH     2084     MEOH     HO2      DUMH     0.000000        1.0080           0   0.00000   0.00000
     36690 MEOH     2084     MEOH     H1A      HDA3B    0.080000        1.0080           0   0.00000   0.00000
     36691 MEOH     2084     MEOH     H1B      HDA3B    0.080000        1.0080           0   0.00000   0.00000
     36692 MEOH     2084     MEOH     H1C      HDA3B    0.080000        1.0080           0   0.00000   0.00000
     36693 MEOH     2084     MEOH     LP1A     LPD     -0.230000        0.0000           -1   0.00000   0.00000
     36694 MEOH     2084     MEOH     LP1B     LPD     -0.230000        0.0000           -1   0.00000   0.00000
     36695 MEOH     2085     MEOH     C1       CD33B    2.314100       11.6110           0   -1.00000   1.30000
     36696 MEOH     2085     MEOH     DC1      DRUD    -2.454100        0.4000           0   0.00000   0.00000
     36697 MEOH     2085     MEOH     O1       OD31H    2.488300       15.5990           0   -1.02800   1.30000
     36698 MEOH     2085     MEOH     DO1      DRUD    -2.488300        0.4000           0   0.00000   0.00000
     36699 MEOH     2085     MEOH     HO1      HDP1A    0.360000        1.0080           0   0.00000   0.00000
     36700 MEOH     2085     MEOH     HO2      DUMH     0.000000        1.0080           0   0.00000   0.00000
     36701 MEOH     2085     MEOH     H1A      HDA3B    0.080000        1.0080           0   0.00000   0.00000
     36702 MEOH     2085     MEOH     H1B      HDA3B    0.080000        1.0080           0   0.00000   0.00000
     36703 MEOH     2085     MEOH     H1C      HDA3B    0.080000        1.0080           0   0.00000   0.00000
     36704 MEOH     2085     MEOH     LP1A     LPD     -0.230000        0.0000           -1   0.00000   0.00000
     36705 MEOH     2085     MEOH     LP1B     LPD     -0.230000        0.0000           -1   0.00000   0.00000
     36706 MEOH     2086     MEOH     C1       CD33B    2.314100       11.6110           0   -1.00000   1.30000
     36707 MEOH     2086     MEOH     DC1      DRUD    -2.454100        0.4000           0   0.00000   0.00000
     36708 MEOH     2086     MEOH     O1       OD31H    2.488300       15.5990           0   -1.02800   1.30000
     36709 MEOH     2086     MEOH     DO1      DRUD    -2.488300        0.4000           0   0.00000   0.00000
     36710 MEOH     2086     MEOH     HO1      HDP1A    0.360000        1.0080           0   0.00000   0.00000
     36711 MEOH     2086     MEOH     HO2      DUMH     0.000000        1.0080           0   0.00000   0.00000
     36712 MEOH     2086     MEOH     H1A      HDA3B    0.080000        1.0080           0   0.00000   0.00000
     36713 MEOH     2086     MEOH     H1B      HDA3B    0.080000        1.0080           0   0.00000   0.00000
     36714 MEOH     2086     MEOH     H1C      HDA3B    0.080000        1.0080           0   0.00000   0.00000
     36715 MEOH     2086     MEOH     LP1A     LPD     -0.230000        0.0000           -1   0.00000   0.00000
     36716 MEOH     2086     MEOH     LP1B     LPD     -0.230000        0.0000           -1   0.00000   0.00000
     36717 MEOH     2087     MEOH     C1       CD33B    2.314100       11.6110           0   -1.00000   1.30000
     36718 MEOH     2087     MEOH     DC1      DRUD    -2.454100        0.4000           0   0.00000   0.00000
     36719 MEOH     2087     MEOH     O1       OD31H    2.488300       15.5990           0   -1.02800   1.30000
     36720 MEOH     2087     MEOH     DO1      DRUD    -2.488300        0.4000           0   0.00000   0.00000
     36721 MEOH     2087     MEOH     HO1      HDP1A    0.360000        1.0080           0   0.00000   0.00000
     36722 MEOH     2087     MEOH     HO2      DUMH     0.000000        1.0080           0   0.00000   0.00000
     36723 MEOH     2087     MEOH     H1A      HDA3B    0.080000        1.0080           0   0.00000   0.00000
     36724 MEOH     2087     MEOH     H1B      HDA3B    0.080000        1.0080           0   0.00000   0.00000
     36725 MEOH     2087     MEOH     H1C      HDA3B    0.080000        1.0080           0   0.00000   0.00000
     36726 MEOH     2087     MEOH     LP1A     LPD     -0.230000        0.0000           -1   0.00000   0.00000
     36727 MEOH     2087     MEOH     LP1B     LPD     -0.230000        0.0000           -1   0.00000   0.00000
     36728 MEOH     2088     MEOH     C1       CD33B    2.314100       11.6110           0   -1.00000   1.30000
     36729 MEOH     2088     MEOH     DC1      DRUD    -2.454100        0.4000           0   0.00000   0.00000
     36730 MEOH     2088     MEOH     O1       OD31H    2.488300       15.5990           0   -1.02800   1.30000
     36731 MEOH     2088     MEOH     DO1      DRUD    -2.488300        0.4000           0   0.00000   0.00000
     36732 MEOH     2088     MEOH     HO1      HDP1A    0.360000        1.0080           0   0.00000   0.00000
     36733 MEOH     2088     MEOH     HO2      DUMH     0.000000        1.0080           0   0.00000   0.00000
     36734 MEOH     2088     MEOH     H1A      HDA3B    0.080000        1.0080           0   0.00000   0.00000
     36735 MEOH     2088     MEOH     H1B      HDA3B    0.080000        1.0080           0   0.00000   0.00000
     36736 MEOH     2088     MEOH     H1C      HDA3B    0.080000        1.0080           0   0.00000   0.00000
     36737 MEOH     2088     MEOH     LP1A     LPD     -0.230000        0.0000           -1   0.00000   0.00000
     36738 MEOH     2088     MEOH     LP1B     LPD     -0.230000        0.0000           -1   0.00000   0.00000
     36739 MEOH     2089     MEOH     C1       CD33B    2.314100       11.6110           0   -1.00000   1.30000
     36740 MEOH     2089     MEOH     DC1      DRUD    -2.454100        0.4000           0   0.00000   0.00000
     36741 MEOH     2089     MEOH     O1       OD31H    2.488300       15.5990           0   -1.02800   1.30000
     36742 MEOH     2089     MEOH     DO1      DRUD    -2.488300        0.4000           0   0.00000   0.00000
     36743 MEOH     2089     MEOH     HO1      HDP1A    0.360000        1.0080           0   0.00000   0.00000
     36744 MEOH     2089     MEOH     HO2      DUMH     0.000000        1.0080           0   0.00000   0.00000
     36745 MEOH     2089     MEOH     H1A      HDA3B    0.080000        1.0080           0   0.00000   0.00000
     36746 MEOH     2089     MEOH     H1B      HDA3B    0.080000        1.0080           0   0.00000   0.00000
     36747 MEOH     2089     MEOH     H1C      HDA3B    0.080000        1.0080           0   0.00000   0.00000
     36748 MEOH     2089     MEOH     LP1A     LPD     -0.230000        0.0000           -1   0.00000   0.00000
     36749 MEOH     2089     MEOH     LP1B     LPD     -0.230000        0.0000           -1   0.00000   0.00000
     36750 MEOH     2090     MEOH     C1       CD33B    2.314100       11.6110           0   -1.00000   1.30000
     36751 MEOH     2090     MEOH     DC1      DRUD    -2.454100        0.4000           0   0.00000   0.00000
     36752 MEOH     2090     MEOH     O1       OD31H    2.488300       15.5990           0   -1.02800   1.30000
     36753 MEOH     2090     MEOH     DO1      DRUD    -2.488300        0.4000           0   0.00000   0.00000
     36754 MEOH     2090     MEOH     HO1      HDP1A    0.360000        1.0080           0   0.00000   0.00000
     36755 MEOH     2090     MEOH     HO2      DUMH     0.000000        1.0080           0   0.00000   0.00000
     36756 MEOH     2090     MEOH     H1A      HDA3B    0.080000        1.0080           0   0.00000   0.00000
     36757 MEOH     2090     MEOH     H1B      HDA3B    0.080000        1.0080           0   0.00000   0.00000
     36758 MEOH     2090     MEOH     H1C      HDA3B    0.080000        1.0080           0   0.00000   0.00000
     36759 MEOH     2090     MEOH     LP1A     LPD     -0.230000        0.0000           -1   0.00000   0.00000
     36760 MEOH     2090     MEOH     LP1B     LPD     -0.230000        0.0000           -1   0.00000   0.00000
     36761 MEOH     2091     MEOH     C1       CD33B    2.314100       11.6110           0   -1.00000   1.30000
     36762 MEOH     2091     MEOH     DC1      DRUD    -2.454100        0.4000           0   0.00000   0.00000
     36763 MEOH     2091     MEOH     O1       OD31H    2.488300       15.5990           0   -1.02800   1.30000
     36764 MEOH     2091     MEOH     DO1      DRUD    -2.488300        0.4000           0   0.00000   0.00000
     36765 MEOH     2091     MEOH     HO1      HDP1A    0.360000        1.0080           0   0.00000   0.00000
     36766 MEOH     2091     MEOH     HO2      DUMH     0.000000        1.0080           0   0.00000   0.00000
     36767 MEOH     2091     MEOH     H1A      HDA3B    0.080000        1.0080           0   0.00000   0.00000
     36768 MEOH     2091     MEOH     H1B      HDA3B    0.080000        1.0080           0   0.00000   0.00000
     36769 MEOH     2091     MEOH     H1C      HDA3B    0.080000        1.0080           0   0.00000   0.00000
     36770 MEOH     2091     MEOH     LP1A     LPD     -0.230000        0.0000           -1   0.00000   0.00000
     36771 MEOH     2091     MEOH     LP1B     LPD     -0.230000        0.0000           -1   0.00000   0.00000
     36772 MEOH     2092     MEOH     C1       CD33B    2.314100       11.6110           0   -1.00000   1.30000
     36773 MEOH     2092     MEOH     DC1      DRUD    -2.454100        0.4000           0   0.00000   0.00000
     36774 MEOH     2092     MEOH     O1       OD31H    2.488300       15.5990           0   -1.02800   1.30000
     36775 MEOH     2092     MEOH     DO1      DRUD    -2.488300        0.4000           0   0.00000   0.00000
     36776 MEOH     2092     MEOH     HO1      HDP1A    0.360000        1.0080           0   0.00000   0.00000
     36777 MEOH     2092     MEOH     HO2      DUMH     0.000000        1.0080           0   0.00000   0.00000
     36778 MEOH     2092     MEOH     H1A      HDA3B    0.080000        1.0080           0   0.00000   0.00000
     36779 MEOH     2092     MEOH     H1B      HDA3B    0.080000        1.0080           0   0.00000   0.00000
     36780 MEOH     2092     MEOH     H1C      HDA3B    0.080000        1.0080           0   0.00000   0.00000
     36781 MEOH     2092     MEOH     LP1A     LPD     -0.230000        0.0000           -1   0.00000   0.00000
     36782 MEOH     2092     MEOH     LP1B     LPD     -0.230000        0.0000           -1   0.00000   0.00000
     36783 MEOH     2093     MEOH     C1       CD33B    2.314100       11.6110           0   -1.00000   1.30000
     36784 MEOH     2093     MEOH     DC1      DRUD    -2.454100        0.4000           0   0.00000   0.00000
     36785 MEOH     2093     MEOH     O1       OD31H    2.488300       15.5990           0   -1.02800   1.30000
     36786 MEOH     2093     MEOH     DO1      DRUD    -2.488300        0.4000           0   0.00000   0.00000
     36787 MEOH     2093     MEOH     HO1      HDP1A    0.360000        1.0080           0   0.00000   0.00000
     36788 MEOH     2093     MEOH     HO2      DUMH     0.000000        1.0080           0   0.00000   0.00000
     36789 MEOH     2093     MEOH     H1A      HDA3B    0.080000        1.0080           0   0.00000   0.00000
     36790 MEOH     2093     MEOH     H1B      HDA3B    0.080000        1.0080           0   0.00000   0.00000
     36791 MEOH     2093     MEOH     H1C      HDA3B    0.080000        1.0080           0   0.00000   0.00000
     36792 MEOH     2093     MEOH     LP1A     LPD     -0.230000        0.0000           -1   0.00000   0.00000
     36793 MEOH     2093     MEOH     LP1B     LPD     -0.230000        0.0000           -1   0.00000   0.00000
     36794 MEOH     2094     MEOH     C1       CD33B    2.314100       11.6110           0   -1.00000   1.30000
     36795 MEOH     2094     MEOH     DC1      DRUD    -2.454100        0.4000           0   0.00000   0.00000
     36796 MEOH     2094     MEOH     O1       OD31H    2.488300       15.5990           0   -1.02800   1.30000
     36797 MEOH     2094     MEOH     DO1      DRUD    -2.488300        0.4000           0   0.00000   0.00000
     36798 MEOH     2094     MEOH     HO1      HDP1A    0.360000        1.0080           0   0.00000   0.00000
     36799 MEOH     2094     MEOH     HO2      DUMH     0.000000        1.0080           0   0.00000   0.00000
     36800 MEOH     2094     MEOH     H1A      HDA3B    0.080000        1.0080           0   0.00000   0.00000
     36801 MEOH     2094     MEOH     H1B      HDA3B    0.080000        1.0080           0   0.00000   0.00000
     36802 MEOH     2094     MEOH     H1C      HDA3B    0.080000        1.0080           0   0.00000   0.00000
     36803 MEOH     2094     MEOH     LP1A     LPD     -0.230000        0.0000           -1   0.00000   0.00000
     36804 MEOH     2094     MEOH     LP1B     LPD     -0.230000        0.0000           -1   0.00000   0.00000
     36805 MEOH     2095     MEOH     C1       CD33B    2.314100       11.6110           0   -1.00000   1.30000
     36806 MEOH     2095     MEOH     DC1      DRUD    -2.454100        0.4000           0   0.00000   0.00000
     36807 MEOH     2095     MEOH     O1       OD31H    2.488300       15.5990           0   -1.02800   1.30000
     36808 MEOH     2095     MEOH     DO1      DRUD    -2.488300        0.4000           0   0.00000   0.00000
     36809 MEOH     2095     MEOH     HO1      HDP1A    0.360000        1.0080           0   0.00000   0.00000
     36810 MEOH     2095     MEOH     HO2      DUMH     0.000000        1.0080           0   0.00000   0.00000
     36811 MEOH     2095     MEOH     H1A      HDA3B    0.080000        1.0080           0   0.00000   0.00000
     36812 MEOH     2095     MEOH     H1B      HDA3B    0.080000        1.0080           0   0.00000   0.00000
     36813 MEOH     2095     MEOH     H1C      HDA3B    0.080000        1.0080           0   0.00000   0.00000
     36814 MEOH     2095     MEOH     LP1A     LPD     -0.230000        0.0000           -1   0.00000   0.00000
     36815 MEOH     2095     MEOH     LP1B     LPD     -0.230000        0.0000           -1   0.00000   0.00000
     36816 MEOH     2096     MEOH     C1       CD33B    2.314100       11.6110           0   -1.00000   1.30000
     36817 MEOH     2096     MEOH     DC1      DRUD    -2.454100        0.4000           0   0.00000   0.00000
     36818 MEOH     2096     MEOH     O1       OD31H    2.488300       15.5990           0   -1.02800   1.30000
     36819 MEOH     2096     MEOH     DO1      DRUD    -2.488300        0.4000           0   0.00000   0.00000
     36820 MEOH     2096     MEOH     HO1      HDP1A    0.360000        1.0080           0   0.00000   0.00000
     36821 MEOH     2096     MEOH     HO2      DUMH     0.000000        1.0080           0   0.00000   0.00000
     36822 MEOH     2096     MEOH     H1A      HDA3B    0.080000        1.0080           0   0.00000   0.00000
     36823 MEOH     2096     MEOH     H1B      HDA3B    0.080000        1.0080           0   0.00000   0.00000
     36824 MEOH     2096     MEOH     H1C      HDA3B    0.080000        1.0080           0   0.00000   0.00000
     36825 MEOH     2096     MEOH     LP1A     LPD     -0.230000        0.0000           -1   0.00000   0.00000
     36826 MEOH     2096     MEOH     LP1B     LPD     -0.230000        0.0000           -1   0.00000   0.00000
     36827 MEOH     2097     MEOH     C1       CD33B    2.314100       11.6110           0   -1.00000   1.30000
     36828 MEOH     2097     MEOH     DC1      DRUD    -2.454100        0.4000           0   0.00000   0.00000
     36829 MEOH     2097     MEOH     O1       OD31H    2.488300       15.5990           0   -1.02800   1.30000
     36830 MEOH     2097     MEOH     DO1      DRUD    -2.488300        0.4000           0   0.00000   0.00000
     36831 MEOH     2097     MEOH     HO1      HDP1A    0.360000        1.0080           0   0.00000   0.00000
     36832 MEOH     2097     MEOH     HO2      DUMH     0.000000        1.0080           0   0.00000   0.00000
     36833 MEOH     2097     MEOH     H1A      HDA3B    0.080000        1.0080           0   0.00000   0.00000
     36834 MEOH     2097     MEOH     H1B      HDA3B    0.080000        1.0080           0   0.00000   0.00000
     36835 MEOH     2097     MEOH     H1C      HDA3B    0.080000        1.0080           0   0.00000   0.00000
     36836 MEOH     2097     MEOH     LP1A     LPD     -0.230000        0.0000           -1   0.00000   0.00000
     36837 MEOH     2097     MEOH     LP1B     LPD     -0.230000        0.0000           -1   0.00000   0.00000
     36838 MEOH     2098     MEOH     C1       CD33B    2.314100       11.6110           0   -1.00000   1.30000
     36839 MEOH     2098     MEOH     DC1      DRUD    -2.454100        0.4000           0   0.00000   0.00000
     36840 MEOH     2098     MEOH     O1       OD31H    2.488300       15.5990           0   -1.02800   1.30000
     36841 MEOH     2098     MEOH     DO1      DRUD    -2.488300        0.4000           0   0.00000   0.00000
     36842 MEOH     2098     MEOH     HO1      HDP1A    0.360000        1.0080           0   0.00000   0.00000
     36843 MEOH     2098     MEOH     HO2      DUMH     0.000000        1.0080           0   0.00000   0.00000
     36844 MEOH     2098     MEOH     H1A      HDA3B    0.080000        1.0080           0   0.00000   0.00000
     36845 MEOH     2098     MEOH     H1B      HDA3B    0.080000        1.0080           0   0.00000   0.00000
     36846 MEOH     2098     MEOH     H1C      HDA3B    0.080000        1.0080           0   0.00000   0.00000
     36847 MEOH     2098     MEOH     LP1A     LPD     -0.230000        0.0000           -1   0.00000   0.00000
     36848 MEOH     2098     MEOH     LP1B     LPD     -0.230000        0.0000           -1   0.00000   0.00000
     36849 MEOH     2099     MEOH     C1       CD33B    2.314100       11.6110           0   -1.00000   1.30000
     36850 MEOH     2099     MEOH     DC1      DRUD    -2.454100        0.4000           0   0.00000   0.00000
     36851 MEOH     2099     MEOH     O1       OD31H    2.488300       15.5990           0   -1.02800   1.30000
     36852 MEOH     2099     MEOH     DO1      DRUD    -2.488300        0.4000           0   0.00000   0.00000
     36853 MEOH     2099     MEOH     HO1      HDP1A    0.360000        1.0080           0   0.00000   0.00000
     36854 MEOH     2099     MEOH     HO2      DUMH     0.000000        1.0080           0   0.00000   0.00000
     36855 MEOH     2099     MEOH     H1A      HDA3B    0.080000        1.0080           0   0.00000   0.00000
     36856 MEOH     2099     MEOH     H1B      HDA3B    0.080000        1.0080           0   0.00000   0.00000
     36857 MEOH     2099     MEOH     H1C      HDA3B    0.080000        1.0080           0   0.00000   0.00000
     36858 MEOH     2099     MEOH     LP1A     LPD     -0.230000        0.0000           -1   0.00000   0.00000
     36859 MEOH     2099     MEOH     LP1B     LPD     -0.230000        0.0000           -1   0.00000   0.00000
     36860 MEOH     2100     MEOH     C1       CD33B    2.314100       11.6110           0   -1.00000   1.30000
     36861 MEOH     2100     MEOH     DC1      DRUD    -2.454100        0.4000           0   0.00000   0.00000
     36862 MEOH     2100     MEOH     O1       OD31H    2.488300       15.5990           0   -1.02800   1.30000
     36863 MEOH     2100     MEOH     DO1      DRUD    -2.488300        0.4000           0   0.00000   0.00000
     36864 MEOH     2100     MEOH     HO1      HDP1A    0.360000        1.0080           0   0.00000   0.00000
     36865 MEOH     2100     MEOH     HO2      DUMH     0.000000        1.0080           0   0.00000   0.00000
     36866 MEOH     2100     MEOH     H1A      HDA3B    0.080000        1.0080           0   0.00000   0.00000
     36867 MEOH     2100     MEOH     H1B      HDA3B    0.080000        1.0080           0   0.00000   0.00000
     36868 MEOH     2100     MEOH     H1C      HDA3B    0.080000        1.0080           0   0.00000   0.00000
     36869 MEOH     2100     MEOH     LP1A     LPD     -0.230000        0.0000           -1   0.00000   0.00000
     36870 MEOH     2100     MEOH     LP1B     LPD     -0.230000        0.0000           -1   0.00000   0.00000
     36871 MEOH     2101     MEOH     C1       CD33B    2.314100       11.6110           0   -1.00000   1.30000
     36872 MEOH     2101     MEOH     DC1      DRUD    -2.454100        0.4000           0   0.00000   0.00000
     36873 MEOH     2101     MEOH     O1       OD31H    2.488300       15.5990           0   -1.02800   1.30000
     36874 MEOH     2101     MEOH     DO1      DRUD    -2.488300        0.4000           0   0.00000   0.00000
     36875 MEOH     2101     MEOH     HO1      HDP1A    0.360000        1.0080           0   0.00000   0.00000
     36876 MEOH     2101     MEOH     HO2      DUMH     0.000000        1.0080           0   0.00000   0.00000
     36877 MEOH     2101     MEOH     H1A      HDA3B    0.080000        1.0080           0   0.00000   0.00000
     36878 MEOH     2101     MEOH     H1B      HDA3B    0.080000        1.0080           0   0.00000   0.00000
     36879 MEOH     2101     MEOH     H1C      HDA3B    0.080000        1.0080           0   0.00000   0.00000
     36880 MEOH     2101     MEOH     LP1A     LPD     -0.230000        0.0000           -1   0.00000   0.00000
     36881 MEOH     2101     MEOH     LP1B     LPD     -0.230000        0.0000           -1   0.00000   0.00000
     36882 MEOH     2102     MEOH     C1       CD33B    2.314100       11.6110           0   -1.00000   1.30000
     36883 MEOH     2102     MEOH     DC1      DRUD    -2.454100        0.4000           0   0.00000   0.00000
     36884 MEOH     2102     MEOH     O1       OD31H    2.488300       15.5990           0   -1.02800   1.30000
     36885 MEOH     2102     MEOH     DO1      DRUD    -2.488300        0.4000           0   0.00000   0.00000
     36886 MEOH     2102     MEOH     HO1      HDP1A    0.360000        1.0080           0   0.00000   0.00000
     36887 MEOH     2102     MEOH     HO2      DUMH     0.000000        1.0080           0   0.00000   0.00000
     36888 MEOH     2102     MEOH     H1A      HDA3B    0.080000        1.0080           0   0.00000   0.00000
     36889 MEOH     2102     MEOH     H1B      HDA3B    0.080000        1.0080           0   0.00000   0.00000
     36890 MEOH     2102     MEOH     H1C      HDA3B    0.080000        1.0080           0   0.00000   0.00000
     36891 MEOH     2102     MEOH     LP1A     LPD     -0.230000        0.0000           -1   0.00000   0.00000
     36892 MEOH     2102     MEOH     LP1B     LPD     -0.230000        0.0000           -1   0.00000   0.00000
     36893 MEOH     2103     MEOH     C1       CD33B    2.314100       11.6110           0   -1.00000   1.30000
     36894 MEOH     2103     MEOH     DC1      DRUD    -2.454100        0.4000           0   0.00000   0.00000
     36895 MEOH     2103     MEOH     O1       OD31H    2.488300       15.5990           0   -1.02800   1.30000
     36896 MEOH     2103     MEOH     DO1      DRUD    -2.488300        0.4000           0   0.00000   0.00000
     36897 MEOH     2103     MEOH     HO1      HDP1A    0.360000        1.0080           0   0.00000   0.00000
     36898 MEOH     2103     MEOH     HO2      DUMH     0.000000        1.0080           0   0.00000   0.00000
     36899 MEOH     2103     MEOH     H1A      HDA3B    0.080000        1.0080           0   0.00000   0.00000
     36900 MEOH     2103     MEOH     H1B      HDA3B    0.080000        1.0080           0   0.00000   0.00000
     36901 MEOH     2103     MEOH     H1C      HDA3B    0.080000        1.0080           0   0.00000   0.00000
     36902 MEOH     2103     MEOH     LP1A     LPD     -0.230000        0.0000           -1   0.00000   0.00000
     36903 MEOH     2103     MEOH     LP1B     LPD     -0.230000        0.0000           -1   0.00000   0.00000
     36904 MEOH     2104     MEOH     C1       CD33B    2.314100       11.6110           0   -1.00000   1.30000
     36905 MEOH     2104     MEOH     DC1      DRUD    -2.454100        0.4000           0   0.00000   0.00000
     36906 MEOH     2104     MEOH     O1       OD31H    2.488300       15.5990           0   -1.02800   1.30000
     36907 MEOH     2104     MEOH     DO1      DRUD    -2.488300        0.4000           0   0.00000   0.00000
     36908 MEOH     2104     MEOH     HO1      HDP1A    0.360000        1.0080           0   0.00000   0.00000
     36909 MEOH     2104     MEOH     HO2      DUMH     0.000000        1.0080           0   0.00000   0.00000
     36910 MEOH     2104     MEOH     H1A      HDA3B    0.080000        1.0080           0   0.00000   0.00000
     36911 MEOH     2104     MEOH     H1B      HDA3B    0.080000        1.0080           0   0.00000   0.00000
     36912 MEOH     2104     MEOH     H1C      HDA3B    0.080000        1.0080           0   0.00000   0.00000
     36913 MEOH     2104     MEOH     LP1A     LPD     -0.230000        0.0000           -1   0.00000   0.00000
     36914 MEOH     2104     MEOH     LP1B     LPD     -0.230000        0.0000           -1   0.00000   0.00000
     36915 MEOH     2105     MEOH     C1       CD33B    2.314100       11.6110           0   -1.00000   1.30000
     36916 MEOH     2105     MEOH     DC1      DRUD    -2.454100        0.4000           0   0.00000   0.00000
     36917 MEOH     2105     MEOH     O1       OD31H    2.488300       15.5990           0   -1.02800   1.30000
     36918 MEOH     2105     MEOH     DO1      DRUD    -2.488300        0.4000           0   0.00000   0.00000
     36919 MEOH     2105     MEOH     HO1      HDP1A    0.360000        1.0080           0   0.00000   0.00000
     36920 MEOH     2105     MEOH     HO2      DUMH     0.000000        1.0080           0   0.00000   0.00000
     36921 MEOH     2105     MEOH     H1A      HDA3B    0.080000        1.0080           0   0.00000   0.00000
     36922 MEOH     2105     MEOH     H1B      HDA3B    0.080000        1.0080           0   0.00000   0.00000
     36923 MEOH     2105     MEOH     H1C      HDA3B    0.080000        1.0080           0   0.00000   0.00000
     36924 MEOH     2105     MEOH     LP1A     LPD     -0.230000        0.0000           -1   0.00000   0.00000
     36925 MEOH     2105     MEOH     LP1B     LPD     -0.230000        0.0000           -1   0.00000   0.00000
     36926 MEOH     2106     MEOH     C1       CD33B    2.314100       11.6110           0   -1.00000   1.30000
     36927 MEOH     2106     MEOH     DC1      DRUD    -2.454100        0.4000           0   0.00000   0.00000
     36928 MEOH     2106     MEOH     O1       OD31H    2.488300       15.5990           0   -1.02800   1.30000
     36929 MEOH     2106     MEOH     DO1      DRUD    -2.488300        0.4000           0   0.00000   0.00000
     36930 MEOH     2106     MEOH     HO1      HDP1A    0.360000        1.0080           0   0.00000   0.00000
     36931 MEOH     2106     MEOH     HO2      DUMH     0.000000        1.0080           0   0.00000   0.00000
     36932 MEOH     2106     MEOH     H1A      HDA3B    0.080000        1.0080           0   0.00000   0.00000
     36933 MEOH     2106     MEOH     H1B      HDA3B    0.080000        1.0080           0   0.00000   0.00000
     36934 MEOH     2106     MEOH     H1C      HDA3B    0.080000        1.0080           0   0.00000   0.00000
     36935 MEOH     2106     MEOH     LP1A     LPD     -0.230000        0.0000           -1   0.00000   0.00000
     36936 MEOH     2106     MEOH     LP1B     LPD     -0.230000        0.0000           -1   0.00000   0.00000
     36937 MEOH     2107     MEOH     C1       CD33B    2.314100       11.6110           0   -1.00000   1.30000
     36938 MEOH     2107     MEOH     DC1      DRUD    -2.454100        0.4000           0   0.00000   0.00000
     36939 MEOH     2107     MEOH     O1       OD31H    2.488300       15.5990           0   -1.02800   1.30000
     36940 MEOH     2107     MEOH     DO1      DRUD    -2.488300        0.4000           0   0.00000   0.00000
     36941 MEOH     2107     MEOH     HO1      HDP1A    0.360000        1.0080           0   0.00000   0.00000
     36942 MEOH     2107     MEOH     HO2      DUMH     0.000000        1.0080           0   0.00000   0.00000
     36943 MEOH     2107     MEOH     H1A      HDA3B    0.080000        1.0080           0   0.00000   0.00000
     36944 MEOH     2107     MEOH     H1B      HDA3B    0.080000        1.0080           0   0.00000   0.00000
     36945 MEOH     2107     MEOH     H1C      HDA3B    0.080000        1.0080           0   0.00000   0.00000
     36946 MEOH     2107     MEOH     LP1A     LPD     -0.230000        0.0000           -1   0.00000   0.00000
     36947 MEOH     2107     MEOH     LP1B     LPD     -0.230000        0.0000           -1   0.00000   0.00000
     36948 MEOH     2108     MEOH     C1       CD33B    2.314100       11.6110           0   -1.00000   1.30000
     36949 MEOH     2108     MEOH     DC1      DRUD    -2.454100        0.4000           0   0.00000   0.00000
     36950 MEOH     2108     MEOH     O1       OD31H    2.488300       15.5990           0   -1.02800   1.30000
     36951 MEOH     2108     MEOH     DO1      DRUD    -2.488300        0.4000           0   0.00000   0.00000
     36952 MEOH     2108     MEOH     HO1      HDP1A    0.360000        1.0080           0   0.00000   0.00000
     36953 MEOH     2108     MEOH     HO2      DUMH     0.000000        1.0080           0   0.00000   0.00000
     36954 MEOH     2108     MEOH     H1A      HDA3B    0.080000        1.0080           0   0.00000   0.00000
     36955 MEOH     2108     MEOH     H1B      HDA3B    0.080000        1.0080           0   0.00000   0.00000
     36956 MEOH     2108     MEOH     H1C      HDA3B    0.080000        1.0080           0   0.00000   0.00000
     36957 MEOH     2108     MEOH     LP1A     LPD     -0.230000        0.0000           -1   0.00000   0.00000
     36958 MEOH     2108     MEOH     LP1B     LPD     -0.230000        0.0000           -1   0.00000   0.00000
     36959 MEOH     2109     MEOH     C1       CD33B    2.314100       11.6110           0   -1.00000   1.30000
     36960 MEOH     2109     MEOH     DC1      DRUD    -2.454100        0.4000           0   0.00000   0.00000
     36961 MEOH     2109     MEOH     O1       OD31H    2.488300       15.5990           0   -1.02800   1.30000
     36962 MEOH     2109     MEOH     DO1      DRUD    -2.488300        0.4000           0   0.00000   0.00000
     36963 MEOH     2109     MEOH     HO1      HDP1A    0.360000        1.0080           0   0.00000   0.00000
     36964 MEOH     2109     MEOH     HO2      DUMH     0.000000        1.0080           0   0.00000   0.00000
     36965 MEOH     2109     MEOH     H1A      HDA3B    0.080000        1.0080           0   0.00000   0.00000
     36966 MEOH     2109     MEOH     H1B      HDA3B    0.080000        1.0080           0   0.00000   0.00000
     36967 MEOH     2109     MEOH     H1C      HDA3B    0.080000        1.0080           0   0.00000   0.00000
     36968 MEOH     2109     MEOH     LP1A     LPD     -0.230000        0.0000           -1   0.00000   0.00000
     36969 MEOH     2109     MEOH     LP1B     LPD     -0.230000        0.0000           -1   0.00000   0.00000
     36970 MEOH     2110     MEOH     C1       CD33B    2.314100       11.6110           0   -1.00000   1.30000
     36971 MEOH     2110     MEOH     DC1      DRUD    -2.454100        0.4000           0   0.00000   0.00000
     36972 MEOH     2110     MEOH     O1       OD31H    2.488300       15.5990           0   -1.02800   1.30000
     36973 MEOH     2110     MEOH     DO1      DRUD    -2.488300        0.4000           0   0.00000   0.00000
     36974 MEOH     2110     MEOH     HO1      HDP1A    0.360000        1.0080           0   0.00000   0.00000
     36975 MEOH     2110     MEOH     HO2      DUMH     0.000000        1.0080           0   0.00000   0.00000
     36976 MEOH     2110     MEOH     H1A      HDA3B    0.080000        1.0080           0   0.00000   0.00000
     36977 MEOH     2110     MEOH     H1B      HDA3B    0.080000        1.0080           0   0.00000   0.00000
     36978 MEOH     2110     MEOH     H1C      HDA3B    0.080000        1.0080           0   0.00000   0.00000
     36979 MEOH     2110     MEOH     LP1A     LPD     -0.230000        0.0000           -1   0.00000   0.00000
     36980 MEOH     2110     MEOH     LP1B     LPD     -0.230000        0.0000           -1   0.00000   0.00000
     36981 MEOH     2111     MEOH     C1       CD33B    2.314100       11.6110           0   -1.00000   1.30000
     36982 MEOH     2111     MEOH     DC1      DRUD    -2.454100        0.4000           0   0.00000   0.00000
     36983 MEOH     2111     MEOH     O1       OD31H    2.488300       15.5990           0   -1.02800   1.30000
     36984 MEOH     2111     MEOH     DO1      DRUD    -2.488300        0.4000           0   0.00000   0.00000
     36985 MEOH     2111     MEOH     HO1      HDP1A    0.360000        1.0080           0   0.00000   0.00000
     36986 MEOH     2111     MEOH     HO2      DUMH     0.000000        1.0080           0   0.00000   0.00000
     36987 MEOH     2111     MEOH     H1A      HDA3B    0.080000        1.0080           0   0.00000   0.00000
     36988 MEOH     2111     MEOH     H1B      HDA3B    0.080000        1.0080           0   0.00000   0.00000
     36989 MEOH     2111     MEOH     H1C      HDA3B    0.080000        1.0080           0   0.00000   0.00000
     36990 MEOH     2111     MEOH     LP1A     LPD     -0.230000        0.0000           -1   0.00000   0.00000
     36991 MEOH     2111     MEOH     LP1B     LPD     -0.230000        0.0000           -1   0.00000   0.00000
     36992 MEOH     2112     MEOH     C1       CD33B    2.314100       11.6110           0   -1.00000   1.30000
     36993 MEOH     2112     MEOH     DC1      DRUD    -2.454100        0.4000           0   0.00000   0.00000
     36994 MEOH     2112     MEOH     O1       OD31H    2.488300       15.5990           0   -1.02800   1.30000
     36995 MEOH     2112     MEOH     DO1      DRUD    -2.488300        0.4000           0   0.00000   0.00000
     36996 MEOH     2112     MEOH     HO1      HDP1A    0.360000        1.0080           0   0.00000   0.00000
     36997 MEOH     2112     MEOH     HO2      DUMH     0.000000        1.0080           0   0.00000   0.00000
     36998 MEOH     2112     MEOH     H1A      HDA3B    0.080000        1.0080           0   0.00000   0.00000
     36999 MEOH     2112     MEOH     H1B      HDA3B    0.080000        1.0080           0   0.00000   0.00000
     37000 MEOH     2112     MEOH     H1C      HDA3B    0.080000        1.0080           0   0.00000   0.00000
     37001 MEOH     2112     MEOH     LP1A     LPD     -0.230000        0.0000           -1   0.00000   0.00000
     37002 MEOH     2112     MEOH     LP1B     LPD     -0.230000        0.0000           -1   0.00000   0.00000
     37003 MEOH     2113     MEOH     C1       CD33B    2.314100       11.6110           0   -1.00000   1.30000
     37004 MEOH     2113     MEOH     DC1      DRUD    -2.454100        0.4000           0   0.00000   0.00000
     37005 MEOH     2113     MEOH     O1       OD31H    2.488300       15.5990           0   -1.02800   1.30000
     37006 MEOH     2113     MEOH     DO1      DRUD    -2.488300        0.4000           0   0.00000   0.00000
     37007 MEOH     2113     MEOH     HO1      HDP1A    0.360000        1.0080           0   0.00000   0.00000
     37008 MEOH     2113     MEOH     HO2      DUMH     0.000000        1.0080           0   0.00000   0.00000
     37009 MEOH     2113     MEOH     H1A      HDA3B    0.080000        1.0080           0   0.00000   0.00000
     37010 MEOH     2113     MEOH     H1B      HDA3B    0.080000        1.0080           0   0.00000   0.00000
     37011 MEOH     2113     MEOH     H1C      HDA3B    0.080000        1.0080           0   0.00000   0.00000
     37012 MEOH     2113     MEOH     LP1A     LPD     -0.230000        0.0000           -1   0.00000   0.00000
     37013 MEOH     2113     MEOH     LP1B     LPD     -0.230000        0.0000           -1   0.00000   0.00000
     37014 MEOH     2114     MEOH     C1       CD33B    2.314100       11.6110           0   -1.00000   1.30000
     37015 MEOH     2114     MEOH     DC1      DRUD    -2.454100        0.4000           0   0.00000   0.00000
     37016 MEOH     2114     MEOH     O1       OD31H    2.488300       15.5990           0   -1.02800   1.30000
     37017 MEOH     2114     MEOH     DO1      DRUD    -2.488300        0.4000           0   0.00000   0.00000
     37018 MEOH     2114     MEOH     HO1      HDP1A    0.360000        1.0080           0   0.00000   0.00000
     37019 MEOH     2114     MEOH     HO2      DUMH     0.000000        1.0080           0   0.00000   0.00000
     37020 MEOH     2114     MEOH     H1A      HDA3B    0.080000        1.0080           0   0.00000   0.00000
     37021 MEOH     2114     MEOH     H1B      HDA3B    0.080000        1.0080           0   0.00000   0.00000
     37022 MEOH     2114     MEOH     H1C      HDA3B    0.080000        1.0080           0   0.00000   0.00000
     37023 MEOH     2114     MEOH     LP1A     LPD     -0.230000        0.0000           -1   0.00000   0.00000
     37024 MEOH     2114     MEOH     LP1B     LPD     -0.230000        0.0000           -1   0.00000   0.00000
     37025 MEOH     2115     MEOH     C1       CD33B    2.314100       11.6110           0   -1.00000   1.30000
     37026 MEOH     2115     MEOH     DC1      DRUD    -2.454100        0.4000           0   0.00000   0.00000
     37027 MEOH     2115     MEOH     O1       OD31H    2.488300       15.5990           0   -1.02800   1.30000
     37028 MEOH     2115     MEOH     DO1      DRUD    -2.488300        0.4000           0   0.00000   0.00000
     37029 MEOH     2115     MEOH     HO1      HDP1A    0.360000        1.0080           0   0.00000   0.00000
     37030 MEOH     2115     MEOH     HO2      DUMH     0.000000        1.0080           0   0.00000   0.00000
     37031 MEOH     2115     MEOH     H1A      HDA3B    0.080000        1.0080           0   0.00000   0.00000
     37032 MEOH     2115     MEOH     H1B      HDA3B    0.080000        1.0080           0   0.00000   0.00000
     37033 MEOH     2115     MEOH     H1C      HDA3B    0.080000        1.0080           0   0.00000   0.00000
     37034 MEOH     2115     MEOH     LP1A     LPD     -0.230000        0.0000           -1   0.00000   0.00000
     37035 MEOH     2115     MEOH     LP1B     LPD     -0.230000        0.0000           -1   0.00000   0.00000
     37036 MEOH     2116     MEOH     C1       CD33B    2.314100       11.6110           0   -1.00000   1.30000
     37037 MEOH     2116     MEOH     DC1      DRUD    -2.454100        0.4000           0   0.00000   0.00000
     37038 MEOH     2116     MEOH     O1       OD31H    2.488300       15.5990           0   -1.02800   1.30000
     37039 MEOH     2116     MEOH     DO1      DRUD    -2.488300        0.4000           0   0.00000   0.00000
     37040 MEOH     2116     MEOH     HO1      HDP1A    0.360000        1.0080           0   0.00000   0.00000
     37041 MEOH     2116     MEOH     HO2      DUMH     0.000000        1.0080           0   0.00000   0.00000
     37042 MEOH     2116     MEOH     H1A      HDA3B    0.080000        1.0080           0   0.00000   0.00000
     37043 MEOH     2116     MEOH     H1B      HDA3B    0.080000        1.0080           0   0.00000   0.00000
     37044 MEOH     2116     MEOH     H1C      HDA3B    0.080000        1.0080           0   0.00000   0.00000
     37045 MEOH     2116     MEOH     LP1A     LPD     -0.230000        0.0000           -1   0.00000   0.00000
     37046 MEOH     2116     MEOH     LP1B     LPD     -0.230000        0.0000           -1   0.00000   0.00000
     37047 MEOH     2117     MEOH     C1       CD33B    2.314100       11.6110           0   -1.00000   1.30000
     37048 MEOH     2117     MEOH     DC1      DRUD    -2.454100        0.4000           0   0.00000   0.00000
     37049 MEOH     2117     MEOH     O1       OD31H    2.488300       15.5990           0   -1.02800   1.30000
     37050 MEOH     2117     MEOH     DO1      DRUD    -2.488300        0.4000           0   0.00000   0.00000
     37051 MEOH     2117     MEOH     HO1      HDP1A    0.360000        1.0080           0   0.00000   0.00000
     37052 MEOH     2117     MEOH     HO2      DUMH     0.000000        1.0080           0   0.00000   0.00000
     37053 MEOH     2117     MEOH     H1A      HDA3B    0.080000        1.0080           0   0.00000   0.00000
     37054 MEOH     2117     MEOH     H1B      HDA3B    0.080000        1.0080           0   0.00000   0.00000
     37055 MEOH     2117     MEOH     H1C      HDA3B    0.080000        1.0080           0   0.00000   0.00000
     37056 MEOH     2117     MEOH     LP1A     LPD     -0.230000        0.0000           -1   0.00000   0.00000
     37057 MEOH     2117     MEOH     LP1B     LPD     -0.230000        0.0000           -1   0.00000   0.00000
     37058 MEOH     2118     MEOH     C1       CD33B    2.314100       11.6110           0   -1.00000   1.30000
     37059 MEOH     2118     MEOH     DC1      DRUD    -2.454100        0.4000           0   0.00000   0.00000
     37060 MEOH     2118     MEOH     O1       OD31H    2.488300       15.5990           0   -1.02800   1.30000
     37061 MEOH     2118     MEOH     DO1      DRUD    -2.488300        0.4000           0   0.00000   0.00000
     37062 MEOH     2118     MEOH     HO1      HDP1A    0.360000        1.0080           0   0.00000   0.00000
     37063 MEOH     2118     MEOH     HO2      DUMH     0.000000        1.0080           0   0.00000   0.00000
     37064 MEOH     2118     MEOH     H1A      HDA3B    0.080000        1.0080           0   0.00000   0.00000
     37065 MEOH     2118     MEOH     H1B      HDA3B    0.080000        1.0080           0   0.00000   0.00000
     37066 MEOH     2118     MEOH     H1C      HDA3B    0.080000        1.0080           0   0.00000   0.00000
     37067 MEOH     2118     MEOH     LP1A     LPD     -0.230000        0.0000           -1   0.00000   0.00000
     37068 MEOH     2118     MEOH     LP1B     LPD     -0.230000        0.0000           -1   0.00000   0.00000
     37069 MEOH     2119     MEOH     C1       CD33B    2.314100       11.6110           0   -1.00000   1.30000
     37070 MEOH     2119     MEOH     DC1      DRUD    -2.454100        0.4000           0   0.00000   0.00000
     37071 MEOH     2119     MEOH     O1       OD31H    2.488300       15.5990           0   -1.02800   1.30000
     37072 MEOH     2119     MEOH     DO1      DRUD    -2.488300        0.4000           0   0.00000   0.00000
     37073 MEOH     2119     MEOH     HO1      HDP1A    0.360000        1.0080           0   0.00000   0.00000
     37074 MEOH     2119     MEOH     HO2      DUMH     0.000000        1.0080           0   0.00000   0.00000
     37075 MEOH     2119     MEOH     H1A      HDA3B    0.080000        1.0080           0   0.00000   0.00000
     37076 MEOH     2119     MEOH     H1B      HDA3B    0.080000        1.0080           0   0.00000   0.00000
     37077 MEOH     2119     MEOH     H1C      HDA3B    0.080000        1.0080           0   0.00000   0.00000
     37078 MEOH     2119     MEOH     LP1A     LPD     -0.230000        0.0000           -1   0.00000   0.00000
     37079 MEOH     2119     MEOH     LP1B     LPD     -0.230000        0.0000           -1   0.00000   0.00000
     37080 MEOH     2120     MEOH     C1       CD33B    2.314100       11.6110           0   -1.00000   1.30000
     37081 MEOH     2120     MEOH     DC1      DRUD    -2.454100        0.4000           0   0.00000   0.00000
     37082 MEOH     2120     MEOH     O1       OD31H    2.488300       15.5990           0   -1.02800   1.30000
     37083 MEOH     2120     MEOH     DO1      DRUD    -2.488300        0.4000           0   0.00000   0.00000
     37084 MEOH     2120     MEOH     HO1      HDP1A    0.360000        1.0080           0   0.00000   0.00000
     37085 MEOH     2120     MEOH     HO2      DUMH     0.000000        1.0080           0   0.00000   0.00000
     37086 MEOH     2120     MEOH     H1A      HDA3B    0.080000        1.0080           0   0.00000   0.00000
     37087 MEOH     2120     MEOH     H1B      HDA3B    0.080000        1.0080           0   0.00000   0.00000
     37088 MEOH     2120     MEOH     H1C      HDA3B    0.080000        1.0080           0   0.00000   0.00000
     37089 MEOH     2120     MEOH     LP1A     LPD     -0.230000        0.0000           -1   0.00000   0.00000
     37090 MEOH     2120     MEOH     LP1B     LPD     -0.230000        0.0000           -1   0.00000   0.00000
     37091 MEOH     2121     MEOH     C1       CD33B    2.314100       11.6110           0   -1.00000   1.30000
     37092 MEOH     2121     MEOH     DC1      DRUD    -2.454100        0.4000           0   0.00000   0.00000
     37093 MEOH     2121     MEOH     O1       OD31H    2.488300       15.5990           0   -1.02800   1.30000
     37094 MEOH     2121     MEOH     DO1      DRUD    -2.488300        0.4000           0   0.00000   0.00000
     37095 MEOH     2121     MEOH     HO1      HDP1A    0.360000        1.0080           0   0.00000   0.00000
     37096 MEOH     2121     MEOH     HO2      DUMH     0.000000        1.0080           0   0.00000   0.00000
     37097 MEOH     2121     MEOH     H1A      HDA3B    0.080000        1.0080           0   0.00000   0.00000
     37098 MEOH     2121     MEOH     H1B      HDA3B    0.080000        1.0080           0   0.00000   0.00000
     37099 MEOH     2121     MEOH     H1C      HDA3B    0.080000        1.0080           0   0.00000   0.00000
     37100 MEOH     2121     MEOH     LP1A     LPD     -0.230000        0.0000           -1   0.00000   0.00000
     37101 MEOH     2121     MEOH     LP1B     LPD     -0.230000        0.0000           -1   0.00000   0.00000
     37102 MEOH     2122     MEOH     C1       CD33B    2.314100       11.6110           0   -1.00000   1.30000
     37103 MEOH     2122     MEOH     DC1      DRUD    -2.454100        0.4000           0   0.00000   0.00000
     37104 MEOH     2122     MEOH     O1       OD31H    2.488300       15.5990           0   -1.02800   1.30000
     37105 MEOH     2122     MEOH     DO1      DRUD    -2.488300        0.4000           0   0.00000   0.00000
     37106 MEOH     2122     MEOH     HO1      HDP1A    0.360000        1.0080           0   0.00000   0.00000
     37107 MEOH     2122     MEOH     HO2      DUMH     0.000000        1.0080           0   0.00000   0.00000
     37108 MEOH     2122     MEOH     H1A      HDA3B    0.080000        1.0080           0   0.00000   0.00000
     37109 MEOH     2122     MEOH     H1B      HDA3B    0.080000        1.0080           0   0.00000   0.00000
     37110 MEOH     2122     MEOH     H1C      HDA3B    0.080000        1.0080           0   0.00000   0.00000
     37111 MEOH     2122     MEOH     LP1A     LPD     -0.230000        0.0000           -1   0.00000   0.00000
     37112 MEOH     2122     MEOH     LP1B     LPD     -0.230000        0.0000           -1   0.00000   0.00000
     37113 MEOH     2123     MEOH     C1       CD33B    2.314100       11.6110           0   -1.00000   1.30000
     37114 MEOH     2123     MEOH     DC1      DRUD    -2.454100        0.4000           0   0.00000   0.00000
     37115 MEOH     2123     MEOH     O1       OD31H    2.488300       15.5990           0   -1.02800   1.30000
     37116 MEOH     2123     MEOH     DO1      DRUD    -2.488300        0.4000           0   0.00000   0.00000
     37117 MEOH     2123     MEOH     HO1      HDP1A    0.360000        1.0080           0   0.00000   0.00000
     37118 MEOH     2123     MEOH     HO2      DUMH     0.000000        1.0080           0   0.00000   0.00000
     37119 MEOH     2123     MEOH     H1A      HDA3B    0.080000        1.0080           0   0.00000   0.00000
     37120 MEOH     2123     MEOH     H1B      HDA3B    0.080000        1.0080           0   0.00000   0.00000
     37121 MEOH     2123     MEOH     H1C      HDA3B    0.080000        1.0080           0   0.00000   0.00000
     37122 MEOH     2123     MEOH     LP1A     LPD     -0.230000        0.0000           -1   0.00000   0.00000
     37123 MEOH     2123     MEOH     LP1B     LPD     -0.230000        0.0000           -1   0.00000   0.00000
     37124 MEOH     2124     MEOH     C1       CD33B    2.314100       11.6110           0   -1.00000   1.30000
     37125 MEOH     2124     MEOH     DC1      DRUD    -2.454100        0.4000           0   0.00000   0.00000
     37126 MEOH     2124     MEOH     O1       OD31H    2.488300       15.5990           0   -1.02800   1.30000
     37127 MEOH     2124     MEOH     DO1      DRUD    -2.488300        0.4000           0   0.00000   0.00000
     37128 MEOH     2124     MEOH     HO1      HDP1A    0.360000        1.0080           0   0.00000   0.00000
     37129 MEOH     2124     MEOH     HO2      DUMH     0.000000        1.0080           0   0.00000   0.00000
     37130 MEOH     2124     MEOH     H1A      HDA3B    0.080000        1.0080           0   0.00000   0.00000
     37131 MEOH     2124     MEOH     H1B      HDA3B    0.080000        1.0080           0   0.00000   0.00000
     37132 MEOH     2124     MEOH     H1C      HDA3B    0.080000        1.0080           0   0.00000   0.00000
     37133 MEOH     2124     MEOH     LP1A     LPD     -0.230000        0.0000           -1   0.00000   0.00000
     37134 MEOH     2124     MEOH     LP1B     LPD     -0.230000        0.0000           -1   0.00000   0.00000
     37135 MEOH     2125     MEOH     C1       CD33B    2.314100       11.6110           0   -1.00000   1.30000
     37136 MEOH     2125     MEOH     DC1      DRUD    -2.454100        0.4000           0   0.00000   0.00000
     37137 MEOH     2125     MEOH     O1       OD31H    2.488300       15.5990           0   -1.02800   1.30000
     37138 MEOH     2125     MEOH     DO1      DRUD    -2.488300        0.4000           0   0.00000   0.00000
     37139 MEOH     2125     MEOH     HO1      HDP1A    0.360000        1.0080           0   0.00000   0.00000
     37140 MEOH     2125     MEOH     HO2      DUMH     0.000000        1.0080           0   0.00000   0.00000
     37141 MEOH     2125     MEOH     H1A      HDA3B    0.080000        1.0080           0   0.00000   0.00000
     37142 MEOH     2125     MEOH     H1B      HDA3B    0.080000        1.0080           0   0.00000   0.00000
     37143 MEOH     2125     MEOH     H1C      HDA3B    0.080000        1.0080           0   0.00000   0.00000
     37144 MEOH     2125     MEOH     LP1A     LPD     -0.230000        0.0000           -1   0.00000   0.00000
     37145 MEOH     2125     MEOH     LP1B     LPD     -0.230000        0.0000           -1   0.00000   0.00000
     37146 MEOH     2126     MEOH     C1       CD33B    2.314100       11.6110           0   -1.00000   1.30000
     37147 MEOH     2126     MEOH     DC1      DRUD    -2.454100        0.4000           0   0.00000   0.00000
     37148 MEOH     2126     MEOH     O1       OD31H    2.488300       15.5990           0   -1.02800   1.30000
     37149 MEOH     2126     MEOH     DO1      DRUD    -2.488300        0.4000           0   0.00000   0.00000
     37150 MEOH     2126     MEOH     HO1      HDP1A    0.360000        1.0080           0   0.00000   0.00000
     37151 MEOH     2126     MEOH     HO2      DUMH     0.000000        1.0080           0   0.00000   0.00000
     37152 MEOH     2126     MEOH     H1A      HDA3B    0.080000        1.0080           0   0.00000   0.00000
     37153 MEOH     2126     MEOH     H1B      HDA3B    0.080000        1.0080           0   0.00000   0.00000
     37154 MEOH     2126     MEOH     H1C      HDA3B    0.080000        1.0080           0   0.00000   0.00000
     37155 MEOH     2126     MEOH     LP1A     LPD     -0.230000        0.0000           -1   0.00000   0.00000
     37156 MEOH     2126     MEOH     LP1B     LPD     -0.230000        0.0000           -1   0.00000   0.00000
     37157 MEOH     2127     MEOH     C1       CD33B    2.314100       11.6110           0   -1.00000   1.30000
     37158 MEOH     2127     MEOH     DC1      DRUD    -2.454100        0.4000           0   0.00000   0.00000
     37159 MEOH     2127     MEOH     O1       OD31H    2.488300       15.5990           0   -1.02800   1.30000
     37160 MEOH     2127     MEOH     DO1      DRUD    -2.488300        0.4000           0   0.00000   0.00000
     37161 MEOH     2127     MEOH     HO1      HDP1A    0.360000        1.0080           0   0.00000   0.00000
     37162 MEOH     2127     MEOH     HO2      DUMH     0.000000        1.0080           0   0.00000   0.00000
     37163 MEOH     2127     MEOH     H1A      HDA3B    0.080000        1.0080           0   0.00000   0.00000
     37164 MEOH     2127     MEOH     H1B      HDA3B    0.080000        1.0080           0   0.00000   0.00000
     37165 MEOH     2127     MEOH     H1C      HDA3B    0.080000        1.0080           0   0.00000   0.00000
     37166 MEOH     2127     MEOH     LP1A     LPD     -0.230000        0.0000           -1   0.00000   0.00000
     37167 MEOH     2127     MEOH     LP1B     LPD     -0.230000        0.0000           -1   0.00000   0.00000
     37168 MEOH     2128     MEOH     C1       CD33B    2.314100       11.6110           0   -1.00000   1.30000
     37169 MEOH     2128     MEOH     DC1      DRUD    -2.454100        0.4000           0   0.00000   0.00000
     37170 MEOH     2128     MEOH     O1       OD31H    2.488300       15.5990           0   -1.02800   1.30000
     37171 MEOH     2128     MEOH     DO1      DRUD    -2.488300        0.4000           0   0.00000   0.00000
     37172 MEOH     2128     MEOH     HO1      HDP1A    0.360000        1.0080           0   0.00000   0.00000
     37173 MEOH     2128     MEOH     HO2      DUMH     0.000000        1.0080           0   0.00000   0.00000
     37174 MEOH     2128     MEOH     H1A      HDA3B    0.080000        1.0080           0   0.00000   0.00000
     37175 MEOH     2128     MEOH     H1B      HDA3B    0.080000        1.0080           0   0.00000   0.00000
     37176 MEOH     2128     MEOH     H1C      HDA3B    0.080000        1.0080           0   0.00000   0.00000
     37177 MEOH     2128     MEOH     LP1A     LPD     -0.230000        0.0000           -1   0.00000   0.00000
     37178 MEOH     2128     MEOH     LP1B     LPD     -0.230000        0.0000           -1   0.00000   0.00000
     37179 MEOH     2129     MEOH     C1       CD33B    2.314100       11.6110           0   -1.00000   1.30000
     37180 MEOH     2129     MEOH     DC1      DRUD    -2.454100        0.4000           0   0.00000   0.00000
     37181 MEOH     2129     MEOH     O1       OD31H    2.488300       15.5990           0   -1.02800   1.30000
     37182 MEOH     2129     MEOH     DO1      DRUD    -2.488300        0.4000           0   0.00000   0.00000
     37183 MEOH     2129     MEOH     HO1      HDP1A    0.360000        1.0080           0   0.00000   0.00000
     37184 MEOH     2129     MEOH     HO2      DUMH     0.000000        1.0080           0   0.00000   0.00000
     37185 MEOH     2129     MEOH     H1A      HDA3B    0.080000        1.0080           0   0.00000   0.00000
     37186 MEOH     2129     MEOH     H1B      HDA3B    0.080000        1.0080           0   0.00000   0.00000
     37187 MEOH     2129     MEOH     H1C      HDA3B    0.080000        1.0080           0   0.00000   0.00000
     37188 MEOH     2129     MEOH     LP1A     LPD     -0.230000        0.0000           -1   0.00000   0.00000
     37189 MEOH     2129     MEOH     LP1B     LPD     -0.230000        0.0000           -1   0.00000   0.00000
     37190 MEOH     2130     MEOH     C1       CD33B    2.314100       11.6110           0   -1.00000   1.30000
     37191 MEOH     2130     MEOH     DC1      DRUD    -2.454100        0.4000           0   0.00000   0.00000
     37192 MEOH     2130     MEOH     O1       OD31H    2.488300       15.5990           0   -1.02800   1.30000
     37193 MEOH     2130     MEOH     DO1      DRUD    -2.488300        0.4000           0   0.00000   0.00000
     37194 MEOH     2130     MEOH     HO1      HDP1A    0.360000        1.0080           0   0.00000   0.00000
     37195 MEOH     2130     MEOH     HO2      DUMH     0.000000        1.0080           0   0.00000   0.00000
     37196 MEOH     2130     MEOH     H1A      HDA3B    0.080000        1.0080           0   0.00000   0.00000
     37197 MEOH     2130     MEOH     H1B      HDA3B    0.080000        1.0080           0   0.00000   0.00000
     37198 MEOH     2130     MEOH     H1C      HDA3B    0.080000        1.0080           0   0.00000   0.00000
     37199 MEOH     2130     MEOH     LP1A     LPD     -0.230000        0.0000           -1   0.00000   0.00000
     37200 MEOH     2130     MEOH     LP1B     LPD     -0.230000        0.0000           -1   0.00000   0.00000
     37201 MEOH     2131     MEOH     C1       CD33B    2.314100       11.6110           0   -1.00000   1.30000
     37202 MEOH     2131     MEOH     DC1      DRUD    -2.454100        0.4000           0   0.00000   0.00000
     37203 MEOH     2131     MEOH     O1       OD31H    2.488300       15.5990           0   -1.02800   1.30000
     37204 MEOH     2131     MEOH     DO1      DRUD    -2.488300        0.4000           0   0.00000   0.00000
     37205 MEOH     2131     MEOH     HO1      HDP1A    0.360000        1.0080           0   0.00000   0.00000
     37206 MEOH     2131     MEOH     HO2      DUMH     0.000000        1.0080           0   0.00000   0.00000
     37207 MEOH     2131     MEOH     H1A      HDA3B    0.080000        1.0080           0   0.00000   0.00000
     37208 MEOH     2131     MEOH     H1B      HDA3B    0.080000        1.0080           0   0.00000   0.00000
     37209 MEOH     2131     MEOH     H1C      HDA3B    0.080000        1.0080           0   0.00000   0.00000
     37210 MEOH     2131     MEOH     LP1A     LPD     -0.230000        0.0000           -1   0.00000   0.00000
     37211 MEOH     2131     MEOH     LP1B     LPD     -0.230000        0.0000           -1   0.00000   0.00000
     37212 MEOH     2132     MEOH     C1       CD33B    2.314100       11.6110           0   -1.00000   1.30000
     37213 MEOH     2132     MEOH     DC1      DRUD    -2.454100        0.4000           0   0.00000   0.00000
     37214 MEOH     2132     MEOH     O1       OD31H    2.488300       15.5990           0   -1.02800   1.30000
     37215 MEOH     2132     MEOH     DO1      DRUD    -2.488300        0.4000           0   0.00000   0.00000
     37216 MEOH     2132     MEOH     HO1      HDP1A    0.360000        1.0080           0   0.00000   0.00000
     37217 MEOH     2132     MEOH     HO2      DUMH     0.000000        1.0080           0   0.00000   0.00000
     37218 MEOH     2132     MEOH     H1A      HDA3B    0.080000        1.0080           0   0.00000   0.00000
     37219 MEOH     2132     MEOH     H1B      HDA3B    0.080000        1.0080           0   0.00000   0.00000
     37220 MEOH     2132     MEOH     H1C      HDA3B    0.080000        1.0080           0   0.00000   0.00000
     37221 MEOH     2132     MEOH     LP1A     LPD     -0.230000        0.0000           -1   0.00000   0.00000
     37222 MEOH     2132     MEOH     LP1B     LPD     -0.230000        0.0000           -1   0.00000   0.00000
     37223 MEOH     2133     MEOH     C1       CD33B    2.314100       11.6110           0   -1.00000   1.30000
     37224 MEOH     2133     MEOH     DC1      DRUD    -2.454100        0.4000           0   0.00000   0.00000
     37225 MEOH     2133     MEOH     O1       OD31H    2.488300       15.5990           0   -1.02800   1.30000
     37226 MEOH     2133     MEOH     DO1      DRUD    -2.488300        0.4000           0   0.00000   0.00000
     37227 MEOH     2133     MEOH     HO1      HDP1A    0.360000        1.0080           0   0.00000   0.00000
     37228 MEOH     2133     MEOH     HO2      DUMH     0.000000        1.0080           0   0.00000   0.00000
     37229 MEOH     2133     MEOH     H1A      HDA3B    0.080000        1.0080           0   0.00000   0.00000
     37230 MEOH     2133     MEOH     H1B      HDA3B    0.080000        1.0080           0   0.00000   0.00000
     37231 MEOH     2133     MEOH     H1C      HDA3B    0.080000        1.0080           0   0.00000   0.00000
     37232 MEOH     2133     MEOH     LP1A     LPD     -0.230000        0.0000           -1   0.00000   0.00000
     37233 MEOH     2133     MEOH     LP1B     LPD     -0.230000        0.0000           -1   0.00000   0.00000
     37234 MEOH     2134     MEOH     C1       CD33B    2.314100       11.6110           0   -1.00000   1.30000
     37235 MEOH     2134     MEOH     DC1      DRUD    -2.454100        0.4000           0   0.00000   0.00000
     37236 MEOH     2134     MEOH     O1       OD31H    2.488300       15.5990           0   -1.02800   1.30000
     37237 MEOH     2134     MEOH     DO1      DRUD    -2.488300        0.4000           0   0.00000   0.00000
     37238 MEOH     2134     MEOH     HO1      HDP1A    0.360000        1.0080           0   0.00000   0.00000
     37239 MEOH     2134     MEOH     HO2      DUMH     0.000000        1.0080           0   0.00000   0.00000
     37240 MEOH     2134     MEOH     H1A      HDA3B    0.080000        1.0080           0   0.00000   0.00000
     37241 MEOH     2134     MEOH     H1B      HDA3B    0.080000        1.0080           0   0.00000   0.00000
     37242 MEOH     2134     MEOH     H1C      HDA3B    0.080000        1.0080           0   0.00000   0.00000
     37243 MEOH     2134     MEOH     LP1A     LPD     -0.230000        0.0000           -1   0.00000   0.00000
     37244 MEOH     2134     MEOH     LP1B     LPD     -0.230000        0.0000           -1   0.00000   0.00000
     37245 MEOH     2135     MEOH     C1       CD33B    2.314100       11.6110           0   -1.00000   1.30000
     37246 MEOH     2135     MEOH     DC1      DRUD    -2.454100        0.4000           0   0.00000   0.00000
     37247 MEOH     2135     MEOH     O1       OD31H    2.488300       15.5990           0   -1.02800   1.30000
     37248 MEOH     2135     MEOH     DO1      DRUD    -2.488300        0.4000           0   0.00000   0.00000
     37249 MEOH     2135     MEOH     HO1      HDP1A    0.360000        1.0080           0   0.00000   0.00000
     37250 MEOH     2135     MEOH     HO2      DUMH     0.000000        1.0080           0   0.00000   0.00000
     37251 MEOH     2135     MEOH     H1A      HDA3B    0.080000        1.0080           0   0.00000   0.00000
     37252 MEOH     2135     MEOH     H1B      HDA3B    0.080000        1.0080           0   0.00000   0.00000
     37253 MEOH     2135     MEOH     H1C      HDA3B    0.080000        1.0080           0   0.00000   0.00000
     37254 MEOH     2135     MEOH     LP1A     LPD     -0.230000        0.0000           -1   0.00000   0.00000
     37255 MEOH     2135     MEOH     LP1B     LPD     -0.230000        0.0000           -1   0.00000   0.00000
     37256 MEOH     2136     MEOH     C1       CD33B    2.314100       11.6110           0   -1.00000   1.30000
     37257 MEOH     2136     MEOH     DC1      DRUD    -2.454100        0.4000           0   0.00000   0.00000
     37258 MEOH     2136     MEOH     O1       OD31H    2.488300       15.5990           0   -1.02800   1.30000
     37259 MEOH     2136     MEOH     DO1      DRUD    -2.488300        0.4000           0   0.00000   0.00000
     37260 MEOH     2136     MEOH     HO1      HDP1A    0.360000        1.0080           0   0.00000   0.00000
     37261 MEOH     2136     MEOH     HO2      DUMH     0.000000        1.0080           0   0.00000   0.00000
     37262 MEOH     2136     MEOH     H1A      HDA3B    0.080000        1.0080           0   0.00000   0.00000
     37263 MEOH     2136     MEOH     H1B      HDA3B    0.080000        1.0080           0   0.00000   0.00000
     37264 MEOH     2136     MEOH     H1C      HDA3B    0.080000        1.0080           0   0.00000   0.00000
     37265 MEOH     2136     MEOH     LP1A     LPD     -0.230000        0.0000           -1   0.00000   0.00000
     37266 MEOH     2136     MEOH     LP1B     LPD     -0.230000        0.0000           -1   0.00000   0.00000
     37267 MEOH     2137     MEOH     C1       CD33B    2.314100       11.6110           0   -1.00000   1.30000
     37268 MEOH     2137     MEOH     DC1      DRUD    -2.454100        0.4000           0   0.00000   0.00000
     37269 MEOH     2137     MEOH     O1       OD31H    2.488300       15.5990           0   -1.02800   1.30000
     37270 MEOH     2137     MEOH     DO1      DRUD    -2.488300        0.4000           0   0.00000   0.00000
     37271 MEOH     2137     MEOH     HO1      HDP1A    0.360000        1.0080           0   0.00000   0.00000
     37272 MEOH     2137     MEOH     HO2      DUMH     0.000000        1.0080           0   0.00000   0.00000
     37273 MEOH     2137     MEOH     H1A      HDA3B    0.080000        1.0080           0   0.00000   0.00000
     37274 MEOH     2137     MEOH     H1B      HDA3B    0.080000        1.0080           0   0.00000   0.00000
     37275 MEOH     2137     MEOH     H1C      HDA3B    0.080000        1.0080           0   0.00000   0.00000
     37276 MEOH     2137     MEOH     LP1A     LPD     -0.230000        0.0000           -1   0.00000   0.00000
     37277 MEOH     2137     MEOH     LP1B     LPD     -0.230000        0.0000           -1   0.00000   0.00000
     37278 MEOH     2138     MEOH     C1       CD33B    2.314100       11.6110           0   -1.00000   1.30000
     37279 MEOH     2138     MEOH     DC1      DRUD    -2.454100        0.4000           0   0.00000   0.00000
     37280 MEOH     2138     MEOH     O1       OD31H    2.488300       15.5990           0   -1.02800   1.30000
     37281 MEOH     2138     MEOH     DO1      DRUD    -2.488300        0.4000           0   0.00000   0.00000
     37282 MEOH     2138     MEOH     HO1      HDP1A    0.360000        1.0080           0   0.00000   0.00000
     37283 MEOH     2138     MEOH     HO2      DUMH     0.000000        1.0080           0   0.00000   0.00000
     37284 MEOH     2138     MEOH     H1A      HDA3B    0.080000        1.0080           0   0.00000   0.00000
     37285 MEOH     2138     MEOH     H1B      HDA3B    0.080000        1.0080           0   0.00000   0.00000
     37286 MEOH     2138     MEOH     H1C      HDA3B    0.080000        1.0080           0   0.00000   0.00000
     37287 MEOH     2138     MEOH     LP1A     LPD     -0.230000        0.0000           -1   0.00000   0.00000
     37288 MEOH     2138     MEOH     LP1B     LPD     -0.230000        0.0000           -1   0.00000   0.00000
     37289 MEOH     2139     MEOH     C1       CD33B    2.314100       11.6110           0   -1.00000   1.30000
     37290 MEOH     2139     MEOH     DC1      DRUD    -2.454100        0.4000           0   0.00000   0.00000
     37291 MEOH     2139     MEOH     O1       OD31H    2.488300       15.5990           0   -1.02800   1.30000
     37292 MEOH     2139     MEOH     DO1      DRUD    -2.488300        0.4000           0   0.00000   0.00000
     37293 MEOH     2139     MEOH     HO1      HDP1A    0.360000        1.0080           0   0.00000   0.00000
     37294 MEOH     2139     MEOH     HO2      DUMH     0.000000        1.0080           0   0.00000   0.00000
     37295 MEOH     2139     MEOH     H1A      HDA3B    0.080000        1.0080           0   0.00000   0.00000
     37296 MEOH     2139     MEOH     H1B      HDA3B    0.080000        1.0080           0   0.00000   0.00000
     37297 MEOH     2139     MEOH     H1C      HDA3B    0.080000        1.0080           0   0.00000   0.00000
     37298 MEOH     2139     MEOH     LP1A     LPD     -0.230000        0.0000           -1   0.00000   0.00000
     37299 MEOH     2139     MEOH     LP1B     LPD     -0.230000        0.0000           -1   0.00000   0.00000
     37300 MEOH     2140     MEOH     C1       CD33B    2.314100       11.6110           0   -1.00000   1.30000
     37301 MEOH     2140     MEOH     DC1      DRUD    -2.454100        0.4000           0   0.00000   0.00000
     37302 MEOH     2140     MEOH     O1       OD31H    2.488300       15.5990           0   -1.02800   1.30000
     37303 MEOH     2140     MEOH     DO1      DRUD    -2.488300        0.4000           0   0.00000   0.00000
     37304 MEOH     2140     MEOH     HO1      HDP1A    0.360000        1.0080           0   0.00000   0.00000
     37305 MEOH     2140     MEOH     HO2      DUMH     0.000000        1.0080           0   0.00000   0.00000
     37306 MEOH     2140     MEOH     H1A      HDA3B    0.080000        1.0080           0   0.00000   0.00000
     37307 MEOH     2140     MEOH     H1B      HDA3B    0.080000        1.0080           0   0.00000   0.00000
     37308 MEOH     2140     MEOH     H1C      HDA3B    0.080000        1.0080           0   0.00000   0.00000
     37309 MEOH     2140     MEOH     LP1A     LPD     -0.230000        0.0000           -1   0.00000   0.00000
     37310 MEOH     2140     MEOH     LP1B     LPD     -0.230000        0.0000           -1   0.00000   0.00000
     37311 MEOH     2141     MEOH     C1       CD33B    2.314100       11.6110           0   -1.00000   1.30000
     37312 MEOH     2141     MEOH     DC1      DRUD    -2.454100        0.4000           0   0.00000   0.00000
     37313 MEOH     2141     MEOH     O1       OD31H    2.488300       15.5990           0   -1.02800   1.30000
     37314 MEOH     2141     MEOH     DO1      DRUD    -2.488300        0.4000           0   0.00000   0.00000
     37315 MEOH     2141     MEOH     HO1      HDP1A    0.360000        1.0080           0   0.00000   0.00000
     37316 MEOH     2141     MEOH     HO2      DUMH     0.000000        1.0080           0   0.00000   0.00000
     37317 MEOH     2141     MEOH     H1A      HDA3B    0.080000        1.0080           0   0.00000   0.00000
     37318 MEOH     2141     MEOH     H1B      HDA3B    0.080000        1.0080           0   0.00000   0.00000
     37319 MEOH     2141     MEOH     H1C      HDA3B    0.080000        1.0080           0   0.00000   0.00000
     37320 MEOH     2141     MEOH     LP1A     LPD     -0.230000        0.0000           -1   0.00000   0.00000
     37321 MEOH     2141     MEOH     LP1B     LPD     -0.230000        0.0000           -1   0.00000   0.00000
     37322 MEOH     2142     MEOH     C1       CD33B    2.314100       11.6110           0   -1.00000   1.30000
     37323 MEOH     2142     MEOH     DC1      DRUD    -2.454100        0.4000           0   0.00000   0.00000
     37324 MEOH     2142     MEOH     O1       OD31H    2.488300       15.5990           0   -1.02800   1.30000
     37325 MEOH     2142     MEOH     DO1      DRUD    -2.488300        0.4000           0   0.00000   0.00000
     37326 MEOH     2142     MEOH     HO1      HDP1A    0.360000        1.0080           0   0.00000   0.00000
     37327 MEOH     2142     MEOH     HO2      DUMH     0.000000        1.0080           0   0.00000   0.00000
     37328 MEOH     2142     MEOH     H1A      HDA3B    0.080000        1.0080           0   0.00000   0.00000
     37329 MEOH     2142     MEOH     H1B      HDA3B    0.080000        1.0080           0   0.00000   0.00000
     37330 MEOH     2142     MEOH     H1C      HDA3B    0.080000        1.0080           0   0.00000   0.00000
     37331 MEOH     2142     MEOH     LP1A     LPD     -0.230000        0.0000           -1   0.00000   0.00000
     37332 MEOH     2142     MEOH     LP1B     LPD     -0.230000        0.0000           -1   0.00000   0.00000
     37333 MEOH     2143     MEOH     C1       CD33B    2.314100       11.6110           0   -1.00000   1.30000
     37334 MEOH     2143     MEOH     DC1      DRUD    -2.454100        0.4000           0   0.00000   0.00000
     37335 MEOH     2143     MEOH     O1       OD31H    2.488300       15.5990           0   -1.02800   1.30000
     37336 MEOH     2143     MEOH     DO1      DRUD    -2.488300        0.4000           0   0.00000   0.00000
     37337 MEOH     2143     MEOH     HO1      HDP1A    0.360000        1.0080           0   0.00000   0.00000
     37338 MEOH     2143     MEOH     HO2      DUMH     0.000000        1.0080           0   0.00000   0.00000
     37339 MEOH     2143     MEOH     H1A      HDA3B    0.080000        1.0080           0   0.00000   0.00000
     37340 MEOH     2143     MEOH     H1B      HDA3B    0.080000        1.0080           0   0.00000   0.00000
     37341 MEOH     2143     MEOH     H1C      HDA3B    0.080000        1.0080           0   0.00000   0.00000
     37342 MEOH     2143     MEOH     LP1A     LPD     -0.230000        0.0000           -1   0.00000   0.00000
     37343 MEOH     2143     MEOH     LP1B     LPD     -0.230000        0.0000           -1   0.00000   0.00000
     37344 MEOH     2144     MEOH     C1       CD33B    2.314100       11.6110           0   -1.00000   1.30000
     37345 MEOH     2144     MEOH     DC1      DRUD    -2.454100        0.4000           0   0.00000   0.00000
     37346 MEOH     2144     MEOH     O1       OD31H    2.488300       15.5990           0   -1.02800   1.30000
     37347 MEOH     2144     MEOH     DO1      DRUD    -2.488300        0.4000           0   0.00000   0.00000
     37348 MEOH     2144     MEOH     HO1      HDP1A    0.360000        1.0080           0   0.00000   0.00000
     37349 MEOH     2144     MEOH     HO2      DUMH     0.000000        1.0080           0   0.00000   0.00000
     37350 MEOH     2144     MEOH     H1A      HDA3B    0.080000        1.0080           0   0.00000   0.00000
     37351 MEOH     2144     MEOH     H1B      HDA3B    0.080000        1.0080           0   0.00000   0.00000
     37352 MEOH     2144     MEOH     H1C      HDA3B    0.080000        1.0080           0   0.00000   0.00000
     37353 MEOH     2144     MEOH     LP1A     LPD     -0.230000        0.0000           -1   0.00000   0.00000
     37354 MEOH     2144     MEOH     LP1B     LPD     -0.230000        0.0000           -1   0.00000   0.00000
     37355 MEOH     2145     MEOH     C1       CD33B    2.314100       11.6110           0   -1.00000   1.30000
     37356 MEOH     2145     MEOH     DC1      DRUD    -2.454100        0.4000           0   0.00000   0.00000
     37357 MEOH     2145     MEOH     O1       OD31H    2.488300       15.5990           0   -1.02800   1.30000
     37358 MEOH     2145     MEOH     DO1      DRUD    -2.488300        0.4000           0   0.00000   0.00000
     37359 MEOH     2145     MEOH     HO1      HDP1A    0.360000        1.0080           0   0.00000   0.00000
     37360 MEOH     2145     MEOH     HO2      DUMH     0.000000        1.0080           0   0.00000   0.00000
     37361 MEOH     2145     MEOH     H1A      HDA3B    0.080000        1.0080           0   0.00000   0.00000
     37362 MEOH     2145     MEOH     H1B      HDA3B    0.080000        1.0080           0   0.00000   0.00000
     37363 MEOH     2145     MEOH     H1C      HDA3B    0.080000        1.0080           0   0.00000   0.00000
     37364 MEOH     2145     MEOH     LP1A     LPD     -0.230000        0.0000           -1   0.00000   0.00000
     37365 MEOH     2145     MEOH     LP1B     LPD     -0.230000        0.0000           -1   0.00000   0.00000
     37366 MEOH     2146     MEOH     C1       CD33B    2.314100       11.6110           0   -1.00000   1.30000
     37367 MEOH     2146     MEOH     DC1      DRUD    -2.454100        0.4000           0   0.00000   0.00000
     37368 MEOH     2146     MEOH     O1       OD31H    2.488300       15.5990           0   -1.02800   1.30000
     37369 MEOH     2146     MEOH     DO1      DRUD    -2.488300        0.4000           0   0.00000   0.00000
     37370 MEOH     2146     MEOH     HO1      HDP1A    0.360000        1.0080           0   0.00000   0.00000
     37371 MEOH     2146     MEOH     HO2      DUMH     0.000000        1.0080           0   0.00000   0.00000
     37372 MEOH     2146     MEOH     H1A      HDA3B    0.080000        1.0080           0   0.00000   0.00000
     37373 MEOH     2146     MEOH     H1B      HDA3B    0.080000        1.0080           0   0.00000   0.00000
     37374 MEOH     2146     MEOH     H1C      HDA3B    0.080000        1.0080           0   0.00000   0.00000
     37375 MEOH     2146     MEOH     LP1A     LPD     -0.230000        0.0000           -1   0.00000   0.00000
     37376 MEOH     2146     MEOH     LP1B     LPD     -0.230000        0.0000           -1   0.00000   0.00000
     37377 MEOH     2147     MEOH     C1       CD33B    2.314100       11.6110           0   -1.00000   1.30000
     37378 MEOH     2147     MEOH     DC1      DRUD    -2.454100        0.4000           0   0.00000   0.00000
     37379 MEOH     2147     MEOH     O1       OD31H    2.488300       15.5990           0   -1.02800   1.30000
     37380 MEOH     2147     MEOH     DO1      DRUD    -2.488300        0.4000           0   0.00000   0.00000
     37381 MEOH     2147     MEOH     HO1      HDP1A    0.360000        1.0080           0   0.00000   0.00000
     37382 MEOH     2147     MEOH     HO2      DUMH     0.000000        1.0080           0   0.00000   0.00000
     37383 MEOH     2147     MEOH     H1A      HDA3B    0.080000        1.0080           0   0.00000   0.00000
     37384 MEOH     2147     MEOH     H1B      HDA3B    0.080000        1.0080           0   0.00000   0.00000
     37385 MEOH     2147     MEOH     H1C      HDA3B    0.080000        1.0080           0   0.00000   0.00000
     37386 MEOH     2147     MEOH     LP1A     LPD     -0.230000        0.0000           -1   0.00000   0.00000
     37387 MEOH     2147     MEOH     LP1B     LPD     -0.230000        0.0000           -1   0.00000   0.00000
     37388 MEOH     2148     MEOH     C1       CD33B    2.314100       11.6110           0   -1.00000   1.30000
     37389 MEOH     2148     MEOH     DC1      DRUD    -2.454100        0.4000           0   0.00000   0.00000
     37390 MEOH     2148     MEOH     O1       OD31H    2.488300       15.5990           0   -1.02800   1.30000
     37391 MEOH     2148     MEOH     DO1      DRUD    -2.488300        0.4000           0   0.00000   0.00000
     37392 MEOH     2148     MEOH     HO1      HDP1A    0.360000        1.0080           0   0.00000   0.00000
     37393 MEOH     2148     MEOH     HO2      DUMH     0.000000        1.0080           0   0.00000   0.00000
     37394 MEOH     2148     MEOH     H1A      HDA3B    0.080000        1.0080           0   0.00000   0.00000
     37395 MEOH     2148     MEOH     H1B      HDA3B    0.080000        1.0080           0   0.00000   0.00000
     37396 MEOH     2148     MEOH     H1C      HDA3B    0.080000        1.0080           0   0.00000   0.00000
     37397 MEOH     2148     MEOH     LP1A     LPD     -0.230000        0.0000           -1   0.00000   0.00000
     37398 MEOH     2148     MEOH     LP1B     LPD     -0.230000        0.0000           -1   0.00000   0.00000
     37399 MEOH     2149     MEOH     C1       CD33B    2.314100       11.6110           0   -1.00000   1.30000
     37400 MEOH     2149     MEOH     DC1      DRUD    -2.454100        0.4000           0   0.00000   0.00000
     37401 MEOH     2149     MEOH     O1       OD31H    2.488300       15.5990           0   -1.02800   1.30000
     37402 MEOH     2149     MEOH     DO1      DRUD    -2.488300        0.4000           0   0.00000   0.00000
     37403 MEOH     2149     MEOH     HO1      HDP1A    0.360000        1.0080           0   0.00000   0.00000
     37404 MEOH     2149     MEOH     HO2      DUMH     0.000000        1.0080           0   0.00000   0.00000
     37405 MEOH     2149     MEOH     H1A      HDA3B    0.080000        1.0080           0   0.00000   0.00000
     37406 MEOH     2149     MEOH     H1B      HDA3B    0.080000        1.0080           0   0.00000   0.00000
     37407 MEOH     2149     MEOH     H1C      HDA3B    0.080000        1.0080           0   0.00000   0.00000
     37408 MEOH     2149     MEOH     LP1A     LPD     -0.230000        0.0000           -1   0.00000   0.00000
     37409 MEOH     2149     MEOH     LP1B     LPD     -0.230000        0.0000           -1   0.00000   0.00000
     37410 MEOH     2150     MEOH     C1       CD33B    2.314100       11.6110           0   -1.00000   1.30000
     37411 MEOH     2150     MEOH     DC1      DRUD    -2.454100        0.4000           0   0.00000   0.00000
     37412 MEOH     2150     MEOH     O1       OD31H    2.488300       15.5990           0   -1.02800   1.30000
     37413 MEOH     2150     MEOH     DO1      DRUD    -2.488300        0.4000           0   0.00000   0.00000
     37414 MEOH     2150     MEOH     HO1      HDP1A    0.360000        1.0080           0   0.00000   0.00000
     37415 MEOH     2150     MEOH     HO2      DUMH     0.000000        1.0080           0   0.00000   0.00000
     37416 MEOH     2150     MEOH     H1A      HDA3B    0.080000        1.0080           0   0.00000   0.00000
     37417 MEOH     2150     MEOH     H1B      HDA3B    0.080000        1.0080           0   0.00000   0.00000
     37418 MEOH     2150     MEOH     H1C      HDA3B    0.080000        1.0080           0   0.00000   0.00000
     37419 MEOH     2150     MEOH     LP1A     LPD     -0.230000        0.0000           -1   0.00000   0.00000
     37420 MEOH     2150     MEOH     LP1B     LPD     -0.230000        0.0000           -1   0.00000   0.00000
     37421 MEOH     2151     MEOH     C1       CD33B    2.314100       11.6110           0   -1.00000   1.30000
     37422 MEOH     2151     MEOH     DC1      DRUD    -2.454100        0.4000           0   0.00000   0.00000
     37423 MEOH     2151     MEOH     O1       OD31H    2.488300       15.5990           0   -1.02800   1.30000
     37424 MEOH     2151     MEOH     DO1      DRUD    -2.488300        0.4000           0   0.00000   0.00000
     37425 MEOH     2151     MEOH     HO1      HDP1A    0.360000        1.0080           0   0.00000   0.00000
     37426 MEOH     2151     MEOH     HO2      DUMH     0.000000        1.0080           0   0.00000   0.00000
     37427 MEOH     2151     MEOH     H1A      HDA3B    0.080000        1.0080           0   0.00000   0.00000
     37428 MEOH     2151     MEOH     H1B      HDA3B    0.080000        1.0080           0   0.00000   0.00000
     37429 MEOH     2151     MEOH     H1C      HDA3B    0.080000        1.0080           0   0.00000   0.00000
     37430 MEOH     2151     MEOH     LP1A     LPD     -0.230000        0.0000           -1   0.00000   0.00000
     37431 MEOH     2151     MEOH     LP1B     LPD     -0.230000        0.0000           -1   0.00000   0.00000
     37432 MEOH     2152     MEOH     C1       CD33B    2.314100       11.6110           0   -1.00000   1.30000
     37433 MEOH     2152     MEOH     DC1      DRUD    -2.454100        0.4000           0   0.00000   0.00000
     37434 MEOH     2152     MEOH     O1       OD31H    2.488300       15.5990           0   -1.02800   1.30000
     37435 MEOH     2152     MEOH     DO1      DRUD    -2.488300        0.4000           0   0.00000   0.00000
     37436 MEOH     2152     MEOH     HO1      HDP1A    0.360000        1.0080           0   0.00000   0.00000
     37437 MEOH     2152     MEOH     HO2      DUMH     0.000000        1.0080           0   0.00000   0.00000
     37438 MEOH     2152     MEOH     H1A      HDA3B    0.080000        1.0080           0   0.00000   0.00000
     37439 MEOH     2152     MEOH     H1B      HDA3B    0.080000        1.0080           0   0.00000   0.00000
     37440 MEOH     2152     MEOH     H1C      HDA3B    0.080000        1.0080           0   0.00000   0.00000
     37441 MEOH     2152     MEOH     LP1A     LPD     -0.230000        0.0000           -1   0.00000   0.00000
     37442 MEOH     2152     MEOH     LP1B     LPD     -0.230000        0.0000           -1   0.00000   0.00000
     37443 MEOH     2153     MEOH     C1       CD33B    2.314100       11.6110           0   -1.00000   1.30000
     37444 MEOH     2153     MEOH     DC1      DRUD    -2.454100        0.4000           0   0.00000   0.00000
     37445 MEOH     2153     MEOH     O1       OD31H    2.488300       15.5990           0   -1.02800   1.30000
     37446 MEOH     2153     MEOH     DO1      DRUD    -2.488300        0.4000           0   0.00000   0.00000
     37447 MEOH     2153     MEOH     HO1      HDP1A    0.360000        1.0080           0   0.00000   0.00000
     37448 MEOH     2153     MEOH     HO2      DUMH     0.000000        1.0080           0   0.00000   0.00000
     37449 MEOH     2153     MEOH     H1A      HDA3B    0.080000        1.0080           0   0.00000   0.00000
     37450 MEOH     2153     MEOH     H1B      HDA3B    0.080000        1.0080           0   0.00000   0.00000
     37451 MEOH     2153     MEOH     H1C      HDA3B    0.080000        1.0080           0   0.00000   0.00000
     37452 MEOH     2153     MEOH     LP1A     LPD     -0.230000        0.0000           -1   0.00000   0.00000
     37453 MEOH     2153     MEOH     LP1B     LPD     -0.230000        0.0000           -1   0.00000   0.00000
     37454 MEOH     2154     MEOH     C1       CD33B    2.314100       11.6110           0   -1.00000   1.30000
     37455 MEOH     2154     MEOH     DC1      DRUD    -2.454100        0.4000           0   0.00000   0.00000
     37456 MEOH     2154     MEOH     O1       OD31H    2.488300       15.5990           0   -1.02800   1.30000
     37457 MEOH     2154     MEOH     DO1      DRUD    -2.488300        0.4000           0   0.00000   0.00000
     37458 MEOH     2154     MEOH     HO1      HDP1A    0.360000        1.0080           0   0.00000   0.00000
     37459 MEOH     2154     MEOH     HO2      DUMH     0.000000        1.0080           0   0.00000   0.00000
     37460 MEOH     2154     MEOH     H1A      HDA3B    0.080000        1.0080           0   0.00000   0.00000
     37461 MEOH     2154     MEOH     H1B      HDA3B    0.080000        1.0080           0   0.00000   0.00000
     37462 MEOH     2154     MEOH     H1C      HDA3B    0.080000        1.0080           0   0.00000   0.00000
     37463 MEOH     2154     MEOH     LP1A     LPD     -0.230000        0.0000           -1   0.00000   0.00000
     37464 MEOH     2154     MEOH     LP1B     LPD     -0.230000        0.0000           -1   0.00000   0.00000
     37465 MEOH     2155     MEOH     C1       CD33B    2.314100       11.6110           0   -1.00000   1.30000
     37466 MEOH     2155     MEOH     DC1      DRUD    -2.454100        0.4000           0   0.00000   0.00000
     37467 MEOH     2155     MEOH     O1       OD31H    2.488300       15.5990           0   -1.02800   1.30000
     37468 MEOH     2155     MEOH     DO1      DRUD    -2.488300        0.4000           0   0.00000   0.00000
     37469 MEOH     2155     MEOH     HO1      HDP1A    0.360000        1.0080           0   0.00000   0.00000
     37470 MEOH     2155     MEOH     HO2      DUMH     0.000000        1.0080           0   0.00000   0.00000
     37471 MEOH     2155     MEOH     H1A      HDA3B    0.080000        1.0080           0   0.00000   0.00000
     37472 MEOH     2155     MEOH     H1B      HDA3B    0.080000        1.0080           0   0.00000   0.00000
     37473 MEOH     2155     MEOH     H1C      HDA3B    0.080000        1.0080           0   0.00000   0.00000
     37474 MEOH     2155     MEOH     LP1A     LPD     -0.230000        0.0000           -1   0.00000   0.00000
     37475 MEOH     2155     MEOH     LP1B     LPD     -0.230000        0.0000           -1   0.00000   0.00000
     37476 MEOH     2156     MEOH     C1       CD33B    2.314100       11.6110           0   -1.00000   1.30000
     37477 MEOH     2156     MEOH     DC1      DRUD    -2.454100        0.4000           0   0.00000   0.00000
     37478 MEOH     2156     MEOH     O1       OD31H    2.488300       15.5990           0   -1.02800   1.30000
     37479 MEOH     2156     MEOH     DO1      DRUD    -2.488300        0.4000           0   0.00000   0.00000
     37480 MEOH     2156     MEOH     HO1      HDP1A    0.360000        1.0080           0   0.00000   0.00000
     37481 MEOH     2156     MEOH     HO2      DUMH     0.000000        1.0080           0   0.00000   0.00000
     37482 MEOH     2156     MEOH     H1A      HDA3B    0.080000        1.0080           0   0.00000   0.00000
     37483 MEOH     2156     MEOH     H1B      HDA3B    0.080000        1.0080           0   0.00000   0.00000
     37484 MEOH     2156     MEOH     H1C      HDA3B    0.080000        1.0080           0   0.00000   0.00000
     37485 MEOH     2156     MEOH     LP1A     LPD     -0.230000        0.0000           -1   0.00000   0.00000
     37486 MEOH     2156     MEOH     LP1B     LPD     -0.230000        0.0000           -1   0.00000   0.00000
     37487 MEOH     2157     MEOH     C1       CD33B    2.314100       11.6110           0   -1.00000   1.30000
     37488 MEOH     2157     MEOH     DC1      DRUD    -2.454100        0.4000           0   0.00000   0.00000
     37489 MEOH     2157     MEOH     O1       OD31H    2.488300       15.5990           0   -1.02800   1.30000
     37490 MEOH     2157     MEOH     DO1      DRUD    -2.488300        0.4000           0   0.00000   0.00000
     37491 MEOH     2157     MEOH     HO1      HDP1A    0.360000        1.0080           0   0.00000   0.00000
     37492 MEOH     2157     MEOH     HO2      DUMH     0.000000        1.0080           0   0.00000   0.00000
     37493 MEOH     2157     MEOH     H1A      HDA3B    0.080000        1.0080           0   0.00000   0.00000
     37494 MEOH     2157     MEOH     H1B      HDA3B    0.080000        1.0080           0   0.00000   0.00000
     37495 MEOH     2157     MEOH     H1C      HDA3B    0.080000        1.0080           0   0.00000   0.00000
     37496 MEOH     2157     MEOH     LP1A     LPD     -0.230000        0.0000           -1   0.00000   0.00000
     37497 MEOH     2157     MEOH     LP1B     LPD     -0.230000        0.0000           -1   0.00000   0.00000
     37498 MEOH     2158     MEOH     C1       CD33B    2.314100       11.6110           0   -1.00000   1.30000
     37499 MEOH     2158     MEOH     DC1      DRUD    -2.454100        0.4000           0   0.00000   0.00000
     37500 MEOH     2158     MEOH     O1       OD31H    2.488300       15.5990           0   -1.02800   1.30000
     37501 MEOH     2158     MEOH     DO1      DRUD    -2.488300        0.4000           0   0.00000   0.00000
     37502 MEOH     2158     MEOH     HO1      HDP1A    0.360000        1.0080           0   0.00000   0.00000
     37503 MEOH     2158     MEOH     HO2      DUMH     0.000000        1.0080           0   0.00000   0.00000
     37504 MEOH     2158     MEOH     H1A      HDA3B    0.080000        1.0080           0   0.00000   0.00000
     37505 MEOH     2158     MEOH     H1B      HDA3B    0.080000        1.0080           0   0.00000   0.00000
     37506 MEOH     2158     MEOH     H1C      HDA3B    0.080000        1.0080           0   0.00000   0.00000
     37507 MEOH     2158     MEOH     LP1A     LPD     -0.230000        0.0000           -1   0.00000   0.00000
     37508 MEOH     2158     MEOH     LP1B     LPD     -0.230000        0.0000           -1   0.00000   0.00000
     37509 MEOH     2159     MEOH     C1       CD33B    2.314100       11.6110           0   -1.00000   1.30000
     37510 MEOH     2159     MEOH     DC1      DRUD    -2.454100        0.4000           0   0.00000   0.00000
     37511 MEOH     2159     MEOH     O1       OD31H    2.488300       15.5990           0   -1.02800   1.30000
     37512 MEOH     2159     MEOH     DO1      DRUD    -2.488300        0.4000           0   0.00000   0.00000
     37513 MEOH     2159     MEOH     HO1      HDP1A    0.360000        1.0080           0   0.00000   0.00000
     37514 MEOH     2159     MEOH     HO2      DUMH     0.000000        1.0080           0   0.00000   0.00000
     37515 MEOH     2159     MEOH     H1A      HDA3B    0.080000        1.0080           0   0.00000   0.00000
     37516 MEOH     2159     MEOH     H1B      HDA3B    0.080000        1.0080           0   0.00000   0.00000
     37517 MEOH     2159     MEOH     H1C      HDA3B    0.080000        1.0080           0   0.00000   0.00000
     37518 MEOH     2159     MEOH     LP1A     LPD     -0.230000        0.0000           -1   0.00000   0.00000
     37519 MEOH     2159     MEOH     LP1B     LPD     -0.230000        0.0000           -1   0.00000   0.00000
     37520 MEOH     2160     MEOH     C1       CD33B    2.314100       11.6110           0   -1.00000   1.30000
     37521 MEOH     2160     MEOH     DC1      DRUD    -2.454100        0.4000           0   0.00000   0.00000
     37522 MEOH     2160     MEOH     O1       OD31H    2.488300       15.5990           0   -1.02800   1.30000
     37523 MEOH     2160     MEOH     DO1      DRUD    -2.488300        0.4000           0   0.00000   0.00000
     37524 MEOH     2160     MEOH     HO1      HDP1A    0.360000        1.0080           0   0.00000   0.00000
     37525 MEOH     2160     MEOH     HO2      DUMH     0.000000        1.0080           0   0.00000   0.00000
     37526 MEOH     2160     MEOH     H1A      HDA3B    0.080000        1.0080           0   0.00000   0.00000
     37527 MEOH     2160     MEOH     H1B      HDA3B    0.080000        1.0080           0   0.00000   0.00000
     37528 MEOH     2160     MEOH     H1C      HDA3B    0.080000        1.0080           0   0.00000   0.00000
     37529 MEOH     2160     MEOH     LP1A     LPD     -0.230000        0.0000           -1   0.00000   0.00000
     37530 MEOH     2160     MEOH     LP1B     LPD     -0.230000        0.0000           -1   0.00000   0.00000
     37531 MEOH     2161     MEOH     C1       CD33B    2.314100       11.6110           0   -1.00000   1.30000
     37532 MEOH     2161     MEOH     DC1      DRUD    -2.454100        0.4000           0   0.00000   0.00000
     37533 MEOH     2161     MEOH     O1       OD31H    2.488300       15.5990           0   -1.02800   1.30000
     37534 MEOH     2161     MEOH     DO1      DRUD    -2.488300        0.4000           0   0.00000   0.00000
     37535 MEOH     2161     MEOH     HO1      HDP1A    0.360000        1.0080           0   0.00000   0.00000
     37536 MEOH     2161     MEOH     HO2      DUMH     0.000000        1.0080           0   0.00000   0.00000
     37537 MEOH     2161     MEOH     H1A      HDA3B    0.080000        1.0080           0   0.00000   0.00000
     37538 MEOH     2161     MEOH     H1B      HDA3B    0.080000        1.0080           0   0.00000   0.00000
     37539 MEOH     2161     MEOH     H1C      HDA3B    0.080000        1.0080           0   0.00000   0.00000
     37540 MEOH     2161     MEOH     LP1A     LPD     -0.230000        0.0000           -1   0.00000   0.00000
     37541 MEOH     2161     MEOH     LP1B     LPD     -0.230000        0.0000           -1   0.00000   0.00000
     37542 MEOH     2162     MEOH     C1       CD33B    2.314100       11.6110           0   -1.00000   1.30000
     37543 MEOH     2162     MEOH     DC1      DRUD    -2.454100        0.4000           0   0.00000   0.00000
     37544 MEOH     2162     MEOH     O1       OD31H    2.488300       15.5990           0   -1.02800   1.30000
     37545 MEOH     2162     MEOH     DO1      DRUD    -2.488300        0.4000           0   0.00000   0.00000
     37546 MEOH     2162     MEOH     HO1      HDP1A    0.360000        1.0080           0   0.00000   0.00000
     37547 MEOH     2162     MEOH     HO2      DUMH     0.000000        1.0080           0   0.00000   0.00000
     37548 MEOH     2162     MEOH     H1A      HDA3B    0.080000        1.0080           0   0.00000   0.00000
     37549 MEOH     2162     MEOH     H1B      HDA3B    0.080000        1.0080           0   0.00000   0.00000
     37550 MEOH     2162     MEOH     H1C      HDA3B    0.080000        1.0080           0   0.00000   0.00000
     37551 MEOH     2162     MEOH     LP1A     LPD     -0.230000        0.0000           -1   0.00000   0.00000
     37552 MEOH     2162     MEOH     LP1B     LPD     -0.230000        0.0000           -1   0.00000   0.00000
     37553 MEOH     2163     MEOH     C1       CD33B    2.314100       11.6110           0   -1.00000   1.30000
     37554 MEOH     2163     MEOH     DC1      DRUD    -2.454100        0.4000           0   0.00000   0.00000
     37555 MEOH     2163     MEOH     O1       OD31H    2.488300       15.5990           0   -1.02800   1.30000
     37556 MEOH     2163     MEOH     DO1      DRUD    -2.488300        0.4000           0   0.00000   0.00000
     37557 MEOH     2163     MEOH     HO1      HDP1A    0.360000        1.0080           0   0.00000   0.00000
     37558 MEOH     2163     MEOH     HO2      DUMH     0.000000        1.0080           0   0.00000   0.00000
     37559 MEOH     2163     MEOH     H1A      HDA3B    0.080000        1.0080           0   0.00000   0.00000
     37560 MEOH     2163     MEOH     H1B      HDA3B    0.080000        1.0080           0   0.00000   0.00000
     37561 MEOH     2163     MEOH     H1C      HDA3B    0.080000        1.0080           0   0.00000   0.00000
     37562 MEOH     2163     MEOH     LP1A     LPD     -0.230000        0.0000           -1   0.00000   0.00000
     37563 MEOH     2163     MEOH     LP1B     LPD     -0.230000        0.0000           -1   0.00000   0.00000
     37564 MEOH     2164     MEOH     C1       CD33B    2.314100       11.6110           0   -1.00000   1.30000
     37565 MEOH     2164     MEOH     DC1      DRUD    -2.454100        0.4000           0   0.00000   0.00000
     37566 MEOH     2164     MEOH     O1       OD31H    2.488300       15.5990           0   -1.02800   1.30000
     37567 MEOH     2164     MEOH     DO1      DRUD    -2.488300        0.4000           0   0.00000   0.00000
     37568 MEOH     2164     MEOH     HO1      HDP1A    0.360000        1.0080           0   0.00000   0.00000
     37569 MEOH     2164     MEOH     HO2      DUMH     0.000000        1.0080           0   0.00000   0.00000
     37570 MEOH     2164     MEOH     H1A      HDA3B    0.080000        1.0080           0   0.00000   0.00000
     37571 MEOH     2164     MEOH     H1B      HDA3B    0.080000        1.0080           0   0.00000   0.00000
     37572 MEOH     2164     MEOH     H1C      HDA3B    0.080000        1.0080           0   0.00000   0.00000
     37573 MEOH     2164     MEOH     LP1A     LPD     -0.230000        0.0000           -1   0.00000   0.00000
     37574 MEOH     2164     MEOH     LP1B     LPD     -0.230000        0.0000           -1   0.00000   0.00000
     37575 MEOH     2165     MEOH     C1       CD33B    2.314100       11.6110           0   -1.00000   1.30000
     37576 MEOH     2165     MEOH     DC1      DRUD    -2.454100        0.4000           0   0.00000   0.00000
     37577 MEOH     2165     MEOH     O1       OD31H    2.488300       15.5990           0   -1.02800   1.30000
     37578 MEOH     2165     MEOH     DO1      DRUD    -2.488300        0.4000           0   0.00000   0.00000
     37579 MEOH     2165     MEOH     HO1      HDP1A    0.360000        1.0080           0   0.00000   0.00000
     37580 MEOH     2165     MEOH     HO2      DUMH     0.000000        1.0080           0   0.00000   0.00000
     37581 MEOH     2165     MEOH     H1A      HDA3B    0.080000        1.0080           0   0.00000   0.00000
     37582 MEOH     2165     MEOH     H1B      HDA3B    0.080000        1.0080           0   0.00000   0.00000
     37583 MEOH     2165     MEOH     H1C      HDA3B    0.080000        1.0080           0   0.00000   0.00000
     37584 MEOH     2165     MEOH     LP1A     LPD     -0.230000        0.0000           -1   0.00000   0.00000
     37585 MEOH     2165     MEOH     LP1B     LPD     -0.230000        0.0000           -1   0.00000   0.00000
     37586 MEOH     2166     MEOH     C1       CD33B    2.314100       11.6110           0   -1.00000   1.30000
     37587 MEOH     2166     MEOH     DC1      DRUD    -2.454100        0.4000           0   0.00000   0.00000
     37588 MEOH     2166     MEOH     O1       OD31H    2.488300       15.5990           0   -1.02800   1.30000
     37589 MEOH     2166     MEOH     DO1      DRUD    -2.488300        0.4000           0   0.00000   0.00000
     37590 MEOH     2166     MEOH     HO1      HDP1A    0.360000        1.0080           0   0.00000   0.00000
     37591 MEOH     2166     MEOH     HO2      DUMH     0.000000        1.0080           0   0.00000   0.00000
     37592 MEOH     2166     MEOH     H1A      HDA3B    0.080000        1.0080           0   0.00000   0.00000
     37593 MEOH     2166     MEOH     H1B      HDA3B    0.080000        1.0080           0   0.00000   0.00000
     37594 MEOH     2166     MEOH     H1C      HDA3B    0.080000        1.0080           0   0.00000   0.00000
     37595 MEOH     2166     MEOH     LP1A     LPD     -0.230000        0.0000           -1   0.00000   0.00000
     37596 MEOH     2166     MEOH     LP1B     LPD     -0.230000        0.0000           -1   0.00000   0.00000
     37597 MEOH     2167     MEOH     C1       CD33B    2.314100       11.6110           0   -1.00000   1.30000
     37598 MEOH     2167     MEOH     DC1      DRUD    -2.454100        0.4000           0   0.00000   0.00000
     37599 MEOH     2167     MEOH     O1       OD31H    2.488300       15.5990           0   -1.02800   1.30000
     37600 MEOH     2167     MEOH     DO1      DRUD    -2.488300        0.4000           0   0.00000   0.00000
     37601 MEOH     2167     MEOH     HO1      HDP1A    0.360000        1.0080           0   0.00000   0.00000
     37602 MEOH     2167     MEOH     HO2      DUMH     0.000000        1.0080           0   0.00000   0.00000
     37603 MEOH     2167     MEOH     H1A      HDA3B    0.080000        1.0080           0   0.00000   0.00000
     37604 MEOH     2167     MEOH     H1B      HDA3B    0.080000        1.0080           0   0.00000   0.00000
     37605 MEOH     2167     MEOH     H1C      HDA3B    0.080000        1.0080           0   0.00000   0.00000
     37606 MEOH     2167     MEOH     LP1A     LPD     -0.230000        0.0000           -1   0.00000   0.00000
     37607 MEOH     2167     MEOH     LP1B     LPD     -0.230000        0.0000           -1   0.00000   0.00000
     37608 MEOH     2168     MEOH     C1       CD33B    2.314100       11.6110           0   -1.00000   1.30000
     37609 MEOH     2168     MEOH     DC1      DRUD    -2.454100        0.4000           0   0.00000   0.00000
     37610 MEOH     2168     MEOH     O1       OD31H    2.488300       15.5990           0   -1.02800   1.30000
     37611 MEOH     2168     MEOH     DO1      DRUD    -2.488300        0.4000           0   0.00000   0.00000
     37612 MEOH     2168     MEOH     HO1      HDP1A    0.360000        1.0080           0   0.00000   0.00000
     37613 MEOH     2168     MEOH     HO2      DUMH     0.000000        1.0080           0   0.00000   0.00000
     37614 MEOH     2168     MEOH     H1A      HDA3B    0.080000        1.0080           0   0.00000   0.00000
     37615 MEOH     2168     MEOH     H1B      HDA3B    0.080000        1.0080           0   0.00000   0.00000
     37616 MEOH     2168     MEOH     H1C      HDA3B    0.080000        1.0080           0   0.00000   0.00000
     37617 MEOH     2168     MEOH     LP1A     LPD     -0.230000        0.0000           -1   0.00000   0.00000
     37618 MEOH     2168     MEOH     LP1B     LPD     -0.230000        0.0000           -1   0.00000   0.00000
     37619 MEOH     2169     MEOH     C1       CD33B    2.314100       11.6110           0   -1.00000   1.30000
     37620 MEOH     2169     MEOH     DC1      DRUD    -2.454100        0.4000           0   0.00000   0.00000
     37621 MEOH     2169     MEOH     O1       OD31H    2.488300       15.5990           0   -1.02800   1.30000
     37622 MEOH     2169     MEOH     DO1      DRUD    -2.488300        0.4000           0   0.00000   0.00000
     37623 MEOH     2169     MEOH     HO1      HDP1A    0.360000        1.0080           0   0.00000   0.00000
     37624 MEOH     2169     MEOH     HO2      DUMH     0.000000        1.0080           0   0.00000   0.00000
     37625 MEOH     2169     MEOH     H1A      HDA3B    0.080000        1.0080           0   0.00000   0.00000
     37626 MEOH     2169     MEOH     H1B      HDA3B    0.080000        1.0080           0   0.00000   0.00000
     37627 MEOH     2169     MEOH     H1C      HDA3B    0.080000        1.0080           0   0.00000   0.00000
     37628 MEOH     2169     MEOH     LP1A     LPD     -0.230000        0.0000           -1   0.00000   0.00000
     37629 MEOH     2169     MEOH     LP1B     LPD     -0.230000        0.0000           -1   0.00000   0.00000
     37630 MEOH     2170     MEOH     C1       CD33B    2.314100       11.6110           0   -1.00000   1.30000
     37631 MEOH     2170     MEOH     DC1      DRUD    -2.454100        0.4000           0   0.00000   0.00000
     37632 MEOH     2170     MEOH     O1       OD31H    2.488300       15.5990           0   -1.02800   1.30000
     37633 MEOH     2170     MEOH     DO1      DRUD    -2.488300        0.4000           0   0.00000   0.00000
     37634 MEOH     2170     MEOH     HO1      HDP1A    0.360000        1.0080           0   0.00000   0.00000
     37635 MEOH     2170     MEOH     HO2      DUMH     0.000000        1.0080           0   0.00000   0.00000
     37636 MEOH     2170     MEOH     H1A      HDA3B    0.080000        1.0080           0   0.00000   0.00000
     37637 MEOH     2170     MEOH     H1B      HDA3B    0.080000        1.0080           0   0.00000   0.00000
     37638 MEOH     2170     MEOH     H1C      HDA3B    0.080000        1.0080           0   0.00000   0.00000
     37639 MEOH     2170     MEOH     LP1A     LPD     -0.230000        0.0000           -1   0.00000   0.00000
     37640 MEOH     2170     MEOH     LP1B     LPD     -0.230000        0.0000           -1   0.00000   0.00000
     37641 MEOH     2171     MEOH     C1       CD33B    2.314100       11.6110           0   -1.00000   1.30000
     37642 MEOH     2171     MEOH     DC1      DRUD    -2.454100        0.4000           0   0.00000   0.00000
     37643 MEOH     2171     MEOH     O1       OD31H    2.488300       15.5990           0   -1.02800   1.30000
     37644 MEOH     2171     MEOH     DO1      DRUD    -2.488300        0.4000           0   0.00000   0.00000
     37645 MEOH     2171     MEOH     HO1      HDP1A    0.360000        1.0080           0   0.00000   0.00000
     37646 MEOH     2171     MEOH     HO2      DUMH     0.000000        1.0080           0   0.00000   0.00000
     37647 MEOH     2171     MEOH     H1A      HDA3B    0.080000        1.0080           0   0.00000   0.00000
     37648 MEOH     2171     MEOH     H1B      HDA3B    0.080000        1.0080           0   0.00000   0.00000
     37649 MEOH     2171     MEOH     H1C      HDA3B    0.080000        1.0080           0   0.00000   0.00000
     37650 MEOH     2171     MEOH     LP1A     LPD     -0.230000        0.0000           -1   0.00000   0.00000
     37651 MEOH     2171     MEOH     LP1B     LPD     -0.230000        0.0000           -1   0.00000   0.00000
     37652 MEOH     2172     MEOH     C1       CD33B    2.314100       11.6110           0   -1.00000   1.30000
     37653 MEOH     2172     MEOH     DC1      DRUD    -2.454100        0.4000           0   0.00000   0.00000
     37654 MEOH     2172     MEOH     O1       OD31H    2.488300       15.5990           0   -1.02800   1.30000
     37655 MEOH     2172     MEOH     DO1      DRUD    -2.488300        0.4000           0   0.00000   0.00000
     37656 MEOH     2172     MEOH     HO1      HDP1A    0.360000        1.0080           0   0.00000   0.00000
     37657 MEOH     2172     MEOH     HO2      DUMH     0.000000        1.0080           0   0.00000   0.00000
     37658 MEOH     2172     MEOH     H1A      HDA3B    0.080000        1.0080           0   0.00000   0.00000
     37659 MEOH     2172     MEOH     H1B      HDA3B    0.080000        1.0080           0   0.00000   0.00000
     37660 MEOH     2172     MEOH     H1C      HDA3B    0.080000        1.0080           0   0.00000   0.00000
     37661 MEOH     2172     MEOH     LP1A     LPD     -0.230000        0.0000           -1   0.00000   0.00000
     37662 MEOH     2172     MEOH     LP1B     LPD     -0.230000        0.0000           -1   0.00000   0.00000
     37663 MEOH     2173     MEOH     C1       CD33B    2.314100       11.6110           0   -1.00000   1.30000
     37664 MEOH     2173     MEOH     DC1      DRUD    -2.454100        0.4000           0   0.00000   0.00000
     37665 MEOH     2173     MEOH     O1       OD31H    2.488300       15.5990           0   -1.02800   1.30000
     37666 MEOH     2173     MEOH     DO1      DRUD    -2.488300        0.4000           0   0.00000   0.00000
     37667 MEOH     2173     MEOH     HO1      HDP1A    0.360000        1.0080           0   0.00000   0.00000
     37668 MEOH     2173     MEOH     HO2      DUMH     0.000000        1.0080           0   0.00000   0.00000
     37669 MEOH     2173     MEOH     H1A      HDA3B    0.080000        1.0080           0   0.00000   0.00000
     37670 MEOH     2173     MEOH     H1B      HDA3B    0.080000        1.0080           0   0.00000   0.00000
     37671 MEOH     2173     MEOH     H1C      HDA3B    0.080000        1.0080           0   0.00000   0.00000
     37672 MEOH     2173     MEOH     LP1A     LPD     -0.230000        0.0000           -1   0.00000   0.00000
     37673 MEOH     2173     MEOH     LP1B     LPD     -0.230000        0.0000           -1   0.00000   0.00000
     37674 MEOH     2174     MEOH     C1       CD33B    2.314100       11.6110           0   -1.00000   1.30000
     37675 MEOH     2174     MEOH     DC1      DRUD    -2.454100        0.4000           0   0.00000   0.00000
     37676 MEOH     2174     MEOH     O1       OD31H    2.488300       15.5990           0   -1.02800   1.30000
     37677 MEOH     2174     MEOH     DO1      DRUD    -2.488300        0.4000           0   0.00000   0.00000
     37678 MEOH     2174     MEOH     HO1      HDP1A    0.360000        1.0080           0   0.00000   0.00000
     37679 MEOH     2174     MEOH     HO2      DUMH     0.000000        1.0080           0   0.00000   0.00000
     37680 MEOH     2174     MEOH     H1A      HDA3B    0.080000        1.0080           0   0.00000   0.00000
     37681 MEOH     2174     MEOH     H1B      HDA3B    0.080000        1.0080           0   0.00000   0.00000
     37682 MEOH     2174     MEOH     H1C      HDA3B    0.080000        1.0080           0   0.00000   0.00000
     37683 MEOH     2174     MEOH     LP1A     LPD     -0.230000        0.0000           -1   0.00000   0.00000
     37684 MEOH     2174     MEOH     LP1B     LPD     -0.230000        0.0000           -1   0.00000   0.00000
     37685 MEOH     2175     MEOH     C1       CD33B    2.314100       11.6110           0   -1.00000   1.30000
     37686 MEOH     2175     MEOH     DC1      DRUD    -2.454100        0.4000           0   0.00000   0.00000
     37687 MEOH     2175     MEOH     O1       OD31H    2.488300       15.5990           0   -1.02800   1.30000
     37688 MEOH     2175     MEOH     DO1      DRUD    -2.488300        0.4000           0   0.00000   0.00000
     37689 MEOH     2175     MEOH     HO1      HDP1A    0.360000        1.0080           0   0.00000   0.00000
     37690 MEOH     2175     MEOH     HO2      DUMH     0.000000        1.0080           0   0.00000   0.00000
     37691 MEOH     2175     MEOH     H1A      HDA3B    0.080000        1.0080           0   0.00000   0.00000
     37692 MEOH     2175     MEOH     H1B      HDA3B    0.080000        1.0080           0   0.00000   0.00000
     37693 MEOH     2175     MEOH     H1C      HDA3B    0.080000        1.0080           0   0.00000   0.00000
     37694 MEOH     2175     MEOH     LP1A     LPD     -0.230000        0.0000           -1   0.00000   0.00000
     37695 MEOH     2175     MEOH     LP1B     LPD     -0.230000        0.0000           -1   0.00000   0.00000
     37696 MEOH     2176     MEOH     C1       CD33B    2.314100       11.6110           0   -1.00000   1.30000
     37697 MEOH     2176     MEOH     DC1      DRUD    -2.454100        0.4000           0   0.00000   0.00000
     37698 MEOH     2176     MEOH     O1       OD31H    2.488300       15.5990           0   -1.02800   1.30000
     37699 MEOH     2176     MEOH     DO1      DRUD    -2.488300        0.4000           0   0.00000   0.00000
     37700 MEOH     2176     MEOH     HO1      HDP1A    0.360000        1.0080           0   0.00000   0.00000
     37701 MEOH     2176     MEOH     HO2      DUMH     0.000000        1.0080           0   0.00000   0.00000
     37702 MEOH     2176     MEOH     H1A      HDA3B    0.080000        1.0080           0   0.00000   0.00000
     37703 MEOH     2176     MEOH     H1B      HDA3B    0.080000        1.0080           0   0.00000   0.00000
     37704 MEOH     2176     MEOH     H1C      HDA3B    0.080000        1.0080           0   0.00000   0.00000
     37705 MEOH     2176     MEOH     LP1A     LPD     -0.230000        0.0000           -1   0.00000   0.00000
     37706 MEOH     2176     MEOH     LP1B     LPD     -0.230000        0.0000           -1   0.00000   0.00000
     37707 MEOH     2177     MEOH     C1       CD33B    2.314100       11.6110           0   -1.00000   1.30000
     37708 MEOH     2177     MEOH     DC1      DRUD    -2.454100        0.4000           0   0.00000   0.00000
     37709 MEOH     2177     MEOH     O1       OD31H    2.488300       15.5990           0   -1.02800   1.30000
     37710 MEOH     2177     MEOH     DO1      DRUD    -2.488300        0.4000           0   0.00000   0.00000
     37711 MEOH     2177     MEOH     HO1      HDP1A    0.360000        1.0080           0   0.00000   0.00000
     37712 MEOH     2177     MEOH     HO2      DUMH     0.000000        1.0080           0   0.00000   0.00000
     37713 MEOH     2177     MEOH     H1A      HDA3B    0.080000        1.0080           0   0.00000   0.00000
     37714 MEOH     2177     MEOH     H1B      HDA3B    0.080000        1.0080           0   0.00000   0.00000
     37715 MEOH     2177     MEOH     H1C      HDA3B    0.080000        1.0080           0   0.00000   0.00000
     37716 MEOH     2177     MEOH     LP1A     LPD     -0.230000        0.0000           -1   0.00000   0.00000
     37717 MEOH     2177     MEOH     LP1B     LPD     -0.230000        0.0000           -1   0.00000   0.00000
     37718 MEOH     2178     MEOH     C1       CD33B    2.314100       11.6110           0   -1.00000   1.30000
     37719 MEOH     2178     MEOH     DC1      DRUD    -2.454100        0.4000           0   0.00000   0.00000
     37720 MEOH     2178     MEOH     O1       OD31H    2.488300       15.5990           0   -1.02800   1.30000
     37721 MEOH     2178     MEOH     DO1      DRUD    -2.488300        0.4000           0   0.00000   0.00000
     37722 MEOH     2178     MEOH     HO1      HDP1A    0.360000        1.0080           0   0.00000   0.00000
     37723 MEOH     2178     MEOH     HO2      DUMH     0.000000        1.0080           0   0.00000   0.00000
     37724 MEOH     2178     MEOH     H1A      HDA3B    0.080000        1.0080           0   0.00000   0.00000
     37725 MEOH     2178     MEOH     H1B      HDA3B    0.080000        1.0080           0   0.00000   0.00000
     37726 MEOH     2178     MEOH     H1C      HDA3B    0.080000        1.0080           0   0.00000   0.00000
     37727 MEOH     2178     MEOH     LP1A     LPD     -0.230000        0.0000           -1   0.00000   0.00000
     37728 MEOH     2178     MEOH     LP1B     LPD     -0.230000        0.0000           -1   0.00000   0.00000
     37729 MEOH     2179     MEOH     C1       CD33B    2.314100       11.6110           0   -1.00000   1.30000
     37730 MEOH     2179     MEOH     DC1      DRUD    -2.454100        0.4000           0   0.00000   0.00000
     37731 MEOH     2179     MEOH     O1       OD31H    2.488300       15.5990           0   -1.02800   1.30000
     37732 MEOH     2179     MEOH     DO1      DRUD    -2.488300        0.4000           0   0.00000   0.00000
     37733 MEOH     2179     MEOH     HO1      HDP1A    0.360000        1.0080           0   0.00000   0.00000
     37734 MEOH     2179     MEOH     HO2      DUMH     0.000000        1.0080           0   0.00000   0.00000
     37735 MEOH     2179     MEOH     H1A      HDA3B    0.080000        1.0080           0   0.00000   0.00000
     37736 MEOH     2179     MEOH     H1B      HDA3B    0.080000        1.0080           0   0.00000   0.00000
     37737 MEOH     2179     MEOH     H1C      HDA3B    0.080000        1.0080           0   0.00000   0.00000
     37738 MEOH     2179     MEOH     LP1A     LPD     -0.230000        0.0000           -1   0.00000   0.00000
     37739 MEOH     2179     MEOH     LP1B     LPD     -0.230000        0.0000           -1   0.00000   0.00000
     37740 MEOH     2180     MEOH     C1       CD33B    2.314100       11.6110           0   -1.00000   1.30000
     37741 MEOH     2180     MEOH     DC1      DRUD    -2.454100        0.4000           0   0.00000   0.00000
     37742 MEOH     2180     MEOH     O1       OD31H    2.488300       15.5990           0   -1.02800   1.30000
     37743 MEOH     2180     MEOH     DO1      DRUD    -2.488300        0.4000           0   0.00000   0.00000
     37744 MEOH     2180     MEOH     HO1      HDP1A    0.360000        1.0080           0   0.00000   0.00000
     37745 MEOH     2180     MEOH     HO2      DUMH     0.000000        1.0080           0   0.00000   0.00000
     37746 MEOH     2180     MEOH     H1A      HDA3B    0.080000        1.0080           0   0.00000   0.00000
     37747 MEOH     2180     MEOH     H1B      HDA3B    0.080000        1.0080           0   0.00000   0.00000
     37748 MEOH     2180     MEOH     H1C      HDA3B    0.080000        1.0080           0   0.00000   0.00000
     37749 MEOH     2180     MEOH     LP1A     LPD     -0.230000        0.0000           -1   0.00000   0.00000
     37750 MEOH     2180     MEOH     LP1B     LPD     -0.230000        0.0000           -1   0.00000   0.00000
     37751 MEOH     2181     MEOH     C1       CD33B    2.314100       11.6110           0   -1.00000   1.30000
     37752 MEOH     2181     MEOH     DC1      DRUD    -2.454100        0.4000           0   0.00000   0.00000
     37753 MEOH     2181     MEOH     O1       OD31H    2.488300       15.5990           0   -1.02800   1.30000
     37754 MEOH     2181     MEOH     DO1      DRUD    -2.488300        0.4000           0   0.00000   0.00000
     37755 MEOH     2181     MEOH     HO1      HDP1A    0.360000        1.0080           0   0.00000   0.00000
     37756 MEOH     2181     MEOH     HO2      DUMH     0.000000        1.0080           0   0.00000   0.00000
     37757 MEOH     2181     MEOH     H1A      HDA3B    0.080000        1.0080           0   0.00000   0.00000
     37758 MEOH     2181     MEOH     H1B      HDA3B    0.080000        1.0080           0   0.00000   0.00000
     37759 MEOH     2181     MEOH     H1C      HDA3B    0.080000        1.0080           0   0.00000   0.00000
     37760 MEOH     2181     MEOH     LP1A     LPD     -0.230000        0.0000           -1   0.00000   0.00000
     37761 MEOH     2181     MEOH     LP1B     LPD     -0.230000        0.0000           -1   0.00000   0.00000
     37762 MEOH     2182     MEOH     C1       CD33B    2.314100       11.6110           0   -1.00000   1.30000
     37763 MEOH     2182     MEOH     DC1      DRUD    -2.454100        0.4000           0   0.00000   0.00000
     37764 MEOH     2182     MEOH     O1       OD31H    2.488300       15.5990           0   -1.02800   1.30000
     37765 MEOH     2182     MEOH     DO1      DRUD    -2.488300        0.4000           0   0.00000   0.00000
     37766 MEOH     2182     MEOH     HO1      HDP1A    0.360000        1.0080           0   0.00000   0.00000
     37767 MEOH     2182     MEOH     HO2      DUMH     0.000000        1.0080           0   0.00000   0.00000
     37768 MEOH     2182     MEOH     H1A      HDA3B    0.080000        1.0080           0   0.00000   0.00000
     37769 MEOH     2182     MEOH     H1B      HDA3B    0.080000        1.0080           0   0.00000   0.00000
     37770 MEOH     2182     MEOH     H1C      HDA3B    0.080000        1.0080           0   0.00000   0.00000
     37771 MEOH     2182     MEOH     LP1A     LPD     -0.230000        0.0000           -1   0.00000   0.00000
     37772 MEOH     2182     MEOH     LP1B     LPD     -0.230000        0.0000           -1   0.00000   0.00000
     37773 MEOH     2183     MEOH     C1       CD33B    2.314100       11.6110           0   -1.00000   1.30000
     37774 MEOH     2183     MEOH     DC1      DRUD    -2.454100        0.4000           0   0.00000   0.00000
     37775 MEOH     2183     MEOH     O1       OD31H    2.488300       15.5990           0   -1.02800   1.30000
     37776 MEOH     2183     MEOH     DO1      DRUD    -2.488300        0.4000           0   0.00000   0.00000
     37777 MEOH     2183     MEOH     HO1      HDP1A    0.360000        1.0080           0   0.00000   0.00000
     37778 MEOH     2183     MEOH     HO2      DUMH     0.000000        1.0080           0   0.00000   0.00000
     37779 MEOH     2183     MEOH     H1A      HDA3B    0.080000        1.0080           0   0.00000   0.00000
     37780 MEOH     2183     MEOH     H1B      HDA3B    0.080000        1.0080           0   0.00000   0.00000
     37781 MEOH     2183     MEOH     H1C      HDA3B    0.080000        1.0080           0   0.00000   0.00000
     37782 MEOH     2183     MEOH     LP1A     LPD     -0.230000        0.0000           -1   0.00000   0.00000
     37783 MEOH     2183     MEOH     LP1B     LPD     -0.230000        0.0000           -1   0.00000   0.00000
     37784 MEOH     2184     MEOH     C1       CD33B    2.314100       11.6110           0   -1.00000   1.30000
     37785 MEOH     2184     MEOH     DC1      DRUD    -2.454100        0.4000           0   0.00000   0.00000
     37786 MEOH     2184     MEOH     O1       OD31H    2.488300       15.5990           0   -1.02800   1.30000
     37787 MEOH     2184     MEOH     DO1      DRUD    -2.488300        0.4000           0   0.00000   0.00000
     37788 MEOH     2184     MEOH     HO1      HDP1A    0.360000        1.0080           0   0.00000   0.00000
     37789 MEOH     2184     MEOH     HO2      DUMH     0.000000        1.0080           0   0.00000   0.00000
     37790 MEOH     2184     MEOH     H1A      HDA3B    0.080000        1.0080           0   0.00000   0.00000
     37791 MEOH     2184     MEOH     H1B      HDA3B    0.080000        1.0080           0   0.00000   0.00000
     37792 MEOH     2184     MEOH     H1C      HDA3B    0.080000        1.0080           0   0.00000   0.00000
     37793 MEOH     2184     MEOH     LP1A     LPD     -0.230000        0.0000           -1   0.00000   0.00000
     37794 MEOH     2184     MEOH     LP1B     LPD     -0.230000        0.0000           -1   0.00000   0.00000
     37795 MEOH     2185     MEOH     C1       CD33B    2.314100       11.6110           0   -1.00000   1.30000
     37796 MEOH     2185     MEOH     DC1      DRUD    -2.454100        0.4000           0   0.00000   0.00000
     37797 MEOH     2185     MEOH     O1       OD31H    2.488300       15.5990           0   -1.02800   1.30000
     37798 MEOH     2185     MEOH     DO1      DRUD    -2.488300        0.4000           0   0.00000   0.00000
     37799 MEOH     2185     MEOH     HO1      HDP1A    0.360000        1.0080           0   0.00000   0.00000
     37800 MEOH     2185     MEOH     HO2      DUMH     0.000000        1.0080           0   0.00000   0.00000
     37801 MEOH     2185     MEOH     H1A      HDA3B    0.080000        1.0080           0   0.00000   0.00000
     37802 MEOH     2185     MEOH     H1B      HDA3B    0.080000        1.0080           0   0.00000   0.00000
     37803 MEOH     2185     MEOH     H1C      HDA3B    0.080000        1.0080           0   0.00000   0.00000
     37804 MEOH     2185     MEOH     LP1A     LPD     -0.230000        0.0000           -1   0.00000   0.00000
     37805 MEOH     2185     MEOH     LP1B     LPD     -0.230000        0.0000           -1   0.00000   0.00000
     37806 MEOH     2186     MEOH     C1       CD33B    2.314100       11.6110           0   -1.00000   1.30000
     37807 MEOH     2186     MEOH     DC1      DRUD    -2.454100        0.4000           0   0.00000   0.00000
     37808 MEOH     2186     MEOH     O1       OD31H    2.488300       15.5990           0   -1.02800   1.30000
     37809 MEOH     2186     MEOH     DO1      DRUD    -2.488300        0.4000           0   0.00000   0.00000
     37810 MEOH     2186     MEOH     HO1      HDP1A    0.360000        1.0080           0   0.00000   0.00000
     37811 MEOH     2186     MEOH     HO2      DUMH     0.000000        1.0080           0   0.00000   0.00000
     37812 MEOH     2186     MEOH     H1A      HDA3B    0.080000        1.0080           0   0.00000   0.00000
     37813 MEOH     2186     MEOH     H1B      HDA3B    0.080000        1.0080           0   0.00000   0.00000
     37814 MEOH     2186     MEOH     H1C      HDA3B    0.080000        1.0080           0   0.00000   0.00000
     37815 MEOH     2186     MEOH     LP1A     LPD     -0.230000        0.0000           -1   0.00000   0.00000
     37816 MEOH     2186     MEOH     LP1B     LPD     -0.230000        0.0000           -1   0.00000   0.00000
     37817 MEOH     2187     MEOH     C1       CD33B    2.314100       11.6110           0   -1.00000   1.30000
     37818 MEOH     2187     MEOH     DC1      DRUD    -2.454100        0.4000           0   0.00000   0.00000
     37819 MEOH     2187     MEOH     O1       OD31H    2.488300       15.5990           0   -1.02800   1.30000
     37820 MEOH     2187     MEOH     DO1      DRUD    -2.488300        0.4000           0   0.00000   0.00000
     37821 MEOH     2187     MEOH     HO1      HDP1A    0.360000        1.0080           0   0.00000   0.00000
     37822 MEOH     2187     MEOH     HO2      DUMH     0.000000        1.0080           0   0.00000   0.00000
     37823 MEOH     2187     MEOH     H1A      HDA3B    0.080000        1.0080           0   0.00000   0.00000
     37824 MEOH     2187     MEOH     H1B      HDA3B    0.080000        1.0080           0   0.00000   0.00000
     37825 MEOH     2187     MEOH     H1C      HDA3B    0.080000        1.0080           0   0.00000   0.00000
     37826 MEOH     2187     MEOH     LP1A     LPD     -0.230000        0.0000           -1   0.00000   0.00000
     37827 MEOH     2187     MEOH     LP1B     LPD     -0.230000        0.0000           -1   0.00000   0.00000
     37828 MEOH     2188     MEOH     C1       CD33B    2.314100       11.6110           0   -1.00000   1.30000
     37829 MEOH     2188     MEOH     DC1      DRUD    -2.454100        0.4000           0   0.00000   0.00000
     37830 MEOH     2188     MEOH     O1       OD31H    2.488300       15.5990           0   -1.02800   1.30000
     37831 MEOH     2188     MEOH     DO1      DRUD    -2.488300        0.4000           0   0.00000   0.00000
     37832 MEOH     2188     MEOH     HO1      HDP1A    0.360000        1.0080           0   0.00000   0.00000
     37833 MEOH     2188     MEOH     HO2      DUMH     0.000000        1.0080           0   0.00000   0.00000
     37834 MEOH     2188     MEOH     H1A      HDA3B    0.080000        1.0080           0   0.00000   0.00000
     37835 MEOH     2188     MEOH     H1B      HDA3B    0.080000        1.0080           0   0.00000   0.00000
     37836 MEOH     2188     MEOH     H1C      HDA3B    0.080000        1.0080           0   0.00000   0.00000
     37837 MEOH     2188     MEOH     LP1A     LPD     -0.230000        0.0000           -1   0.00000   0.00000
     37838 MEOH     2188     MEOH     LP1B     LPD     -0.230000        0.0000           -1   0.00000   0.00000
     37839 MEOH     2189     MEOH     C1       CD33B    2.314100       11.6110           0   -1.00000   1.30000
     37840 MEOH     2189     MEOH     DC1      DRUD    -2.454100        0.4000           0   0.00000   0.00000
     37841 MEOH     2189     MEOH     O1       OD31H    2.488300       15.5990           0   -1.02800   1.30000
     37842 MEOH     2189     MEOH     DO1      DRUD    -2.488300        0.4000           0   0.00000   0.00000
     37843 MEOH     2189     MEOH     HO1      HDP1A    0.360000        1.0080           0   0.00000   0.00000
     37844 MEOH     2189     MEOH     HO2      DUMH     0.000000        1.0080           0   0.00000   0.00000
     37845 MEOH     2189     MEOH     H1A      HDA3B    0.080000        1.0080           0   0.00000   0.00000
     37846 MEOH     2189     MEOH     H1B      HDA3B    0.080000        1.0080           0   0.00000   0.00000
     37847 MEOH     2189     MEOH     H1C      HDA3B    0.080000        1.0080           0   0.00000   0.00000
     37848 MEOH     2189     MEOH     LP1A     LPD     -0.230000        0.0000           -1   0.00000   0.00000
     37849 MEOH     2189     MEOH     LP1B     LPD     -0.230000        0.0000           -1   0.00000   0.00000
     37850 MEOH     2190     MEOH     C1       CD33B    2.314100       11.6110           0   -1.00000   1.30000
     37851 MEOH     2190     MEOH     DC1      DRUD    -2.454100        0.4000           0   0.00000   0.00000
     37852 MEOH     2190     MEOH     O1       OD31H    2.488300       15.5990           0   -1.02800   1.30000
     37853 MEOH     2190     MEOH     DO1      DRUD    -2.488300        0.4000           0   0.00000   0.00000
     37854 MEOH     2190     MEOH     HO1      HDP1A    0.360000        1.0080           0   0.00000   0.00000
     37855 MEOH     2190     MEOH     HO2      DUMH     0.000000        1.0080           0   0.00000   0.00000
     37856 MEOH     2190     MEOH     H1A      HDA3B    0.080000        1.0080           0   0.00000   0.00000
     37857 MEOH     2190     MEOH     H1B      HDA3B    0.080000        1.0080           0   0.00000   0.00000
     37858 MEOH     2190     MEOH     H1C      HDA3B    0.080000        1.0080           0   0.00000   0.00000
     37859 MEOH     2190     MEOH     LP1A     LPD     -0.230000        0.0000           -1   0.00000   0.00000
     37860 MEOH     2190     MEOH     LP1B     LPD     -0.230000        0.0000           -1   0.00000   0.00000
     37861 MEOH     2191     MEOH     C1       CD33B    2.314100       11.6110           0   -1.00000   1.30000
     37862 MEOH     2191     MEOH     DC1      DRUD    -2.454100        0.4000           0   0.00000   0.00000
     37863 MEOH     2191     MEOH     O1       OD31H    2.488300       15.5990           0   -1.02800   1.30000
     37864 MEOH     2191     MEOH     DO1      DRUD    -2.488300        0.4000           0   0.00000   0.00000
     37865 MEOH     2191     MEOH     HO1      HDP1A    0.360000        1.0080           0   0.00000   0.00000
     37866 MEOH     2191     MEOH     HO2      DUMH     0.000000        1.0080           0   0.00000   0.00000
     37867 MEOH     2191     MEOH     H1A      HDA3B    0.080000        1.0080           0   0.00000   0.00000
     37868 MEOH     2191     MEOH     H1B      HDA3B    0.080000        1.0080           0   0.00000   0.00000
     37869 MEOH     2191     MEOH     H1C      HDA3B    0.080000        1.0080           0   0.00000   0.00000
     37870 MEOH     2191     MEOH     LP1A     LPD     -0.230000        0.0000           -1   0.00000   0.00000
     37871 MEOH     2191     MEOH     LP1B     LPD     -0.230000        0.0000           -1   0.00000   0.00000
     37872 MEOH     2192     MEOH     C1       CD33B    2.314100       11.6110           0   -1.00000   1.30000
     37873 MEOH     2192     MEOH     DC1      DRUD    -2.454100        0.4000           0   0.00000   0.00000
     37874 MEOH     2192     MEOH     O1       OD31H    2.488300       15.5990           0   -1.02800   1.30000
     37875 MEOH     2192     MEOH     DO1      DRUD    -2.488300        0.4000           0   0.00000   0.00000
     37876 MEOH     2192     MEOH     HO1      HDP1A    0.360000        1.0080           0   0.00000   0.00000
     37877 MEOH     2192     MEOH     HO2      DUMH     0.000000        1.0080           0   0.00000   0.00000
     37878 MEOH     2192     MEOH     H1A      HDA3B    0.080000        1.0080           0   0.00000   0.00000
     37879 MEOH     2192     MEOH     H1B      HDA3B    0.080000        1.0080           0   0.00000   0.00000
     37880 MEOH     2192     MEOH     H1C      HDA3B    0.080000        1.0080           0   0.00000   0.00000
     37881 MEOH     2192     MEOH     LP1A     LPD     -0.230000        0.0000           -1   0.00000   0.00000
     37882 MEOH     2192     MEOH     LP1B     LPD     -0.230000        0.0000           -1   0.00000   0.00000
     37883 MEOH     2193     MEOH     C1       CD33B    2.314100       11.6110           0   -1.00000   1.30000
     37884 MEOH     2193     MEOH     DC1      DRUD    -2.454100        0.4000           0   0.00000   0.00000
     37885 MEOH     2193     MEOH     O1       OD31H    2.488300       15.5990           0   -1.02800   1.30000
     37886 MEOH     2193     MEOH     DO1      DRUD    -2.488300        0.4000           0   0.00000   0.00000
     37887 MEOH     2193     MEOH     HO1      HDP1A    0.360000        1.0080           0   0.00000   0.00000
     37888 MEOH     2193     MEOH     HO2      DUMH     0.000000        1.0080           0   0.00000   0.00000
     37889 MEOH     2193     MEOH     H1A      HDA3B    0.080000        1.0080           0   0.00000   0.00000
     37890 MEOH     2193     MEOH     H1B      HDA3B    0.080000        1.0080           0   0.00000   0.00000
     37891 MEOH     2193     MEOH     H1C      HDA3B    0.080000        1.0080           0   0.00000   0.00000
     37892 MEOH     2193     MEOH     LP1A     LPD     -0.230000        0.0000           -1   0.00000   0.00000
     37893 MEOH     2193     MEOH     LP1B     LPD     -0.230000        0.0000           -1   0.00000   0.00000
     37894 MEOH     2194     MEOH     C1       CD33B    2.314100       11.6110           0   -1.00000   1.30000
     37895 MEOH     2194     MEOH     DC1      DRUD    -2.454100        0.4000           0   0.00000   0.00000
     37896 MEOH     2194     MEOH     O1       OD31H    2.488300       15.5990           0   -1.02800   1.30000
     37897 MEOH     2194     MEOH     DO1      DRUD    -2.488300        0.4000           0   0.00000   0.00000
     37898 MEOH     2194     MEOH     HO1      HDP1A    0.360000        1.0080           0   0.00000   0.00000
     37899 MEOH     2194     MEOH     HO2      DUMH     0.000000        1.0080           0   0.00000   0.00000
     37900 MEOH     2194     MEOH     H1A      HDA3B    0.080000        1.0080           0   0.00000   0.00000
     37901 MEOH     2194     MEOH     H1B      HDA3B    0.080000        1.0080           0   0.00000   0.00000
     37902 MEOH     2194     MEOH     H1C      HDA3B    0.080000        1.0080           0   0.00000   0.00000
     37903 MEOH     2194     MEOH     LP1A     LPD     -0.230000        0.0000           -1   0.00000   0.00000
     37904 MEOH     2194     MEOH     LP1B     LPD     -0.230000        0.0000           -1   0.00000   0.00000
     37905 MEOH     2195     MEOH     C1       CD33B    2.314100       11.6110           0   -1.00000   1.30000
     37906 MEOH     2195     MEOH     DC1      DRUD    -2.454100        0.4000           0   0.00000   0.00000
     37907 MEOH     2195     MEOH     O1       OD31H    2.488300       15.5990           0   -1.02800   1.30000
     37908 MEOH     2195     MEOH     DO1      DRUD    -2.488300        0.4000           0   0.00000   0.00000
     37909 MEOH     2195     MEOH     HO1      HDP1A    0.360000        1.0080           0   0.00000   0.00000
     37910 MEOH     2195     MEOH     HO2      DUMH     0.000000        1.0080           0   0.00000   0.00000
     37911 MEOH     2195     MEOH     H1A      HDA3B    0.080000        1.0080           0   0.00000   0.00000
     37912 MEOH     2195     MEOH     H1B      HDA3B    0.080000        1.0080           0   0.00000   0.00000
     37913 MEOH     2195     MEOH     H1C      HDA3B    0.080000        1.0080           0   0.00000   0.00000
     37914 MEOH     2195     MEOH     LP1A     LPD     -0.230000        0.0000           -1   0.00000   0.00000
     37915 MEOH     2195     MEOH     LP1B     LPD     -0.230000        0.0000           -1   0.00000   0.00000
     37916 MEOH     2196     MEOH     C1       CD33B    2.314100       11.6110           0   -1.00000   1.30000
     37917 MEOH     2196     MEOH     DC1      DRUD    -2.454100        0.4000           0   0.00000   0.00000
     37918 MEOH     2196     MEOH     O1       OD31H    2.488300       15.5990           0   -1.02800   1.30000
     37919 MEOH     2196     MEOH     DO1      DRUD    -2.488300        0.4000           0   0.00000   0.00000
     37920 MEOH     2196     MEOH     HO1      HDP1A    0.360000        1.0080           0   0.00000   0.00000
     37921 MEOH     2196     MEOH     HO2      DUMH     0.000000        1.0080           0   0.00000   0.00000
     37922 MEOH     2196     MEOH     H1A      HDA3B    0.080000        1.0080           0   0.00000   0.00000
     37923 MEOH     2196     MEOH     H1B      HDA3B    0.080000        1.0080           0   0.00000   0.00000
     37924 MEOH     2196     MEOH     H1C      HDA3B    0.080000        1.0080           0   0.00000   0.00000
     37925 MEOH     2196     MEOH     LP1A     LPD     -0.230000        0.0000           -1   0.00000   0.00000
     37926 MEOH     2196     MEOH     LP1B     LPD     -0.230000        0.0000           -1   0.00000   0.00000
     37927 MEOH     2197     MEOH     C1       CD33B    2.314100       11.6110           0   -1.00000   1.30000
     37928 MEOH     2197     MEOH     DC1      DRUD    -2.454100        0.4000           0   0.00000   0.00000
     37929 MEOH     2197     MEOH     O1       OD31H    2.488300       15.5990           0   -1.02800   1.30000
     37930 MEOH     2197     MEOH     DO1      DRUD    -2.488300        0.4000           0   0.00000   0.00000
     37931 MEOH     2197     MEOH     HO1      HDP1A    0.360000        1.0080           0   0.00000   0.00000
     37932 MEOH     2197     MEOH     HO2      DUMH     0.000000        1.0080           0   0.00000   0.00000
     37933 MEOH     2197     MEOH     H1A      HDA3B    0.080000        1.0080           0   0.00000   0.00000
     37934 MEOH     2197     MEOH     H1B      HDA3B    0.080000        1.0080           0   0.00000   0.00000
     37935 MEOH     2197     MEOH     H1C      HDA3B    0.080000        1.0080           0   0.00000   0.00000
     37936 MEOH     2197     MEOH     LP1A     LPD     -0.230000        0.0000           -1   0.00000   0.00000
     37937 MEOH     2197     MEOH     LP1B     LPD     -0.230000        0.0000           -1   0.00000   0.00000
     37938 MEOH     2198     MEOH     C1       CD33B    2.314100       11.6110           0   -1.00000   1.30000
     37939 MEOH     2198     MEOH     DC1      DRUD    -2.454100        0.4000           0   0.00000   0.00000
     37940 MEOH     2198     MEOH     O1       OD31H    2.488300       15.5990           0   -1.02800   1.30000
     37941 MEOH     2198     MEOH     DO1      DRUD    -2.488300        0.4000           0   0.00000   0.00000
     37942 MEOH     2198     MEOH     HO1      HDP1A    0.360000        1.0080           0   0.00000   0.00000
     37943 MEOH     2198     MEOH     HO2      DUMH     0.000000        1.0080           0   0.00000   0.00000
     37944 MEOH     2198     MEOH     H1A      HDA3B    0.080000        1.0080           0   0.00000   0.00000
     37945 MEOH     2198     MEOH     H1B      HDA3B    0.080000        1.0080           0   0.00000   0.00000
     37946 MEOH     2198     MEOH     H1C      HDA3B    0.080000        1.0080           0   0.00000   0.00000
     37947 MEOH     2198     MEOH     LP1A     LPD     -0.230000        0.0000           -1   0.00000   0.00000
     37948 MEOH     2198     MEOH     LP1B     LPD     -0.230000        0.0000           -1   0.00000   0.00000
     37949 MEOH     2199     MEOH     C1       CD33B    2.314100       11.6110           0   -1.00000   1.30000
     37950 MEOH     2199     MEOH     DC1      DRUD    -2.454100        0.4000           0   0.00000   0.00000
     37951 MEOH     2199     MEOH     O1       OD31H    2.488300       15.5990           0   -1.02800   1.30000
     37952 MEOH     2199     MEOH     DO1      DRUD    -2.488300        0.4000           0   0.00000   0.00000
     37953 MEOH     2199     MEOH     HO1      HDP1A    0.360000        1.0080           0   0.00000   0.00000
     37954 MEOH     2199     MEOH     HO2      DUMH     0.000000        1.0080           0   0.00000   0.00000
     37955 MEOH     2199     MEOH     H1A      HDA3B    0.080000        1.0080           0   0.00000   0.00000
     37956 MEOH     2199     MEOH     H1B      HDA3B    0.080000        1.0080           0   0.00000   0.00000
     37957 MEOH     2199     MEOH     H1C      HDA3B    0.080000        1.0080           0   0.00000   0.00000
     37958 MEOH     2199     MEOH     LP1A     LPD     -0.230000        0.0000           -1   0.00000   0.00000
     37959 MEOH     2199     MEOH     LP1B     LPD     -0.230000        0.0000           -1   0.00000   0.00000
     37960 MEOH     2200     MEOH     C1       CD33B    2.314100       11.6110           0   -1.00000   1.30000
     37961 MEOH     2200     MEOH     DC1      DRUD    -2.454100        0.4000           0   0.00000   0.00000
     37962 MEOH     2200     MEOH     O1       OD31H    2.488300       15.5990           0   -1.02800   1.30000
     37963 MEOH     2200     MEOH     DO1      DRUD    -2.488300        0.4000           0   0.00000   0.00000
     37964 MEOH     2200     MEOH     HO1      HDP1A    0.360000        1.0080           0   0.00000   0.00000
     37965 MEOH     2200     MEOH     HO2      DUMH     0.000000        1.0080           0   0.00000   0.00000
     37966 MEOH     2200     MEOH     H1A      HDA3B    0.080000        1.0080           0   0.00000   0.00000
     37967 MEOH     2200     MEOH     H1B      HDA3B    0.080000        1.0080           0   0.00000   0.00000
     37968 MEOH     2200     MEOH     H1C      HDA3B    0.080000        1.0080           0   0.00000   0.00000
     37969 MEOH     2200     MEOH     LP1A     LPD     -0.230000        0.0000           -1   0.00000   0.00000
     37970 MEOH     2200     MEOH     LP1B     LPD     -0.230000        0.0000           -1   0.00000   0.00000
     37971 MEOH     2201     MEOH     C1       CD33B    2.314100       11.6110           0   -1.00000   1.30000
     37972 MEOH     2201     MEOH     DC1      DRUD    -2.454100        0.4000           0   0.00000   0.00000
     37973 MEOH     2201     MEOH     O1       OD31H    2.488300       15.5990           0   -1.02800   1.30000
     37974 MEOH     2201     MEOH     DO1      DRUD    -2.488300        0.4000           0   0.00000   0.00000
     37975 MEOH     2201     MEOH     HO1      HDP1A    0.360000        1.0080           0   0.00000   0.00000
     37976 MEOH     2201     MEOH     HO2      DUMH     0.000000        1.0080           0   0.00000   0.00000
     37977 MEOH     2201     MEOH     H1A      HDA3B    0.080000        1.0080           0   0.00000   0.00000
     37978 MEOH     2201     MEOH     H1B      HDA3B    0.080000        1.0080           0   0.00000   0.00000
     37979 MEOH     2201     MEOH     H1C      HDA3B    0.080000        1.0080           0   0.00000   0.00000
     37980 MEOH     2201     MEOH     LP1A     LPD     -0.230000        0.0000           -1   0.00000   0.00000
     37981 MEOH     2201     MEOH     LP1B     LPD     -0.230000        0.0000           -1   0.00000   0.00000
     37982 MEOH     2202     MEOH     C1       CD33B    2.314100       11.6110           0   -1.00000   1.30000
     37983 MEOH     2202     MEOH     DC1      DRUD    -2.454100        0.4000           0   0.00000   0.00000
     37984 MEOH     2202     MEOH     O1       OD31H    2.488300       15.5990           0   -1.02800   1.30000
     37985 MEOH     2202     MEOH     DO1      DRUD    -2.488300        0.4000           0   0.00000   0.00000
     37986 MEOH     2202     MEOH     HO1      HDP1A    0.360000        1.0080           0   0.00000   0.00000
     37987 MEOH     2202     MEOH     HO2      DUMH     0.000000        1.0080           0   0.00000   0.00000
     37988 MEOH     2202     MEOH     H1A      HDA3B    0.080000        1.0080           0   0.00000   0.00000
     37989 MEOH     2202     MEOH     H1B      HDA3B    0.080000        1.0080           0   0.00000   0.00000
     37990 MEOH     2202     MEOH     H1C      HDA3B    0.080000        1.0080           0   0.00000   0.00000
     37991 MEOH     2202     MEOH     LP1A     LPD     -0.230000        0.0000           -1   0.00000   0.00000
     37992 MEOH     2202     MEOH     LP1B     LPD     -0.230000        0.0000           -1   0.00000   0.00000
     37993 MEOH     2203     MEOH     C1       CD33B    2.314100       11.6110           0   -1.00000   1.30000
     37994 MEOH     2203     MEOH     DC1      DRUD    -2.454100        0.4000           0   0.00000   0.00000
     37995 MEOH     2203     MEOH     O1       OD31H    2.488300       15.5990           0   -1.02800   1.30000
     37996 MEOH     2203     MEOH     DO1      DRUD    -2.488300        0.4000           0   0.00000   0.00000
     37997 MEOH     2203     MEOH     HO1      HDP1A    0.360000        1.0080           0   0.00000   0.00000
     37998 MEOH     2203     MEOH     HO2      DUMH     0.000000        1.0080           0   0.00000   0.00000
     37999 MEOH     2203     MEOH     H1A      HDA3B    0.080000        1.0080           0   0.00000   0.00000
     38000 MEOH     2203     MEOH     H1B      HDA3B    0.080000        1.0080           0   0.00000   0.00000
     38001 MEOH     2203     MEOH     H1C      HDA3B    0.080000        1.0080           0   0.00000   0.00000
     38002 MEOH     2203     MEOH     LP1A     LPD     -0.230000        0.0000           -1   0.00000   0.00000
     38003 MEOH     2203     MEOH     LP1B     LPD     -0.230000        0.0000           -1   0.00000   0.00000
     38004 MEOH     2204     MEOH     C1       CD33B    2.314100       11.6110           0   -1.00000   1.30000
     38005 MEOH     2204     MEOH     DC1      DRUD    -2.454100        0.4000           0   0.00000   0.00000
     38006 MEOH     2204     MEOH     O1       OD31H    2.488300       15.5990           0   -1.02800   1.30000
     38007 MEOH     2204     MEOH     DO1      DRUD    -2.488300        0.4000           0   0.00000   0.00000
     38008 MEOH     2204     MEOH     HO1      HDP1A    0.360000        1.0080           0   0.00000   0.00000
     38009 MEOH     2204     MEOH     HO2      DUMH     0.000000        1.0080           0   0.00000   0.00000
     38010 MEOH     2204     MEOH     H1A      HDA3B    0.080000        1.0080           0   0.00000   0.00000
     38011 MEOH     2204     MEOH     H1B      HDA3B    0.080000        1.0080           0   0.00000   0.00000
     38012 MEOH     2204     MEOH     H1C      HDA3B    0.080000        1.0080           0   0.00000   0.00000
     38013 MEOH     2204     MEOH     LP1A     LPD     -0.230000        0.0000           -1   0.00000   0.00000
     38014 MEOH     2204     MEOH     LP1B     LPD     -0.230000        0.0000           -1   0.00000   0.00000
     38015 MEOH     2205     MEOH     C1       CD33B    2.314100       11.6110           0   -1.00000   1.30000
     38016 MEOH     2205     MEOH     DC1      DRUD    -2.454100        0.4000           0   0.00000   0.00000
     38017 MEOH     2205     MEOH     O1       OD31H    2.488300       15.5990           0   -1.02800   1.30000
     38018 MEOH     2205     MEOH     DO1      DRUD    -2.488300        0.4000           0   0.00000   0.00000
     38019 MEOH     2205     MEOH     HO1      HDP1A    0.360000        1.0080           0   0.00000   0.00000
     38020 MEOH     2205     MEOH     HO2      DUMH     0.000000        1.0080           0   0.00000   0.00000
     38021 MEOH     2205     MEOH     H1A      HDA3B    0.080000        1.0080           0   0.00000   0.00000
     38022 MEOH     2205     MEOH     H1B      HDA3B    0.080000        1.0080           0   0.00000   0.00000
     38023 MEOH     2205     MEOH     H1C      HDA3B    0.080000        1.0080           0   0.00000   0.00000
     38024 MEOH     2205     MEOH     LP1A     LPD     -0.230000        0.0000           -1   0.00000   0.00000
     38025 MEOH     2205     MEOH     LP1B     LPD     -0.230000        0.0000           -1   0.00000   0.00000
     38026 MEOH     2206     MEOH     C1       CD33B    2.314100       11.6110           0   -1.00000   1.30000
     38027 MEOH     2206     MEOH     DC1      DRUD    -2.454100        0.4000           0   0.00000   0.00000
     38028 MEOH     2206     MEOH     O1       OD31H    2.488300       15.5990           0   -1.02800   1.30000
     38029 MEOH     2206     MEOH     DO1      DRUD    -2.488300        0.4000           0   0.00000   0.00000
     38030 MEOH     2206     MEOH     HO1      HDP1A    0.360000        1.0080           0   0.00000   0.00000
     38031 MEOH     2206     MEOH     HO2      DUMH     0.000000        1.0080           0   0.00000   0.00000
     38032 MEOH     2206     MEOH     H1A      HDA3B    0.080000        1.0080           0   0.00000   0.00000
     38033 MEOH     2206     MEOH     H1B      HDA3B    0.080000        1.0080           0   0.00000   0.00000
     38034 MEOH     2206     MEOH     H1C      HDA3B    0.080000        1.0080           0   0.00000   0.00000
     38035 MEOH     2206     MEOH     LP1A     LPD     -0.230000        0.0000           -1   0.00000   0.00000
     38036 MEOH     2206     MEOH     LP1B     LPD     -0.230000        0.0000           -1   0.00000   0.00000
     38037 MEOH     2207     MEOH     C1       CD33B    2.314100       11.6110           0   -1.00000   1.30000
     38038 MEOH     2207     MEOH     DC1      DRUD    -2.454100        0.4000           0   0.00000   0.00000
     38039 MEOH     2207     MEOH     O1       OD31H    2.488300       15.5990           0   -1.02800   1.30000
     38040 MEOH     2207     MEOH     DO1      DRUD    -2.488300        0.4000           0   0.00000   0.00000
     38041 MEOH     2207     MEOH     HO1      HDP1A    0.360000        1.0080           0   0.00000   0.00000
     38042 MEOH     2207     MEOH     HO2      DUMH     0.000000        1.0080           0   0.00000   0.00000
     38043 MEOH     2207     MEOH     H1A      HDA3B    0.080000        1.0080           0   0.00000   0.00000
     38044 MEOH     2207     MEOH     H1B      HDA3B    0.080000        1.0080           0   0.00000   0.00000
     38045 MEOH     2207     MEOH     H1C      HDA3B    0.080000        1.0080           0   0.00000   0.00000
     38046 MEOH     2207     MEOH     LP1A     LPD     -0.230000        0.0000           -1   0.00000   0.00000
     38047 MEOH     2207     MEOH     LP1B     LPD     -0.230000        0.0000           -1   0.00000   0.00000
     38048 MEOH     2208     MEOH     C1       CD33B    2.314100       11.6110           0   -1.00000   1.30000
     38049 MEOH     2208     MEOH     DC1      DRUD    -2.454100        0.4000           0   0.00000   0.00000
     38050 MEOH     2208     MEOH     O1       OD31H    2.488300       15.5990           0   -1.02800   1.30000
     38051 MEOH     2208     MEOH     DO1      DRUD    -2.488300        0.4000           0   0.00000   0.00000
     38052 MEOH     2208     MEOH     HO1      HDP1A    0.360000        1.0080           0   0.00000   0.00000
     38053 MEOH     2208     MEOH     HO2      DUMH     0.000000        1.0080           0   0.00000   0.00000
     38054 MEOH     2208     MEOH     H1A      HDA3B    0.080000        1.0080           0   0.00000   0.00000
     38055 MEOH     2208     MEOH     H1B      HDA3B    0.080000        1.0080           0   0.00000   0.00000
     38056 MEOH     2208     MEOH     H1C      HDA3B    0.080000        1.0080           0   0.00000   0.00000
     38057 MEOH     2208     MEOH     LP1A     LPD     -0.230000        0.0000           -1   0.00000   0.00000
     38058 MEOH     2208     MEOH     LP1B     LPD     -0.230000        0.0000           -1   0.00000   0.00000
     38059 MEOH     2209     MEOH     C1       CD33B    2.314100       11.6110           0   -1.00000   1.30000
     38060 MEOH     2209     MEOH     DC1      DRUD    -2.454100        0.4000           0   0.00000   0.00000
     38061 MEOH     2209     MEOH     O1       OD31H    2.488300       15.5990           0   -1.02800   1.30000
     38062 MEOH     2209     MEOH     DO1      DRUD    -2.488300        0.4000           0   0.00000   0.00000
     38063 MEOH     2209     MEOH     HO1      HDP1A    0.360000        1.0080           0   0.00000   0.00000
     38064 MEOH     2209     MEOH     HO2      DUMH     0.000000        1.0080           0   0.00000   0.00000
     38065 MEOH     2209     MEOH     H1A      HDA3B    0.080000        1.0080           0   0.00000   0.00000
     38066 MEOH     2209     MEOH     H1B      HDA3B    0.080000        1.0080           0   0.00000   0.00000
     38067 MEOH     2209     MEOH     H1C      HDA3B    0.080000        1.0080           0   0.00000   0.00000
     38068 MEOH     2209     MEOH     LP1A     LPD     -0.230000        0.0000           -1   0.00000   0.00000
     38069 MEOH     2209     MEOH     LP1B     LPD     -0.230000        0.0000           -1   0.00000   0.00000
     38070 MEOH     2210     MEOH     C1       CD33B    2.314100       11.6110           0   -1.00000   1.30000
     38071 MEOH     2210     MEOH     DC1      DRUD    -2.454100        0.4000           0   0.00000   0.00000
     38072 MEOH     2210     MEOH     O1       OD31H    2.488300       15.5990           0   -1.02800   1.30000
     38073 MEOH     2210     MEOH     DO1      DRUD    -2.488300        0.4000           0   0.00000   0.00000
     38074 MEOH     2210     MEOH     HO1      HDP1A    0.360000        1.0080           0   0.00000   0.00000
     38075 MEOH     2210     MEOH     HO2      DUMH     0.000000        1.0080           0   0.00000   0.00000
     38076 MEOH     2210     MEOH     H1A      HDA3B    0.080000        1.0080           0   0.00000   0.00000
     38077 MEOH     2210     MEOH     H1B      HDA3B    0.080000        1.0080           0   0.00000   0.00000
     38078 MEOH     2210     MEOH     H1C      HDA3B    0.080000        1.0080           0   0.00000   0.00000
     38079 MEOH     2210     MEOH     LP1A     LPD     -0.230000        0.0000           -1   0.00000   0.00000
     38080 MEOH     2210     MEOH     LP1B     LPD     -0.230000        0.0000           -1   0.00000   0.00000
     38081 MEOH     2211     MEOH     C1       CD33B    2.314100       11.6110           0   -1.00000   1.30000
     38082 MEOH     2211     MEOH     DC1      DRUD    -2.454100        0.4000           0   0.00000   0.00000
     38083 MEOH     2211     MEOH     O1       OD31H    2.488300       15.5990           0   -1.02800   1.30000
     38084 MEOH     2211     MEOH     DO1      DRUD    -2.488300        0.4000           0   0.00000   0.00000
     38085 MEOH     2211     MEOH     HO1      HDP1A    0.360000        1.0080           0   0.00000   0.00000
     38086 MEOH     2211     MEOH     HO2      DUMH     0.000000        1.0080           0   0.00000   0.00000
     38087 MEOH     2211     MEOH     H1A      HDA3B    0.080000        1.0080           0   0.00000   0.00000
     38088 MEOH     2211     MEOH     H1B      HDA3B    0.080000        1.0080           0   0.00000   0.00000
     38089 MEOH     2211     MEOH     H1C      HDA3B    0.080000        1.0080           0   0.00000   0.00000
     38090 MEOH     2211     MEOH     LP1A     LPD     -0.230000        0.0000           -1   0.00000   0.00000
     38091 MEOH     2211     MEOH     LP1B     LPD     -0.230000        0.0000           -1   0.00000   0.00000
     38092 MEOH     2212     MEOH     C1       CD33B    2.314100       11.6110           0   -1.00000   1.30000
     38093 MEOH     2212     MEOH     DC1      DRUD    -2.454100        0.4000           0   0.00000   0.00000
     38094 MEOH     2212     MEOH     O1       OD31H    2.488300       15.5990           0   -1.02800   1.30000
     38095 MEOH     2212     MEOH     DO1      DRUD    -2.488300        0.4000           0   0.00000   0.00000
     38096 MEOH     2212     MEOH     HO1      HDP1A    0.360000        1.0080           0   0.00000   0.00000
     38097 MEOH     2212     MEOH     HO2      DUMH     0.000000        1.0080           0   0.00000   0.00000
     38098 MEOH     2212     MEOH     H1A      HDA3B    0.080000        1.0080           0   0.00000   0.00000
     38099 MEOH     2212     MEOH     H1B      HDA3B    0.080000        1.0080           0   0.00000   0.00000
     38100 MEOH     2212     MEOH     H1C      HDA3B    0.080000        1.0080           0   0.00000   0.00000
     38101 MEOH     2212     MEOH     LP1A     LPD     -0.230000        0.0000           -1   0.00000   0.00000
     38102 MEOH     2212     MEOH     LP1B     LPD     -0.230000        0.0000           -1   0.00000   0.00000
     38103 MEOH     2213     MEOH     C1       CD33B    2.314100       11.6110           0   -1.00000   1.30000
     38104 MEOH     2213     MEOH     DC1      DRUD    -2.454100        0.4000           0   0.00000   0.00000
     38105 MEOH     2213     MEOH     O1       OD31H    2.488300       15.5990           0   -1.02800   1.30000
     38106 MEOH     2213     MEOH     DO1      DRUD    -2.488300        0.4000           0   0.00000   0.00000
     38107 MEOH     2213     MEOH     HO1      HDP1A    0.360000        1.0080           0   0.00000   0.00000
     38108 MEOH     2213     MEOH     HO2      DUMH     0.000000        1.0080           0   0.00000   0.00000
     38109 MEOH     2213     MEOH     H1A      HDA3B    0.080000        1.0080           0   0.00000   0.00000
     38110 MEOH     2213     MEOH     H1B      HDA3B    0.080000        1.0080           0   0.00000   0.00000
     38111 MEOH     2213     MEOH     H1C      HDA3B    0.080000        1.0080           0   0.00000   0.00000
     38112 MEOH     2213     MEOH     LP1A     LPD     -0.230000        0.0000           -1   0.00000   0.00000
     38113 MEOH     2213     MEOH     LP1B     LPD     -0.230000        0.0000           -1   0.00000   0.00000
     38114 MEOH     2214     MEOH     C1       CD33B    2.314100       11.6110           0   -1.00000   1.30000
     38115 MEOH     2214     MEOH     DC1      DRUD    -2.454100        0.4000           0   0.00000   0.00000
     38116 MEOH     2214     MEOH     O1       OD31H    2.488300       15.5990           0   -1.02800   1.30000
     38117 MEOH     2214     MEOH     DO1      DRUD    -2.488300        0.4000           0   0.00000   0.00000
     38118 MEOH     2214     MEOH     HO1      HDP1A    0.360000        1.0080           0   0.00000   0.00000
     38119 MEOH     2214     MEOH     HO2      DUMH     0.000000        1.0080           0   0.00000   0.00000
     38120 MEOH     2214     MEOH     H1A      HDA3B    0.080000        1.0080           0   0.00000   0.00000
     38121 MEOH     2214     MEOH     H1B      HDA3B    0.080000        1.0080           0   0.00000   0.00000
     38122 MEOH     2214     MEOH     H1C      HDA3B    0.080000        1.0080           0   0.00000   0.00000
     38123 MEOH     2214     MEOH     LP1A     LPD     -0.230000        0.0000           -1   0.00000   0.00000
     38124 MEOH     2214     MEOH     LP1B     LPD     -0.230000        0.0000           -1   0.00000   0.00000
     38125 MEOH     2215     MEOH     C1       CD33B    2.314100       11.6110           0   -1.00000   1.30000
     38126 MEOH     2215     MEOH     DC1      DRUD    -2.454100        0.4000           0   0.00000   0.00000
     38127 MEOH     2215     MEOH     O1       OD31H    2.488300       15.5990           0   -1.02800   1.30000
     38128 MEOH     2215     MEOH     DO1      DRUD    -2.488300        0.4000           0   0.00000   0.00000
     38129 MEOH     2215     MEOH     HO1      HDP1A    0.360000        1.0080           0   0.00000   0.00000
     38130 MEOH     2215     MEOH     HO2      DUMH     0.000000        1.0080           0   0.00000   0.00000
     38131 MEOH     2215     MEOH     H1A      HDA3B    0.080000        1.0080           0   0.00000   0.00000
     38132 MEOH     2215     MEOH     H1B      HDA3B    0.080000        1.0080           0   0.00000   0.00000
     38133 MEOH     2215     MEOH     H1C      HDA3B    0.080000        1.0080           0   0.00000   0.00000
     38134 MEOH     2215     MEOH     LP1A     LPD     -0.230000        0.0000           -1   0.00000   0.00000
     38135 MEOH     2215     MEOH     LP1B     LPD     -0.230000        0.0000           -1   0.00000   0.00000
     38136 MEOH     2216     MEOH     C1       CD33B    2.314100       11.6110           0   -1.00000   1.30000
     38137 MEOH     2216     MEOH     DC1      DRUD    -2.454100        0.4000           0   0.00000   0.00000
     38138 MEOH     2216     MEOH     O1       OD31H    2.488300       15.5990           0   -1.02800   1.30000
     38139 MEOH     2216     MEOH     DO1      DRUD    -2.488300        0.4000           0   0.00000   0.00000
     38140 MEOH     2216     MEOH     HO1      HDP1A    0.360000        1.0080           0   0.00000   0.00000
     38141 MEOH     2216     MEOH     HO2      DUMH     0.000000        1.0080           0   0.00000   0.00000
     38142 MEOH     2216     MEOH     H1A      HDA3B    0.080000        1.0080           0   0.00000   0.00000
     38143 MEOH     2216     MEOH     H1B      HDA3B    0.080000        1.0080           0   0.00000   0.00000
     38144 MEOH     2216     MEOH     H1C      HDA3B    0.080000        1.0080           0   0.00000   0.00000
     38145 MEOH     2216     MEOH     LP1A     LPD     -0.230000        0.0000           -1   0.00000   0.00000
     38146 MEOH     2216     MEOH     LP1B     LPD     -0.230000        0.0000           -1   0.00000   0.00000
     38147 MEOH     2217     MEOH     C1       CD33B    2.314100       11.6110           0   -1.00000   1.30000
     38148 MEOH     2217     MEOH     DC1      DRUD    -2.454100        0.4000           0   0.00000   0.00000
     38149 MEOH     2217     MEOH     O1       OD31H    2.488300       15.5990           0   -1.02800   1.30000
     38150 MEOH     2217     MEOH     DO1      DRUD    -2.488300        0.4000           0   0.00000   0.00000
     38151 MEOH     2217     MEOH     HO1      HDP1A    0.360000        1.0080           0   0.00000   0.00000
     38152 MEOH     2217     MEOH     HO2      DUMH     0.000000        1.0080           0   0.00000   0.00000
     38153 MEOH     2217     MEOH     H1A      HDA3B    0.080000        1.0080           0   0.00000   0.00000
     38154 MEOH     2217     MEOH     H1B      HDA3B    0.080000        1.0080           0   0.00000   0.00000
     38155 MEOH     2217     MEOH     H1C      HDA3B    0.080000        1.0080           0   0.00000   0.00000
     38156 MEOH     2217     MEOH     LP1A     LPD     -0.230000        0.0000           -1   0.00000   0.00000
     38157 MEOH     2217     MEOH     LP1B     LPD     -0.230000        0.0000           -1   0.00000   0.00000
     38158 MEOH     2218     MEOH     C1       CD33B    2.314100       11.6110           0   -1.00000   1.30000
     38159 MEOH     2218     MEOH     DC1      DRUD    -2.454100        0.4000           0   0.00000   0.00000
     38160 MEOH     2218     MEOH     O1       OD31H    2.488300       15.5990           0   -1.02800   1.30000
     38161 MEOH     2218     MEOH     DO1      DRUD    -2.488300        0.4000           0   0.00000   0.00000
     38162 MEOH     2218     MEOH     HO1      HDP1A    0.360000        1.0080           0   0.00000   0.00000
     38163 MEOH     2218     MEOH     HO2      DUMH     0.000000        1.0080           0   0.00000   0.00000
     38164 MEOH     2218     MEOH     H1A      HDA3B    0.080000        1.0080           0   0.00000   0.00000
     38165 MEOH     2218     MEOH     H1B      HDA3B    0.080000        1.0080           0   0.00000   0.00000
     38166 MEOH     2218     MEOH     H1C      HDA3B    0.080000        1.0080           0   0.00000   0.00000
     38167 MEOH     2218     MEOH     LP1A     LPD     -0.230000        0.0000           -1   0.00000   0.00000
     38168 MEOH     2218     MEOH     LP1B     LPD     -0.230000        0.0000           -1   0.00000   0.00000
     38169 MEOH     2219     MEOH     C1       CD33B    2.314100       11.6110           0   -1.00000   1.30000
     38170 MEOH     2219     MEOH     DC1      DRUD    -2.454100        0.4000           0   0.00000   0.00000
     38171 MEOH     2219     MEOH     O1       OD31H    2.488300       15.5990           0   -1.02800   1.30000
     38172 MEOH     2219     MEOH     DO1      DRUD    -2.488300        0.4000           0   0.00000   0.00000
     38173 MEOH     2219     MEOH     HO1      HDP1A    0.360000        1.0080           0   0.00000   0.00000
     38174 MEOH     2219     MEOH     HO2      DUMH     0.000000        1.0080           0   0.00000   0.00000
     38175 MEOH     2219     MEOH     H1A      HDA3B    0.080000        1.0080           0   0.00000   0.00000
     38176 MEOH     2219     MEOH     H1B      HDA3B    0.080000        1.0080           0   0.00000   0.00000
     38177 MEOH     2219     MEOH     H1C      HDA3B    0.080000        1.0080           0   0.00000   0.00000
     38178 MEOH     2219     MEOH     LP1A     LPD     -0.230000        0.0000           -1   0.00000   0.00000
     38179 MEOH     2219     MEOH     LP1B     LPD     -0.230000        0.0000           -1   0.00000   0.00000
     38180 MEOH     2220     MEOH     C1       CD33B    2.314100       11.6110           0   -1.00000   1.30000
     38181 MEOH     2220     MEOH     DC1      DRUD    -2.454100        0.4000           0   0.00000   0.00000
     38182 MEOH     2220     MEOH     O1       OD31H    2.488300       15.5990           0   -1.02800   1.30000
     38183 MEOH     2220     MEOH     DO1      DRUD    -2.488300        0.4000           0   0.00000   0.00000
     38184 MEOH     2220     MEOH     HO1      HDP1A    0.360000        1.0080           0   0.00000   0.00000
     38185 MEOH     2220     MEOH     HO2      DUMH     0.000000        1.0080           0   0.00000   0.00000
     38186 MEOH     2220     MEOH     H1A      HDA3B    0.080000        1.0080           0   0.00000   0.00000
     38187 MEOH     2220     MEOH     H1B      HDA3B    0.080000        1.0080           0   0.00000   0.00000
     38188 MEOH     2220     MEOH     H1C      HDA3B    0.080000        1.0080           0   0.00000   0.00000
     38189 MEOH     2220     MEOH     LP1A     LPD     -0.230000        0.0000           -1   0.00000   0.00000
     38190 MEOH     2220     MEOH     LP1B     LPD     -0.230000        0.0000           -1   0.00000   0.00000
     38191 MEOH     2221     MEOH     C1       CD33B    2.314100       11.6110           0   -1.00000   1.30000
     38192 MEOH     2221     MEOH     DC1      DRUD    -2.454100        0.4000           0   0.00000   0.00000
     38193 MEOH     2221     MEOH     O1       OD31H    2.488300       15.5990           0   -1.02800   1.30000
     38194 MEOH     2221     MEOH     DO1      DRUD    -2.488300        0.4000           0   0.00000   0.00000
     38195 MEOH     2221     MEOH     HO1      HDP1A    0.360000        1.0080           0   0.00000   0.00000
     38196 MEOH     2221     MEOH     HO2      DUMH     0.000000        1.0080           0   0.00000   0.00000
     38197 MEOH     2221     MEOH     H1A      HDA3B    0.080000        1.0080           0   0.00000   0.00000
     38198 MEOH     2221     MEOH     H1B      HDA3B    0.080000        1.0080           0   0.00000   0.00000
     38199 MEOH     2221     MEOH     H1C      HDA3B    0.080000        1.0080           0   0.00000   0.00000
     38200 MEOH     2221     MEOH     LP1A     LPD     -0.230000        0.0000           -1   0.00000   0.00000
     38201 MEOH     2221     MEOH     LP1B     LPD     -0.230000        0.0000           -1   0.00000   0.00000
     38202 MEOH     2222     MEOH     C1       CD33B    2.314100       11.6110           0   -1.00000   1.30000
     38203 MEOH     2222     MEOH     DC1      DRUD    -2.454100        0.4000           0   0.00000   0.00000
     38204 MEOH     2222     MEOH     O1       OD31H    2.488300       15.5990           0   -1.02800   1.30000
     38205 MEOH     2222     MEOH     DO1      DRUD    -2.488300        0.4000           0   0.00000   0.00000
     38206 MEOH     2222     MEOH     HO1      HDP1A    0.360000        1.0080           0   0.00000   0.00000
     38207 MEOH     2222     MEOH     HO2      DUMH     0.000000        1.0080           0   0.00000   0.00000
     38208 MEOH     2222     MEOH     H1A      HDA3B    0.080000        1.0080           0   0.00000   0.00000
     38209 MEOH     2222     MEOH     H1B      HDA3B    0.080000        1.0080           0   0.00000   0.00000
     38210 MEOH     2222     MEOH     H1C      HDA3B    0.080000        1.0080           0   0.00000   0.00000
     38211 MEOH     2222     MEOH     LP1A     LPD     -0.230000        0.0000           -1   0.00000   0.00000
     38212 MEOH     2222     MEOH     LP1B     LPD     -0.230000        0.0000           -1   0.00000   0.00000
     38213 MEOH     2223     MEOH     C1       CD33B    2.314100       11.6110           0   -1.00000   1.30000
     38214 MEOH     2223     MEOH     DC1      DRUD    -2.454100        0.4000           0   0.00000   0.00000
     38215 MEOH     2223     MEOH     O1       OD31H    2.488300       15.5990           0   -1.02800   1.30000
     38216 MEOH     2223     MEOH     DO1      DRUD    -2.488300        0.4000           0   0.00000   0.00000
     38217 MEOH     2223     MEOH     HO1      HDP1A    0.360000        1.0080           0   0.00000   0.00000
     38218 MEOH     2223     MEOH     HO2      DUMH     0.000000        1.0080           0   0.00000   0.00000
     38219 MEOH     2223     MEOH     H1A      HDA3B    0.080000        1.0080           0   0.00000   0.00000
     38220 MEOH     2223     MEOH     H1B      HDA3B    0.080000        1.0080           0   0.00000   0.00000
     38221 MEOH     2223     MEOH     H1C      HDA3B    0.080000        1.0080           0   0.00000   0.00000
     38222 MEOH     2223     MEOH     LP1A     LPD     -0.230000        0.0000           -1   0.00000   0.00000
     38223 MEOH     2223     MEOH     LP1B     LPD     -0.230000        0.0000           -1   0.00000   0.00000
     38224 MEOH     2224     MEOH     C1       CD33B    2.314100       11.6110           0   -1.00000   1.30000
     38225 MEOH     2224     MEOH     DC1      DRUD    -2.454100        0.4000           0   0.00000   0.00000
     38226 MEOH     2224     MEOH     O1       OD31H    2.488300       15.5990           0   -1.02800   1.30000
     38227 MEOH     2224     MEOH     DO1      DRUD    -2.488300        0.4000           0   0.00000   0.00000
     38228 MEOH     2224     MEOH     HO1      HDP1A    0.360000        1.0080           0   0.00000   0.00000
     38229 MEOH     2224     MEOH     HO2      DUMH     0.000000        1.0080           0   0.00000   0.00000
     38230 MEOH     2224     MEOH     H1A      HDA3B    0.080000        1.0080           0   0.00000   0.00000
     38231 MEOH     2224     MEOH     H1B      HDA3B    0.080000        1.0080           0   0.00000   0.00000
     38232 MEOH     2224     MEOH     H1C      HDA3B    0.080000        1.0080           0   0.00000   0.00000
     38233 MEOH     2224     MEOH     LP1A     LPD     -0.230000        0.0000           -1   0.00000   0.00000
     38234 MEOH     2224     MEOH     LP1B     LPD     -0.230000        0.0000           -1   0.00000   0.00000
     38235 MEOH     2225     MEOH     C1       CD33B    2.314100       11.6110           0   -1.00000   1.30000
     38236 MEOH     2225     MEOH     DC1      DRUD    -2.454100        0.4000           0   0.00000   0.00000
     38237 MEOH     2225     MEOH     O1       OD31H    2.488300       15.5990           0   -1.02800   1.30000
     38238 MEOH     2225     MEOH     DO1      DRUD    -2.488300        0.4000           0   0.00000   0.00000
     38239 MEOH     2225     MEOH     HO1      HDP1A    0.360000        1.0080           0   0.00000   0.00000
     38240 MEOH     2225     MEOH     HO2      DUMH     0.000000        1.0080           0   0.00000   0.00000
     38241 MEOH     2225     MEOH     H1A      HDA3B    0.080000        1.0080           0   0.00000   0.00000
     38242 MEOH     2225     MEOH     H1B      HDA3B    0.080000        1.0080           0   0.00000   0.00000
     38243 MEOH     2225     MEOH     H1C      HDA3B    0.080000        1.0080           0   0.00000   0.00000
     38244 MEOH     2225     MEOH     LP1A     LPD     -0.230000        0.0000           -1   0.00000   0.00000
     38245 MEOH     2225     MEOH     LP1B     LPD     -0.230000        0.0000           -1   0.00000   0.00000
     38246 MEOH     2226     MEOH     C1       CD33B    2.314100       11.6110           0   -1.00000   1.30000
     38247 MEOH     2226     MEOH     DC1      DRUD    -2.454100        0.4000           0   0.00000   0.00000
     38248 MEOH     2226     MEOH     O1       OD31H    2.488300       15.5990           0   -1.02800   1.30000
     38249 MEOH     2226     MEOH     DO1      DRUD    -2.488300        0.4000           0   0.00000   0.00000
     38250 MEOH     2226     MEOH     HO1      HDP1A    0.360000        1.0080           0   0.00000   0.00000
     38251 MEOH     2226     MEOH     HO2      DUMH     0.000000        1.0080           0   0.00000   0.00000
     38252 MEOH     2226     MEOH     H1A      HDA3B    0.080000        1.0080           0   0.00000   0.00000
     38253 MEOH     2226     MEOH     H1B      HDA3B    0.080000        1.0080           0   0.00000   0.00000
     38254 MEOH     2226     MEOH     H1C      HDA3B    0.080000        1.0080           0   0.00000   0.00000
     38255 MEOH     2226     MEOH     LP1A     LPD     -0.230000        0.0000           -1   0.00000   0.00000
     38256 MEOH     2226     MEOH     LP1B     LPD     -0.230000        0.0000           -1   0.00000   0.00000
     38257 MEOH     2227     MEOH     C1       CD33B    2.314100       11.6110           0   -1.00000   1.30000
     38258 MEOH     2227     MEOH     DC1      DRUD    -2.454100        0.4000           0   0.00000   0.00000
     38259 MEOH     2227     MEOH     O1       OD31H    2.488300       15.5990           0   -1.02800   1.30000
     38260 MEOH     2227     MEOH     DO1      DRUD    -2.488300        0.4000           0   0.00000   0.00000
     38261 MEOH     2227     MEOH     HO1      HDP1A    0.360000        1.0080           0   0.00000   0.00000
     38262 MEOH     2227     MEOH     HO2      DUMH     0.000000        1.0080           0   0.00000   0.00000
     38263 MEOH     2227     MEOH     H1A      HDA3B    0.080000        1.0080           0   0.00000   0.00000
     38264 MEOH     2227     MEOH     H1B      HDA3B    0.080000        1.0080           0   0.00000   0.00000
     38265 MEOH     2227     MEOH     H1C      HDA3B    0.080000        1.0080           0   0.00000   0.00000
     38266 MEOH     2227     MEOH     LP1A     LPD     -0.230000        0.0000           -1   0.00000   0.00000
     38267 MEOH     2227     MEOH     LP1B     LPD     -0.230000        0.0000           -1   0.00000   0.00000
     38268 MEOH     2228     MEOH     C1       CD33B    2.314100       11.6110           0   -1.00000   1.30000
     38269 MEOH     2228     MEOH     DC1      DRUD    -2.454100        0.4000           0   0.00000   0.00000
     38270 MEOH     2228     MEOH     O1       OD31H    2.488300       15.5990           0   -1.02800   1.30000
     38271 MEOH     2228     MEOH     DO1      DRUD    -2.488300        0.4000           0   0.00000   0.00000
     38272 MEOH     2228     MEOH     HO1      HDP1A    0.360000        1.0080           0   0.00000   0.00000
     38273 MEOH     2228     MEOH     HO2      DUMH     0.000000        1.0080           0   0.00000   0.00000
     38274 MEOH     2228     MEOH     H1A      HDA3B    0.080000        1.0080           0   0.00000   0.00000
     38275 MEOH     2228     MEOH     H1B      HDA3B    0.080000        1.0080           0   0.00000   0.00000
     38276 MEOH     2228     MEOH     H1C      HDA3B    0.080000        1.0080           0   0.00000   0.00000
     38277 MEOH     2228     MEOH     LP1A     LPD     -0.230000        0.0000           -1   0.00000   0.00000
     38278 MEOH     2228     MEOH     LP1B     LPD     -0.230000        0.0000           -1   0.00000   0.00000
     38279 MEOH     2229     MEOH     C1       CD33B    2.314100       11.6110           0   -1.00000   1.30000
     38280 MEOH     2229     MEOH     DC1      DRUD    -2.454100        0.4000           0   0.00000   0.00000
     38281 MEOH     2229     MEOH     O1       OD31H    2.488300       15.5990           0   -1.02800   1.30000
     38282 MEOH     2229     MEOH     DO1      DRUD    -2.488300        0.4000           0   0.00000   0.00000
     38283 MEOH     2229     MEOH     HO1      HDP1A    0.360000        1.0080           0   0.00000   0.00000
     38284 MEOH     2229     MEOH     HO2      DUMH     0.000000        1.0080           0   0.00000   0.00000
     38285 MEOH     2229     MEOH     H1A      HDA3B    0.080000        1.0080           0   0.00000   0.00000
     38286 MEOH     2229     MEOH     H1B      HDA3B    0.080000        1.0080           0   0.00000   0.00000
     38287 MEOH     2229     MEOH     H1C      HDA3B    0.080000        1.0080           0   0.00000   0.00000
     38288 MEOH     2229     MEOH     LP1A     LPD     -0.230000        0.0000           -1   0.00000   0.00000
     38289 MEOH     2229     MEOH     LP1B     LPD     -0.230000        0.0000           -1   0.00000   0.00000
     38290 MEOH     2230     MEOH     C1       CD33B    2.314100       11.6110           0   -1.00000   1.30000
     38291 MEOH     2230     MEOH     DC1      DRUD    -2.454100        0.4000           0   0.00000   0.00000
     38292 MEOH     2230     MEOH     O1       OD31H    2.488300       15.5990           0   -1.02800   1.30000
     38293 MEOH     2230     MEOH     DO1      DRUD    -2.488300        0.4000           0   0.00000   0.00000
     38294 MEOH     2230     MEOH     HO1      HDP1A    0.360000        1.0080           0   0.00000   0.00000
     38295 MEOH     2230     MEOH     HO2      DUMH     0.000000        1.0080           0   0.00000   0.00000
     38296 MEOH     2230     MEOH     H1A      HDA3B    0.080000        1.0080           0   0.00000   0.00000
     38297 MEOH     2230     MEOH     H1B      HDA3B    0.080000        1.0080           0   0.00000   0.00000
     38298 MEOH     2230     MEOH     H1C      HDA3B    0.080000        1.0080           0   0.00000   0.00000
     38299 MEOH     2230     MEOH     LP1A     LPD     -0.230000        0.0000           -1   0.00000   0.00000
     38300 MEOH     2230     MEOH     LP1B     LPD     -0.230000        0.0000           -1   0.00000   0.00000
     38301 MEOH     2231     MEOH     C1       CD33B    2.314100       11.6110           0   -1.00000   1.30000
     38302 MEOH     2231     MEOH     DC1      DRUD    -2.454100        0.4000           0   0.00000   0.00000
     38303 MEOH     2231     MEOH     O1       OD31H    2.488300       15.5990           0   -1.02800   1.30000
     38304 MEOH     2231     MEOH     DO1      DRUD    -2.488300        0.4000           0   0.00000   0.00000
     38305 MEOH     2231     MEOH     HO1      HDP1A    0.360000        1.0080           0   0.00000   0.00000
     38306 MEOH     2231     MEOH     HO2      DUMH     0.000000        1.0080           0   0.00000   0.00000
     38307 MEOH     2231     MEOH     H1A      HDA3B    0.080000        1.0080           0   0.00000   0.00000
     38308 MEOH     2231     MEOH     H1B      HDA3B    0.080000        1.0080           0   0.00000   0.00000
     38309 MEOH     2231     MEOH     H1C      HDA3B    0.080000        1.0080           0   0.00000   0.00000
     38310 MEOH     2231     MEOH     LP1A     LPD     -0.230000        0.0000           -1   0.00000   0.00000
     38311 MEOH     2231     MEOH     LP1B     LPD     -0.230000        0.0000           -1   0.00000   0.00000
     38312 MEOH     2232     MEOH     C1       CD33B    2.314100       11.6110           0   -1.00000   1.30000
     38313 MEOH     2232     MEOH     DC1      DRUD    -2.454100        0.4000           0   0.00000   0.00000
     38314 MEOH     2232     MEOH     O1       OD31H    2.488300       15.5990           0   -1.02800   1.30000
     38315 MEOH     2232     MEOH     DO1      DRUD    -2.488300        0.4000           0   0.00000   0.00000
     38316 MEOH     2232     MEOH     HO1      HDP1A    0.360000        1.0080           0   0.00000   0.00000
     38317 MEOH     2232     MEOH     HO2      DUMH     0.000000        1.0080           0   0.00000   0.00000
     38318 MEOH     2232     MEOH     H1A      HDA3B    0.080000        1.0080           0   0.00000   0.00000
     38319 MEOH     2232     MEOH     H1B      HDA3B    0.080000        1.0080           0   0.00000   0.00000
     38320 MEOH     2232     MEOH     H1C      HDA3B    0.080000        1.0080           0   0.00000   0.00000
     38321 MEOH     2232     MEOH     LP1A     LPD     -0.230000        0.0000           -1   0.00000   0.00000
     38322 MEOH     2232     MEOH     LP1B     LPD     -0.230000        0.0000           -1   0.00000   0.00000
     38323 MEOH     2233     MEOH     C1       CD33B    2.314100       11.6110           0   -1.00000   1.30000
     38324 MEOH     2233     MEOH     DC1      DRUD    -2.454100        0.4000           0   0.00000   0.00000
     38325 MEOH     2233     MEOH     O1       OD31H    2.488300       15.5990           0   -1.02800   1.30000
     38326 MEOH     2233     MEOH     DO1      DRUD    -2.488300        0.4000           0   0.00000   0.00000
     38327 MEOH     2233     MEOH     HO1      HDP1A    0.360000        1.0080           0   0.00000   0.00000
     38328 MEOH     2233     MEOH     HO2      DUMH     0.000000        1.0080           0   0.00000   0.00000
     38329 MEOH     2233     MEOH     H1A      HDA3B    0.080000        1.0080           0   0.00000   0.00000
     38330 MEOH     2233     MEOH     H1B      HDA3B    0.080000        1.0080           0   0.00000   0.00000
     38331 MEOH     2233     MEOH     H1C      HDA3B    0.080000        1.0080           0   0.00000   0.00000
     38332 MEOH     2233     MEOH     LP1A     LPD     -0.230000        0.0000           -1   0.00000   0.00000
     38333 MEOH     2233     MEOH     LP1B     LPD     -0.230000        0.0000           -1   0.00000   0.00000
     38334 MEOH     2234     MEOH     C1       CD33B    2.314100       11.6110           0   -1.00000   1.30000
     38335 MEOH     2234     MEOH     DC1      DRUD    -2.454100        0.4000           0   0.00000   0.00000
     38336 MEOH     2234     MEOH     O1       OD31H    2.488300       15.5990           0   -1.02800   1.30000
     38337 MEOH     2234     MEOH     DO1      DRUD    -2.488300        0.4000           0   0.00000   0.00000
     38338 MEOH     2234     MEOH     HO1      HDP1A    0.360000        1.0080           0   0.00000   0.00000
     38339 MEOH     2234     MEOH     HO2      DUMH     0.000000        1.0080           0   0.00000   0.00000
     38340 MEOH     2234     MEOH     H1A      HDA3B    0.080000        1.0080           0   0.00000   0.00000
     38341 MEOH     2234     MEOH     H1B      HDA3B    0.080000        1.0080           0   0.00000   0.00000
     38342 MEOH     2234     MEOH     H1C      HDA3B    0.080000        1.0080           0   0.00000   0.00000
     38343 MEOH     2234     MEOH     LP1A     LPD     -0.230000        0.0000           -1   0.00000   0.00000
     38344 MEOH     2234     MEOH     LP1B     LPD     -0.230000        0.0000           -1   0.00000   0.00000
     38345 MEOH     2235     MEOH     C1       CD33B    2.314100       11.6110           0   -1.00000   1.30000
     38346 MEOH     2235     MEOH     DC1      DRUD    -2.454100        0.4000           0   0.00000   0.00000
     38347 MEOH     2235     MEOH     O1       OD31H    2.488300       15.5990           0   -1.02800   1.30000
     38348 MEOH     2235     MEOH     DO1      DRUD    -2.488300        0.4000           0   0.00000   0.00000
     38349 MEOH     2235     MEOH     HO1      HDP1A    0.360000        1.0080           0   0.00000   0.00000
     38350 MEOH     2235     MEOH     HO2      DUMH     0.000000        1.0080           0   0.00000   0.00000
     38351 MEOH     2235     MEOH     H1A      HDA3B    0.080000        1.0080           0   0.00000   0.00000
     38352 MEOH     2235     MEOH     H1B      HDA3B    0.080000        1.0080           0   0.00000   0.00000
     38353 MEOH     2235     MEOH     H1C      HDA3B    0.080000        1.0080           0   0.00000   0.00000
     38354 MEOH     2235     MEOH     LP1A     LPD     -0.230000        0.0000           -1   0.00000   0.00000
     38355 MEOH     2235     MEOH     LP1B     LPD     -0.230000        0.0000           -1   0.00000   0.00000
     38356 MEOH     2236     MEOH     C1       CD33B    2.314100       11.6110           0   -1.00000   1.30000
     38357 MEOH     2236     MEOH     DC1      DRUD    -2.454100        0.4000           0   0.00000   0.00000
     38358 MEOH     2236     MEOH     O1       OD31H    2.488300       15.5990           0   -1.02800   1.30000
     38359 MEOH     2236     MEOH     DO1      DRUD    -2.488300        0.4000           0   0.00000   0.00000
     38360 MEOH     2236     MEOH     HO1      HDP1A    0.360000        1.0080           0   0.00000   0.00000
     38361 MEOH     2236     MEOH     HO2      DUMH     0.000000        1.0080           0   0.00000   0.00000
     38362 MEOH     2236     MEOH     H1A      HDA3B    0.080000        1.0080           0   0.00000   0.00000
     38363 MEOH     2236     MEOH     H1B      HDA3B    0.080000        1.0080           0   0.00000   0.00000
     38364 MEOH     2236     MEOH     H1C      HDA3B    0.080000        1.0080           0   0.00000   0.00000
     38365 MEOH     2236     MEOH     LP1A     LPD     -0.230000        0.0000           -1   0.00000   0.00000
     38366 MEOH     2236     MEOH     LP1B     LPD     -0.230000        0.0000           -1   0.00000   0.00000
     38367 MEOH     2237     MEOH     C1       CD33B    2.314100       11.6110           0   -1.00000   1.30000
     38368 MEOH     2237     MEOH     DC1      DRUD    -2.454100        0.4000           0   0.00000   0.00000
     38369 MEOH     2237     MEOH     O1       OD31H    2.488300       15.5990           0   -1.02800   1.30000
     38370 MEOH     2237     MEOH     DO1      DRUD    -2.488300        0.4000           0   0.00000   0.00000
     38371 MEOH     2237     MEOH     HO1      HDP1A    0.360000        1.0080           0   0.00000   0.00000
     38372 MEOH     2237     MEOH     HO2      DUMH     0.000000        1.0080           0   0.00000   0.00000
     38373 MEOH     2237     MEOH     H1A      HDA3B    0.080000        1.0080           0   0.00000   0.00000
     38374 MEOH     2237     MEOH     H1B      HDA3B    0.080000        1.0080           0   0.00000   0.00000
     38375 MEOH     2237     MEOH     H1C      HDA3B    0.080000        1.0080           0   0.00000   0.00000
     38376 MEOH     2237     MEOH     LP1A     LPD     -0.230000        0.0000           -1   0.00000   0.00000
     38377 MEOH     2237     MEOH     LP1B     LPD     -0.230000        0.0000           -1   0.00000   0.00000
     38378 MEOH     2238     MEOH     C1       CD33B    2.314100       11.6110           0   -1.00000   1.30000
     38379 MEOH     2238     MEOH     DC1      DRUD    -2.454100        0.4000           0   0.00000   0.00000
     38380 MEOH     2238     MEOH     O1       OD31H    2.488300       15.5990           0   -1.02800   1.30000
     38381 MEOH     2238     MEOH     DO1      DRUD    -2.488300        0.4000           0   0.00000   0.00000
     38382 MEOH     2238     MEOH     HO1      HDP1A    0.360000        1.0080           0   0.00000   0.00000
     38383 MEOH     2238     MEOH     HO2      DUMH     0.000000        1.0080           0   0.00000   0.00000
     38384 MEOH     2238     MEOH     H1A      HDA3B    0.080000        1.0080           0   0.00000   0.00000
     38385 MEOH     2238     MEOH     H1B      HDA3B    0.080000        1.0080           0   0.00000   0.00000
     38386 MEOH     2238     MEOH     H1C      HDA3B    0.080000        1.0080           0   0.00000   0.00000
     38387 MEOH     2238     MEOH     LP1A     LPD     -0.230000        0.0000           -1   0.00000   0.00000
     38388 MEOH     2238     MEOH     LP1B     LPD     -0.230000        0.0000           -1   0.00000   0.00000
     38389 MEOH     2239     MEOH     C1       CD33B    2.314100       11.6110           0   -1.00000   1.30000
     38390 MEOH     2239     MEOH     DC1      DRUD    -2.454100        0.4000           0   0.00000   0.00000
     38391 MEOH     2239     MEOH     O1       OD31H    2.488300       15.5990           0   -1.02800   1.30000
     38392 MEOH     2239     MEOH     DO1      DRUD    -2.488300        0.4000           0   0.00000   0.00000
     38393 MEOH     2239     MEOH     HO1      HDP1A    0.360000        1.0080           0   0.00000   0.00000
     38394 MEOH     2239     MEOH     HO2      DUMH     0.000000        1.0080           0   0.00000   0.00000
     38395 MEOH     2239     MEOH     H1A      HDA3B    0.080000        1.0080           0   0.00000   0.00000
     38396 MEOH     2239     MEOH     H1B      HDA3B    0.080000        1.0080           0   0.00000   0.00000
     38397 MEOH     2239     MEOH     H1C      HDA3B    0.080000        1.0080           0   0.00000   0.00000
     38398 MEOH     2239     MEOH     LP1A     LPD     -0.230000        0.0000           -1   0.00000   0.00000
     38399 MEOH     2239     MEOH     LP1B     LPD     -0.230000        0.0000           -1   0.00000   0.00000
     38400 MEOH     2240     MEOH     C1       CD33B    2.314100       11.6110           0   -1.00000   1.30000
     38401 MEOH     2240     MEOH     DC1      DRUD    -2.454100        0.4000           0   0.00000   0.00000
     38402 MEOH     2240     MEOH     O1       OD31H    2.488300       15.5990           0   -1.02800   1.30000
     38403 MEOH     2240     MEOH     DO1      DRUD    -2.488300        0.4000           0   0.00000   0.00000
     38404 MEOH     2240     MEOH     HO1      HDP1A    0.360000        1.0080           0   0.00000   0.00000
     38405 MEOH     2240     MEOH     HO2      DUMH     0.000000        1.0080           0   0.00000   0.00000
     38406 MEOH     2240     MEOH     H1A      HDA3B    0.080000        1.0080           0   0.00000   0.00000
     38407 MEOH     2240     MEOH     H1B      HDA3B    0.080000        1.0080           0   0.00000   0.00000
     38408 MEOH     2240     MEOH     H1C      HDA3B    0.080000        1.0080           0   0.00000   0.00000
     38409 MEOH     2240     MEOH     LP1A     LPD     -0.230000        0.0000           -1   0.00000   0.00000
     38410 MEOH     2240     MEOH     LP1B     LPD     -0.230000        0.0000           -1   0.00000   0.00000
     38411 MEOH     2241     MEOH     C1       CD33B    2.314100       11.6110           0   -1.00000   1.30000
     38412 MEOH     2241     MEOH     DC1      DRUD    -2.454100        0.4000           0   0.00000   0.00000
     38413 MEOH     2241     MEOH     O1       OD31H    2.488300       15.5990           0   -1.02800   1.30000
     38414 MEOH     2241     MEOH     DO1      DRUD    -2.488300        0.4000           0   0.00000   0.00000
     38415 MEOH     2241     MEOH     HO1      HDP1A    0.360000        1.0080           0   0.00000   0.00000
     38416 MEOH     2241     MEOH     HO2      DUMH     0.000000        1.0080           0   0.00000   0.00000
     38417 MEOH     2241     MEOH     H1A      HDA3B    0.080000        1.0080           0   0.00000   0.00000
     38418 MEOH     2241     MEOH     H1B      HDA3B    0.080000        1.0080           0   0.00000   0.00000
     38419 MEOH     2241     MEOH     H1C      HDA3B    0.080000        1.0080           0   0.00000   0.00000
     38420 MEOH     2241     MEOH     LP1A     LPD     -0.230000        0.0000           -1   0.00000   0.00000
     38421 MEOH     2241     MEOH     LP1B     LPD     -0.230000        0.0000           -1   0.00000   0.00000
     38422 MEOH     2242     MEOH     C1       CD33B    2.314100       11.6110           0   -1.00000   1.30000
     38423 MEOH     2242     MEOH     DC1      DRUD    -2.454100        0.4000           0   0.00000   0.00000
     38424 MEOH     2242     MEOH     O1       OD31H    2.488300       15.5990           0   -1.02800   1.30000
     38425 MEOH     2242     MEOH     DO1      DRUD    -2.488300        0.4000           0   0.00000   0.00000
     38426 MEOH     2242     MEOH     HO1      HDP1A    0.360000        1.0080           0   0.00000   0.00000
     38427 MEOH     2242     MEOH     HO2      DUMH     0.000000        1.0080           0   0.00000   0.00000
     38428 MEOH     2242     MEOH     H1A      HDA3B    0.080000        1.0080           0   0.00000   0.00000
     38429 MEOH     2242     MEOH     H1B      HDA3B    0.080000        1.0080           0   0.00000   0.00000
     38430 MEOH     2242     MEOH     H1C      HDA3B    0.080000        1.0080           0   0.00000   0.00000
     38431 MEOH     2242     MEOH     LP1A     LPD     -0.230000        0.0000           -1   0.00000   0.00000
     38432 MEOH     2242     MEOH     LP1B     LPD     -0.230000        0.0000           -1   0.00000   0.00000
     38433 MEOH     2243     MEOH     C1       CD33B    2.314100       11.6110           0   -1.00000   1.30000
     38434 MEOH     2243     MEOH     DC1      DRUD    -2.454100        0.4000           0   0.00000   0.00000
     38435 MEOH     2243     MEOH     O1       OD31H    2.488300       15.5990           0   -1.02800   1.30000
     38436 MEOH     2243     MEOH     DO1      DRUD    -2.488300        0.4000           0   0.00000   0.00000
     38437 MEOH     2243     MEOH     HO1      HDP1A    0.360000        1.0080           0   0.00000   0.00000
     38438 MEOH     2243     MEOH     HO2      DUMH     0.000000        1.0080           0   0.00000   0.00000
     38439 MEOH     2243     MEOH     H1A      HDA3B    0.080000        1.0080           0   0.00000   0.00000
     38440 MEOH     2243     MEOH     H1B      HDA3B    0.080000        1.0080           0   0.00000   0.00000
     38441 MEOH     2243     MEOH     H1C      HDA3B    0.080000        1.0080           0   0.00000   0.00000
     38442 MEOH     2243     MEOH     LP1A     LPD     -0.230000        0.0000           -1   0.00000   0.00000
     38443 MEOH     2243     MEOH     LP1B     LPD     -0.230000        0.0000           -1   0.00000   0.00000
     38444 MEOH     2244     MEOH     C1       CD33B    2.314100       11.6110           0   -1.00000   1.30000
     38445 MEOH     2244     MEOH     DC1      DRUD    -2.454100        0.4000           0   0.00000   0.00000
     38446 MEOH     2244     MEOH     O1       OD31H    2.488300       15.5990           0   -1.02800   1.30000
     38447 MEOH     2244     MEOH     DO1      DRUD    -2.488300        0.4000           0   0.00000   0.00000
     38448 MEOH     2244     MEOH     HO1      HDP1A    0.360000        1.0080           0   0.00000   0.00000
     38449 MEOH     2244     MEOH     HO2      DUMH     0.000000        1.0080           0   0.00000   0.00000
     38450 MEOH     2244     MEOH     H1A      HDA3B    0.080000        1.0080           0   0.00000   0.00000
     38451 MEOH     2244     MEOH     H1B      HDA3B    0.080000        1.0080           0   0.00000   0.00000
     38452 MEOH     2244     MEOH     H1C      HDA3B    0.080000        1.0080           0   0.00000   0.00000
     38453 MEOH     2244     MEOH     LP1A     LPD     -0.230000        0.0000           -1   0.00000   0.00000
     38454 MEOH     2244     MEOH     LP1B     LPD     -0.230000        0.0000           -1   0.00000   0.00000
     38455 MEOH     2245     MEOH     C1       CD33B    2.314100       11.6110           0   -1.00000   1.30000
     38456 MEOH     2245     MEOH     DC1      DRUD    -2.454100        0.4000           0   0.00000   0.00000
     38457 MEOH     2245     MEOH     O1       OD31H    2.488300       15.5990           0   -1.02800   1.30000
     38458 MEOH     2245     MEOH     DO1      DRUD    -2.488300        0.4000           0   0.00000   0.00000
     38459 MEOH     2245     MEOH     HO1      HDP1A    0.360000        1.0080           0   0.00000   0.00000
     38460 MEOH     2245     MEOH     HO2      DUMH     0.000000        1.0080           0   0.00000   0.00000
     38461 MEOH     2245     MEOH     H1A      HDA3B    0.080000        1.0080           0   0.00000   0.00000
     38462 MEOH     2245     MEOH     H1B      HDA3B    0.080000        1.0080           0   0.00000   0.00000
     38463 MEOH     2245     MEOH     H1C      HDA3B    0.080000        1.0080           0   0.00000   0.00000
     38464 MEOH     2245     MEOH     LP1A     LPD     -0.230000        0.0000           -1   0.00000   0.00000
     38465 MEOH     2245     MEOH     LP1B     LPD     -0.230000        0.0000           -1   0.00000   0.00000
     38466 MEOH     2246     MEOH     C1       CD33B    2.314100       11.6110           0   -1.00000   1.30000
     38467 MEOH     2246     MEOH     DC1      DRUD    -2.454100        0.4000           0   0.00000   0.00000
     38468 MEOH     2246     MEOH     O1       OD31H    2.488300       15.5990           0   -1.02800   1.30000
     38469 MEOH     2246     MEOH     DO1      DRUD    -2.488300        0.4000           0   0.00000   0.00000
     38470 MEOH     2246     MEOH     HO1      HDP1A    0.360000        1.0080           0   0.00000   0.00000
     38471 MEOH     2246     MEOH     HO2      DUMH     0.000000        1.0080           0   0.00000   0.00000
     38472 MEOH     2246     MEOH     H1A      HDA3B    0.080000        1.0080           0   0.00000   0.00000
     38473 MEOH     2246     MEOH     H1B      HDA3B    0.080000        1.0080           0   0.00000   0.00000
     38474 MEOH     2246     MEOH     H1C      HDA3B    0.080000        1.0080           0   0.00000   0.00000
     38475 MEOH     2246     MEOH     LP1A     LPD     -0.230000        0.0000           -1   0.00000   0.00000
     38476 MEOH     2246     MEOH     LP1B     LPD     -0.230000        0.0000           -1   0.00000   0.00000
     38477 MEOH     2247     MEOH     C1       CD33B    2.314100       11.6110           0   -1.00000   1.30000
     38478 MEOH     2247     MEOH     DC1      DRUD    -2.454100        0.4000           0   0.00000   0.00000
     38479 MEOH     2247     MEOH     O1       OD31H    2.488300       15.5990           0   -1.02800   1.30000
     38480 MEOH     2247     MEOH     DO1      DRUD    -2.488300        0.4000           0   0.00000   0.00000
     38481 MEOH     2247     MEOH     HO1      HDP1A    0.360000        1.0080           0   0.00000   0.00000
     38482 MEOH     2247     MEOH     HO2      DUMH     0.000000        1.0080           0   0.00000   0.00000
     38483 MEOH     2247     MEOH     H1A      HDA3B    0.080000        1.0080           0   0.00000   0.00000
     38484 MEOH     2247     MEOH     H1B      HDA3B    0.080000        1.0080           0   0.00000   0.00000
     38485 MEOH     2247     MEOH     H1C      HDA3B    0.080000        1.0080           0   0.00000   0.00000
     38486 MEOH     2247     MEOH     LP1A     LPD     -0.230000        0.0000           -1   0.00000   0.00000
     38487 MEOH     2247     MEOH     LP1B     LPD     -0.230000        0.0000           -1   0.00000   0.00000
     38488 MEOH     2248     MEOH     C1       CD33B    2.314100       11.6110           0   -1.00000   1.30000
     38489 MEOH     2248     MEOH     DC1      DRUD    -2.454100        0.4000           0   0.00000   0.00000
     38490 MEOH     2248     MEOH     O1       OD31H    2.488300       15.5990           0   -1.02800   1.30000
     38491 MEOH     2248     MEOH     DO1      DRUD    -2.488300        0.4000           0   0.00000   0.00000
     38492 MEOH     2248     MEOH     HO1      HDP1A    0.360000        1.0080           0   0.00000   0.00000
     38493 MEOH     2248     MEOH     HO2      DUMH     0.000000        1.0080           0   0.00000   0.00000
     38494 MEOH     2248     MEOH     H1A      HDA3B    0.080000        1.0080           0   0.00000   0.00000
     38495 MEOH     2248     MEOH     H1B      HDA3B    0.080000        1.0080           0   0.00000   0.00000
     38496 MEOH     2248     MEOH     H1C      HDA3B    0.080000        1.0080           0   0.00000   0.00000
     38497 MEOH     2248     MEOH     LP1A     LPD     -0.230000        0.0000           -1   0.00000   0.00000
     38498 MEOH     2248     MEOH     LP1B     LPD     -0.230000        0.0000           -1   0.00000   0.00000
     38499 MEOH     2249     MEOH     C1       CD33B    2.314100       11.6110           0   -1.00000   1.30000
     38500 MEOH     2249     MEOH     DC1      DRUD    -2.454100        0.4000           0   0.00000   0.00000
     38501 MEOH     2249     MEOH     O1       OD31H    2.488300       15.5990           0   -1.02800   1.30000
     38502 MEOH     2249     MEOH     DO1      DRUD    -2.488300        0.4000           0   0.00000   0.00000
     38503 MEOH     2249     MEOH     HO1      HDP1A    0.360000        1.0080           0   0.00000   0.00000
     38504 MEOH     2249     MEOH     HO2      DUMH     0.000000        1.0080           0   0.00000   0.00000
     38505 MEOH     2249     MEOH     H1A      HDA3B    0.080000        1.0080           0   0.00000   0.00000
     38506 MEOH     2249     MEOH     H1B      HDA3B    0.080000        1.0080           0   0.00000   0.00000
     38507 MEOH     2249     MEOH     H1C      HDA3B    0.080000        1.0080           0   0.00000   0.00000
     38508 MEOH     2249     MEOH     LP1A     LPD     -0.230000        0.0000           -1   0.00000   0.00000
     38509 MEOH     2249     MEOH     LP1B     LPD     -0.230000        0.0000           -1   0.00000   0.00000
     38510 MEOH     2250     MEOH     C1       CD33B    2.314100       11.6110           0   -1.00000   1.30000
     38511 MEOH     2250     MEOH     DC1      DRUD    -2.454100        0.4000           0   0.00000   0.00000
     38512 MEOH     2250     MEOH     O1       OD31H    2.488300       15.5990           0   -1.02800   1.30000
     38513 MEOH     2250     MEOH     DO1      DRUD    -2.488300        0.4000           0   0.00000   0.00000
     38514 MEOH     2250     MEOH     HO1      HDP1A    0.360000        1.0080           0   0.00000   0.00000
     38515 MEOH     2250     MEOH     HO2      DUMH     0.000000        1.0080           0   0.00000   0.00000
     38516 MEOH     2250     MEOH     H1A      HDA3B    0.080000        1.0080           0   0.00000   0.00000
     38517 MEOH     2250     MEOH     H1B      HDA3B    0.080000        1.0080           0   0.00000   0.00000
     38518 MEOH     2250     MEOH     H1C      HDA3B    0.080000        1.0080           0   0.00000   0.00000
     38519 MEOH     2250     MEOH     LP1A     LPD     -0.230000        0.0000           -1   0.00000   0.00000
     38520 MEOH     2250     MEOH     LP1B     LPD     -0.230000        0.0000           -1   0.00000   0.00000
     38521 MEOH     2251     MEOH     C1       CD33B    2.314100       11.6110           0   -1.00000   1.30000
     38522 MEOH     2251     MEOH     DC1      DRUD    -2.454100        0.4000           0   0.00000   0.00000
     38523 MEOH     2251     MEOH     O1       OD31H    2.488300       15.5990           0   -1.02800   1.30000
     38524 MEOH     2251     MEOH     DO1      DRUD    -2.488300        0.4000           0   0.00000   0.00000
     38525 MEOH     2251     MEOH     HO1      HDP1A    0.360000        1.0080           0   0.00000   0.00000
     38526 MEOH     2251     MEOH     HO2      DUMH     0.000000        1.0080           0   0.00000   0.00000
     38527 MEOH     2251     MEOH     H1A      HDA3B    0.080000        1.0080           0   0.00000   0.00000
     38528 MEOH     2251     MEOH     H1B      HDA3B    0.080000        1.0080           0   0.00000   0.00000
     38529 MEOH     2251     MEOH     H1C      HDA3B    0.080000        1.0080           0   0.00000   0.00000
     38530 MEOH     2251     MEOH     LP1A     LPD     -0.230000        0.0000           -1   0.00000   0.00000
     38531 MEOH     2251     MEOH     LP1B     LPD     -0.230000        0.0000           -1   0.00000   0.00000
     38532 MEOH     2252     MEOH     C1       CD33B    2.314100       11.6110           0   -1.00000   1.30000
     38533 MEOH     2252     MEOH     DC1      DRUD    -2.454100        0.4000           0   0.00000   0.00000
     38534 MEOH     2252     MEOH     O1       OD31H    2.488300       15.5990           0   -1.02800   1.30000
     38535 MEOH     2252     MEOH     DO1      DRUD    -2.488300        0.4000           0   0.00000   0.00000
     38536 MEOH     2252     MEOH     HO1      HDP1A    0.360000        1.0080           0   0.00000   0.00000
     38537 MEOH     2252     MEOH     HO2      DUMH     0.000000        1.0080           0   0.00000   0.00000
     38538 MEOH     2252     MEOH     H1A      HDA3B    0.080000        1.0080           0   0.00000   0.00000
     38539 MEOH     2252     MEOH     H1B      HDA3B    0.080000        1.0080           0   0.00000   0.00000
     38540 MEOH     2252     MEOH     H1C      HDA3B    0.080000        1.0080           0   0.00000   0.00000
     38541 MEOH     2252     MEOH     LP1A     LPD     -0.230000        0.0000           -1   0.00000   0.00000
     38542 MEOH     2252     MEOH     LP1B     LPD     -0.230000        0.0000           -1   0.00000   0.00000
     38543 MEOH     2253     MEOH     C1       CD33B    2.314100       11.6110           0   -1.00000   1.30000
     38544 MEOH     2253     MEOH     DC1      DRUD    -2.454100        0.4000           0   0.00000   0.00000
     38545 MEOH     2253     MEOH     O1       OD31H    2.488300       15.5990           0   -1.02800   1.30000
     38546 MEOH     2253     MEOH     DO1      DRUD    -2.488300        0.4000           0   0.00000   0.00000
     38547 MEOH     2253     MEOH     HO1      HDP1A    0.360000        1.0080           0   0.00000   0.00000
     38548 MEOH     2253     MEOH     HO2      DUMH     0.000000        1.0080           0   0.00000   0.00000
     38549 MEOH     2253     MEOH     H1A      HDA3B    0.080000        1.0080           0   0.00000   0.00000
     38550 MEOH     2253     MEOH     H1B      HDA3B    0.080000        1.0080           0   0.00000   0.00000
     38551 MEOH     2253     MEOH     H1C      HDA3B    0.080000        1.0080           0   0.00000   0.00000
     38552 MEOH     2253     MEOH     LP1A     LPD     -0.230000        0.0000           -1   0.00000   0.00000
     38553 MEOH     2253     MEOH     LP1B     LPD     -0.230000        0.0000           -1   0.00000   0.00000
     38554 MEOH     2254     MEOH     C1       CD33B    2.314100       11.6110           0   -1.00000   1.30000
     38555 MEOH     2254     MEOH     DC1      DRUD    -2.454100        0.4000           0   0.00000   0.00000
     38556 MEOH     2254     MEOH     O1       OD31H    2.488300       15.5990           0   -1.02800   1.30000
     38557 MEOH     2254     MEOH     DO1      DRUD    -2.488300        0.4000           0   0.00000   0.00000
     38558 MEOH     2254     MEOH     HO1      HDP1A    0.360000        1.0080           0   0.00000   0.00000
     38559 MEOH     2254     MEOH     HO2      DUMH     0.000000        1.0080           0   0.00000   0.00000
     38560 MEOH     2254     MEOH     H1A      HDA3B    0.080000        1.0080           0   0.00000   0.00000
     38561 MEOH     2254     MEOH     H1B      HDA3B    0.080000        1.0080           0   0.00000   0.00000
     38562 MEOH     2254     MEOH     H1C      HDA3B    0.080000        1.0080           0   0.00000   0.00000
     38563 MEOH     2254     MEOH     LP1A     LPD     -0.230000        0.0000           -1   0.00000   0.00000
     38564 MEOH     2254     MEOH     LP1B     LPD     -0.230000        0.0000           -1   0.00000   0.00000
     38565 MEOH     2255     MEOH     C1       CD33B    2.314100       11.6110           0   -1.00000   1.30000
     38566 MEOH     2255     MEOH     DC1      DRUD    -2.454100        0.4000           0   0.00000   0.00000
     38567 MEOH     2255     MEOH     O1       OD31H    2.488300       15.5990           0   -1.02800   1.30000
     38568 MEOH     2255     MEOH     DO1      DRUD    -2.488300        0.4000           0   0.00000   0.00000
     38569 MEOH     2255     MEOH     HO1      HDP1A    0.360000        1.0080           0   0.00000   0.00000
     38570 MEOH     2255     MEOH     HO2      DUMH     0.000000        1.0080           0   0.00000   0.00000
     38571 MEOH     2255     MEOH     H1A      HDA3B    0.080000        1.0080           0   0.00000   0.00000
     38572 MEOH     2255     MEOH     H1B      HDA3B    0.080000        1.0080           0   0.00000   0.00000
     38573 MEOH     2255     MEOH     H1C      HDA3B    0.080000        1.0080           0   0.00000   0.00000
     38574 MEOH     2255     MEOH     LP1A     LPD     -0.230000        0.0000           -1   0.00000   0.00000
     38575 MEOH     2255     MEOH     LP1B     LPD     -0.230000        0.0000           -1   0.00000   0.00000
     38576 MEOH     2256     MEOH     C1       CD33B    2.314100       11.6110           0   -1.00000   1.30000
     38577 MEOH     2256     MEOH     DC1      DRUD    -2.454100        0.4000           0   0.00000   0.00000
     38578 MEOH     2256     MEOH     O1       OD31H    2.488300       15.5990           0   -1.02800   1.30000
     38579 MEOH     2256     MEOH     DO1      DRUD    -2.488300        0.4000           0   0.00000   0.00000
     38580 MEOH     2256     MEOH     HO1      HDP1A    0.360000        1.0080           0   0.00000   0.00000
     38581 MEOH     2256     MEOH     HO2      DUMH     0.000000        1.0080           0   0.00000   0.00000
     38582 MEOH     2256     MEOH     H1A      HDA3B    0.080000        1.0080           0   0.00000   0.00000
     38583 MEOH     2256     MEOH     H1B      HDA3B    0.080000        1.0080           0   0.00000   0.00000
     38584 MEOH     2256     MEOH     H1C      HDA3B    0.080000        1.0080           0   0.00000   0.00000
     38585 MEOH     2256     MEOH     LP1A     LPD     -0.230000        0.0000           -1   0.00000   0.00000
     38586 MEOH     2256     MEOH     LP1B     LPD     -0.230000        0.0000           -1   0.00000   0.00000
     38587 MEOH     2257     MEOH     C1       CD33B    2.314100       11.6110           0   -1.00000   1.30000
     38588 MEOH     2257     MEOH     DC1      DRUD    -2.454100        0.4000           0   0.00000   0.00000
     38589 MEOH     2257     MEOH     O1       OD31H    2.488300       15.5990           0   -1.02800   1.30000
     38590 MEOH     2257     MEOH     DO1      DRUD    -2.488300        0.4000           0   0.00000   0.00000
     38591 MEOH     2257     MEOH     HO1      HDP1A    0.360000        1.0080           0   0.00000   0.00000
     38592 MEOH     2257     MEOH     HO2      DUMH     0.000000        1.0080           0   0.00000   0.00000
     38593 MEOH     2257     MEOH     H1A      HDA3B    0.080000        1.0080           0   0.00000   0.00000
     38594 MEOH     2257     MEOH     H1B      HDA3B    0.080000        1.0080           0   0.00000   0.00000
     38595 MEOH     2257     MEOH     H1C      HDA3B    0.080000        1.0080           0   0.00000   0.00000
     38596 MEOH     2257     MEOH     LP1A     LPD     -0.230000        0.0000           -1   0.00000   0.00000
     38597 MEOH     2257     MEOH     LP1B     LPD     -0.230000        0.0000           -1   0.00000   0.00000
     38598 MEOH     2258     MEOH     C1       CD33B    2.314100       11.6110           0   -1.00000   1.30000
     38599 MEOH     2258     MEOH     DC1      DRUD    -2.454100        0.4000           0   0.00000   0.00000
     38600 MEOH     2258     MEOH     O1       OD31H    2.488300       15.5990           0   -1.02800   1.30000
     38601 MEOH     2258     MEOH     DO1      DRUD    -2.488300        0.4000           0   0.00000   0.00000
     38602 MEOH     2258     MEOH     HO1      HDP1A    0.360000        1.0080           0   0.00000   0.00000
     38603 MEOH     2258     MEOH     HO2      DUMH     0.000000        1.0080           0   0.00000   0.00000
     38604 MEOH     2258     MEOH     H1A      HDA3B    0.080000        1.0080           0   0.00000   0.00000
     38605 MEOH     2258     MEOH     H1B      HDA3B    0.080000        1.0080           0   0.00000   0.00000
     38606 MEOH     2258     MEOH     H1C      HDA3B    0.080000        1.0080           0   0.00000   0.00000
     38607 MEOH     2258     MEOH     LP1A     LPD     -0.230000        0.0000           -1   0.00000   0.00000
     38608 MEOH     2258     MEOH     LP1B     LPD     -0.230000        0.0000           -1   0.00000   0.00000
     38609 MEOH     2259     MEOH     C1       CD33B    2.314100       11.6110           0   -1.00000   1.30000
     38610 MEOH     2259     MEOH     DC1      DRUD    -2.454100        0.4000           0   0.00000   0.00000
     38611 MEOH     2259     MEOH     O1       OD31H    2.488300       15.5990           0   -1.02800   1.30000
     38612 MEOH     2259     MEOH     DO1      DRUD    -2.488300        0.4000           0   0.00000   0.00000
     38613 MEOH     2259     MEOH     HO1      HDP1A    0.360000        1.0080           0   0.00000   0.00000
     38614 MEOH     2259     MEOH     HO2      DUMH     0.000000        1.0080           0   0.00000   0.00000
     38615 MEOH     2259     MEOH     H1A      HDA3B    0.080000        1.0080           0   0.00000   0.00000
     38616 MEOH     2259     MEOH     H1B      HDA3B    0.080000        1.0080           0   0.00000   0.00000
     38617 MEOH     2259     MEOH     H1C      HDA3B    0.080000        1.0080           0   0.00000   0.00000
     38618 MEOH     2259     MEOH     LP1A     LPD     -0.230000        0.0000           -1   0.00000   0.00000
     38619 MEOH     2259     MEOH     LP1B     LPD     -0.230000        0.0000           -1   0.00000   0.00000
     38620 MEOH     2260     MEOH     C1       CD33B    2.314100       11.6110           0   -1.00000   1.30000
     38621 MEOH     2260     MEOH     DC1      DRUD    -2.454100        0.4000           0   0.00000   0.00000
     38622 MEOH     2260     MEOH     O1       OD31H    2.488300       15.5990           0   -1.02800   1.30000
     38623 MEOH     2260     MEOH     DO1      DRUD    -2.488300        0.4000           0   0.00000   0.00000
     38624 MEOH     2260     MEOH     HO1      HDP1A    0.360000        1.0080           0   0.00000   0.00000
     38625 MEOH     2260     MEOH     HO2      DUMH     0.000000        1.0080           0   0.00000   0.00000
     38626 MEOH     2260     MEOH     H1A      HDA3B    0.080000        1.0080           0   0.00000   0.00000
     38627 MEOH     2260     MEOH     H1B      HDA3B    0.080000        1.0080           0   0.00000   0.00000
     38628 MEOH     2260     MEOH     H1C      HDA3B    0.080000        1.0080           0   0.00000   0.00000
     38629 MEOH     2260     MEOH     LP1A     LPD     -0.230000        0.0000           -1   0.00000   0.00000
     38630 MEOH     2260     MEOH     LP1B     LPD     -0.230000        0.0000           -1   0.00000   0.00000
     38631 MEOH     2261     MEOH     C1       CD33B    2.314100       11.6110           0   -1.00000   1.30000
     38632 MEOH     2261     MEOH     DC1      DRUD    -2.454100        0.4000           0   0.00000   0.00000
     38633 MEOH     2261     MEOH     O1       OD31H    2.488300       15.5990           0   -1.02800   1.30000
     38634 MEOH     2261     MEOH     DO1      DRUD    -2.488300        0.4000           0   0.00000   0.00000
     38635 MEOH     2261     MEOH     HO1      HDP1A    0.360000        1.0080           0   0.00000   0.00000
     38636 MEOH     2261     MEOH     HO2      DUMH     0.000000        1.0080           0   0.00000   0.00000
     38637 MEOH     2261     MEOH     H1A      HDA3B    0.080000        1.0080           0   0.00000   0.00000
     38638 MEOH     2261     MEOH     H1B      HDA3B    0.080000        1.0080           0   0.00000   0.00000
     38639 MEOH     2261     MEOH     H1C      HDA3B    0.080000        1.0080           0   0.00000   0.00000
     38640 MEOH     2261     MEOH     LP1A     LPD     -0.230000        0.0000           -1   0.00000   0.00000
     38641 MEOH     2261     MEOH     LP1B     LPD     -0.230000        0.0000           -1   0.00000   0.00000
     38642 MEOH     2262     MEOH     C1       CD33B    2.314100       11.6110           0   -1.00000   1.30000
     38643 MEOH     2262     MEOH     DC1      DRUD    -2.454100        0.4000           0   0.00000   0.00000
     38644 MEOH     2262     MEOH     O1       OD31H    2.488300       15.5990           0   -1.02800   1.30000
     38645 MEOH     2262     MEOH     DO1      DRUD    -2.488300        0.4000           0   0.00000   0.00000
     38646 MEOH     2262     MEOH     HO1      HDP1A    0.360000        1.0080           0   0.00000   0.00000
     38647 MEOH     2262     MEOH     HO2      DUMH     0.000000        1.0080           0   0.00000   0.00000
     38648 MEOH     2262     MEOH     H1A      HDA3B    0.080000        1.0080           0   0.00000   0.00000
     38649 MEOH     2262     MEOH     H1B      HDA3B    0.080000        1.0080           0   0.00000   0.00000
     38650 MEOH     2262     MEOH     H1C      HDA3B    0.080000        1.0080           0   0.00000   0.00000
     38651 MEOH     2262     MEOH     LP1A     LPD     -0.230000        0.0000           -1   0.00000   0.00000
     38652 MEOH     2262     MEOH     LP1B     LPD     -0.230000        0.0000           -1   0.00000   0.00000
     38653 MEOH     2263     MEOH     C1       CD33B    2.314100       11.6110           0   -1.00000   1.30000
     38654 MEOH     2263     MEOH     DC1      DRUD    -2.454100        0.4000           0   0.00000   0.00000
     38655 MEOH     2263     MEOH     O1       OD31H    2.488300       15.5990           0   -1.02800   1.30000
     38656 MEOH     2263     MEOH     DO1      DRUD    -2.488300        0.4000           0   0.00000   0.00000
     38657 MEOH     2263     MEOH     HO1      HDP1A    0.360000        1.0080           0   0.00000   0.00000
     38658 MEOH     2263     MEOH     HO2      DUMH     0.000000        1.0080           0   0.00000   0.00000
     38659 MEOH     2263     MEOH     H1A      HDA3B    0.080000        1.0080           0   0.00000   0.00000
     38660 MEOH     2263     MEOH     H1B      HDA3B    0.080000        1.0080           0   0.00000   0.00000
     38661 MEOH     2263     MEOH     H1C      HDA3B    0.080000        1.0080           0   0.00000   0.00000
     38662 MEOH     2263     MEOH     LP1A     LPD     -0.230000        0.0000           -1   0.00000   0.00000
     38663 MEOH     2263     MEOH     LP1B     LPD     -0.230000        0.0000           -1   0.00000   0.00000
     38664 MEOH     2264     MEOH     C1       CD33B    2.314100       11.6110           0   -1.00000   1.30000
     38665 MEOH     2264     MEOH     DC1      DRUD    -2.454100        0.4000           0   0.00000   0.00000
     38666 MEOH     2264     MEOH     O1       OD31H    2.488300       15.5990           0   -1.02800   1.30000
     38667 MEOH     2264     MEOH     DO1      DRUD    -2.488300        0.4000           0   0.00000   0.00000
     38668 MEOH     2264     MEOH     HO1      HDP1A    0.360000        1.0080           0   0.00000   0.00000
     38669 MEOH     2264     MEOH     HO2      DUMH     0.000000        1.0080           0   0.00000   0.00000
     38670 MEOH     2264     MEOH     H1A      HDA3B    0.080000        1.0080           0   0.00000   0.00000
     38671 MEOH     2264     MEOH     H1B      HDA3B    0.080000        1.0080           0   0.00000   0.00000
     38672 MEOH     2264     MEOH     H1C      HDA3B    0.080000        1.0080           0   0.00000   0.00000
     38673 MEOH     2264     MEOH     LP1A     LPD     -0.230000        0.0000           -1   0.00000   0.00000
     38674 MEOH     2264     MEOH     LP1B     LPD     -0.230000        0.0000           -1   0.00000   0.00000
     38675 MEOH     2265     MEOH     C1       CD33B    2.314100       11.6110           0   -1.00000   1.30000
     38676 MEOH     2265     MEOH     DC1      DRUD    -2.454100        0.4000           0   0.00000   0.00000
     38677 MEOH     2265     MEOH     O1       OD31H    2.488300       15.5990           0   -1.02800   1.30000
     38678 MEOH     2265     MEOH     DO1      DRUD    -2.488300        0.4000           0   0.00000   0.00000
     38679 MEOH     2265     MEOH     HO1      HDP1A    0.360000        1.0080           0   0.00000   0.00000
     38680 MEOH     2265     MEOH     HO2      DUMH     0.000000        1.0080           0   0.00000   0.00000
     38681 MEOH     2265     MEOH     H1A      HDA3B    0.080000        1.0080           0   0.00000   0.00000
     38682 MEOH     2265     MEOH     H1B      HDA3B    0.080000        1.0080           0   0.00000   0.00000
     38683 MEOH     2265     MEOH     H1C      HDA3B    0.080000        1.0080           0   0.00000   0.00000
     38684 MEOH     2265     MEOH     LP1A     LPD     -0.230000        0.0000           -1   0.00000   0.00000
     38685 MEOH     2265     MEOH     LP1B     LPD     -0.230000        0.0000           -1   0.00000   0.00000
     38686 MEOH     2266     MEOH     C1       CD33B    2.314100       11.6110           0   -1.00000   1.30000
     38687 MEOH     2266     MEOH     DC1      DRUD    -2.454100        0.4000           0   0.00000   0.00000
     38688 MEOH     2266     MEOH     O1       OD31H    2.488300       15.5990           0   -1.02800   1.30000
     38689 MEOH     2266     MEOH     DO1      DRUD    -2.488300        0.4000           0   0.00000   0.00000
     38690 MEOH     2266     MEOH     HO1      HDP1A    0.360000        1.0080           0   0.00000   0.00000
     38691 MEOH     2266     MEOH     HO2      DUMH     0.000000        1.0080           0   0.00000   0.00000
     38692 MEOH     2266     MEOH     H1A      HDA3B    0.080000        1.0080           0   0.00000   0.00000
     38693 MEOH     2266     MEOH     H1B      HDA3B    0.080000        1.0080           0   0.00000   0.00000
     38694 MEOH     2266     MEOH     H1C      HDA3B    0.080000        1.0080           0   0.00000   0.00000
     38695 MEOH     2266     MEOH     LP1A     LPD     -0.230000        0.0000           -1   0.00000   0.00000
     38696 MEOH     2266     MEOH     LP1B     LPD     -0.230000        0.0000           -1   0.00000   0.00000
     38697 MEOH     2267     MEOH     C1       CD33B    2.314100       11.6110           0   -1.00000   1.30000
     38698 MEOH     2267     MEOH     DC1      DRUD    -2.454100        0.4000           0   0.00000   0.00000
     38699 MEOH     2267     MEOH     O1       OD31H    2.488300       15.5990           0   -1.02800   1.30000
     38700 MEOH     2267     MEOH     DO1      DRUD    -2.488300        0.4000           0   0.00000   0.00000
     38701 MEOH     2267     MEOH     HO1      HDP1A    0.360000        1.0080           0   0.00000   0.00000
     38702 MEOH     2267     MEOH     HO2      DUMH     0.000000        1.0080           0   0.00000   0.00000
     38703 MEOH     2267     MEOH     H1A      HDA3B    0.080000        1.0080           0   0.00000   0.00000
     38704 MEOH     2267     MEOH     H1B      HDA3B    0.080000        1.0080           0   0.00000   0.00000
     38705 MEOH     2267     MEOH     H1C      HDA3B    0.080000        1.0080           0   0.00000   0.00000
     38706 MEOH     2267     MEOH     LP1A     LPD     -0.230000        0.0000           -1   0.00000   0.00000
     38707 MEOH     2267     MEOH     LP1B     LPD     -0.230000        0.0000           -1   0.00000   0.00000
     38708 MEOH     2268     MEOH     C1       CD33B    2.314100       11.6110           0   -1.00000   1.30000
     38709 MEOH     2268     MEOH     DC1      DRUD    -2.454100        0.4000           0   0.00000   0.00000
     38710 MEOH     2268     MEOH     O1       OD31H    2.488300       15.5990           0   -1.02800   1.30000
     38711 MEOH     2268     MEOH     DO1      DRUD    -2.488300        0.4000           0   0.00000   0.00000
     38712 MEOH     2268     MEOH     HO1      HDP1A    0.360000        1.0080           0   0.00000   0.00000
     38713 MEOH     2268     MEOH     HO2      DUMH     0.000000        1.0080           0   0.00000   0.00000
     38714 MEOH     2268     MEOH     H1A      HDA3B    0.080000        1.0080           0   0.00000   0.00000
     38715 MEOH     2268     MEOH     H1B      HDA3B    0.080000        1.0080           0   0.00000   0.00000
     38716 MEOH     2268     MEOH     H1C      HDA3B    0.080000        1.0080           0   0.00000   0.00000
     38717 MEOH     2268     MEOH     LP1A     LPD     -0.230000        0.0000           -1   0.00000   0.00000
     38718 MEOH     2268     MEOH     LP1B     LPD     -0.230000        0.0000           -1   0.00000   0.00000
     38719 MEOH     2269     MEOH     C1       CD33B    2.314100       11.6110           0   -1.00000   1.30000
     38720 MEOH     2269     MEOH     DC1      DRUD    -2.454100        0.4000           0   0.00000   0.00000
     38721 MEOH     2269     MEOH     O1       OD31H    2.488300       15.5990           0   -1.02800   1.30000
     38722 MEOH     2269     MEOH     DO1      DRUD    -2.488300        0.4000           0   0.00000   0.00000
     38723 MEOH     2269     MEOH     HO1      HDP1A    0.360000        1.0080           0   0.00000   0.00000
     38724 MEOH     2269     MEOH     HO2      DUMH     0.000000        1.0080           0   0.00000   0.00000
     38725 MEOH     2269     MEOH     H1A      HDA3B    0.080000        1.0080           0   0.00000   0.00000
     38726 MEOH     2269     MEOH     H1B      HDA3B    0.080000        1.0080           0   0.00000   0.00000
     38727 MEOH     2269     MEOH     H1C      HDA3B    0.080000        1.0080           0   0.00000   0.00000
     38728 MEOH     2269     MEOH     LP1A     LPD     -0.230000        0.0000           -1   0.00000   0.00000
     38729 MEOH     2269     MEOH     LP1B     LPD     -0.230000        0.0000           -1   0.00000   0.00000
     38730 MEOH     2270     MEOH     C1       CD33B    2.314100       11.6110           0   -1.00000   1.30000
     38731 MEOH     2270     MEOH     DC1      DRUD    -2.454100        0.4000           0   0.00000   0.00000
     38732 MEOH     2270     MEOH     O1       OD31H    2.488300       15.5990           0   -1.02800   1.30000
     38733 MEOH     2270     MEOH     DO1      DRUD    -2.488300        0.4000           0   0.00000   0.00000
     38734 MEOH     2270     MEOH     HO1      HDP1A    0.360000        1.0080           0   0.00000   0.00000
     38735 MEOH     2270     MEOH     HO2      DUMH     0.000000        1.0080           0   0.00000   0.00000
     38736 MEOH     2270     MEOH     H1A      HDA3B    0.080000        1.0080           0   0.00000   0.00000
     38737 MEOH     2270     MEOH     H1B      HDA3B    0.080000        1.0080           0   0.00000   0.00000
     38738 MEOH     2270     MEOH     H1C      HDA3B    0.080000        1.0080           0   0.00000   0.00000
     38739 MEOH     2270     MEOH     LP1A     LPD     -0.230000        0.0000           -1   0.00000   0.00000
     38740 MEOH     2270     MEOH     LP1B     LPD     -0.230000        0.0000           -1   0.00000   0.00000
     38741 MEOH     2271     MEOH     C1       CD33B    2.314100       11.6110           0   -1.00000   1.30000
     38742 MEOH     2271     MEOH     DC1      DRUD    -2.454100        0.4000           0   0.00000   0.00000
     38743 MEOH     2271     MEOH     O1       OD31H    2.488300       15.5990           0   -1.02800   1.30000
     38744 MEOH     2271     MEOH     DO1      DRUD    -2.488300        0.4000           0   0.00000   0.00000
     38745 MEOH     2271     MEOH     HO1      HDP1A    0.360000        1.0080           0   0.00000   0.00000
     38746 MEOH     2271     MEOH     HO2      DUMH     0.000000        1.0080           0   0.00000   0.00000
     38747 MEOH     2271     MEOH     H1A      HDA3B    0.080000        1.0080           0   0.00000   0.00000
     38748 MEOH     2271     MEOH     H1B      HDA3B    0.080000        1.0080           0   0.00000   0.00000
     38749 MEOH     2271     MEOH     H1C      HDA3B    0.080000        1.0080           0   0.00000   0.00000
     38750 MEOH     2271     MEOH     LP1A     LPD     -0.230000        0.0000           -1   0.00000   0.00000
     38751 MEOH     2271     MEOH     LP1B     LPD     -0.230000        0.0000           -1   0.00000   0.00000
     38752 MEOH     2272     MEOH     C1       CD33B    2.314100       11.6110           0   -1.00000   1.30000
     38753 MEOH     2272     MEOH     DC1      DRUD    -2.454100        0.4000           0   0.00000   0.00000
     38754 MEOH     2272     MEOH     O1       OD31H    2.488300       15.5990           0   -1.02800   1.30000
     38755 MEOH     2272     MEOH     DO1      DRUD    -2.488300        0.4000           0   0.00000   0.00000
     38756 MEOH     2272     MEOH     HO1      HDP1A    0.360000        1.0080           0   0.00000   0.00000
     38757 MEOH     2272     MEOH     HO2      DUMH     0.000000        1.0080           0   0.00000   0.00000
     38758 MEOH     2272     MEOH     H1A      HDA3B    0.080000        1.0080           0   0.00000   0.00000
     38759 MEOH     2272     MEOH     H1B      HDA3B    0.080000        1.0080           0   0.00000   0.00000
     38760 MEOH     2272     MEOH     H1C      HDA3B    0.080000        1.0080           0   0.00000   0.00000
     38761 MEOH     2272     MEOH     LP1A     LPD     -0.230000        0.0000           -1   0.00000   0.00000
     38762 MEOH     2272     MEOH     LP1B     LPD     -0.230000        0.0000           -1   0.00000   0.00000
     38763 MEOH     2273     MEOH     C1       CD33B    2.314100       11.6110           0   -1.00000   1.30000
     38764 MEOH     2273     MEOH     DC1      DRUD    -2.454100        0.4000           0   0.00000   0.00000
     38765 MEOH     2273     MEOH     O1       OD31H    2.488300       15.5990           0   -1.02800   1.30000
     38766 MEOH     2273     MEOH     DO1      DRUD    -2.488300        0.4000           0   0.00000   0.00000
     38767 MEOH     2273     MEOH     HO1      HDP1A    0.360000        1.0080           0   0.00000   0.00000
     38768 MEOH     2273     MEOH     HO2      DUMH     0.000000        1.0080           0   0.00000   0.00000
     38769 MEOH     2273     MEOH     H1A      HDA3B    0.080000        1.0080           0   0.00000   0.00000
     38770 MEOH     2273     MEOH     H1B      HDA3B    0.080000        1.0080           0   0.00000   0.00000
     38771 MEOH     2273     MEOH     H1C      HDA3B    0.080000        1.0080           0   0.00000   0.00000
     38772 MEOH     2273     MEOH     LP1A     LPD     -0.230000        0.0000           -1   0.00000   0.00000
     38773 MEOH     2273     MEOH     LP1B     LPD     -0.230000        0.0000           -1   0.00000   0.00000
     38774 MEOH     2274     MEOH     C1       CD33B    2.314100       11.6110           0   -1.00000   1.30000
     38775 MEOH     2274     MEOH     DC1      DRUD    -2.454100        0.4000           0   0.00000   0.00000
     38776 MEOH     2274     MEOH     O1       OD31H    2.488300       15.5990           0   -1.02800   1.30000
     38777 MEOH     2274     MEOH     DO1      DRUD    -2.488300        0.4000           0   0.00000   0.00000
     38778 MEOH     2274     MEOH     HO1      HDP1A    0.360000        1.0080           0   0.00000   0.00000
     38779 MEOH     2274     MEOH     HO2      DUMH     0.000000        1.0080           0   0.00000   0.00000
     38780 MEOH     2274     MEOH     H1A      HDA3B    0.080000        1.0080           0   0.00000   0.00000
     38781 MEOH     2274     MEOH     H1B      HDA3B    0.080000        1.0080           0   0.00000   0.00000
     38782 MEOH     2274     MEOH     H1C      HDA3B    0.080000        1.0080           0   0.00000   0.00000
     38783 MEOH     2274     MEOH     LP1A     LPD     -0.230000        0.0000           -1   0.00000   0.00000
     38784 MEOH     2274     MEOH     LP1B     LPD     -0.230000        0.0000           -1   0.00000   0.00000
     38785 MEOH     2275     MEOH     C1       CD33B    2.314100       11.6110           0   -1.00000   1.30000
     38786 MEOH     2275     MEOH     DC1      DRUD    -2.454100        0.4000           0   0.00000   0.00000
     38787 MEOH     2275     MEOH     O1       OD31H    2.488300       15.5990           0   -1.02800   1.30000
     38788 MEOH     2275     MEOH     DO1      DRUD    -2.488300        0.4000           0   0.00000   0.00000
     38789 MEOH     2275     MEOH     HO1      HDP1A    0.360000        1.0080           0   0.00000   0.00000
     38790 MEOH     2275     MEOH     HO2      DUMH     0.000000        1.0080           0   0.00000   0.00000
     38791 MEOH     2275     MEOH     H1A      HDA3B    0.080000        1.0080           0   0.00000   0.00000
     38792 MEOH     2275     MEOH     H1B      HDA3B    0.080000        1.0080           0   0.00000   0.00000
     38793 MEOH     2275     MEOH     H1C      HDA3B    0.080000        1.0080           0   0.00000   0.00000
     38794 MEOH     2275     MEOH     LP1A     LPD     -0.230000        0.0000           -1   0.00000   0.00000
     38795 MEOH     2275     MEOH     LP1B     LPD     -0.230000        0.0000           -1   0.00000   0.00000
     38796 MEOH     2276     MEOH     C1       CD33B    2.314100       11.6110           0   -1.00000   1.30000
     38797 MEOH     2276     MEOH     DC1      DRUD    -2.454100        0.4000           0   0.00000   0.00000
     38798 MEOH     2276     MEOH     O1       OD31H    2.488300       15.5990           0   -1.02800   1.30000
     38799 MEOH     2276     MEOH     DO1      DRUD    -2.488300        0.4000           0   0.00000   0.00000
     38800 MEOH     2276     MEOH     HO1      HDP1A    0.360000        1.0080           0   0.00000   0.00000
     38801 MEOH     2276     MEOH     HO2      DUMH     0.000000        1.0080           0   0.00000   0.00000
     38802 MEOH     2276     MEOH     H1A      HDA3B    0.080000        1.0080           0   0.00000   0.00000
     38803 MEOH     2276     MEOH     H1B      HDA3B    0.080000        1.0080           0   0.00000   0.00000
     38804 MEOH     2276     MEOH     H1C      HDA3B    0.080000        1.0080           0   0.00000   0.00000
     38805 MEOH     2276     MEOH     LP1A     LPD     -0.230000        0.0000           -1   0.00000   0.00000
     38806 MEOH     2276     MEOH     LP1B     LPD     -0.230000        0.0000           -1   0.00000   0.00000
     38807 MEOH     2277     MEOH     C1       CD33B    2.314100       11.6110           0   -1.00000   1.30000
     38808 MEOH     2277     MEOH     DC1      DRUD    -2.454100        0.4000           0   0.00000   0.00000
     38809 MEOH     2277     MEOH     O1       OD31H    2.488300       15.5990           0   -1.02800   1.30000
     38810 MEOH     2277     MEOH     DO1      DRUD    -2.488300        0.4000           0   0.00000   0.00000
     38811 MEOH     2277     MEOH     HO1      HDP1A    0.360000        1.0080           0   0.00000   0.00000
     38812 MEOH     2277     MEOH     HO2      DUMH     0.000000        1.0080           0   0.00000   0.00000
     38813 MEOH     2277     MEOH     H1A      HDA3B    0.080000        1.0080           0   0.00000   0.00000
     38814 MEOH     2277     MEOH     H1B      HDA3B    0.080000        1.0080           0   0.00000   0.00000
     38815 MEOH     2277     MEOH     H1C      HDA3B    0.080000        1.0080           0   0.00000   0.00000
     38816 MEOH     2277     MEOH     LP1A     LPD     -0.230000        0.0000           -1   0.00000   0.00000
     38817 MEOH     2277     MEOH     LP1B     LPD     -0.230000        0.0000           -1   0.00000   0.00000
     38818 MEOH     2278     MEOH     C1       CD33B    2.314100       11.6110           0   -1.00000   1.30000
     38819 MEOH     2278     MEOH     DC1      DRUD    -2.454100        0.4000           0   0.00000   0.00000
     38820 MEOH     2278     MEOH     O1       OD31H    2.488300       15.5990           0   -1.02800   1.30000
     38821 MEOH     2278     MEOH     DO1      DRUD    -2.488300        0.4000           0   0.00000   0.00000
     38822 MEOH     2278     MEOH     HO1      HDP1A    0.360000        1.0080           0   0.00000   0.00000
     38823 MEOH     2278     MEOH     HO2      DUMH     0.000000        1.0080           0   0.00000   0.00000
     38824 MEOH     2278     MEOH     H1A      HDA3B    0.080000        1.0080           0   0.00000   0.00000
     38825 MEOH     2278     MEOH     H1B      HDA3B    0.080000        1.0080           0   0.00000   0.00000
     38826 MEOH     2278     MEOH     H1C      HDA3B    0.080000        1.0080           0   0.00000   0.00000
     38827 MEOH     2278     MEOH     LP1A     LPD     -0.230000        0.0000           -1   0.00000   0.00000
     38828 MEOH     2278     MEOH     LP1B     LPD     -0.230000        0.0000           -1   0.00000   0.00000
     38829 MEOH     2279     MEOH     C1       CD33B    2.314100       11.6110           0   -1.00000   1.30000
     38830 MEOH     2279     MEOH     DC1      DRUD    -2.454100        0.4000           0   0.00000   0.00000
     38831 MEOH     2279     MEOH     O1       OD31H    2.488300       15.5990           0   -1.02800   1.30000
     38832 MEOH     2279     MEOH     DO1      DRUD    -2.488300        0.4000           0   0.00000   0.00000
     38833 MEOH     2279     MEOH     HO1      HDP1A    0.360000        1.0080           0   0.00000   0.00000
     38834 MEOH     2279     MEOH     HO2      DUMH     0.000000        1.0080           0   0.00000   0.00000
     38835 MEOH     2279     MEOH     H1A      HDA3B    0.080000        1.0080           0   0.00000   0.00000
     38836 MEOH     2279     MEOH     H1B      HDA3B    0.080000        1.0080           0   0.00000   0.00000
     38837 MEOH     2279     MEOH     H1C      HDA3B    0.080000        1.0080           0   0.00000   0.00000
     38838 MEOH     2279     MEOH     LP1A     LPD     -0.230000        0.0000           -1   0.00000   0.00000
     38839 MEOH     2279     MEOH     LP1B     LPD     -0.230000        0.0000           -1   0.00000   0.00000
     38840 MEOH     2280     MEOH     C1       CD33B    2.314100       11.6110           0   -1.00000   1.30000
     38841 MEOH     2280     MEOH     DC1      DRUD    -2.454100        0.4000           0   0.00000   0.00000
     38842 MEOH     2280     MEOH     O1       OD31H    2.488300       15.5990           0   -1.02800   1.30000
     38843 MEOH     2280     MEOH     DO1      DRUD    -2.488300        0.4000           0   0.00000   0.00000
     38844 MEOH     2280     MEOH     HO1      HDP1A    0.360000        1.0080           0   0.00000   0.00000
     38845 MEOH     2280     MEOH     HO2      DUMH     0.000000        1.0080           0   0.00000   0.00000
     38846 MEOH     2280     MEOH     H1A      HDA3B    0.080000        1.0080           0   0.00000   0.00000
     38847 MEOH     2280     MEOH     H1B      HDA3B    0.080000        1.0080           0   0.00000   0.00000
     38848 MEOH     2280     MEOH     H1C      HDA3B    0.080000        1.0080           0   0.00000   0.00000
     38849 MEOH     2280     MEOH     LP1A     LPD     -0.230000        0.0000           -1   0.00000   0.00000
     38850 MEOH     2280     MEOH     LP1B     LPD     -0.230000        0.0000           -1   0.00000   0.00000
     38851 MEOH     2281     MEOH     C1       CD33B    2.314100       11.6110           0   -1.00000   1.30000
     38852 MEOH     2281     MEOH     DC1      DRUD    -2.454100        0.4000           0   0.00000   0.00000
     38853 MEOH     2281     MEOH     O1       OD31H    2.488300       15.5990           0   -1.02800   1.30000
     38854 MEOH     2281     MEOH     DO1      DRUD    -2.488300        0.4000           0   0.00000   0.00000
     38855 MEOH     2281     MEOH     HO1      HDP1A    0.360000        1.0080           0   0.00000   0.00000
     38856 MEOH     2281     MEOH     HO2      DUMH     0.000000        1.0080           0   0.00000   0.00000
     38857 MEOH     2281     MEOH     H1A      HDA3B    0.080000        1.0080           0   0.00000   0.00000
     38858 MEOH     2281     MEOH     H1B      HDA3B    0.080000        1.0080           0   0.00000   0.00000
     38859 MEOH     2281     MEOH     H1C      HDA3B    0.080000        1.0080           0   0.00000   0.00000
     38860 MEOH     2281     MEOH     LP1A     LPD     -0.230000        0.0000           -1   0.00000   0.00000
     38861 MEOH     2281     MEOH     LP1B     LPD     -0.230000        0.0000           -1   0.00000   0.00000
     38862 MEOH     2282     MEOH     C1       CD33B    2.314100       11.6110           0   -1.00000   1.30000
     38863 MEOH     2282     MEOH     DC1      DRUD    -2.454100        0.4000           0   0.00000   0.00000
     38864 MEOH     2282     MEOH     O1       OD31H    2.488300       15.5990           0   -1.02800   1.30000
     38865 MEOH     2282     MEOH     DO1      DRUD    -2.488300        0.4000           0   0.00000   0.00000
     38866 MEOH     2282     MEOH     HO1      HDP1A    0.360000        1.0080           0   0.00000   0.00000
     38867 MEOH     2282     MEOH     HO2      DUMH     0.000000        1.0080           0   0.00000   0.00000
     38868 MEOH     2282     MEOH     H1A      HDA3B    0.080000        1.0080           0   0.00000   0.00000
     38869 MEOH     2282     MEOH     H1B      HDA3B    0.080000        1.0080           0   0.00000   0.00000
     38870 MEOH     2282     MEOH     H1C      HDA3B    0.080000        1.0080           0   0.00000   0.00000
     38871 MEOH     2282     MEOH     LP1A     LPD     -0.230000        0.0000           -1   0.00000   0.00000
     38872 MEOH     2282     MEOH     LP1B     LPD     -0.230000        0.0000           -1   0.00000   0.00000
     38873 MEOH     2283     MEOH     C1       CD33B    2.314100       11.6110           0   -1.00000   1.30000
     38874 MEOH     2283     MEOH     DC1      DRUD    -2.454100        0.4000           0   0.00000   0.00000
     38875 MEOH     2283     MEOH     O1       OD31H    2.488300       15.5990           0   -1.02800   1.30000
     38876 MEOH     2283     MEOH     DO1      DRUD    -2.488300        0.4000           0   0.00000   0.00000
     38877 MEOH     2283     MEOH     HO1      HDP1A    0.360000        1.0080           0   0.00000   0.00000
     38878 MEOH     2283     MEOH     HO2      DUMH     0.000000        1.0080           0   0.00000   0.00000
     38879 MEOH     2283     MEOH     H1A      HDA3B    0.080000        1.0080           0   0.00000   0.00000
     38880 MEOH     2283     MEOH     H1B      HDA3B    0.080000        1.0080           0   0.00000   0.00000
     38881 MEOH     2283     MEOH     H1C      HDA3B    0.080000        1.0080           0   0.00000   0.00000
     38882 MEOH     2283     MEOH     LP1A     LPD     -0.230000        0.0000           -1   0.00000   0.00000
     38883 MEOH     2283     MEOH     LP1B     LPD     -0.230000        0.0000           -1   0.00000   0.00000
     38884 MEOH     2284     MEOH     C1       CD33B    2.314100       11.6110           0   -1.00000   1.30000
     38885 MEOH     2284     MEOH     DC1      DRUD    -2.454100        0.4000           0   0.00000   0.00000
     38886 MEOH     2284     MEOH     O1       OD31H    2.488300       15.5990           0   -1.02800   1.30000
     38887 MEOH     2284     MEOH     DO1      DRUD    -2.488300        0.4000           0   0.00000   0.00000
     38888 MEOH     2284     MEOH     HO1      HDP1A    0.360000        1.0080           0   0.00000   0.00000
     38889 MEOH     2284     MEOH     HO2      DUMH     0.000000        1.0080           0   0.00000   0.00000
     38890 MEOH     2284     MEOH     H1A      HDA3B    0.080000        1.0080           0   0.00000   0.00000
     38891 MEOH     2284     MEOH     H1B      HDA3B    0.080000        1.0080           0   0.00000   0.00000
     38892 MEOH     2284     MEOH     H1C      HDA3B    0.080000        1.0080           0   0.00000   0.00000
     38893 MEOH     2284     MEOH     LP1A     LPD     -0.230000        0.0000           -1   0.00000   0.00000
     38894 MEOH     2284     MEOH     LP1B     LPD     -0.230000        0.0000           -1   0.00000   0.00000
     38895 MEOH     2285     MEOH     C1       CD33B    2.314100       11.6110           0   -1.00000   1.30000
     38896 MEOH     2285     MEOH     DC1      DRUD    -2.454100        0.4000           0   0.00000   0.00000
     38897 MEOH     2285     MEOH     O1       OD31H    2.488300       15.5990           0   -1.02800   1.30000
     38898 MEOH     2285     MEOH     DO1      DRUD    -2.488300        0.4000           0   0.00000   0.00000
     38899 MEOH     2285     MEOH     HO1      HDP1A    0.360000        1.0080           0   0.00000   0.00000
     38900 MEOH     2285     MEOH     HO2      DUMH     0.000000        1.0080           0   0.00000   0.00000
     38901 MEOH     2285     MEOH     H1A      HDA3B    0.080000        1.0080           0   0.00000   0.00000
     38902 MEOH     2285     MEOH     H1B      HDA3B    0.080000        1.0080           0   0.00000   0.00000
     38903 MEOH     2285     MEOH     H1C      HDA3B    0.080000        1.0080           0   0.00000   0.00000
     38904 MEOH     2285     MEOH     LP1A     LPD     -0.230000        0.0000           -1   0.00000   0.00000
     38905 MEOH     2285     MEOH     LP1B     LPD     -0.230000        0.0000           -1   0.00000   0.00000
     38906 MEOH     2286     MEOH     C1       CD33B    2.314100       11.6110           0   -1.00000   1.30000
     38907 MEOH     2286     MEOH     DC1      DRUD    -2.454100        0.4000           0   0.00000   0.00000
     38908 MEOH     2286     MEOH     O1       OD31H    2.488300       15.5990           0   -1.02800   1.30000
     38909 MEOH     2286     MEOH     DO1      DRUD    -2.488300        0.4000           0   0.00000   0.00000
     38910 MEOH     2286     MEOH     HO1      HDP1A    0.360000        1.0080           0   0.00000   0.00000
     38911 MEOH     2286     MEOH     HO2      DUMH     0.000000        1.0080           0   0.00000   0.00000
     38912 MEOH     2286     MEOH     H1A      HDA3B    0.080000        1.0080           0   0.00000   0.00000
     38913 MEOH     2286     MEOH     H1B      HDA3B    0.080000        1.0080           0   0.00000   0.00000
     38914 MEOH     2286     MEOH     H1C      HDA3B    0.080000        1.0080           0   0.00000   0.00000
     38915 MEOH     2286     MEOH     LP1A     LPD     -0.230000        0.0000           -1   0.00000   0.00000
     38916 MEOH     2286     MEOH     LP1B     LPD     -0.230000        0.0000           -1   0.00000   0.00000
     38917 MEOH     2287     MEOH     C1       CD33B    2.314100       11.6110           0   -1.00000   1.30000
     38918 MEOH     2287     MEOH     DC1      DRUD    -2.454100        0.4000           0   0.00000   0.00000
     38919 MEOH     2287     MEOH     O1       OD31H    2.488300       15.5990           0   -1.02800   1.30000
     38920 MEOH     2287     MEOH     DO1      DRUD    -2.488300        0.4000           0   0.00000   0.00000
     38921 MEOH     2287     MEOH     HO1      HDP1A    0.360000        1.0080           0   0.00000   0.00000
     38922 MEOH     2287     MEOH     HO2      DUMH     0.000000        1.0080           0   0.00000   0.00000
     38923 MEOH     2287     MEOH     H1A      HDA3B    0.080000        1.0080           0   0.00000   0.00000
     38924 MEOH     2287     MEOH     H1B      HDA3B    0.080000        1.0080           0   0.00000   0.00000
     38925 MEOH     2287     MEOH     H1C      HDA3B    0.080000        1.0080           0   0.00000   0.00000
     38926 MEOH     2287     MEOH     LP1A     LPD     -0.230000        0.0000           -1   0.00000   0.00000
     38927 MEOH     2287     MEOH     LP1B     LPD     -0.230000        0.0000           -1   0.00000   0.00000
     38928 MEOH     2288     MEOH     C1       CD33B    2.314100       11.6110           0   -1.00000   1.30000
     38929 MEOH     2288     MEOH     DC1      DRUD    -2.454100        0.4000           0   0.00000   0.00000
     38930 MEOH     2288     MEOH     O1       OD31H    2.488300       15.5990           0   -1.02800   1.30000
     38931 MEOH     2288     MEOH     DO1      DRUD    -2.488300        0.4000           0   0.00000   0.00000
     38932 MEOH     2288     MEOH     HO1      HDP1A    0.360000        1.0080           0   0.00000   0.00000
     38933 MEOH     2288     MEOH     HO2      DUMH     0.000000        1.0080           0   0.00000   0.00000
     38934 MEOH     2288     MEOH     H1A      HDA3B    0.080000        1.0080           0   0.00000   0.00000
     38935 MEOH     2288     MEOH     H1B      HDA3B    0.080000        1.0080           0   0.00000   0.00000
     38936 MEOH     2288     MEOH     H1C      HDA3B    0.080000        1.0080           0   0.00000   0.00000
     38937 MEOH     2288     MEOH     LP1A     LPD     -0.230000        0.0000           -1   0.00000   0.00000
     38938 MEOH     2288     MEOH     LP1B     LPD     -0.230000        0.0000           -1   0.00000   0.00000
     38939 MEOH     2289     MEOH     C1       CD33B    2.314100       11.6110           0   -1.00000   1.30000
     38940 MEOH     2289     MEOH     DC1      DRUD    -2.454100        0.4000           0   0.00000   0.00000
     38941 MEOH     2289     MEOH     O1       OD31H    2.488300       15.5990           0   -1.02800   1.30000
     38942 MEOH     2289     MEOH     DO1      DRUD    -2.488300        0.4000           0   0.00000   0.00000
     38943 MEOH     2289     MEOH     HO1      HDP1A    0.360000        1.0080           0   0.00000   0.00000
     38944 MEOH     2289     MEOH     HO2      DUMH     0.000000        1.0080           0   0.00000   0.00000
     38945 MEOH     2289     MEOH     H1A      HDA3B    0.080000        1.0080           0   0.00000   0.00000
     38946 MEOH     2289     MEOH     H1B      HDA3B    0.080000        1.0080           0   0.00000   0.00000
     38947 MEOH     2289     MEOH     H1C      HDA3B    0.080000        1.0080           0   0.00000   0.00000
     38948 MEOH     2289     MEOH     LP1A     LPD     -0.230000        0.0000           -1   0.00000   0.00000
     38949 MEOH     2289     MEOH     LP1B     LPD     -0.230000        0.0000           -1   0.00000   0.00000
     38950 MEOH     2290     MEOH     C1       CD33B    2.314100       11.6110           0   -1.00000   1.30000
     38951 MEOH     2290     MEOH     DC1      DRUD    -2.454100        0.4000           0   0.00000   0.00000
     38952 MEOH     2290     MEOH     O1       OD31H    2.488300       15.5990           0   -1.02800   1.30000
     38953 MEOH     2290     MEOH     DO1      DRUD    -2.488300        0.4000           0   0.00000   0.00000
     38954 MEOH     2290     MEOH     HO1      HDP1A    0.360000        1.0080           0   0.00000   0.00000
     38955 MEOH     2290     MEOH     HO2      DUMH     0.000000        1.0080           0   0.00000   0.00000
     38956 MEOH     2290     MEOH     H1A      HDA3B    0.080000        1.0080           0   0.00000   0.00000
     38957 MEOH     2290     MEOH     H1B      HDA3B    0.080000        1.0080           0   0.00000   0.00000
     38958 MEOH     2290     MEOH     H1C      HDA3B    0.080000        1.0080           0   0.00000   0.00000
     38959 MEOH     2290     MEOH     LP1A     LPD     -0.230000        0.0000           -1   0.00000   0.00000
     38960 MEOH     2290     MEOH     LP1B     LPD     -0.230000        0.0000           -1   0.00000   0.00000
     38961 MEOH     2291     MEOH     C1       CD33B    2.314100       11.6110           0   -1.00000   1.30000
     38962 MEOH     2291     MEOH     DC1      DRUD    -2.454100        0.4000           0   0.00000   0.00000
     38963 MEOH     2291     MEOH     O1       OD31H    2.488300       15.5990           0   -1.02800   1.30000
     38964 MEOH     2291     MEOH     DO1      DRUD    -2.488300        0.4000           0   0.00000   0.00000
     38965 MEOH     2291     MEOH     HO1      HDP1A    0.360000        1.0080           0   0.00000   0.00000
     38966 MEOH     2291     MEOH     HO2      DUMH     0.000000        1.0080           0   0.00000   0.00000
     38967 MEOH     2291     MEOH     H1A      HDA3B    0.080000        1.0080           0   0.00000   0.00000
     38968 MEOH     2291     MEOH     H1B      HDA3B    0.080000        1.0080           0   0.00000   0.00000
     38969 MEOH     2291     MEOH     H1C      HDA3B    0.080000        1.0080           0   0.00000   0.00000
     38970 MEOH     2291     MEOH     LP1A     LPD     -0.230000        0.0000           -1   0.00000   0.00000
     38971 MEOH     2291     MEOH     LP1B     LPD     -0.230000        0.0000           -1   0.00000   0.00000
     38972 MEOH     2292     MEOH     C1       CD33B    2.314100       11.6110           0   -1.00000   1.30000
     38973 MEOH     2292     MEOH     DC1      DRUD    -2.454100        0.4000           0   0.00000   0.00000
     38974 MEOH     2292     MEOH     O1       OD31H    2.488300       15.5990           0   -1.02800   1.30000
     38975 MEOH     2292     MEOH     DO1      DRUD    -2.488300        0.4000           0   0.00000   0.00000
     38976 MEOH     2292     MEOH     HO1      HDP1A    0.360000        1.0080           0   0.00000   0.00000
     38977 MEOH     2292     MEOH     HO2      DUMH     0.000000        1.0080           0   0.00000   0.00000
     38978 MEOH     2292     MEOH     H1A      HDA3B    0.080000        1.0080           0   0.00000   0.00000
     38979 MEOH     2292     MEOH     H1B      HDA3B    0.080000        1.0080           0   0.00000   0.00000
     38980 MEOH     2292     MEOH     H1C      HDA3B    0.080000        1.0080           0   0.00000   0.00000
     38981 MEOH     2292     MEOH     LP1A     LPD     -0.230000        0.0000           -1   0.00000   0.00000
     38982 MEOH     2292     MEOH     LP1B     LPD     -0.230000        0.0000           -1   0.00000   0.00000
     38983 MEOH     2293     MEOH     C1       CD33B    2.314100       11.6110           0   -1.00000   1.30000
     38984 MEOH     2293     MEOH     DC1      DRUD    -2.454100        0.4000           0   0.00000   0.00000
     38985 MEOH     2293     MEOH     O1       OD31H    2.488300       15.5990           0   -1.02800   1.30000
     38986 MEOH     2293     MEOH     DO1      DRUD    -2.488300        0.4000           0   0.00000   0.00000
     38987 MEOH     2293     MEOH     HO1      HDP1A    0.360000        1.0080           0   0.00000   0.00000
     38988 MEOH     2293     MEOH     HO2      DUMH     0.000000        1.0080           0   0.00000   0.00000
     38989 MEOH     2293     MEOH     H1A      HDA3B    0.080000        1.0080           0   0.00000   0.00000
     38990 MEOH     2293     MEOH     H1B      HDA3B    0.080000        1.0080           0   0.00000   0.00000
     38991 MEOH     2293     MEOH     H1C      HDA3B    0.080000        1.0080           0   0.00000   0.00000
     38992 MEOH     2293     MEOH     LP1A     LPD     -0.230000        0.0000           -1   0.00000   0.00000
     38993 MEOH     2293     MEOH     LP1B     LPD     -0.230000        0.0000           -1   0.00000   0.00000
     38994 MEOH     2294     MEOH     C1       CD33B    2.314100       11.6110           0   -1.00000   1.30000
     38995 MEOH     2294     MEOH     DC1      DRUD    -2.454100        0.4000           0   0.00000   0.00000
     38996 MEOH     2294     MEOH     O1       OD31H    2.488300       15.5990           0   -1.02800   1.30000
     38997 MEOH     2294     MEOH     DO1      DRUD    -2.488300        0.4000           0   0.00000   0.00000
     38998 MEOH     2294     MEOH     HO1      HDP1A    0.360000        1.0080           0   0.00000   0.00000
     38999 MEOH     2294     MEOH     HO2      DUMH     0.000000        1.0080           0   0.00000   0.00000
     39000 MEOH     2294     MEOH     H1A      HDA3B    0.080000        1.0080           0   0.00000   0.00000
     39001 MEOH     2294     MEOH     H1B      HDA3B    0.080000        1.0080           0   0.00000   0.00000
     39002 MEOH     2294     MEOH     H1C      HDA3B    0.080000        1.0080           0   0.00000   0.00000
     39003 MEOH     2294     MEOH     LP1A     LPD     -0.230000        0.0000           -1   0.00000   0.00000
     39004 MEOH     2294     MEOH     LP1B     LPD     -0.230000        0.0000           -1   0.00000   0.00000
     39005 MEOH     2295     MEOH     C1       CD33B    2.314100       11.6110           0   -1.00000   1.30000
     39006 MEOH     2295     MEOH     DC1      DRUD    -2.454100        0.4000           0   0.00000   0.00000
     39007 MEOH     2295     MEOH     O1       OD31H    2.488300       15.5990           0   -1.02800   1.30000
     39008 MEOH     2295     MEOH     DO1      DRUD    -2.488300        0.4000           0   0.00000   0.00000
     39009 MEOH     2295     MEOH     HO1      HDP1A    0.360000        1.0080           0   0.00000   0.00000
     39010 MEOH     2295     MEOH     HO2      DUMH     0.000000        1.0080           0   0.00000   0.00000
     39011 MEOH     2295     MEOH     H1A      HDA3B    0.080000        1.0080           0   0.00000   0.00000
     39012 MEOH     2295     MEOH     H1B      HDA3B    0.080000        1.0080           0   0.00000   0.00000
     39013 MEOH     2295     MEOH     H1C      HDA3B    0.080000        1.0080           0   0.00000   0.00000
     39014 MEOH     2295     MEOH     LP1A     LPD     -0.230000        0.0000           -1   0.00000   0.00000
     39015 MEOH     2295     MEOH     LP1B     LPD     -0.230000        0.0000           -1   0.00000   0.00000
     39016 MEOH     2296     MEOH     C1       CD33B    2.314100       11.6110           0   -1.00000   1.30000
     39017 MEOH     2296     MEOH     DC1      DRUD    -2.454100        0.4000           0   0.00000   0.00000
     39018 MEOH     2296     MEOH     O1       OD31H    2.488300       15.5990           0   -1.02800   1.30000
     39019 MEOH     2296     MEOH     DO1      DRUD    -2.488300        0.4000           0   0.00000   0.00000
     39020 MEOH     2296     MEOH     HO1      HDP1A    0.360000        1.0080           0   0.00000   0.00000
     39021 MEOH     2296     MEOH     HO2      DUMH     0.000000        1.0080           0   0.00000   0.00000
     39022 MEOH     2296     MEOH     H1A      HDA3B    0.080000        1.0080           0   0.00000   0.00000
     39023 MEOH     2296     MEOH     H1B      HDA3B    0.080000        1.0080           0   0.00000   0.00000
     39024 MEOH     2296     MEOH     H1C      HDA3B    0.080000        1.0080           0   0.00000   0.00000
     39025 MEOH     2296     MEOH     LP1A     LPD     -0.230000        0.0000           -1   0.00000   0.00000
     39026 MEOH     2296     MEOH     LP1B     LPD     -0.230000        0.0000           -1   0.00000   0.00000
     39027 MEOH     2297     MEOH     C1       CD33B    2.314100       11.6110           0   -1.00000   1.30000
     39028 MEOH     2297     MEOH     DC1      DRUD    -2.454100        0.4000           0   0.00000   0.00000
     39029 MEOH     2297     MEOH     O1       OD31H    2.488300       15.5990           0   -1.02800   1.30000
     39030 MEOH     2297     MEOH     DO1      DRUD    -2.488300        0.4000           0   0.00000   0.00000
     39031 MEOH     2297     MEOH     HO1      HDP1A    0.360000        1.0080           0   0.00000   0.00000
     39032 MEOH     2297     MEOH     HO2      DUMH     0.000000        1.0080           0   0.00000   0.00000
     39033 MEOH     2297     MEOH     H1A      HDA3B    0.080000        1.0080           0   0.00000   0.00000
     39034 MEOH     2297     MEOH     H1B      HDA3B    0.080000        1.0080           0   0.00000   0.00000
     39035 MEOH     2297     MEOH     H1C      HDA3B    0.080000        1.0080           0   0.00000   0.00000
     39036 MEOH     2297     MEOH     LP1A     LPD     -0.230000        0.0000           -1   0.00000   0.00000
     39037 MEOH     2297     MEOH     LP1B     LPD     -0.230000        0.0000           -1   0.00000   0.00000
     39038 MEOH     2298     MEOH     C1       CD33B    2.314100       11.6110           0   -1.00000   1.30000
     39039 MEOH     2298     MEOH     DC1      DRUD    -2.454100        0.4000           0   0.00000   0.00000
     39040 MEOH     2298     MEOH     O1       OD31H    2.488300       15.5990           0   -1.02800   1.30000
     39041 MEOH     2298     MEOH     DO1      DRUD    -2.488300        0.4000           0   0.00000   0.00000
     39042 MEOH     2298     MEOH     HO1      HDP1A    0.360000        1.0080           0   0.00000   0.00000
     39043 MEOH     2298     MEOH     HO2      DUMH     0.000000        1.0080           0   0.00000   0.00000
     39044 MEOH     2298     MEOH     H1A      HDA3B    0.080000        1.0080           0   0.00000   0.00000
     39045 MEOH     2298     MEOH     H1B      HDA3B    0.080000        1.0080           0   0.00000   0.00000
     39046 MEOH     2298     MEOH     H1C      HDA3B    0.080000        1.0080           0   0.00000   0.00000
     39047 MEOH     2298     MEOH     LP1A     LPD     -0.230000        0.0000           -1   0.00000   0.00000
     39048 MEOH     2298     MEOH     LP1B     LPD     -0.230000        0.0000           -1   0.00000   0.00000
     39049 MEOH     2299     MEOH     C1       CD33B    2.314100       11.6110           0   -1.00000   1.30000
     39050 MEOH     2299     MEOH     DC1      DRUD    -2.454100        0.4000           0   0.00000   0.00000
     39051 MEOH     2299     MEOH     O1       OD31H    2.488300       15.5990           0   -1.02800   1.30000
     39052 MEOH     2299     MEOH     DO1      DRUD    -2.488300        0.4000           0   0.00000   0.00000
     39053 MEOH     2299     MEOH     HO1      HDP1A    0.360000        1.0080           0   0.00000   0.00000
     39054 MEOH     2299     MEOH     HO2      DUMH     0.000000        1.0080           0   0.00000   0.00000
     39055 MEOH     2299     MEOH     H1A      HDA3B    0.080000        1.0080           0   0.00000   0.00000
     39056 MEOH     2299     MEOH     H1B      HDA3B    0.080000        1.0080           0   0.00000   0.00000
     39057 MEOH     2299     MEOH     H1C      HDA3B    0.080000        1.0080           0   0.00000   0.00000
     39058 MEOH     2299     MEOH     LP1A     LPD     -0.230000        0.0000           -1   0.00000   0.00000
     39059 MEOH     2299     MEOH     LP1B     LPD     -0.230000        0.0000           -1   0.00000   0.00000
     39060 MEOH     2300     MEOH     C1       CD33B    2.314100       11.6110           0   -1.00000   1.30000
     39061 MEOH     2300     MEOH     DC1      DRUD    -2.454100        0.4000           0   0.00000   0.00000
     39062 MEOH     2300     MEOH     O1       OD31H    2.488300       15.5990           0   -1.02800   1.30000
     39063 MEOH     2300     MEOH     DO1      DRUD    -2.488300        0.4000           0   0.00000   0.00000
     39064 MEOH     2300     MEOH     HO1      HDP1A    0.360000        1.0080           0   0.00000   0.00000
     39065 MEOH     2300     MEOH     HO2      DUMH     0.000000        1.0080           0   0.00000   0.00000
     39066 MEOH     2300     MEOH     H1A      HDA3B    0.080000        1.0080           0   0.00000   0.00000
     39067 MEOH     2300     MEOH     H1B      HDA3B    0.080000        1.0080           0   0.00000   0.00000
     39068 MEOH     2300     MEOH     H1C      HDA3B    0.080000        1.0080           0   0.00000   0.00000
     39069 MEOH     2300     MEOH     LP1A     LPD     -0.230000        0.0000           -1   0.00000   0.00000
     39070 MEOH     2300     MEOH     LP1B     LPD     -0.230000        0.0000           -1   0.00000   0.00000
     39071 MEOH     2301     MEOH     C1       CD33B    2.314100       11.6110           0   -1.00000   1.30000
     39072 MEOH     2301     MEOH     DC1      DRUD    -2.454100        0.4000           0   0.00000   0.00000
     39073 MEOH     2301     MEOH     O1       OD31H    2.488300       15.5990           0   -1.02800   1.30000
     39074 MEOH     2301     MEOH     DO1      DRUD    -2.488300        0.4000           0   0.00000   0.00000
     39075 MEOH     2301     MEOH     HO1      HDP1A    0.360000        1.0080           0   0.00000   0.00000
     39076 MEOH     2301     MEOH     HO2      DUMH     0.000000        1.0080           0   0.00000   0.00000
     39077 MEOH     2301     MEOH     H1A      HDA3B    0.080000        1.0080           0   0.00000   0.00000
     39078 MEOH     2301     MEOH     H1B      HDA3B    0.080000        1.0080           0   0.00000   0.00000
     39079 MEOH     2301     MEOH     H1C      HDA3B    0.080000        1.0080           0   0.00000   0.00000
     39080 MEOH     2301     MEOH     LP1A     LPD     -0.230000        0.0000           -1   0.00000   0.00000
     39081 MEOH     2301     MEOH     LP1B     LPD     -0.230000        0.0000           -1   0.00000   0.00000
     39082 MEOH     2302     MEOH     C1       CD33B    2.314100       11.6110           0   -1.00000   1.30000
     39083 MEOH     2302     MEOH     DC1      DRUD    -2.454100        0.4000           0   0.00000   0.00000
     39084 MEOH     2302     MEOH     O1       OD31H    2.488300       15.5990           0   -1.02800   1.30000
     39085 MEOH     2302     MEOH     DO1      DRUD    -2.488300        0.4000           0   0.00000   0.00000
     39086 MEOH     2302     MEOH     HO1      HDP1A    0.360000        1.0080           0   0.00000   0.00000
     39087 MEOH     2302     MEOH     HO2      DUMH     0.000000        1.0080           0   0.00000   0.00000
     39088 MEOH     2302     MEOH     H1A      HDA3B    0.080000        1.0080           0   0.00000   0.00000
     39089 MEOH     2302     MEOH     H1B      HDA3B    0.080000        1.0080           0   0.00000   0.00000
     39090 MEOH     2302     MEOH     H1C      HDA3B    0.080000        1.0080           0   0.00000   0.00000
     39091 MEOH     2302     MEOH     LP1A     LPD     -0.230000        0.0000           -1   0.00000   0.00000
     39092 MEOH     2302     MEOH     LP1B     LPD     -0.230000        0.0000           -1   0.00000   0.00000
     39093 MEOH     2303     MEOH     C1       CD33B    2.314100       11.6110           0   -1.00000   1.30000
     39094 MEOH     2303     MEOH     DC1      DRUD    -2.454100        0.4000           0   0.00000   0.00000
     39095 MEOH     2303     MEOH     O1       OD31H    2.488300       15.5990           0   -1.02800   1.30000
     39096 MEOH     2303     MEOH     DO1      DRUD    -2.488300        0.4000           0   0.00000   0.00000
     39097 MEOH     2303     MEOH     HO1      HDP1A    0.360000        1.0080           0   0.00000   0.00000
     39098 MEOH     2303     MEOH     HO2      DUMH     0.000000        1.0080           0   0.00000   0.00000
     39099 MEOH     2303     MEOH     H1A      HDA3B    0.080000        1.0080           0   0.00000   0.00000
     39100 MEOH     2303     MEOH     H1B      HDA3B    0.080000        1.0080           0   0.00000   0.00000
     39101 MEOH     2303     MEOH     H1C      HDA3B    0.080000        1.0080           0   0.00000   0.00000
     39102 MEOH     2303     MEOH     LP1A     LPD     -0.230000        0.0000           -1   0.00000   0.00000
     39103 MEOH     2303     MEOH     LP1B     LPD     -0.230000        0.0000           -1   0.00000   0.00000
     39104 MEOH     2304     MEOH     C1       CD33B    2.314100       11.6110           0   -1.00000   1.30000
     39105 MEOH     2304     MEOH     DC1      DRUD    -2.454100        0.4000           0   0.00000   0.00000
     39106 MEOH     2304     MEOH     O1       OD31H    2.488300       15.5990           0   -1.02800   1.30000
     39107 MEOH     2304     MEOH     DO1      DRUD    -2.488300        0.4000           0   0.00000   0.00000
     39108 MEOH     2304     MEOH     HO1      HDP1A    0.360000        1.0080           0   0.00000   0.00000
     39109 MEOH     2304     MEOH     HO2      DUMH     0.000000        1.0080           0   0.00000   0.00000
     39110 MEOH     2304     MEOH     H1A      HDA3B    0.080000        1.0080           0   0.00000   0.00000
     39111 MEOH     2304     MEOH     H1B      HDA3B    0.080000        1.0080           0   0.00000   0.00000
     39112 MEOH     2304     MEOH     H1C      HDA3B    0.080000        1.0080           0   0.00000   0.00000
     39113 MEOH     2304     MEOH     LP1A     LPD     -0.230000        0.0000           -1   0.00000   0.00000
     39114 MEOH     2304     MEOH     LP1B     LPD     -0.230000        0.0000           -1   0.00000   0.00000
     39115 MEOH     2305     MEOH     C1       CD33B    2.314100       11.6110           0   -1.00000   1.30000
     39116 MEOH     2305     MEOH     DC1      DRUD    -2.454100        0.4000           0   0.00000   0.00000
     39117 MEOH     2305     MEOH     O1       OD31H    2.488300       15.5990           0   -1.02800   1.30000
     39118 MEOH     2305     MEOH     DO1      DRUD    -2.488300        0.4000           0   0.00000   0.00000
     39119 MEOH     2305     MEOH     HO1      HDP1A    0.360000        1.0080           0   0.00000   0.00000
     39120 MEOH     2305     MEOH     HO2      DUMH     0.000000        1.0080           0   0.00000   0.00000
     39121 MEOH     2305     MEOH     H1A      HDA3B    0.080000        1.0080           0   0.00000   0.00000
     39122 MEOH     2305     MEOH     H1B      HDA3B    0.080000        1.0080           0   0.00000   0.00000
     39123 MEOH     2305     MEOH     H1C      HDA3B    0.080000        1.0080           0   0.00000   0.00000
     39124 MEOH     2305     MEOH     LP1A     LPD     -0.230000        0.0000           -1   0.00000   0.00000
     39125 MEOH     2305     MEOH     LP1B     LPD     -0.230000        0.0000           -1   0.00000   0.00000
     39126 MEOH     2306     MEOH     C1       CD33B    2.314100       11.6110           0   -1.00000   1.30000
     39127 MEOH     2306     MEOH     DC1      DRUD    -2.454100        0.4000           0   0.00000   0.00000
     39128 MEOH     2306     MEOH     O1       OD31H    2.488300       15.5990           0   -1.02800   1.30000
     39129 MEOH     2306     MEOH     DO1      DRUD    -2.488300        0.4000           0   0.00000   0.00000
     39130 MEOH     2306     MEOH     HO1      HDP1A    0.360000        1.0080           0   0.00000   0.00000
     39131 MEOH     2306     MEOH     HO2      DUMH     0.000000        1.0080           0   0.00000   0.00000
     39132 MEOH     2306     MEOH     H1A      HDA3B    0.080000        1.0080           0   0.00000   0.00000
     39133 MEOH     2306     MEOH     H1B      HDA3B    0.080000        1.0080           0   0.00000   0.00000
     39134 MEOH     2306     MEOH     H1C      HDA3B    0.080000        1.0080           0   0.00000   0.00000
     39135 MEOH     2306     MEOH     LP1A     LPD     -0.230000        0.0000           -1   0.00000   0.00000
     39136 MEOH     2306     MEOH     LP1B     LPD     -0.230000        0.0000           -1   0.00000   0.00000
     39137 MEOH     2307     MEOH     C1       CD33B    2.314100       11.6110           0   -1.00000   1.30000
     39138 MEOH     2307     MEOH     DC1      DRUD    -2.454100        0.4000           0   0.00000   0.00000
     39139 MEOH     2307     MEOH     O1       OD31H    2.488300       15.5990           0   -1.02800   1.30000
     39140 MEOH     2307     MEOH     DO1      DRUD    -2.488300        0.4000           0   0.00000   0.00000
     39141 MEOH     2307     MEOH     HO1      HDP1A    0.360000        1.0080           0   0.00000   0.00000
     39142 MEOH     2307     MEOH     HO2      DUMH     0.000000        1.0080           0   0.00000   0.00000
     39143 MEOH     2307     MEOH     H1A      HDA3B    0.080000        1.0080           0   0.00000   0.00000
     39144 MEOH     2307     MEOH     H1B      HDA3B    0.080000        1.0080           0   0.00000   0.00000
     39145 MEOH     2307     MEOH     H1C      HDA3B    0.080000        1.0080           0   0.00000   0.00000
     39146 MEOH     2307     MEOH     LP1A     LPD     -0.230000        0.0000           -1   0.00000   0.00000
     39147 MEOH     2307     MEOH     LP1B     LPD     -0.230000        0.0000           -1   0.00000   0.00000
     39148 MEOH     2308     MEOH     C1       CD33B    2.314100       11.6110           0   -1.00000   1.30000
     39149 MEOH     2308     MEOH     DC1      DRUD    -2.454100        0.4000           0   0.00000   0.00000
     39150 MEOH     2308     MEOH     O1       OD31H    2.488300       15.5990           0   -1.02800   1.30000
     39151 MEOH     2308     MEOH     DO1      DRUD    -2.488300        0.4000           0   0.00000   0.00000
     39152 MEOH     2308     MEOH     HO1      HDP1A    0.360000        1.0080           0   0.00000   0.00000
     39153 MEOH     2308     MEOH     HO2      DUMH     0.000000        1.0080           0   0.00000   0.00000
     39154 MEOH     2308     MEOH     H1A      HDA3B    0.080000        1.0080           0   0.00000   0.00000
     39155 MEOH     2308     MEOH     H1B      HDA3B    0.080000        1.0080           0   0.00000   0.00000
     39156 MEOH     2308     MEOH     H1C      HDA3B    0.080000        1.0080           0   0.00000   0.00000
     39157 MEOH     2308     MEOH     LP1A     LPD     -0.230000        0.0000           -1   0.00000   0.00000
     39158 MEOH     2308     MEOH     LP1B     LPD     -0.230000        0.0000           -1   0.00000   0.00000
     39159 MEOH     2309     MEOH     C1       CD33B    2.314100       11.6110           0   -1.00000   1.30000
     39160 MEOH     2309     MEOH     DC1      DRUD    -2.454100        0.4000           0   0.00000   0.00000
     39161 MEOH     2309     MEOH     O1       OD31H    2.488300       15.5990           0   -1.02800   1.30000
     39162 MEOH     2309     MEOH     DO1      DRUD    -2.488300        0.4000           0   0.00000   0.00000
     39163 MEOH     2309     MEOH     HO1      HDP1A    0.360000        1.0080           0   0.00000   0.00000
     39164 MEOH     2309     MEOH     HO2      DUMH     0.000000        1.0080           0   0.00000   0.00000
     39165 MEOH     2309     MEOH     H1A      HDA3B    0.080000        1.0080           0   0.00000   0.00000
     39166 MEOH     2309     MEOH     H1B      HDA3B    0.080000        1.0080           0   0.00000   0.00000
     39167 MEOH     2309     MEOH     H1C      HDA3B    0.080000        1.0080           0   0.00000   0.00000
     39168 MEOH     2309     MEOH     LP1A     LPD     -0.230000        0.0000           -1   0.00000   0.00000
     39169 MEOH     2309     MEOH     LP1B     LPD     -0.230000        0.0000           -1   0.00000   0.00000
     39170 MEOH     2310     MEOH     C1       CD33B    2.314100       11.6110           0   -1.00000   1.30000
     39171 MEOH     2310     MEOH     DC1      DRUD    -2.454100        0.4000           0   0.00000   0.00000
     39172 MEOH     2310     MEOH     O1       OD31H    2.488300       15.5990           0   -1.02800   1.30000
     39173 MEOH     2310     MEOH     DO1      DRUD    -2.488300        0.4000           0   0.00000   0.00000
     39174 MEOH     2310     MEOH     HO1      HDP1A    0.360000        1.0080           0   0.00000   0.00000
     39175 MEOH     2310     MEOH     HO2      DUMH     0.000000        1.0080           0   0.00000   0.00000
     39176 MEOH     2310     MEOH     H1A      HDA3B    0.080000        1.0080           0   0.00000   0.00000
     39177 MEOH     2310     MEOH     H1B      HDA3B    0.080000        1.0080           0   0.00000   0.00000
     39178 MEOH     2310     MEOH     H1C      HDA3B    0.080000        1.0080           0   0.00000   0.00000
     39179 MEOH     2310     MEOH     LP1A     LPD     -0.230000        0.0000           -1   0.00000   0.00000
     39180 MEOH     2310     MEOH     LP1B     LPD     -0.230000        0.0000           -1   0.00000   0.00000
     39181 MEOH     2311     MEOH     C1       CD33B    2.314100       11.6110           0   -1.00000   1.30000
     39182 MEOH     2311     MEOH     DC1      DRUD    -2.454100        0.4000           0   0.00000   0.00000
     39183 MEOH     2311     MEOH     O1       OD31H    2.488300       15.5990           0   -1.02800   1.30000
     39184 MEOH     2311     MEOH     DO1      DRUD    -2.488300        0.4000           0   0.00000   0.00000
     39185 MEOH     2311     MEOH     HO1      HDP1A    0.360000        1.0080           0   0.00000   0.00000
     39186 MEOH     2311     MEOH     HO2      DUMH     0.000000        1.0080           0   0.00000   0.00000
     39187 MEOH     2311     MEOH     H1A      HDA3B    0.080000        1.0080           0   0.00000   0.00000
     39188 MEOH     2311     MEOH     H1B      HDA3B    0.080000        1.0080           0   0.00000   0.00000
     39189 MEOH     2311     MEOH     H1C      HDA3B    0.080000        1.0080           0   0.00000   0.00000
     39190 MEOH     2311     MEOH     LP1A     LPD     -0.230000        0.0000           -1   0.00000   0.00000
     39191 MEOH     2311     MEOH     LP1B     LPD     -0.230000        0.0000           -1   0.00000   0.00000
     39192 MEOH     2312     MEOH     C1       CD33B    2.314100       11.6110           0   -1.00000   1.30000
     39193 MEOH     2312     MEOH     DC1      DRUD    -2.454100        0.4000           0   0.00000   0.00000
     39194 MEOH     2312     MEOH     O1       OD31H    2.488300       15.5990           0   -1.02800   1.30000
     39195 MEOH     2312     MEOH     DO1      DRUD    -2.488300        0.4000           0   0.00000   0.00000
     39196 MEOH     2312     MEOH     HO1      HDP1A    0.360000        1.0080           0   0.00000   0.00000
     39197 MEOH     2312     MEOH     HO2      DUMH     0.000000        1.0080           0   0.00000   0.00000
     39198 MEOH     2312     MEOH     H1A      HDA3B    0.080000        1.0080           0   0.00000   0.00000
     39199 MEOH     2312     MEOH     H1B      HDA3B    0.080000        1.0080           0   0.00000   0.00000
     39200 MEOH     2312     MEOH     H1C      HDA3B    0.080000        1.0080           0   0.00000   0.00000
     39201 MEOH     2312     MEOH     LP1A     LPD     -0.230000        0.0000           -1   0.00000   0.00000
     39202 MEOH     2312     MEOH     LP1B     LPD     -0.230000        0.0000           -1   0.00000   0.00000
     39203 MEOH     2313     MEOH     C1       CD33B    2.314100       11.6110           0   -1.00000   1.30000
     39204 MEOH     2313     MEOH     DC1      DRUD    -2.454100        0.4000           0   0.00000   0.00000
     39205 MEOH     2313     MEOH     O1       OD31H    2.488300       15.5990           0   -1.02800   1.30000
     39206 MEOH     2313     MEOH     DO1      DRUD    -2.488300        0.4000           0   0.00000   0.00000
     39207 MEOH     2313     MEOH     HO1      HDP1A    0.360000        1.0080           0   0.00000   0.00000
     39208 MEOH     2313     MEOH     HO2      DUMH     0.000000        1.0080           0   0.00000   0.00000
     39209 MEOH     2313     MEOH     H1A      HDA3B    0.080000        1.0080           0   0.00000   0.00000
     39210 MEOH     2313     MEOH     H1B      HDA3B    0.080000        1.0080           0   0.00000   0.00000
     39211 MEOH     2313     MEOH     H1C      HDA3B    0.080000        1.0080           0   0.00000   0.00000
     39212 MEOH     2313     MEOH     LP1A     LPD     -0.230000        0.0000           -1   0.00000   0.00000
     39213 MEOH     2313     MEOH     LP1B     LPD     -0.230000        0.0000           -1   0.00000   0.00000
     39214 MEOH     2314     MEOH     C1       CD33B    2.314100       11.6110           0   -1.00000   1.30000
     39215 MEOH     2314     MEOH     DC1      DRUD    -2.454100        0.4000           0   0.00000   0.00000
     39216 MEOH     2314     MEOH     O1       OD31H    2.488300       15.5990           0   -1.02800   1.30000
     39217 MEOH     2314     MEOH     DO1      DRUD    -2.488300        0.4000           0   0.00000   0.00000
     39218 MEOH     2314     MEOH     HO1      HDP1A    0.360000        1.0080           0   0.00000   0.00000
     39219 MEOH     2314     MEOH     HO2      DUMH     0.000000        1.0080           0   0.00000   0.00000
     39220 MEOH     2314     MEOH     H1A      HDA3B    0.080000        1.0080           0   0.00000   0.00000
     39221 MEOH     2314     MEOH     H1B      HDA3B    0.080000        1.0080           0   0.00000   0.00000
     39222 MEOH     2314     MEOH     H1C      HDA3B    0.080000        1.0080           0   0.00000   0.00000
     39223 MEOH     2314     MEOH     LP1A     LPD     -0.230000        0.0000           -1   0.00000   0.00000
     39224 MEOH     2314     MEOH     LP1B     LPD     -0.230000        0.0000           -1   0.00000   0.00000
     39225 MEOH     2315     MEOH     C1       CD33B    2.314100       11.6110           0   -1.00000   1.30000
     39226 MEOH     2315     MEOH     DC1      DRUD    -2.454100        0.4000           0   0.00000   0.00000
     39227 MEOH     2315     MEOH     O1       OD31H    2.488300       15.5990           0   -1.02800   1.30000
     39228 MEOH     2315     MEOH     DO1      DRUD    -2.488300        0.4000           0   0.00000   0.00000
     39229 MEOH     2315     MEOH     HO1      HDP1A    0.360000        1.0080           0   0.00000   0.00000
     39230 MEOH     2315     MEOH     HO2      DUMH     0.000000        1.0080           0   0.00000   0.00000
     39231 MEOH     2315     MEOH     H1A      HDA3B    0.080000        1.0080           0   0.00000   0.00000
     39232 MEOH     2315     MEOH     H1B      HDA3B    0.080000        1.0080           0   0.00000   0.00000
     39233 MEOH     2315     MEOH     H1C      HDA3B    0.080000        1.0080           0   0.00000   0.00000
     39234 MEOH     2315     MEOH     LP1A     LPD     -0.230000        0.0000           -1   0.00000   0.00000
     39235 MEOH     2315     MEOH     LP1B     LPD     -0.230000        0.0000           -1   0.00000   0.00000
     39236 MEOH     2316     MEOH     C1       CD33B    2.314100       11.6110           0   -1.00000   1.30000
     39237 MEOH     2316     MEOH     DC1      DRUD    -2.454100        0.4000           0   0.00000   0.00000
     39238 MEOH     2316     MEOH     O1       OD31H    2.488300       15.5990           0   -1.02800   1.30000
     39239 MEOH     2316     MEOH     DO1      DRUD    -2.488300        0.4000           0   0.00000   0.00000
     39240 MEOH     2316     MEOH     HO1      HDP1A    0.360000        1.0080           0   0.00000   0.00000
     39241 MEOH     2316     MEOH     HO2      DUMH     0.000000        1.0080           0   0.00000   0.00000
     39242 MEOH     2316     MEOH     H1A      HDA3B    0.080000        1.0080           0   0.00000   0.00000
     39243 MEOH     2316     MEOH     H1B      HDA3B    0.080000        1.0080           0   0.00000   0.00000
     39244 MEOH     2316     MEOH     H1C      HDA3B    0.080000        1.0080           0   0.00000   0.00000
     39245 MEOH     2316     MEOH     LP1A     LPD     -0.230000        0.0000           -1   0.00000   0.00000
     39246 MEOH     2316     MEOH     LP1B     LPD     -0.230000        0.0000           -1   0.00000   0.00000
     39247 MEOH     2317     MEOH     C1       CD33B    2.314100       11.6110           0   -1.00000   1.30000
     39248 MEOH     2317     MEOH     DC1      DRUD    -2.454100        0.4000           0   0.00000   0.00000
     39249 MEOH     2317     MEOH     O1       OD31H    2.488300       15.5990           0   -1.02800   1.30000
     39250 MEOH     2317     MEOH     DO1      DRUD    -2.488300        0.4000           0   0.00000   0.00000
     39251 MEOH     2317     MEOH     HO1      HDP1A    0.360000        1.0080           0   0.00000   0.00000
     39252 MEOH     2317     MEOH     HO2      DUMH     0.000000        1.0080           0   0.00000   0.00000
     39253 MEOH     2317     MEOH     H1A      HDA3B    0.080000        1.0080           0   0.00000   0.00000
     39254 MEOH     2317     MEOH     H1B      HDA3B    0.080000        1.0080           0   0.00000   0.00000
     39255 MEOH     2317     MEOH     H1C      HDA3B    0.080000        1.0080           0   0.00000   0.00000
     39256 MEOH     2317     MEOH     LP1A     LPD     -0.230000        0.0000           -1   0.00000   0.00000
     39257 MEOH     2317     MEOH     LP1B     LPD     -0.230000        0.0000           -1   0.00000   0.00000
     39258 MEOH     2318     MEOH     C1       CD33B    2.314100       11.6110           0   -1.00000   1.30000
     39259 MEOH     2318     MEOH     DC1      DRUD    -2.454100        0.4000           0   0.00000   0.00000
     39260 MEOH     2318     MEOH     O1       OD31H    2.488300       15.5990           0   -1.02800   1.30000
     39261 MEOH     2318     MEOH     DO1      DRUD    -2.488300        0.4000           0   0.00000   0.00000
     39262 MEOH     2318     MEOH     HO1      HDP1A    0.360000        1.0080           0   0.00000   0.00000
     39263 MEOH     2318     MEOH     HO2      DUMH     0.000000        1.0080           0   0.00000   0.00000
     39264 MEOH     2318     MEOH     H1A      HDA3B    0.080000        1.0080           0   0.00000   0.00000
     39265 MEOH     2318     MEOH     H1B      HDA3B    0.080000        1.0080           0   0.00000   0.00000
     39266 MEOH     2318     MEOH     H1C      HDA3B    0.080000        1.0080           0   0.00000   0.00000
     39267 MEOH     2318     MEOH     LP1A     LPD     -0.230000        0.0000           -1   0.00000   0.00000
     39268 MEOH     2318     MEOH     LP1B     LPD     -0.230000        0.0000           -1   0.00000   0.00000
     39269 MEOH     2319     MEOH     C1       CD33B    2.314100       11.6110           0   -1.00000   1.30000
     39270 MEOH     2319     MEOH     DC1      DRUD    -2.454100        0.4000           0   0.00000   0.00000
     39271 MEOH     2319     MEOH     O1       OD31H    2.488300       15.5990           0   -1.02800   1.30000
     39272 MEOH     2319     MEOH     DO1      DRUD    -2.488300        0.4000           0   0.00000   0.00000
     39273 MEOH     2319     MEOH     HO1      HDP1A    0.360000        1.0080           0   0.00000   0.00000
     39274 MEOH     2319     MEOH     HO2      DUMH     0.000000        1.0080           0   0.00000   0.00000
     39275 MEOH     2319     MEOH     H1A      HDA3B    0.080000        1.0080           0   0.00000   0.00000
     39276 MEOH     2319     MEOH     H1B      HDA3B    0.080000        1.0080           0   0.00000   0.00000
     39277 MEOH     2319     MEOH     H1C      HDA3B    0.080000        1.0080           0   0.00000   0.00000
     39278 MEOH     2319     MEOH     LP1A     LPD     -0.230000        0.0000           -1   0.00000   0.00000
     39279 MEOH     2319     MEOH     LP1B     LPD     -0.230000        0.0000           -1   0.00000   0.00000
     39280 MEOH     2320     MEOH     C1       CD33B    2.314100       11.6110           0   -1.00000   1.30000
     39281 MEOH     2320     MEOH     DC1      DRUD    -2.454100        0.4000           0   0.00000   0.00000
     39282 MEOH     2320     MEOH     O1       OD31H    2.488300       15.5990           0   -1.02800   1.30000
     39283 MEOH     2320     MEOH     DO1      DRUD    -2.488300        0.4000           0   0.00000   0.00000
     39284 MEOH     2320     MEOH     HO1      HDP1A    0.360000        1.0080           0   0.00000   0.00000
     39285 MEOH     2320     MEOH     HO2      DUMH     0.000000        1.0080           0   0.00000   0.00000
     39286 MEOH     2320     MEOH     H1A      HDA3B    0.080000        1.0080           0   0.00000   0.00000
     39287 MEOH     2320     MEOH     H1B      HDA3B    0.080000        1.0080           0   0.00000   0.00000
     39288 MEOH     2320     MEOH     H1C      HDA3B    0.080000        1.0080           0   0.00000   0.00000
     39289 MEOH     2320     MEOH     LP1A     LPD     -0.230000        0.0000           -1   0.00000   0.00000
     39290 MEOH     2320     MEOH     LP1B     LPD     -0.230000        0.0000           -1   0.00000   0.00000
     39291 MEOH     2321     MEOH     C1       CD33B    2.314100       11.6110           0   -1.00000   1.30000
     39292 MEOH     2321     MEOH     DC1      DRUD    -2.454100        0.4000           0   0.00000   0.00000
     39293 MEOH     2321     MEOH     O1       OD31H    2.488300       15.5990           0   -1.02800   1.30000
     39294 MEOH     2321     MEOH     DO1      DRUD    -2.488300        0.4000           0   0.00000   0.00000
     39295 MEOH     2321     MEOH     HO1      HDP1A    0.360000        1.0080           0   0.00000   0.00000
     39296 MEOH     2321     MEOH     HO2      DUMH     0.000000        1.0080           0   0.00000   0.00000
     39297 MEOH     2321     MEOH     H1A      HDA3B    0.080000        1.0080           0   0.00000   0.00000
     39298 MEOH     2321     MEOH     H1B      HDA3B    0.080000        1.0080           0   0.00000   0.00000
     39299 MEOH     2321     MEOH     H1C      HDA3B    0.080000        1.0080           0   0.00000   0.00000
     39300 MEOH     2321     MEOH     LP1A     LPD     -0.230000        0.0000           -1   0.00000   0.00000
     39301 MEOH     2321     MEOH     LP1B     LPD     -0.230000        0.0000           -1   0.00000   0.00000
     39302 MEOH     2322     MEOH     C1       CD33B    2.314100       11.6110           0   -1.00000   1.30000
     39303 MEOH     2322     MEOH     DC1      DRUD    -2.454100        0.4000           0   0.00000   0.00000
     39304 MEOH     2322     MEOH     O1       OD31H    2.488300       15.5990           0   -1.02800   1.30000
     39305 MEOH     2322     MEOH     DO1      DRUD    -2.488300        0.4000           0   0.00000   0.00000
     39306 MEOH     2322     MEOH     HO1      HDP1A    0.360000        1.0080           0   0.00000   0.00000
     39307 MEOH     2322     MEOH     HO2      DUMH     0.000000        1.0080           0   0.00000   0.00000
     39308 MEOH     2322     MEOH     H1A      HDA3B    0.080000        1.0080           0   0.00000   0.00000
     39309 MEOH     2322     MEOH     H1B      HDA3B    0.080000        1.0080           0   0.00000   0.00000
     39310 MEOH     2322     MEOH     H1C      HDA3B    0.080000        1.0080           0   0.00000   0.00000
     39311 MEOH     2322     MEOH     LP1A     LPD     -0.230000        0.0000           -1   0.00000   0.00000
     39312 MEOH     2322     MEOH     LP1B     LPD     -0.230000        0.0000           -1   0.00000   0.00000
     39313 MEOH     2323     MEOH     C1       CD33B    2.314100       11.6110           0   -1.00000   1.30000
     39314 MEOH     2323     MEOH     DC1      DRUD    -2.454100        0.4000           0   0.00000   0.00000
     39315 MEOH     2323     MEOH     O1       OD31H    2.488300       15.5990           0   -1.02800   1.30000
     39316 MEOH     2323     MEOH     DO1      DRUD    -2.488300        0.4000           0   0.00000   0.00000
     39317 MEOH     2323     MEOH     HO1      HDP1A    0.360000        1.0080           0   0.00000   0.00000
     39318 MEOH     2323     MEOH     HO2      DUMH     0.000000        1.0080           0   0.00000   0.00000
     39319 MEOH     2323     MEOH     H1A      HDA3B    0.080000        1.0080           0   0.00000   0.00000
     39320 MEOH     2323     MEOH     H1B      HDA3B    0.080000        1.0080           0   0.00000   0.00000
     39321 MEOH     2323     MEOH     H1C      HDA3B    0.080000        1.0080           0   0.00000   0.00000
     39322 MEOH     2323     MEOH     LP1A     LPD     -0.230000        0.0000           -1   0.00000   0.00000
     39323 MEOH     2323     MEOH     LP1B     LPD     -0.230000        0.0000           -1   0.00000   0.00000
     39324 MEOH     2324     MEOH     C1       CD33B    2.314100       11.6110           0   -1.00000   1.30000
     39325 MEOH     2324     MEOH     DC1      DRUD    -2.454100        0.4000           0   0.00000   0.00000
     39326 MEOH     2324     MEOH     O1       OD31H    2.488300       15.5990           0   -1.02800   1.30000
     39327 MEOH     2324     MEOH     DO1      DRUD    -2.488300        0.4000           0   0.00000   0.00000
     39328 MEOH     2324     MEOH     HO1      HDP1A    0.360000        1.0080           0   0.00000   0.00000
     39329 MEOH     2324     MEOH     HO2      DUMH     0.000000        1.0080           0   0.00000   0.00000
     39330 MEOH     2324     MEOH     H1A      HDA3B    0.080000        1.0080           0   0.00000   0.00000
     39331 MEOH     2324     MEOH     H1B      HDA3B    0.080000        1.0080           0   0.00000   0.00000
     39332 MEOH     2324     MEOH     H1C      HDA3B    0.080000        1.0080           0   0.00000   0.00000
     39333 MEOH     2324     MEOH     LP1A     LPD     -0.230000        0.0000           -1   0.00000   0.00000
     39334 MEOH     2324     MEOH     LP1B     LPD     -0.230000        0.0000           -1   0.00000   0.00000
     39335 MEOH     2325     MEOH     C1       CD33B    2.314100       11.6110           0   -1.00000   1.30000
     39336 MEOH     2325     MEOH     DC1      DRUD    -2.454100        0.4000           0   0.00000   0.00000
     39337 MEOH     2325     MEOH     O1       OD31H    2.488300       15.5990           0   -1.02800   1.30000
     39338 MEOH     2325     MEOH     DO1      DRUD    -2.488300        0.4000           0   0.00000   0.00000
     39339 MEOH     2325     MEOH     HO1      HDP1A    0.360000        1.0080           0   0.00000   0.00000
     39340 MEOH     2325     MEOH     HO2      DUMH     0.000000        1.0080           0   0.00000   0.00000
     39341 MEOH     2325     MEOH     H1A      HDA3B    0.080000        1.0080           0   0.00000   0.00000
     39342 MEOH     2325     MEOH     H1B      HDA3B    0.080000        1.0080           0   0.00000   0.00000
     39343 MEOH     2325     MEOH     H1C      HDA3B    0.080000        1.0080           0   0.00000   0.00000
     39344 MEOH     2325     MEOH     LP1A     LPD     -0.230000        0.0000           -1   0.00000   0.00000
     39345 MEOH     2325     MEOH     LP1B     LPD     -0.230000        0.0000           -1   0.00000   0.00000
     39346 MEOH     2326     MEOH     C1       CD33B    2.314100       11.6110           0   -1.00000   1.30000
     39347 MEOH     2326     MEOH     DC1      DRUD    -2.454100        0.4000           0   0.00000   0.00000
     39348 MEOH     2326     MEOH     O1       OD31H    2.488300       15.5990           0   -1.02800   1.30000
     39349 MEOH     2326     MEOH     DO1      DRUD    -2.488300        0.4000           0   0.00000   0.00000
     39350 MEOH     2326     MEOH     HO1      HDP1A    0.360000        1.0080           0   0.00000   0.00000
     39351 MEOH     2326     MEOH     HO2      DUMH     0.000000        1.0080           0   0.00000   0.00000
     39352 MEOH     2326     MEOH     H1A      HDA3B    0.080000        1.0080           0   0.00000   0.00000
     39353 MEOH     2326     MEOH     H1B      HDA3B    0.080000        1.0080           0   0.00000   0.00000
     39354 MEOH     2326     MEOH     H1C      HDA3B    0.080000        1.0080           0   0.00000   0.00000
     39355 MEOH     2326     MEOH     LP1A     LPD     -0.230000        0.0000           -1   0.00000   0.00000
     39356 MEOH     2326     MEOH     LP1B     LPD     -0.230000        0.0000           -1   0.00000   0.00000
     39357 MEOH     2327     MEOH     C1       CD33B    2.314100       11.6110           0   -1.00000   1.30000
     39358 MEOH     2327     MEOH     DC1      DRUD    -2.454100        0.4000           0   0.00000   0.00000
     39359 MEOH     2327     MEOH     O1       OD31H    2.488300       15.5990           0   -1.02800   1.30000
     39360 MEOH     2327     MEOH     DO1      DRUD    -2.488300        0.4000           0   0.00000   0.00000
     39361 MEOH     2327     MEOH     HO1      HDP1A    0.360000        1.0080           0   0.00000   0.00000
     39362 MEOH     2327     MEOH     HO2      DUMH     0.000000        1.0080           0   0.00000   0.00000
     39363 MEOH     2327     MEOH     H1A      HDA3B    0.080000        1.0080           0   0.00000   0.00000
     39364 MEOH     2327     MEOH     H1B      HDA3B    0.080000        1.0080           0   0.00000   0.00000
     39365 MEOH     2327     MEOH     H1C      HDA3B    0.080000        1.0080           0   0.00000   0.00000
     39366 MEOH     2327     MEOH     LP1A     LPD     -0.230000        0.0000           -1   0.00000   0.00000
     39367 MEOH     2327     MEOH     LP1B     LPD     -0.230000        0.0000           -1   0.00000   0.00000
     39368 MEOH     2328     MEOH     C1       CD33B    2.314100       11.6110           0   -1.00000   1.30000
     39369 MEOH     2328     MEOH     DC1      DRUD    -2.454100        0.4000           0   0.00000   0.00000
     39370 MEOH     2328     MEOH     O1       OD31H    2.488300       15.5990           0   -1.02800   1.30000
     39371 MEOH     2328     MEOH     DO1      DRUD    -2.488300        0.4000           0   0.00000   0.00000
     39372 MEOH     2328     MEOH     HO1      HDP1A    0.360000        1.0080           0   0.00000   0.00000
     39373 MEOH     2328     MEOH     HO2      DUMH     0.000000        1.0080           0   0.00000   0.00000
     39374 MEOH     2328     MEOH     H1A      HDA3B    0.080000        1.0080           0   0.00000   0.00000
     39375 MEOH     2328     MEOH     H1B      HDA3B    0.080000        1.0080           0   0.00000   0.00000
     39376 MEOH     2328     MEOH     H1C      HDA3B    0.080000        1.0080           0   0.00000   0.00000
     39377 MEOH     2328     MEOH     LP1A     LPD     -0.230000        0.0000           -1   0.00000   0.00000
     39378 MEOH     2328     MEOH     LP1B     LPD     -0.230000        0.0000           -1   0.00000   0.00000
     39379 MEOH     2329     MEOH     C1       CD33B    2.314100       11.6110           0   -1.00000   1.30000
     39380 MEOH     2329     MEOH     DC1      DRUD    -2.454100        0.4000           0   0.00000   0.00000
     39381 MEOH     2329     MEOH     O1       OD31H    2.488300       15.5990           0   -1.02800   1.30000
     39382 MEOH     2329     MEOH     DO1      DRUD    -2.488300        0.4000           0   0.00000   0.00000
     39383 MEOH     2329     MEOH     HO1      HDP1A    0.360000        1.0080           0   0.00000   0.00000
     39384 MEOH     2329     MEOH     HO2      DUMH     0.000000        1.0080           0   0.00000   0.00000
     39385 MEOH     2329     MEOH     H1A      HDA3B    0.080000        1.0080           0   0.00000   0.00000
     39386 MEOH     2329     MEOH     H1B      HDA3B    0.080000        1.0080           0   0.00000   0.00000
     39387 MEOH     2329     MEOH     H1C      HDA3B    0.080000        1.0080           0   0.00000   0.00000
     39388 MEOH     2329     MEOH     LP1A     LPD     -0.230000        0.0000           -1   0.00000   0.00000
     39389 MEOH     2329     MEOH     LP1B     LPD     -0.230000        0.0000           -1   0.00000   0.00000
     39390 MEOH     2330     MEOH     C1       CD33B    2.314100       11.6110           0   -1.00000   1.30000
     39391 MEOH     2330     MEOH     DC1      DRUD    -2.454100        0.4000           0   0.00000   0.00000
     39392 MEOH     2330     MEOH     O1       OD31H    2.488300       15.5990           0   -1.02800   1.30000
     39393 MEOH     2330     MEOH     DO1      DRUD    -2.488300        0.4000           0   0.00000   0.00000
     39394 MEOH     2330     MEOH     HO1      HDP1A    0.360000        1.0080           0   0.00000   0.00000
     39395 MEOH     2330     MEOH     HO2      DUMH     0.000000        1.0080           0   0.00000   0.00000
     39396 MEOH     2330     MEOH     H1A      HDA3B    0.080000        1.0080           0   0.00000   0.00000
     39397 MEOH     2330     MEOH     H1B      HDA3B    0.080000        1.0080           0   0.00000   0.00000
     39398 MEOH     2330     MEOH     H1C      HDA3B    0.080000        1.0080           0   0.00000   0.00000
     39399 MEOH     2330     MEOH     LP1A     LPD     -0.230000        0.0000           -1   0.00000   0.00000
     39400 MEOH     2330     MEOH     LP1B     LPD     -0.230000        0.0000           -1   0.00000   0.00000
     39401 MEOH     2331     MEOH     C1       CD33B    2.314100       11.6110           0   -1.00000   1.30000
     39402 MEOH     2331     MEOH     DC1      DRUD    -2.454100        0.4000           0   0.00000   0.00000
     39403 MEOH     2331     MEOH     O1       OD31H    2.488300       15.5990           0   -1.02800   1.30000
     39404 MEOH     2331     MEOH     DO1      DRUD    -2.488300        0.4000           0   0.00000   0.00000
     39405 MEOH     2331     MEOH     HO1      HDP1A    0.360000        1.0080           0   0.00000   0.00000
     39406 MEOH     2331     MEOH     HO2      DUMH     0.000000        1.0080           0   0.00000   0.00000
     39407 MEOH     2331     MEOH     H1A      HDA3B    0.080000        1.0080           0   0.00000   0.00000
     39408 MEOH     2331     MEOH     H1B      HDA3B    0.080000        1.0080           0   0.00000   0.00000
     39409 MEOH     2331     MEOH     H1C      HDA3B    0.080000        1.0080           0   0.00000   0.00000
     39410 MEOH     2331     MEOH     LP1A     LPD     -0.230000        0.0000           -1   0.00000   0.00000
     39411 MEOH     2331     MEOH     LP1B     LPD     -0.230000        0.0000           -1   0.00000   0.00000
     39412 MEOH     2332     MEOH     C1       CD33B    2.314100       11.6110           0   -1.00000   1.30000
     39413 MEOH     2332     MEOH     DC1      DRUD    -2.454100        0.4000           0   0.00000   0.00000
     39414 MEOH     2332     MEOH     O1       OD31H    2.488300       15.5990           0   -1.02800   1.30000
     39415 MEOH     2332     MEOH     DO1      DRUD    -2.488300        0.4000           0   0.00000   0.00000
     39416 MEOH     2332     MEOH     HO1      HDP1A    0.360000        1.0080           0   0.00000   0.00000
     39417 MEOH     2332     MEOH     HO2      DUMH     0.000000        1.0080           0   0.00000   0.00000
     39418 MEOH     2332     MEOH     H1A      HDA3B    0.080000        1.0080           0   0.00000   0.00000
     39419 MEOH     2332     MEOH     H1B      HDA3B    0.080000        1.0080           0   0.00000   0.00000
     39420 MEOH     2332     MEOH     H1C      HDA3B    0.080000        1.0080           0   0.00000   0.00000
     39421 MEOH     2332     MEOH     LP1A     LPD     -0.230000        0.0000           -1   0.00000   0.00000
     39422 MEOH     2332     MEOH     LP1B     LPD     -0.230000        0.0000           -1   0.00000   0.00000
     39423 MEOH     2333     MEOH     C1       CD33B    2.314100       11.6110           0   -1.00000   1.30000
     39424 MEOH     2333     MEOH     DC1      DRUD    -2.454100        0.4000           0   0.00000   0.00000
     39425 MEOH     2333     MEOH     O1       OD31H    2.488300       15.5990           0   -1.02800   1.30000
     39426 MEOH     2333     MEOH     DO1      DRUD    -2.488300        0.4000           0   0.00000   0.00000
     39427 MEOH     2333     MEOH     HO1      HDP1A    0.360000        1.0080           0   0.00000   0.00000
     39428 MEOH     2333     MEOH     HO2      DUMH     0.000000        1.0080           0   0.00000   0.00000
     39429 MEOH     2333     MEOH     H1A      HDA3B    0.080000        1.0080           0   0.00000   0.00000
     39430 MEOH     2333     MEOH     H1B      HDA3B    0.080000        1.0080           0   0.00000   0.00000
     39431 MEOH     2333     MEOH     H1C      HDA3B    0.080000        1.0080           0   0.00000   0.00000
     39432 MEOH     2333     MEOH     LP1A     LPD     -0.230000        0.0000           -1   0.00000   0.00000
     39433 MEOH     2333     MEOH     LP1B     LPD     -0.230000        0.0000           -1   0.00000   0.00000
     39434 MEOH     2334     MEOH     C1       CD33B    2.314100       11.6110           0   -1.00000   1.30000
     39435 MEOH     2334     MEOH     DC1      DRUD    -2.454100        0.4000           0   0.00000   0.00000
     39436 MEOH     2334     MEOH     O1       OD31H    2.488300       15.5990           0   -1.02800   1.30000
     39437 MEOH     2334     MEOH     DO1      DRUD    -2.488300        0.4000           0   0.00000   0.00000
     39438 MEOH     2334     MEOH     HO1      HDP1A    0.360000        1.0080           0   0.00000   0.00000
     39439 MEOH     2334     MEOH     HO2      DUMH     0.000000        1.0080           0   0.00000   0.00000
     39440 MEOH     2334     MEOH     H1A      HDA3B    0.080000        1.0080           0   0.00000   0.00000
     39441 MEOH     2334     MEOH     H1B      HDA3B    0.080000        1.0080           0   0.00000   0.00000
     39442 MEOH     2334     MEOH     H1C      HDA3B    0.080000        1.0080           0   0.00000   0.00000
     39443 MEOH     2334     MEOH     LP1A     LPD     -0.230000        0.0000           -1   0.00000   0.00000
     39444 MEOH     2334     MEOH     LP1B     LPD     -0.230000        0.0000           -1   0.00000   0.00000
     39445 MEOH     2335     MEOH     C1       CD33B    2.314100       11.6110           0   -1.00000   1.30000
     39446 MEOH     2335     MEOH     DC1      DRUD    -2.454100        0.4000           0   0.00000   0.00000
     39447 MEOH     2335     MEOH     O1       OD31H    2.488300       15.5990           0   -1.02800   1.30000
     39448 MEOH     2335     MEOH     DO1      DRUD    -2.488300        0.4000           0   0.00000   0.00000
     39449 MEOH     2335     MEOH     HO1      HDP1A    0.360000        1.0080           0   0.00000   0.00000
     39450 MEOH     2335     MEOH     HO2      DUMH     0.000000        1.0080           0   0.00000   0.00000
     39451 MEOH     2335     MEOH     H1A      HDA3B    0.080000        1.0080           0   0.00000   0.00000
     39452 MEOH     2335     MEOH     H1B      HDA3B    0.080000        1.0080           0   0.00000   0.00000
     39453 MEOH     2335     MEOH     H1C      HDA3B    0.080000        1.0080           0   0.00000   0.00000
     39454 MEOH     2335     MEOH     LP1A     LPD     -0.230000        0.0000           -1   0.00000   0.00000
     39455 MEOH     2335     MEOH     LP1B     LPD     -0.230000        0.0000           -1   0.00000   0.00000
     39456 MEOH     2336     MEOH     C1       CD33B    2.314100       11.6110           0   -1.00000   1.30000
     39457 MEOH     2336     MEOH     DC1      DRUD    -2.454100        0.4000           0   0.00000   0.00000
     39458 MEOH     2336     MEOH     O1       OD31H    2.488300       15.5990           0   -1.02800   1.30000
     39459 MEOH     2336     MEOH     DO1      DRUD    -2.488300        0.4000           0   0.00000   0.00000
     39460 MEOH     2336     MEOH     HO1      HDP1A    0.360000        1.0080           0   0.00000   0.00000
     39461 MEOH     2336     MEOH     HO2      DUMH     0.000000        1.0080           0   0.00000   0.00000
     39462 MEOH     2336     MEOH     H1A      HDA3B    0.080000        1.0080           0   0.00000   0.00000
     39463 MEOH     2336     MEOH     H1B      HDA3B    0.080000        1.0080           0   0.00000   0.00000
     39464 MEOH     2336     MEOH     H1C      HDA3B    0.080000        1.0080           0   0.00000   0.00000
     39465 MEOH     2336     MEOH     LP1A     LPD     -0.230000        0.0000           -1   0.00000   0.00000
     39466 MEOH     2336     MEOH     LP1B     LPD     -0.230000        0.0000           -1   0.00000   0.00000
     39467 MEOH     2337     MEOH     C1       CD33B    2.314100       11.6110           0   -1.00000   1.30000
     39468 MEOH     2337     MEOH     DC1      DRUD    -2.454100        0.4000           0   0.00000   0.00000
     39469 MEOH     2337     MEOH     O1       OD31H    2.488300       15.5990           0   -1.02800   1.30000
     39470 MEOH     2337     MEOH     DO1      DRUD    -2.488300        0.4000           0   0.00000   0.00000
     39471 MEOH     2337     MEOH     HO1      HDP1A    0.360000        1.0080           0   0.00000   0.00000
     39472 MEOH     2337     MEOH     HO2      DUMH     0.000000        1.0080           0   0.00000   0.00000
     39473 MEOH     2337     MEOH     H1A      HDA3B    0.080000        1.0080           0   0.00000   0.00000
     39474 MEOH     2337     MEOH     H1B      HDA3B    0.080000        1.0080           0   0.00000   0.00000
     39475 MEOH     2337     MEOH     H1C      HDA3B    0.080000        1.0080           0   0.00000   0.00000
     39476 MEOH     2337     MEOH     LP1A     LPD     -0.230000        0.0000           -1   0.00000   0.00000
     39477 MEOH     2337     MEOH     LP1B     LPD     -0.230000        0.0000           -1   0.00000   0.00000
     39478 MEOH     2338     MEOH     C1       CD33B    2.314100       11.6110           0   -1.00000   1.30000
     39479 MEOH     2338     MEOH     DC1      DRUD    -2.454100        0.4000           0   0.00000   0.00000
     39480 MEOH     2338     MEOH     O1       OD31H    2.488300       15.5990           0   -1.02800   1.30000
     39481 MEOH     2338     MEOH     DO1      DRUD    -2.488300        0.4000           0   0.00000   0.00000
     39482 MEOH     2338     MEOH     HO1      HDP1A    0.360000        1.0080           0   0.00000   0.00000
     39483 MEOH     2338     MEOH     HO2      DUMH     0.000000        1.0080           0   0.00000   0.00000
     39484 MEOH     2338     MEOH     H1A      HDA3B    0.080000        1.0080           0   0.00000   0.00000
     39485 MEOH     2338     MEOH     H1B      HDA3B    0.080000        1.0080           0   0.00000   0.00000
     39486 MEOH     2338     MEOH     H1C      HDA3B    0.080000        1.0080           0   0.00000   0.00000
     39487 MEOH     2338     MEOH     LP1A     LPD     -0.230000        0.0000           -1   0.00000   0.00000
     39488 MEOH     2338     MEOH     LP1B     LPD     -0.230000        0.0000           -1   0.00000   0.00000
     39489 MEOH     2339     MEOH     C1       CD33B    2.314100       11.6110           0   -1.00000   1.30000
     39490 MEOH     2339     MEOH     DC1      DRUD    -2.454100        0.4000           0   0.00000   0.00000
     39491 MEOH     2339     MEOH     O1       OD31H    2.488300       15.5990           0   -1.02800   1.30000
     39492 MEOH     2339     MEOH     DO1      DRUD    -2.488300        0.4000           0   0.00000   0.00000
     39493 MEOH     2339     MEOH     HO1      HDP1A    0.360000        1.0080           0   0.00000   0.00000
     39494 MEOH     2339     MEOH     HO2      DUMH     0.000000        1.0080           0   0.00000   0.00000
     39495 MEOH     2339     MEOH     H1A      HDA3B    0.080000        1.0080           0   0.00000   0.00000
     39496 MEOH     2339     MEOH     H1B      HDA3B    0.080000        1.0080           0   0.00000   0.00000
     39497 MEOH     2339     MEOH     H1C      HDA3B    0.080000        1.0080           0   0.00000   0.00000
     39498 MEOH     2339     MEOH     LP1A     LPD     -0.230000        0.0000           -1   0.00000   0.00000
     39499 MEOH     2339     MEOH     LP1B     LPD     -0.230000        0.0000           -1   0.00000   0.00000
     39500 MEOH     2340     MEOH     C1       CD33B    2.314100       11.6110           0   -1.00000   1.30000
     39501 MEOH     2340     MEOH     DC1      DRUD    -2.454100        0.4000           0   0.00000   0.00000
     39502 MEOH     2340     MEOH     O1       OD31H    2.488300       15.5990           0   -1.02800   1.30000
     39503 MEOH     2340     MEOH     DO1      DRUD    -2.488300        0.4000           0   0.00000   0.00000
     39504 MEOH     2340     MEOH     HO1      HDP1A    0.360000        1.0080           0   0.00000   0.00000
     39505 MEOH     2340     MEOH     HO2      DUMH     0.000000        1.0080           0   0.00000   0.00000
     39506 MEOH     2340     MEOH     H1A      HDA3B    0.080000        1.0080           0   0.00000   0.00000
     39507 MEOH     2340     MEOH     H1B      HDA3B    0.080000        1.0080           0   0.00000   0.00000
     39508 MEOH     2340     MEOH     H1C      HDA3B    0.080000        1.0080           0   0.00000   0.00000
     39509 MEOH     2340     MEOH     LP1A     LPD     -0.230000        0.0000           -1   0.00000   0.00000
     39510 MEOH     2340     MEOH     LP1B     LPD     -0.230000        0.0000           -1   0.00000   0.00000
     39511 MEOH     2341     MEOH     C1       CD33B    2.314100       11.6110           0   -1.00000   1.30000
     39512 MEOH     2341     MEOH     DC1      DRUD    -2.454100        0.4000           0   0.00000   0.00000
     39513 MEOH     2341     MEOH     O1       OD31H    2.488300       15.5990           0   -1.02800   1.30000
     39514 MEOH     2341     MEOH     DO1      DRUD    -2.488300        0.4000           0   0.00000   0.00000
     39515 MEOH     2341     MEOH     HO1      HDP1A    0.360000        1.0080           0   0.00000   0.00000
     39516 MEOH     2341     MEOH     HO2      DUMH     0.000000        1.0080           0   0.00000   0.00000
     39517 MEOH     2341     MEOH     H1A      HDA3B    0.080000        1.0080           0   0.00000   0.00000
     39518 MEOH     2341     MEOH     H1B      HDA3B    0.080000        1.0080           0   0.00000   0.00000
     39519 MEOH     2341     MEOH     H1C      HDA3B    0.080000        1.0080           0   0.00000   0.00000
     39520 MEOH     2341     MEOH     LP1A     LPD     -0.230000        0.0000           -1   0.00000   0.00000
     39521 MEOH     2341     MEOH     LP1B     LPD     -0.230000        0.0000           -1   0.00000   0.00000
     39522 MEOH     2342     MEOH     C1       CD33B    2.314100       11.6110           0   -1.00000   1.30000
     39523 MEOH     2342     MEOH     DC1      DRUD    -2.454100        0.4000           0   0.00000   0.00000
     39524 MEOH     2342     MEOH     O1       OD31H    2.488300       15.5990           0   -1.02800   1.30000
     39525 MEOH     2342     MEOH     DO1      DRUD    -2.488300        0.4000           0   0.00000   0.00000
     39526 MEOH     2342     MEOH     HO1      HDP1A    0.360000        1.0080           0   0.00000   0.00000
     39527 MEOH     2342     MEOH     HO2      DUMH     0.000000        1.0080           0   0.00000   0.00000
     39528 MEOH     2342     MEOH     H1A      HDA3B    0.080000        1.0080           0   0.00000   0.00000
     39529 MEOH     2342     MEOH     H1B      HDA3B    0.080000        1.0080           0   0.00000   0.00000
     39530 MEOH     2342     MEOH     H1C      HDA3B    0.080000        1.0080           0   0.00000   0.00000
     39531 MEOH     2342     MEOH     LP1A     LPD     -0.230000        0.0000           -1   0.00000   0.00000
     39532 MEOH     2342     MEOH     LP1B     LPD     -0.230000        0.0000           -1   0.00000   0.00000
     39533 MEOH     2343     MEOH     C1       CD33B    2.314100       11.6110           0   -1.00000   1.30000
     39534 MEOH     2343     MEOH     DC1      DRUD    -2.454100        0.4000           0   0.00000   0.00000
     39535 MEOH     2343     MEOH     O1       OD31H    2.488300       15.5990           0   -1.02800   1.30000
     39536 MEOH     2343     MEOH     DO1      DRUD    -2.488300        0.4000           0   0.00000   0.00000
     39537 MEOH     2343     MEOH     HO1      HDP1A    0.360000        1.0080           0   0.00000   0.00000
     39538 MEOH     2343     MEOH     HO2      DUMH     0.000000        1.0080           0   0.00000   0.00000
     39539 MEOH     2343     MEOH     H1A      HDA3B    0.080000        1.0080           0   0.00000   0.00000
     39540 MEOH     2343     MEOH     H1B      HDA3B    0.080000        1.0080           0   0.00000   0.00000
     39541 MEOH     2343     MEOH     H1C      HDA3B    0.080000        1.0080           0   0.00000   0.00000
     39542 MEOH     2343     MEOH     LP1A     LPD     -0.230000        0.0000           -1   0.00000   0.00000
     39543 MEOH     2343     MEOH     LP1B     LPD     -0.230000        0.0000           -1   0.00000   0.00000
     39544 MEOH     2344     MEOH     C1       CD33B    2.314100       11.6110           0   -1.00000   1.30000
     39545 MEOH     2344     MEOH     DC1      DRUD    -2.454100        0.4000           0   0.00000   0.00000
     39546 MEOH     2344     MEOH     O1       OD31H    2.488300       15.5990           0   -1.02800   1.30000
     39547 MEOH     2344     MEOH     DO1      DRUD    -2.488300        0.4000           0   0.00000   0.00000
     39548 MEOH     2344     MEOH     HO1      HDP1A    0.360000        1.0080           0   0.00000   0.00000
     39549 MEOH     2344     MEOH     HO2      DUMH     0.000000        1.0080           0   0.00000   0.00000
     39550 MEOH     2344     MEOH     H1A      HDA3B    0.080000        1.0080           0   0.00000   0.00000
     39551 MEOH     2344     MEOH     H1B      HDA3B    0.080000        1.0080           0   0.00000   0.00000
     39552 MEOH     2344     MEOH     H1C      HDA3B    0.080000        1.0080           0   0.00000   0.00000
     39553 MEOH     2344     MEOH     LP1A     LPD     -0.230000        0.0000           -1   0.00000   0.00000
     39554 MEOH     2344     MEOH     LP1B     LPD     -0.230000        0.0000           -1   0.00000   0.00000
     39555 MEOH     2345     MEOH     C1       CD33B    2.314100       11.6110           0   -1.00000   1.30000
     39556 MEOH     2345     MEOH     DC1      DRUD    -2.454100        0.4000           0   0.00000   0.00000
     39557 MEOH     2345     MEOH     O1       OD31H    2.488300       15.5990           0   -1.02800   1.30000
     39558 MEOH     2345     MEOH     DO1      DRUD    -2.488300        0.4000           0   0.00000   0.00000
     39559 MEOH     2345     MEOH     HO1      HDP1A    0.360000        1.0080           0   0.00000   0.00000
     39560 MEOH     2345     MEOH     HO2      DUMH     0.000000        1.0080           0   0.00000   0.00000
     39561 MEOH     2345     MEOH     H1A      HDA3B    0.080000        1.0080           0   0.00000   0.00000
     39562 MEOH     2345     MEOH     H1B      HDA3B    0.080000        1.0080           0   0.00000   0.00000
     39563 MEOH     2345     MEOH     H1C      HDA3B    0.080000        1.0080           0   0.00000   0.00000
     39564 MEOH     2345     MEOH     LP1A     LPD     -0.230000        0.0000           -1   0.00000   0.00000
     39565 MEOH     2345     MEOH     LP1B     LPD     -0.230000        0.0000           -1   0.00000   0.00000
     39566 MEOH     2346     MEOH     C1       CD33B    2.314100       11.6110           0   -1.00000   1.30000
     39567 MEOH     2346     MEOH     DC1      DRUD    -2.454100        0.4000           0   0.00000   0.00000
     39568 MEOH     2346     MEOH     O1       OD31H    2.488300       15.5990           0   -1.02800   1.30000
     39569 MEOH     2346     MEOH     DO1      DRUD    -2.488300        0.4000           0   0.00000   0.00000
     39570 MEOH     2346     MEOH     HO1      HDP1A    0.360000        1.0080           0   0.00000   0.00000
     39571 MEOH     2346     MEOH     HO2      DUMH     0.000000        1.0080           0   0.00000   0.00000
     39572 MEOH     2346     MEOH     H1A      HDA3B    0.080000        1.0080           0   0.00000   0.00000
     39573 MEOH     2346     MEOH     H1B      HDA3B    0.080000        1.0080           0   0.00000   0.00000
     39574 MEOH     2346     MEOH     H1C      HDA3B    0.080000        1.0080           0   0.00000   0.00000
     39575 MEOH     2346     MEOH     LP1A     LPD     -0.230000        0.0000           -1   0.00000   0.00000
     39576 MEOH     2346     MEOH     LP1B     LPD     -0.230000        0.0000           -1   0.00000   0.00000
     39577 MEOH     2347     MEOH     C1       CD33B    2.314100       11.6110           0   -1.00000   1.30000
     39578 MEOH     2347     MEOH     DC1      DRUD    -2.454100        0.4000           0   0.00000   0.00000
     39579 MEOH     2347     MEOH     O1       OD31H    2.488300       15.5990           0   -1.02800   1.30000
     39580 MEOH     2347     MEOH     DO1      DRUD    -2.488300        0.4000           0   0.00000   0.00000
     39581 MEOH     2347     MEOH     HO1      HDP1A    0.360000        1.0080           0   0.00000   0.00000
     39582 MEOH     2347     MEOH     HO2      DUMH     0.000000        1.0080           0   0.00000   0.00000
     39583 MEOH     2347     MEOH     H1A      HDA3B    0.080000        1.0080           0   0.00000   0.00000
     39584 MEOH     2347     MEOH     H1B      HDA3B    0.080000        1.0080           0   0.00000   0.00000
     39585 MEOH     2347     MEOH     H1C      HDA3B    0.080000        1.0080           0   0.00000   0.00000
     39586 MEOH     2347     MEOH     LP1A     LPD     -0.230000        0.0000           -1   0.00000   0.00000
     39587 MEOH     2347     MEOH     LP1B     LPD     -0.230000        0.0000           -1   0.00000   0.00000
     39588 MEOH     2348     MEOH     C1       CD33B    2.314100       11.6110           0   -1.00000   1.30000
     39589 MEOH     2348     MEOH     DC1      DRUD    -2.454100        0.4000           0   0.00000   0.00000
     39590 MEOH     2348     MEOH     O1       OD31H    2.488300       15.5990           0   -1.02800   1.30000
     39591 MEOH     2348     MEOH     DO1      DRUD    -2.488300        0.4000           0   0.00000   0.00000
     39592 MEOH     2348     MEOH     HO1      HDP1A    0.360000        1.0080           0   0.00000   0.00000
     39593 MEOH     2348     MEOH     HO2      DUMH     0.000000        1.0080           0   0.00000   0.00000
     39594 MEOH     2348     MEOH     H1A      HDA3B    0.080000        1.0080           0   0.00000   0.00000
     39595 MEOH     2348     MEOH     H1B      HDA3B    0.080000        1.0080           0   0.00000   0.00000
     39596 MEOH     2348     MEOH     H1C      HDA3B    0.080000        1.0080           0   0.00000   0.00000
     39597 MEOH     2348     MEOH     LP1A     LPD     -0.230000        0.0000           -1   0.00000   0.00000
     39598 MEOH     2348     MEOH     LP1B     LPD     -0.230000        0.0000           -1   0.00000   0.00000
     39599 MEOH     2349     MEOH     C1       CD33B    2.314100       11.6110           0   -1.00000   1.30000
     39600 MEOH     2349     MEOH     DC1      DRUD    -2.454100        0.4000           0   0.00000   0.00000
     39601 MEOH     2349     MEOH     O1       OD31H    2.488300       15.5990           0   -1.02800   1.30000
     39602 MEOH     2349     MEOH     DO1      DRUD    -2.488300        0.4000           0   0.00000   0.00000
     39603 MEOH     2349     MEOH     HO1      HDP1A    0.360000        1.0080           0   0.00000   0.00000
     39604 MEOH     2349     MEOH     HO2      DUMH     0.000000        1.0080           0   0.00000   0.00000
     39605 MEOH     2349     MEOH     H1A      HDA3B    0.080000        1.0080           0   0.00000   0.00000
     39606 MEOH     2349     MEOH     H1B      HDA3B    0.080000        1.0080           0   0.00000   0.00000
     39607 MEOH     2349     MEOH     H1C      HDA3B    0.080000        1.0080           0   0.00000   0.00000
     39608 MEOH     2349     MEOH     LP1A     LPD     -0.230000        0.0000           -1   0.00000   0.00000
     39609 MEOH     2349     MEOH     LP1B     LPD     -0.230000        0.0000           -1   0.00000   0.00000
     39610 MEOH     2350     MEOH     C1       CD33B    2.314100       11.6110           0   -1.00000   1.30000
     39611 MEOH     2350     MEOH     DC1      DRUD    -2.454100        0.4000           0   0.00000   0.00000
     39612 MEOH     2350     MEOH     O1       OD31H    2.488300       15.5990           0   -1.02800   1.30000
     39613 MEOH     2350     MEOH     DO1      DRUD    -2.488300        0.4000           0   0.00000   0.00000
     39614 MEOH     2350     MEOH     HO1      HDP1A    0.360000        1.0080           0   0.00000   0.00000
     39615 MEOH     2350     MEOH     HO2      DUMH     0.000000        1.0080           0   0.00000   0.00000
     39616 MEOH     2350     MEOH     H1A      HDA3B    0.080000        1.0080           0   0.00000   0.00000
     39617 MEOH     2350     MEOH     H1B      HDA3B    0.080000        1.0080           0   0.00000   0.00000
     39618 MEOH     2350     MEOH     H1C      HDA3B    0.080000        1.0080           0   0.00000   0.00000
     39619 MEOH     2350     MEOH     LP1A     LPD     -0.230000        0.0000           -1   0.00000   0.00000
     39620 MEOH     2350     MEOH     LP1B     LPD     -0.230000        0.0000           -1   0.00000   0.00000
     39621 MEOH     2351     MEOH     C1       CD33B    2.314100       11.6110           0   -1.00000   1.30000
     39622 MEOH     2351     MEOH     DC1      DRUD    -2.454100        0.4000           0   0.00000   0.00000
     39623 MEOH     2351     MEOH     O1       OD31H    2.488300       15.5990           0   -1.02800   1.30000
     39624 MEOH     2351     MEOH     DO1      DRUD    -2.488300        0.4000           0   0.00000   0.00000
     39625 MEOH     2351     MEOH     HO1      HDP1A    0.360000        1.0080           0   0.00000   0.00000
     39626 MEOH     2351     MEOH     HO2      DUMH     0.000000        1.0080           0   0.00000   0.00000
     39627 MEOH     2351     MEOH     H1A      HDA3B    0.080000        1.0080           0   0.00000   0.00000
     39628 MEOH     2351     MEOH     H1B      HDA3B    0.080000        1.0080           0   0.00000   0.00000
     39629 MEOH     2351     MEOH     H1C      HDA3B    0.080000        1.0080           0   0.00000   0.00000
     39630 MEOH     2351     MEOH     LP1A     LPD     -0.230000        0.0000           -1   0.00000   0.00000
     39631 MEOH     2351     MEOH     LP1B     LPD     -0.230000        0.0000           -1   0.00000   0.00000
     39632 MEOH     2352     MEOH     C1       CD33B    2.314100       11.6110           0   -1.00000   1.30000
     39633 MEOH     2352     MEOH     DC1      DRUD    -2.454100        0.4000           0   0.00000   0.00000
     39634 MEOH     2352     MEOH     O1       OD31H    2.488300       15.5990           0   -1.02800   1.30000
     39635 MEOH     2352     MEOH     DO1      DRUD    -2.488300        0.4000           0   0.00000   0.00000
     39636 MEOH     2352     MEOH     HO1      HDP1A    0.360000        1.0080           0   0.00000   0.00000
     39637 MEOH     2352     MEOH     HO2      DUMH     0.000000        1.0080           0   0.00000   0.00000
     39638 MEOH     2352     MEOH     H1A      HDA3B    0.080000        1.0080           0   0.00000   0.00000
     39639 MEOH     2352     MEOH     H1B      HDA3B    0.080000        1.0080           0   0.00000   0.00000
     39640 MEOH     2352     MEOH     H1C      HDA3B    0.080000        1.0080           0   0.00000   0.00000
     39641 MEOH     2352     MEOH     LP1A     LPD     -0.230000        0.0000           -1   0.00000   0.00000
     39642 MEOH     2352     MEOH     LP1B     LPD     -0.230000        0.0000           -1   0.00000   0.00000
     39643 MEOH     2353     MEOH     C1       CD33B    2.314100       11.6110           0   -1.00000   1.30000
     39644 MEOH     2353     MEOH     DC1      DRUD    -2.454100        0.4000           0   0.00000   0.00000
     39645 MEOH     2353     MEOH     O1       OD31H    2.488300       15.5990           0   -1.02800   1.30000
     39646 MEOH     2353     MEOH     DO1      DRUD    -2.488300        0.4000           0   0.00000   0.00000
     39647 MEOH     2353     MEOH     HO1      HDP1A    0.360000        1.0080           0   0.00000   0.00000
     39648 MEOH     2353     MEOH     HO2      DUMH     0.000000        1.0080           0   0.00000   0.00000
     39649 MEOH     2353     MEOH     H1A      HDA3B    0.080000        1.0080           0   0.00000   0.00000
     39650 MEOH     2353     MEOH     H1B      HDA3B    0.080000        1.0080           0   0.00000   0.00000
     39651 MEOH     2353     MEOH     H1C      HDA3B    0.080000        1.0080           0   0.00000   0.00000
     39652 MEOH     2353     MEOH     LP1A     LPD     -0.230000        0.0000           -1   0.00000   0.00000
     39653 MEOH     2353     MEOH     LP1B     LPD     -0.230000        0.0000           -1   0.00000   0.00000
     39654 MEOH     2354     MEOH     C1       CD33B    2.314100       11.6110           0   -1.00000   1.30000
     39655 MEOH     2354     MEOH     DC1      DRUD    -2.454100        0.4000           0   0.00000   0.00000
     39656 MEOH     2354     MEOH     O1       OD31H    2.488300       15.5990           0   -1.02800   1.30000
     39657 MEOH     2354     MEOH     DO1      DRUD    -2.488300        0.4000           0   0.00000   0.00000
     39658 MEOH     2354     MEOH     HO1      HDP1A    0.360000        1.0080           0   0.00000   0.00000
     39659 MEOH     2354     MEOH     HO2      DUMH     0.000000        1.0080           0   0.00000   0.00000
     39660 MEOH     2354     MEOH     H1A      HDA3B    0.080000        1.0080           0   0.00000   0.00000
     39661 MEOH     2354     MEOH     H1B      HDA3B    0.080000        1.0080           0   0.00000   0.00000
     39662 MEOH     2354     MEOH     H1C      HDA3B    0.080000        1.0080           0   0.00000   0.00000
     39663 MEOH     2354     MEOH     LP1A     LPD     -0.230000        0.0000           -1   0.00000   0.00000
     39664 MEOH     2354     MEOH     LP1B     LPD     -0.230000        0.0000           -1   0.00000   0.00000
     39665 MEOH     2355     MEOH     C1       CD33B    2.314100       11.6110           0   -1.00000   1.30000
     39666 MEOH     2355     MEOH     DC1      DRUD    -2.454100        0.4000           0   0.00000   0.00000
     39667 MEOH     2355     MEOH     O1       OD31H    2.488300       15.5990           0   -1.02800   1.30000
     39668 MEOH     2355     MEOH     DO1      DRUD    -2.488300        0.4000           0   0.00000   0.00000
     39669 MEOH     2355     MEOH     HO1      HDP1A    0.360000        1.0080           0   0.00000   0.00000
     39670 MEOH     2355     MEOH     HO2      DUMH     0.000000        1.0080           0   0.00000   0.00000
     39671 MEOH     2355     MEOH     H1A      HDA3B    0.080000        1.0080           0   0.00000   0.00000
     39672 MEOH     2355     MEOH     H1B      HDA3B    0.080000        1.0080           0   0.00000   0.00000
     39673 MEOH     2355     MEOH     H1C      HDA3B    0.080000        1.0080           0   0.00000   0.00000
     39674 MEOH     2355     MEOH     LP1A     LPD     -0.230000        0.0000           -1   0.00000   0.00000
     39675 MEOH     2355     MEOH     LP1B     LPD     -0.230000        0.0000           -1   0.00000   0.00000
     39676 MEOH     2356     MEOH     C1       CD33B    2.314100       11.6110           0   -1.00000   1.30000
     39677 MEOH     2356     MEOH     DC1      DRUD    -2.454100        0.4000           0   0.00000   0.00000
     39678 MEOH     2356     MEOH     O1       OD31H    2.488300       15.5990           0   -1.02800   1.30000
     39679 MEOH     2356     MEOH     DO1      DRUD    -2.488300        0.4000           0   0.00000   0.00000
     39680 MEOH     2356     MEOH     HO1      HDP1A    0.360000        1.0080           0   0.00000   0.00000
     39681 MEOH     2356     MEOH     HO2      DUMH     0.000000        1.0080           0   0.00000   0.00000
     39682 MEOH     2356     MEOH     H1A      HDA3B    0.080000        1.0080           0   0.00000   0.00000
     39683 MEOH     2356     MEOH     H1B      HDA3B    0.080000        1.0080           0   0.00000   0.00000
     39684 MEOH     2356     MEOH     H1C      HDA3B    0.080000        1.0080           0   0.00000   0.00000
     39685 MEOH     2356     MEOH     LP1A     LPD     -0.230000        0.0000           -1   0.00000   0.00000
     39686 MEOH     2356     MEOH     LP1B     LPD     -0.230000        0.0000           -1   0.00000   0.00000
     39687 MEOH     2357     MEOH     C1       CD33B    2.314100       11.6110           0   -1.00000   1.30000
     39688 MEOH     2357     MEOH     DC1      DRUD    -2.454100        0.4000           0   0.00000   0.00000
     39689 MEOH     2357     MEOH     O1       OD31H    2.488300       15.5990           0   -1.02800   1.30000
     39690 MEOH     2357     MEOH     DO1      DRUD    -2.488300        0.4000           0   0.00000   0.00000
     39691 MEOH     2357     MEOH     HO1      HDP1A    0.360000        1.0080           0   0.00000   0.00000
     39692 MEOH     2357     MEOH     HO2      DUMH     0.000000        1.0080           0   0.00000   0.00000
     39693 MEOH     2357     MEOH     H1A      HDA3B    0.080000        1.0080           0   0.00000   0.00000
     39694 MEOH     2357     MEOH     H1B      HDA3B    0.080000        1.0080           0   0.00000   0.00000
     39695 MEOH     2357     MEOH     H1C      HDA3B    0.080000        1.0080           0   0.00000   0.00000
     39696 MEOH     2357     MEOH     LP1A     LPD     -0.230000        0.0000           -1   0.00000   0.00000
     39697 MEOH     2357     MEOH     LP1B     LPD     -0.230000        0.0000           -1   0.00000   0.00000
     39698 MEOH     2358     MEOH     C1       CD33B    2.314100       11.6110           0   -1.00000   1.30000
     39699 MEOH     2358     MEOH     DC1      DRUD    -2.454100        0.4000           0   0.00000   0.00000
     39700 MEOH     2358     MEOH     O1       OD31H    2.488300       15.5990           0   -1.02800   1.30000
     39701 MEOH     2358     MEOH     DO1      DRUD    -2.488300        0.4000           0   0.00000   0.00000
     39702 MEOH     2358     MEOH     HO1      HDP1A    0.360000        1.0080           0   0.00000   0.00000
     39703 MEOH     2358     MEOH     HO2      DUMH     0.000000        1.0080           0   0.00000   0.00000
     39704 MEOH     2358     MEOH     H1A      HDA3B    0.080000        1.0080           0   0.00000   0.00000
     39705 MEOH     2358     MEOH     H1B      HDA3B    0.080000        1.0080           0   0.00000   0.00000
     39706 MEOH     2358     MEOH     H1C      HDA3B    0.080000        1.0080           0   0.00000   0.00000
     39707 MEOH     2358     MEOH     LP1A     LPD     -0.230000        0.0000           -1   0.00000   0.00000
     39708 MEOH     2358     MEOH     LP1B     LPD     -0.230000        0.0000           -1   0.00000   0.00000
     39709 MEOH     2359     MEOH     C1       CD33B    2.314100       11.6110           0   -1.00000   1.30000
     39710 MEOH     2359     MEOH     DC1      DRUD    -2.454100        0.4000           0   0.00000   0.00000
     39711 MEOH     2359     MEOH     O1       OD31H    2.488300       15.5990           0   -1.02800   1.30000
     39712 MEOH     2359     MEOH     DO1      DRUD    -2.488300        0.4000           0   0.00000   0.00000
     39713 MEOH     2359     MEOH     HO1      HDP1A    0.360000        1.0080           0   0.00000   0.00000
     39714 MEOH     2359     MEOH     HO2      DUMH     0.000000        1.0080           0   0.00000   0.00000
     39715 MEOH     2359     MEOH     H1A      HDA3B    0.080000        1.0080           0   0.00000   0.00000
     39716 MEOH     2359     MEOH     H1B      HDA3B    0.080000        1.0080           0   0.00000   0.00000
     39717 MEOH     2359     MEOH     H1C      HDA3B    0.080000        1.0080           0   0.00000   0.00000
     39718 MEOH     2359     MEOH     LP1A     LPD     -0.230000        0.0000           -1   0.00000   0.00000
     39719 MEOH     2359     MEOH     LP1B     LPD     -0.230000        0.0000           -1   0.00000   0.00000
     39720 MEOH     2360     MEOH     C1       CD33B    2.314100       11.6110           0   -1.00000   1.30000
     39721 MEOH     2360     MEOH     DC1      DRUD    -2.454100        0.4000           0   0.00000   0.00000
     39722 MEOH     2360     MEOH     O1       OD31H    2.488300       15.5990           0   -1.02800   1.30000
     39723 MEOH     2360     MEOH     DO1      DRUD    -2.488300        0.4000           0   0.00000   0.00000
     39724 MEOH     2360     MEOH     HO1      HDP1A    0.360000        1.0080           0   0.00000   0.00000
     39725 MEOH     2360     MEOH     HO2      DUMH     0.000000        1.0080           0   0.00000   0.00000
     39726 MEOH     2360     MEOH     H1A      HDA3B    0.080000        1.0080           0   0.00000   0.00000
     39727 MEOH     2360     MEOH     H1B      HDA3B    0.080000        1.0080           0   0.00000   0.00000
     39728 MEOH     2360     MEOH     H1C      HDA3B    0.080000        1.0080           0   0.00000   0.00000
     39729 MEOH     2360     MEOH     LP1A     LPD     -0.230000        0.0000           -1   0.00000   0.00000
     39730 MEOH     2360     MEOH     LP1B     LPD     -0.230000        0.0000           -1   0.00000   0.00000
     39731 MEOH     2361     MEOH     C1       CD33B    2.314100       11.6110           0   -1.00000   1.30000
     39732 MEOH     2361     MEOH     DC1      DRUD    -2.454100        0.4000           0   0.00000   0.00000
     39733 MEOH     2361     MEOH     O1       OD31H    2.488300       15.5990           0   -1.02800   1.30000
     39734 MEOH     2361     MEOH     DO1      DRUD    -2.488300        0.4000           0   0.00000   0.00000
     39735 MEOH     2361     MEOH     HO1      HDP1A    0.360000        1.0080           0   0.00000   0.00000
     39736 MEOH     2361     MEOH     HO2      DUMH     0.000000        1.0080           0   0.00000   0.00000
     39737 MEOH     2361     MEOH     H1A      HDA3B    0.080000        1.0080           0   0.00000   0.00000
     39738 MEOH     2361     MEOH     H1B      HDA3B    0.080000        1.0080           0   0.00000   0.00000
     39739 MEOH     2361     MEOH     H1C      HDA3B    0.080000        1.0080           0   0.00000   0.00000
     39740 MEOH     2361     MEOH     LP1A     LPD     -0.230000        0.0000           -1   0.00000   0.00000
     39741 MEOH     2361     MEOH     LP1B     LPD     -0.230000        0.0000           -1   0.00000   0.00000
     39742 MEOH     2362     MEOH     C1       CD33B    2.314100       11.6110           0   -1.00000   1.30000
     39743 MEOH     2362     MEOH     DC1      DRUD    -2.454100        0.4000           0   0.00000   0.00000
     39744 MEOH     2362     MEOH     O1       OD31H    2.488300       15.5990           0   -1.02800   1.30000
     39745 MEOH     2362     MEOH     DO1      DRUD    -2.488300        0.4000           0   0.00000   0.00000
     39746 MEOH     2362     MEOH     HO1      HDP1A    0.360000        1.0080           0   0.00000   0.00000
     39747 MEOH     2362     MEOH     HO2      DUMH     0.000000        1.0080           0   0.00000   0.00000
     39748 MEOH     2362     MEOH     H1A      HDA3B    0.080000        1.0080           0   0.00000   0.00000
     39749 MEOH     2362     MEOH     H1B      HDA3B    0.080000        1.0080           0   0.00000   0.00000
     39750 MEOH     2362     MEOH     H1C      HDA3B    0.080000        1.0080           0   0.00000   0.00000
     39751 MEOH     2362     MEOH     LP1A     LPD     -0.230000        0.0000           -1   0.00000   0.00000
     39752 MEOH     2362     MEOH     LP1B     LPD     -0.230000        0.0000           -1   0.00000   0.00000
     39753 MEOH     2363     MEOH     C1       CD33B    2.314100       11.6110           0   -1.00000   1.30000
     39754 MEOH     2363     MEOH     DC1      DRUD    -2.454100        0.4000           0   0.00000   0.00000
     39755 MEOH     2363     MEOH     O1       OD31H    2.488300       15.5990           0   -1.02800   1.30000
     39756 MEOH     2363     MEOH     DO1      DRUD    -2.488300        0.4000           0   0.00000   0.00000
     39757 MEOH     2363     MEOH     HO1      HDP1A    0.360000        1.0080           0   0.00000   0.00000
     39758 MEOH     2363     MEOH     HO2      DUMH     0.000000        1.0080           0   0.00000   0.00000
     39759 MEOH     2363     MEOH     H1A      HDA3B    0.080000        1.0080           0   0.00000   0.00000
     39760 MEOH     2363     MEOH     H1B      HDA3B    0.080000        1.0080           0   0.00000   0.00000
     39761 MEOH     2363     MEOH     H1C      HDA3B    0.080000        1.0080           0   0.00000   0.00000
     39762 MEOH     2363     MEOH     LP1A     LPD     -0.230000        0.0000           -1   0.00000   0.00000
     39763 MEOH     2363     MEOH     LP1B     LPD     -0.230000        0.0000           -1   0.00000   0.00000
     39764 MEOH     2364     MEOH     C1       CD33B    2.314100       11.6110           0   -1.00000   1.30000
     39765 MEOH     2364     MEOH     DC1      DRUD    -2.454100        0.4000           0   0.00000   0.00000
     39766 MEOH     2364     MEOH     O1       OD31H    2.488300       15.5990           0   -1.02800   1.30000
     39767 MEOH     2364     MEOH     DO1      DRUD    -2.488300        0.4000           0   0.00000   0.00000
     39768 MEOH     2364     MEOH     HO1      HDP1A    0.360000        1.0080           0   0.00000   0.00000
     39769 MEOH     2364     MEOH     HO2      DUMH     0.000000        1.0080           0   0.00000   0.00000
     39770 MEOH     2364     MEOH     H1A      HDA3B    0.080000        1.0080           0   0.00000   0.00000
     39771 MEOH     2364     MEOH     H1B      HDA3B    0.080000        1.0080           0   0.00000   0.00000
     39772 MEOH     2364     MEOH     H1C      HDA3B    0.080000        1.0080           0   0.00000   0.00000
     39773 MEOH     2364     MEOH     LP1A     LPD     -0.230000        0.0000           -1   0.00000   0.00000
     39774 MEOH     2364     MEOH     LP1B     LPD     -0.230000        0.0000           -1   0.00000   0.00000
     39775 MEOH     2365     MEOH     C1       CD33B    2.314100       11.6110           0   -1.00000   1.30000
     39776 MEOH     2365     MEOH     DC1      DRUD    -2.454100        0.4000           0   0.00000   0.00000
     39777 MEOH     2365     MEOH     O1       OD31H    2.488300       15.5990           0   -1.02800   1.30000
     39778 MEOH     2365     MEOH     DO1      DRUD    -2.488300        0.4000           0   0.00000   0.00000
     39779 MEOH     2365     MEOH     HO1      HDP1A    0.360000        1.0080           0   0.00000   0.00000
     39780 MEOH     2365     MEOH     HO2      DUMH     0.000000        1.0080           0   0.00000   0.00000
     39781 MEOH     2365     MEOH     H1A      HDA3B    0.080000        1.0080           0   0.00000   0.00000
     39782 MEOH     2365     MEOH     H1B      HDA3B    0.080000        1.0080           0   0.00000   0.00000
     39783 MEOH     2365     MEOH     H1C      HDA3B    0.080000        1.0080           0   0.00000   0.00000
     39784 MEOH     2365     MEOH     LP1A     LPD     -0.230000        0.0000           -1   0.00000   0.00000
     39785 MEOH     2365     MEOH     LP1B     LPD     -0.230000        0.0000           -1   0.00000   0.00000
     39786 MEOH     2366     MEOH     C1       CD33B    2.314100       11.6110           0   -1.00000   1.30000
     39787 MEOH     2366     MEOH     DC1      DRUD    -2.454100        0.4000           0   0.00000   0.00000
     39788 MEOH     2366     MEOH     O1       OD31H    2.488300       15.5990           0   -1.02800   1.30000
     39789 MEOH     2366     MEOH     DO1      DRUD    -2.488300        0.4000           0   0.00000   0.00000
     39790 MEOH     2366     MEOH     HO1      HDP1A    0.360000        1.0080           0   0.00000   0.00000
     39791 MEOH     2366     MEOH     HO2      DUMH     0.000000        1.0080           0   0.00000   0.00000
     39792 MEOH     2366     MEOH     H1A      HDA3B    0.080000        1.0080           0   0.00000   0.00000
     39793 MEOH     2366     MEOH     H1B      HDA3B    0.080000        1.0080           0   0.00000   0.00000
     39794 MEOH     2366     MEOH     H1C      HDA3B    0.080000        1.0080           0   0.00000   0.00000
     39795 MEOH     2366     MEOH     LP1A     LPD     -0.230000        0.0000           -1   0.00000   0.00000
     39796 MEOH     2366     MEOH     LP1B     LPD     -0.230000        0.0000           -1   0.00000   0.00000
     39797 MEOH     2367     MEOH     C1       CD33B    2.314100       11.6110           0   -1.00000   1.30000
     39798 MEOH     2367     MEOH     DC1      DRUD    -2.454100        0.4000           0   0.00000   0.00000
     39799 MEOH     2367     MEOH     O1       OD31H    2.488300       15.5990           0   -1.02800   1.30000
     39800 MEOH     2367     MEOH     DO1      DRUD    -2.488300        0.4000           0   0.00000   0.00000
     39801 MEOH     2367     MEOH     HO1      HDP1A    0.360000        1.0080           0   0.00000   0.00000
     39802 MEOH     2367     MEOH     HO2      DUMH     0.000000        1.0080           0   0.00000   0.00000
     39803 MEOH     2367     MEOH     H1A      HDA3B    0.080000        1.0080           0   0.00000   0.00000
     39804 MEOH     2367     MEOH     H1B      HDA3B    0.080000        1.0080           0   0.00000   0.00000
     39805 MEOH     2367     MEOH     H1C      HDA3B    0.080000        1.0080           0   0.00000   0.00000
     39806 MEOH     2367     MEOH     LP1A     LPD     -0.230000        0.0000           -1   0.00000   0.00000
     39807 MEOH     2367     MEOH     LP1B     LPD     -0.230000        0.0000           -1   0.00000   0.00000
     39808 MEOH     2368     MEOH     C1       CD33B    2.314100       11.6110           0   -1.00000   1.30000
     39809 MEOH     2368     MEOH     DC1      DRUD    -2.454100        0.4000           0   0.00000   0.00000
     39810 MEOH     2368     MEOH     O1       OD31H    2.488300       15.5990           0   -1.02800   1.30000
     39811 MEOH     2368     MEOH     DO1      DRUD    -2.488300        0.4000           0   0.00000   0.00000
     39812 MEOH     2368     MEOH     HO1      HDP1A    0.360000        1.0080           0   0.00000   0.00000
     39813 MEOH     2368     MEOH     HO2      DUMH     0.000000        1.0080           0   0.00000   0.00000
     39814 MEOH     2368     MEOH     H1A      HDA3B    0.080000        1.0080           0   0.00000   0.00000
     39815 MEOH     2368     MEOH     H1B      HDA3B    0.080000        1.0080           0   0.00000   0.00000
     39816 MEOH     2368     MEOH     H1C      HDA3B    0.080000        1.0080           0   0.00000   0.00000
     39817 MEOH     2368     MEOH     LP1A     LPD     -0.230000        0.0000           -1   0.00000   0.00000
     39818 MEOH     2368     MEOH     LP1B     LPD     -0.230000        0.0000           -1   0.00000   0.00000
     39819 MEOH     2369     MEOH     C1       CD33B    2.314100       11.6110           0   -1.00000   1.30000
     39820 MEOH     2369     MEOH     DC1      DRUD    -2.454100        0.4000           0   0.00000   0.00000
     39821 MEOH     2369     MEOH     O1       OD31H    2.488300       15.5990           0   -1.02800   1.30000
     39822 MEOH     2369     MEOH     DO1      DRUD    -2.488300        0.4000           0   0.00000   0.00000
     39823 MEOH     2369     MEOH     HO1      HDP1A    0.360000        1.0080           0   0.00000   0.00000
     39824 MEOH     2369     MEOH     HO2      DUMH     0.000000        1.0080           0   0.00000   0.00000
     39825 MEOH     2369     MEOH     H1A      HDA3B    0.080000        1.0080           0   0.00000   0.00000
     39826 MEOH     2369     MEOH     H1B      HDA3B    0.080000        1.0080           0   0.00000   0.00000
     39827 MEOH     2369     MEOH     H1C      HDA3B    0.080000        1.0080           0   0.00000   0.00000
     39828 MEOH     2369     MEOH     LP1A     LPD     -0.230000        0.0000           -1   0.00000   0.00000
     39829 MEOH     2369     MEOH     LP1B     LPD     -0.230000        0.0000           -1   0.00000   0.00000
     39830 MEOH     2370     MEOH     C1       CD33B    2.314100       11.6110           0   -1.00000   1.30000
     39831 MEOH     2370     MEOH     DC1      DRUD    -2.454100        0.4000           0   0.00000   0.00000
     39832 MEOH     2370     MEOH     O1       OD31H    2.488300       15.5990           0   -1.02800   1.30000
     39833 MEOH     2370     MEOH     DO1      DRUD    -2.488300        0.4000           0   0.00000   0.00000
     39834 MEOH     2370     MEOH     HO1      HDP1A    0.360000        1.0080           0   0.00000   0.00000
     39835 MEOH     2370     MEOH     HO2      DUMH     0.000000        1.0080           0   0.00000   0.00000
     39836 MEOH     2370     MEOH     H1A      HDA3B    0.080000        1.0080           0   0.00000   0.00000
     39837 MEOH     2370     MEOH     H1B      HDA3B    0.080000        1.0080           0   0.00000   0.00000
     39838 MEOH     2370     MEOH     H1C      HDA3B    0.080000        1.0080           0   0.00000   0.00000
     39839 MEOH     2370     MEOH     LP1A     LPD     -0.230000        0.0000           -1   0.00000   0.00000
     39840 MEOH     2370     MEOH     LP1B     LPD     -0.230000        0.0000           -1   0.00000   0.00000
     39841 MEOH     2371     MEOH     C1       CD33B    2.314100       11.6110           0   -1.00000   1.30000
     39842 MEOH     2371     MEOH     DC1      DRUD    -2.454100        0.4000           0   0.00000   0.00000
     39843 MEOH     2371     MEOH     O1       OD31H    2.488300       15.5990           0   -1.02800   1.30000
     39844 MEOH     2371     MEOH     DO1      DRUD    -2.488300        0.4000           0   0.00000   0.00000
     39845 MEOH     2371     MEOH     HO1      HDP1A    0.360000        1.0080           0   0.00000   0.00000
     39846 MEOH     2371     MEOH     HO2      DUMH     0.000000        1.0080           0   0.00000   0.00000
     39847 MEOH     2371     MEOH     H1A      HDA3B    0.080000        1.0080           0   0.00000   0.00000
     39848 MEOH     2371     MEOH     H1B      HDA3B    0.080000        1.0080           0   0.00000   0.00000
     39849 MEOH     2371     MEOH     H1C      HDA3B    0.080000        1.0080           0   0.00000   0.00000
     39850 MEOH     2371     MEOH     LP1A     LPD     -0.230000        0.0000           -1   0.00000   0.00000
     39851 MEOH     2371     MEOH     LP1B     LPD     -0.230000        0.0000           -1   0.00000   0.00000
     39852 MEOH     2372     MEOH     C1       CD33B    2.314100       11.6110           0   -1.00000   1.30000
     39853 MEOH     2372     MEOH     DC1      DRUD    -2.454100        0.4000           0   0.00000   0.00000
     39854 MEOH     2372     MEOH     O1       OD31H    2.488300       15.5990           0   -1.02800   1.30000
     39855 MEOH     2372     MEOH     DO1      DRUD    -2.488300        0.4000           0   0.00000   0.00000
     39856 MEOH     2372     MEOH     HO1      HDP1A    0.360000        1.0080           0   0.00000   0.00000
     39857 MEOH     2372     MEOH     HO2      DUMH     0.000000        1.0080           0   0.00000   0.00000
     39858 MEOH     2372     MEOH     H1A      HDA3B    0.080000        1.0080           0   0.00000   0.00000
     39859 MEOH     2372     MEOH     H1B      HDA3B    0.080000        1.0080           0   0.00000   0.00000
     39860 MEOH     2372     MEOH     H1C      HDA3B    0.080000        1.0080           0   0.00000   0.00000
     39861 MEOH     2372     MEOH     LP1A     LPD     -0.230000        0.0000           -1   0.00000   0.00000
     39862 MEOH     2372     MEOH     LP1B     LPD     -0.230000        0.0000           -1   0.00000   0.00000
     39863 MEOH     2373     MEOH     C1       CD33B    2.314100       11.6110           0   -1.00000   1.30000
     39864 MEOH     2373     MEOH     DC1      DRUD    -2.454100        0.4000           0   0.00000   0.00000
     39865 MEOH     2373     MEOH     O1       OD31H    2.488300       15.5990           0   -1.02800   1.30000
     39866 MEOH     2373     MEOH     DO1      DRUD    -2.488300        0.4000           0   0.00000   0.00000
     39867 MEOH     2373     MEOH     HO1      HDP1A    0.360000        1.0080           0   0.00000   0.00000
     39868 MEOH     2373     MEOH     HO2      DUMH     0.000000        1.0080           0   0.00000   0.00000
     39869 MEOH     2373     MEOH     H1A      HDA3B    0.080000        1.0080           0   0.00000   0.00000
     39870 MEOH     2373     MEOH     H1B      HDA3B    0.080000        1.0080           0   0.00000   0.00000
     39871 MEOH     2373     MEOH     H1C      HDA3B    0.080000        1.0080           0   0.00000   0.00000
     39872 MEOH     2373     MEOH     LP1A     LPD     -0.230000        0.0000           -1   0.00000   0.00000
     39873 MEOH     2373     MEOH     LP1B     LPD     -0.230000        0.0000           -1   0.00000   0.00000
     39874 MEOH     2374     MEOH     C1       CD33B    2.314100       11.6110           0   -1.00000   1.30000
     39875 MEOH     2374     MEOH     DC1      DRUD    -2.454100        0.4000           0   0.00000   0.00000
     39876 MEOH     2374     MEOH     O1       OD31H    2.488300       15.5990           0   -1.02800   1.30000
     39877 MEOH     2374     MEOH     DO1      DRUD    -2.488300        0.4000           0   0.00000   0.00000
     39878 MEOH     2374     MEOH     HO1      HDP1A    0.360000        1.0080           0   0.00000   0.00000
     39879 MEOH     2374     MEOH     HO2      DUMH     0.000000        1.0080           0   0.00000   0.00000
     39880 MEOH     2374     MEOH     H1A      HDA3B    0.080000        1.0080           0   0.00000   0.00000
     39881 MEOH     2374     MEOH     H1B      HDA3B    0.080000        1.0080           0   0.00000   0.00000
     39882 MEOH     2374     MEOH     H1C      HDA3B    0.080000        1.0080           0   0.00000   0.00000
     39883 MEOH     2374     MEOH     LP1A     LPD     -0.230000        0.0000           -1   0.00000   0.00000
     39884 MEOH     2374     MEOH     LP1B     LPD     -0.230000        0.0000           -1   0.00000   0.00000
     39885 MEOH     2375     MEOH     C1       CD33B    2.314100       11.6110           0   -1.00000   1.30000
     39886 MEOH     2375     MEOH     DC1      DRUD    -2.454100        0.4000           0   0.00000   0.00000
     39887 MEOH     2375     MEOH     O1       OD31H    2.488300       15.5990           0   -1.02800   1.30000
     39888 MEOH     2375     MEOH     DO1      DRUD    -2.488300        0.4000           0   0.00000   0.00000
     39889 MEOH     2375     MEOH     HO1      HDP1A    0.360000        1.0080           0   0.00000   0.00000
     39890 MEOH     2375     MEOH     HO2      DUMH     0.000000        1.0080           0   0.00000   0.00000
     39891 MEOH     2375     MEOH     H1A      HDA3B    0.080000        1.0080           0   0.00000   0.00000
     39892 MEOH     2375     MEOH     H1B      HDA3B    0.080000        1.0080           0   0.00000   0.00000
     39893 MEOH     2375     MEOH     H1C      HDA3B    0.080000        1.0080           0   0.00000   0.00000
     39894 MEOH     2375     MEOH     LP1A     LPD     -0.230000        0.0000           -1   0.00000   0.00000
     39895 MEOH     2375     MEOH     LP1B     LPD     -0.230000        0.0000           -1   0.00000   0.00000
     39896 MEOH     2376     MEOH     C1       CD33B    2.314100       11.6110           0   -1.00000   1.30000
     39897 MEOH     2376     MEOH     DC1      DRUD    -2.454100        0.4000           0   0.00000   0.00000
     39898 MEOH     2376     MEOH     O1       OD31H    2.488300       15.5990           0   -1.02800   1.30000
     39899 MEOH     2376     MEOH     DO1      DRUD    -2.488300        0.4000           0   0.00000   0.00000
     39900 MEOH     2376     MEOH     HO1      HDP1A    0.360000        1.0080           0   0.00000   0.00000
     39901 MEOH     2376     MEOH     HO2      DUMH     0.000000        1.0080           0   0.00000   0.00000
     39902 MEOH     2376     MEOH     H1A      HDA3B    0.080000        1.0080           0   0.00000   0.00000
     39903 MEOH     2376     MEOH     H1B      HDA3B    0.080000        1.0080           0   0.00000   0.00000
     39904 MEOH     2376     MEOH     H1C      HDA3B    0.080000        1.0080           0   0.00000   0.00000
     39905 MEOH     2376     MEOH     LP1A     LPD     -0.230000        0.0000           -1   0.00000   0.00000
     39906 MEOH     2376     MEOH     LP1B     LPD     -0.230000        0.0000           -1   0.00000   0.00000
     39907 MEOH     2377     MEOH     C1       CD33B    2.314100       11.6110           0   -1.00000   1.30000
     39908 MEOH     2377     MEOH     DC1      DRUD    -2.454100        0.4000           0   0.00000   0.00000
     39909 MEOH     2377     MEOH     O1       OD31H    2.488300       15.5990           0   -1.02800   1.30000
     39910 MEOH     2377     MEOH     DO1      DRUD    -2.488300        0.4000           0   0.00000   0.00000
     39911 MEOH     2377     MEOH     HO1      HDP1A    0.360000        1.0080           0   0.00000   0.00000
     39912 MEOH     2377     MEOH     HO2      DUMH     0.000000        1.0080           0   0.00000   0.00000
     39913 MEOH     2377     MEOH     H1A      HDA3B    0.080000        1.0080           0   0.00000   0.00000
     39914 MEOH     2377     MEOH     H1B      HDA3B    0.080000        1.0080           0   0.00000   0.00000
     39915 MEOH     2377     MEOH     H1C      HDA3B    0.080000        1.0080           0   0.00000   0.00000
     39916 MEOH     2377     MEOH     LP1A     LPD     -0.230000        0.0000           -1   0.00000   0.00000
     39917 MEOH     2377     MEOH     LP1B     LPD     -0.230000        0.0000           -1   0.00000   0.00000
     39918 MEOH     2378     MEOH     C1       CD33B    2.314100       11.6110           0   -1.00000   1.30000
     39919 MEOH     2378     MEOH     DC1      DRUD    -2.454100        0.4000           0   0.00000   0.00000
     39920 MEOH     2378     MEOH     O1       OD31H    2.488300       15.5990           0   -1.02800   1.30000
     39921 MEOH     2378     MEOH     DO1      DRUD    -2.488300        0.4000           0   0.00000   0.00000
     39922 MEOH     2378     MEOH     HO1      HDP1A    0.360000        1.0080           0   0.00000   0.00000
     39923 MEOH     2378     MEOH     HO2      DUMH     0.000000        1.0080           0   0.00000   0.00000
     39924 MEOH     2378     MEOH     H1A      HDA3B    0.080000        1.0080           0   0.00000   0.00000
     39925 MEOH     2378     MEOH     H1B      HDA3B    0.080000        1.0080           0   0.00000   0.00000
     39926 MEOH     2378     MEOH     H1C      HDA3B    0.080000        1.0080           0   0.00000   0.00000
     39927 MEOH     2378     MEOH     LP1A     LPD     -0.230000        0.0000           -1   0.00000   0.00000
     39928 MEOH     2378     MEOH     LP1B     LPD     -0.230000        0.0000           -1   0.00000   0.00000
     39929 MEOH     2379     MEOH     C1       CD33B    2.314100       11.6110           0   -1.00000   1.30000
     39930 MEOH     2379     MEOH     DC1      DRUD    -2.454100        0.4000           0   0.00000   0.00000
     39931 MEOH     2379     MEOH     O1       OD31H    2.488300       15.5990           0   -1.02800   1.30000
     39932 MEOH     2379     MEOH     DO1      DRUD    -2.488300        0.4000           0   0.00000   0.00000
     39933 MEOH     2379     MEOH     HO1      HDP1A    0.360000        1.0080           0   0.00000   0.00000
     39934 MEOH     2379     MEOH     HO2      DUMH     0.000000        1.0080           0   0.00000   0.00000
     39935 MEOH     2379     MEOH     H1A      HDA3B    0.080000        1.0080           0   0.00000   0.00000
     39936 MEOH     2379     MEOH     H1B      HDA3B    0.080000        1.0080           0   0.00000   0.00000
     39937 MEOH     2379     MEOH     H1C      HDA3B    0.080000        1.0080           0   0.00000   0.00000
     39938 MEOH     2379     MEOH     LP1A     LPD     -0.230000        0.0000           -1   0.00000   0.00000
     39939 MEOH     2379     MEOH     LP1B     LPD     -0.230000        0.0000           -1   0.00000   0.00000
     39940 MEOH     2380     MEOH     C1       CD33B    2.314100       11.6110           0   -1.00000   1.30000
     39941 MEOH     2380     MEOH     DC1      DRUD    -2.454100        0.4000           0   0.00000   0.00000
     39942 MEOH     2380     MEOH     O1       OD31H    2.488300       15.5990           0   -1.02800   1.30000
     39943 MEOH     2380     MEOH     DO1      DRUD    -2.488300        0.4000           0   0.00000   0.00000
     39944 MEOH     2380     MEOH     HO1      HDP1A    0.360000        1.0080           0   0.00000   0.00000
     39945 MEOH     2380     MEOH     HO2      DUMH     0.000000        1.0080           0   0.00000   0.00000
     39946 MEOH     2380     MEOH     H1A      HDA3B    0.080000        1.0080           0   0.00000   0.00000
     39947 MEOH     2380     MEOH     H1B      HDA3B    0.080000        1.0080           0   0.00000   0.00000
     39948 MEOH     2380     MEOH     H1C      HDA3B    0.080000        1.0080           0   0.00000   0.00000
     39949 MEOH     2380     MEOH     LP1A     LPD     -0.230000        0.0000           -1   0.00000   0.00000
     39950 MEOH     2380     MEOH     LP1B     LPD     -0.230000        0.0000           -1   0.00000   0.00000
     39951 MEOH     2381     MEOH     C1       CD33B    2.314100       11.6110           0   -1.00000   1.30000
     39952 MEOH     2381     MEOH     DC1      DRUD    -2.454100        0.4000           0   0.00000   0.00000
     39953 MEOH     2381     MEOH     O1       OD31H    2.488300       15.5990           0   -1.02800   1.30000
     39954 MEOH     2381     MEOH     DO1      DRUD    -2.488300        0.4000           0   0.00000   0.00000
     39955 MEOH     2381     MEOH     HO1      HDP1A    0.360000        1.0080           0   0.00000   0.00000
     39956 MEOH     2381     MEOH     HO2      DUMH     0.000000        1.0080           0   0.00000   0.00000
     39957 MEOH     2381     MEOH     H1A      HDA3B    0.080000        1.0080           0   0.00000   0.00000
     39958 MEOH     2381     MEOH     H1B      HDA3B    0.080000        1.0080           0   0.00000   0.00000
     39959 MEOH     2381     MEOH     H1C      HDA3B    0.080000        1.0080           0   0.00000   0.00000
     39960 MEOH     2381     MEOH     LP1A     LPD     -0.230000        0.0000           -1   0.00000   0.00000
     39961 MEOH     2381     MEOH     LP1B     LPD     -0.230000        0.0000           -1   0.00000   0.00000
     39962 MEOH     2382     MEOH     C1       CD33B    2.314100       11.6110           0   -1.00000   1.30000
     39963 MEOH     2382     MEOH     DC1      DRUD    -2.454100        0.4000           0   0.00000   0.00000
     39964 MEOH     2382     MEOH     O1       OD31H    2.488300       15.5990           0   -1.02800   1.30000
     39965 MEOH     2382     MEOH     DO1      DRUD    -2.488300        0.4000           0   0.00000   0.00000
     39966 MEOH     2382     MEOH     HO1      HDP1A    0.360000        1.0080           0   0.00000   0.00000
     39967 MEOH     2382     MEOH     HO2      DUMH     0.000000        1.0080           0   0.00000   0.00000
     39968 MEOH     2382     MEOH     H1A      HDA3B    0.080000        1.0080           0   0.00000   0.00000
     39969 MEOH     2382     MEOH     H1B      HDA3B    0.080000        1.0080           0   0.00000   0.00000
     39970 MEOH     2382     MEOH     H1C      HDA3B    0.080000        1.0080           0   0.00000   0.00000
     39971 MEOH     2382     MEOH     LP1A     LPD     -0.230000        0.0000           -1   0.00000   0.00000
     39972 MEOH     2382     MEOH     LP1B     LPD     -0.230000        0.0000           -1   0.00000   0.00000
     39973 MEOH     2383     MEOH     C1       CD33B    2.314100       11.6110           0   -1.00000   1.30000
     39974 MEOH     2383     MEOH     DC1      DRUD    -2.454100        0.4000           0   0.00000   0.00000
     39975 MEOH     2383     MEOH     O1       OD31H    2.488300       15.5990           0   -1.02800   1.30000
     39976 MEOH     2383     MEOH     DO1      DRUD    -2.488300        0.4000           0   0.00000   0.00000
     39977 MEOH     2383     MEOH     HO1      HDP1A    0.360000        1.0080           0   0.00000   0.00000
     39978 MEOH     2383     MEOH     HO2      DUMH     0.000000        1.0080           0   0.00000   0.00000
     39979 MEOH     2383     MEOH     H1A      HDA3B    0.080000        1.0080           0   0.00000   0.00000
     39980 MEOH     2383     MEOH     H1B      HDA3B    0.080000        1.0080           0   0.00000   0.00000
     39981 MEOH     2383     MEOH     H1C      HDA3B    0.080000        1.0080           0   0.00000   0.00000
     39982 MEOH     2383     MEOH     LP1A     LPD     -0.230000        0.0000           -1   0.00000   0.00000
     39983 MEOH     2383     MEOH     LP1B     LPD     -0.230000        0.0000           -1   0.00000   0.00000
     39984 MEOH     2384     MEOH     C1       CD33B    2.314100       11.6110           0   -1.00000   1.30000
     39985 MEOH     2384     MEOH     DC1      DRUD    -2.454100        0.4000           0   0.00000   0.00000
     39986 MEOH     2384     MEOH     O1       OD31H    2.488300       15.5990           0   -1.02800   1.30000
     39987 MEOH     2384     MEOH     DO1      DRUD    -2.488300        0.4000           0   0.00000   0.00000
     39988 MEOH     2384     MEOH     HO1      HDP1A    0.360000        1.0080           0   0.00000   0.00000
     39989 MEOH     2384     MEOH     HO2      DUMH     0.000000        1.0080           0   0.00000   0.00000
     39990 MEOH     2384     MEOH     H1A      HDA3B    0.080000        1.0080           0   0.00000   0.00000
     39991 MEOH     2384     MEOH     H1B      HDA3B    0.080000        1.0080           0   0.00000   0.00000
     39992 MEOH     2384     MEOH     H1C      HDA3B    0.080000        1.0080           0   0.00000   0.00000
     39993 MEOH     2384     MEOH     LP1A     LPD     -0.230000        0.0000           -1   0.00000   0.00000
     39994 MEOH     2384     MEOH     LP1B     LPD     -0.230000        0.0000           -1   0.00000   0.00000
     39995 MEOH     2385     MEOH     C1       CD33B    2.314100       11.6110           0   -1.00000   1.30000
     39996 MEOH     2385     MEOH     DC1      DRUD    -2.454100        0.4000           0   0.00000   0.00000
     39997 MEOH     2385     MEOH     O1       OD31H    2.488300       15.5990           0   -1.02800   1.30000
     39998 MEOH     2385     MEOH     DO1      DRUD    -2.488300        0.4000           0   0.00000   0.00000
     39999 MEOH     2385     MEOH     HO1      HDP1A    0.360000        1.0080           0   0.00000   0.00000
     40000 MEOH     2385     MEOH     HO2      DUMH     0.000000        1.0080           0   0.00000   0.00000
     40001 MEOH     2385     MEOH     H1A      HDA3B    0.080000        1.0080           0   0.00000   0.00000
     40002 MEOH     2385     MEOH     H1B      HDA3B    0.080000        1.0080           0   0.00000   0.00000
     40003 MEOH     2385     MEOH     H1C      HDA3B    0.080000        1.0080           0   0.00000   0.00000
     40004 MEOH     2385     MEOH     LP1A     LPD     -0.230000        0.0000           -1   0.00000   0.00000
     40005 MEOH     2385     MEOH     LP1B     LPD     -0.230000        0.0000           -1   0.00000   0.00000
     40006 MEOH     2386     MEOH     C1       CD33B    2.314100       11.6110           0   -1.00000   1.30000
     40007 MEOH     2386     MEOH     DC1      DRUD    -2.454100        0.4000           0   0.00000   0.00000
     40008 MEOH     2386     MEOH     O1       OD31H    2.488300       15.5990           0   -1.02800   1.30000
     40009 MEOH     2386     MEOH     DO1      DRUD    -2.488300        0.4000           0   0.00000   0.00000
     40010 MEOH     2386     MEOH     HO1      HDP1A    0.360000        1.0080           0   0.00000   0.00000
     40011 MEOH     2386     MEOH     HO2      DUMH     0.000000        1.0080           0   0.00000   0.00000
     40012 MEOH     2386     MEOH     H1A      HDA3B    0.080000        1.0080           0   0.00000   0.00000
     40013 MEOH     2386     MEOH     H1B      HDA3B    0.080000        1.0080           0   0.00000   0.00000
     40014 MEOH     2386     MEOH     H1C      HDA3B    0.080000        1.0080           0   0.00000   0.00000
     40015 MEOH     2386     MEOH     LP1A     LPD     -0.230000        0.0000           -1   0.00000   0.00000
     40016 MEOH     2386     MEOH     LP1B     LPD     -0.230000        0.0000           -1   0.00000   0.00000
     40017 MEOH     2387     MEOH     C1       CD33B    2.314100       11.6110           0   -1.00000   1.30000
     40018 MEOH     2387     MEOH     DC1      DRUD    -2.454100        0.4000           0   0.00000   0.00000
     40019 MEOH     2387     MEOH     O1       OD31H    2.488300       15.5990           0   -1.02800   1.30000
     40020 MEOH     2387     MEOH     DO1      DRUD    -2.488300        0.4000           0   0.00000   0.00000
     40021 MEOH     2387     MEOH     HO1      HDP1A    0.360000        1.0080           0   0.00000   0.00000
     40022 MEOH     2387     MEOH     HO2      DUMH     0.000000        1.0080           0   0.00000   0.00000
     40023 MEOH     2387     MEOH     H1A      HDA3B    0.080000        1.0080           0   0.00000   0.00000
     40024 MEOH     2387     MEOH     H1B      HDA3B    0.080000        1.0080           0   0.00000   0.00000
     40025 MEOH     2387     MEOH     H1C      HDA3B    0.080000        1.0080           0   0.00000   0.00000
     40026 MEOH     2387     MEOH     LP1A     LPD     -0.230000        0.0000           -1   0.00000   0.00000
     40027 MEOH     2387     MEOH     LP1B     LPD     -0.230000        0.0000           -1   0.00000   0.00000
     40028 MEOH     2388     MEOH     C1       CD33B    2.314100       11.6110           0   -1.00000   1.30000
     40029 MEOH     2388     MEOH     DC1      DRUD    -2.454100        0.4000           0   0.00000   0.00000
     40030 MEOH     2388     MEOH     O1       OD31H    2.488300       15.5990           0   -1.02800   1.30000
     40031 MEOH     2388     MEOH     DO1      DRUD    -2.488300        0.4000           0   0.00000   0.00000
     40032 MEOH     2388     MEOH     HO1      HDP1A    0.360000        1.0080           0   0.00000   0.00000
     40033 MEOH     2388     MEOH     HO2      DUMH     0.000000        1.0080           0   0.00000   0.00000
     40034 MEOH     2388     MEOH     H1A      HDA3B    0.080000        1.0080           0   0.00000   0.00000
     40035 MEOH     2388     MEOH     H1B      HDA3B    0.080000        1.0080           0   0.00000   0.00000
     40036 MEOH     2388     MEOH     H1C      HDA3B    0.080000        1.0080           0   0.00000   0.00000
     40037 MEOH     2388     MEOH     LP1A     LPD     -0.230000        0.0000           -1   0.00000   0.00000
     40038 MEOH     2388     MEOH     LP1B     LPD     -0.230000        0.0000           -1   0.00000   0.00000
     40039 MEOH     2389     MEOH     C1       CD33B    2.314100       11.6110           0   -1.00000   1.30000
     40040 MEOH     2389     MEOH     DC1      DRUD    -2.454100        0.4000           0   0.00000   0.00000
     40041 MEOH     2389     MEOH     O1       OD31H    2.488300       15.5990           0   -1.02800   1.30000
     40042 MEOH     2389     MEOH     DO1      DRUD    -2.488300        0.4000           0   0.00000   0.00000
     40043 MEOH     2389     MEOH     HO1      HDP1A    0.360000        1.0080           0   0.00000   0.00000
     40044 MEOH     2389     MEOH     HO2      DUMH     0.000000        1.0080           0   0.00000   0.00000
     40045 MEOH     2389     MEOH     H1A      HDA3B    0.080000        1.0080           0   0.00000   0.00000
     40046 MEOH     2389     MEOH     H1B      HDA3B    0.080000        1.0080           0   0.00000   0.00000
     40047 MEOH     2389     MEOH     H1C      HDA3B    0.080000        1.0080           0   0.00000   0.00000
     40048 MEOH     2389     MEOH     LP1A     LPD     -0.230000        0.0000           -1   0.00000   0.00000
     40049 MEOH     2389     MEOH     LP1B     LPD     -0.230000        0.0000           -1   0.00000   0.00000
     40050 MEOH     2390     MEOH     C1       CD33B    2.314100       11.6110           0   -1.00000   1.30000
     40051 MEOH     2390     MEOH     DC1      DRUD    -2.454100        0.4000           0   0.00000   0.00000
     40052 MEOH     2390     MEOH     O1       OD31H    2.488300       15.5990           0   -1.02800   1.30000
     40053 MEOH     2390     MEOH     DO1      DRUD    -2.488300        0.4000           0   0.00000   0.00000
     40054 MEOH     2390     MEOH     HO1      HDP1A    0.360000        1.0080           0   0.00000   0.00000
     40055 MEOH     2390     MEOH     HO2      DUMH     0.000000        1.0080           0   0.00000   0.00000
     40056 MEOH     2390     MEOH     H1A      HDA3B    0.080000        1.0080           0   0.00000   0.00000
     40057 MEOH     2390     MEOH     H1B      HDA3B    0.080000        1.0080           0   0.00000   0.00000
     40058 MEOH     2390     MEOH     H1C      HDA3B    0.080000        1.0080           0   0.00000   0.00000
     40059 MEOH     2390     MEOH     LP1A     LPD     -0.230000        0.0000           -1   0.00000   0.00000
     40060 MEOH     2390     MEOH     LP1B     LPD     -0.230000        0.0000           -1   0.00000   0.00000
     40061 MEOH     2391     MEOH     C1       CD33B    2.314100       11.6110           0   -1.00000   1.30000
     40062 MEOH     2391     MEOH     DC1      DRUD    -2.454100        0.4000           0   0.00000   0.00000
     40063 MEOH     2391     MEOH     O1       OD31H    2.488300       15.5990           0   -1.02800   1.30000
     40064 MEOH     2391     MEOH     DO1      DRUD    -2.488300        0.4000           0   0.00000   0.00000
     40065 MEOH     2391     MEOH     HO1      HDP1A    0.360000        1.0080           0   0.00000   0.00000
     40066 MEOH     2391     MEOH     HO2      DUMH     0.000000        1.0080           0   0.00000   0.00000
     40067 MEOH     2391     MEOH     H1A      HDA3B    0.080000        1.0080           0   0.00000   0.00000
     40068 MEOH     2391     MEOH     H1B      HDA3B    0.080000        1.0080           0   0.00000   0.00000
     40069 MEOH     2391     MEOH     H1C      HDA3B    0.080000        1.0080           0   0.00000   0.00000
     40070 MEOH     2391     MEOH     LP1A     LPD     -0.230000        0.0000           -1   0.00000   0.00000
     40071 MEOH     2391     MEOH     LP1B     LPD     -0.230000        0.0000           -1   0.00000   0.00000
     40072 MEOH     2392     MEOH     C1       CD33B    2.314100       11.6110           0   -1.00000   1.30000
     40073 MEOH     2392     MEOH     DC1      DRUD    -2.454100        0.4000           0   0.00000   0.00000
     40074 MEOH     2392     MEOH     O1       OD31H    2.488300       15.5990           0   -1.02800   1.30000
     40075 MEOH     2392     MEOH     DO1      DRUD    -2.488300        0.4000           0   0.00000   0.00000
     40076 MEOH     2392     MEOH     HO1      HDP1A    0.360000        1.0080           0   0.00000   0.00000
     40077 MEOH     2392     MEOH     HO2      DUMH     0.000000        1.0080           0   0.00000   0.00000
     40078 MEOH     2392     MEOH     H1A      HDA3B    0.080000        1.0080           0   0.00000   0.00000
     40079 MEOH     2392     MEOH     H1B      HDA3B    0.080000        1.0080           0   0.00000   0.00000
     40080 MEOH     2392     MEOH     H1C      HDA3B    0.080000        1.0080           0   0.00000   0.00000
     40081 MEOH     2392     MEOH     LP1A     LPD     -0.230000        0.0000           -1   0.00000   0.00000
     40082 MEOH     2392     MEOH     LP1B     LPD     -0.230000        0.0000           -1   0.00000   0.00000
     40083 MEOH     2393     MEOH     C1       CD33B    2.314100       11.6110           0   -1.00000   1.30000
     40084 MEOH     2393     MEOH     DC1      DRUD    -2.454100        0.4000           0   0.00000   0.00000
     40085 MEOH     2393     MEOH     O1       OD31H    2.488300       15.5990           0   -1.02800   1.30000
     40086 MEOH     2393     MEOH     DO1      DRUD    -2.488300        0.4000           0   0.00000   0.00000
     40087 MEOH     2393     MEOH     HO1      HDP1A    0.360000        1.0080           0   0.00000   0.00000
     40088 MEOH     2393     MEOH     HO2      DUMH     0.000000        1.0080           0   0.00000   0.00000
     40089 MEOH     2393     MEOH     H1A      HDA3B    0.080000        1.0080           0   0.00000   0.00000
     40090 MEOH     2393     MEOH     H1B      HDA3B    0.080000        1.0080           0   0.00000   0.00000
     40091 MEOH     2393     MEOH     H1C      HDA3B    0.080000        1.0080           0   0.00000   0.00000
     40092 MEOH     2393     MEOH     LP1A     LPD     -0.230000        0.0000           -1   0.00000   0.00000
     40093 MEOH     2393     MEOH     LP1B     LPD     -0.230000        0.0000           -1   0.00000   0.00000
     40094 MEOH     2394     MEOH     C1       CD33B    2.314100       11.6110           0   -1.00000   1.30000
     40095 MEOH     2394     MEOH     DC1      DRUD    -2.454100        0.4000           0   0.00000   0.00000
     40096 MEOH     2394     MEOH     O1       OD31H    2.488300       15.5990           0   -1.02800   1.30000
     40097 MEOH     2394     MEOH     DO1      DRUD    -2.488300        0.4000           0   0.00000   0.00000
     40098 MEOH     2394     MEOH     HO1      HDP1A    0.360000        1.0080           0   0.00000   0.00000
     40099 MEOH     2394     MEOH     HO2      DUMH     0.000000        1.0080           0   0.00000   0.00000
     40100 MEOH     2394     MEOH     H1A      HDA3B    0.080000        1.0080           0   0.00000   0.00000
     40101 MEOH     2394     MEOH     H1B      HDA3B    0.080000        1.0080           0   0.00000   0.00000
     40102 MEOH     2394     MEOH     H1C      HDA3B    0.080000        1.0080           0   0.00000   0.00000
     40103 MEOH     2394     MEOH     LP1A     LPD     -0.230000        0.0000           -1   0.00000   0.00000
     40104 MEOH     2394     MEOH     LP1B     LPD     -0.230000        0.0000           -1   0.00000   0.00000
     40105 MEOH     2395     MEOH     C1       CD33B    2.314100       11.6110           0   -1.00000   1.30000
     40106 MEOH     2395     MEOH     DC1      DRUD    -2.454100        0.4000           0   0.00000   0.00000
     40107 MEOH     2395     MEOH     O1       OD31H    2.488300       15.5990           0   -1.02800   1.30000
     40108 MEOH     2395     MEOH     DO1      DRUD    -2.488300        0.4000           0   0.00000   0.00000
     40109 MEOH     2395     MEOH     HO1      HDP1A    0.360000        1.0080           0   0.00000   0.00000
     40110 MEOH     2395     MEOH     HO2      DUMH     0.000000        1.0080           0   0.00000   0.00000
     40111 MEOH     2395     MEOH     H1A      HDA3B    0.080000        1.0080           0   0.00000   0.00000
     40112 MEOH     2395     MEOH     H1B      HDA3B    0.080000        1.0080           0   0.00000   0.00000
     40113 MEOH     2395     MEOH     H1C      HDA3B    0.080000        1.0080           0   0.00000   0.00000
     40114 MEOH     2395     MEOH     LP1A     LPD     -0.230000        0.0000           -1   0.00000   0.00000
     40115 MEOH     2395     MEOH     LP1B     LPD     -0.230000        0.0000           -1   0.00000   0.00000
     40116 MEOH     2396     MEOH     C1       CD33B    2.314100       11.6110           0   -1.00000   1.30000
     40117 MEOH     2396     MEOH     DC1      DRUD    -2.454100        0.4000           0   0.00000   0.00000
     40118 MEOH     2396     MEOH     O1       OD31H    2.488300       15.5990           0   -1.02800   1.30000
     40119 MEOH     2396     MEOH     DO1      DRUD    -2.488300        0.4000           0   0.00000   0.00000
     40120 MEOH     2396     MEOH     HO1      HDP1A    0.360000        1.0080           0   0.00000   0.00000
     40121 MEOH     2396     MEOH     HO2      DUMH     0.000000        1.0080           0   0.00000   0.00000
     40122 MEOH     2396     MEOH     H1A      HDA3B    0.080000        1.0080           0   0.00000   0.00000
     40123 MEOH     2396     MEOH     H1B      HDA3B    0.080000        1.0080           0   0.00000   0.00000
     40124 MEOH     2396     MEOH     H1C      HDA3B    0.080000        1.0080           0   0.00000   0.00000
     40125 MEOH     2396     MEOH     LP1A     LPD     -0.230000        0.0000           -1   0.00000   0.00000
     40126 MEOH     2396     MEOH     LP1B     LPD     -0.230000        0.0000           -1   0.00000   0.00000
     40127 MEOH     2397     MEOH     C1       CD33B    2.314100       11.6110           0   -1.00000   1.30000
     40128 MEOH     2397     MEOH     DC1      DRUD    -2.454100        0.4000           0   0.00000   0.00000
     40129 MEOH     2397     MEOH     O1       OD31H    2.488300       15.5990           0   -1.02800   1.30000
     40130 MEOH     2397     MEOH     DO1      DRUD    -2.488300        0.4000           0   0.00000   0.00000
     40131 MEOH     2397     MEOH     HO1      HDP1A    0.360000        1.0080           0   0.00000   0.00000
     40132 MEOH     2397     MEOH     HO2      DUMH     0.000000        1.0080           0   0.00000   0.00000
     40133 MEOH     2397     MEOH     H1A      HDA3B    0.080000        1.0080           0   0.00000   0.00000
     40134 MEOH     2397     MEOH     H1B      HDA3B    0.080000        1.0080           0   0.00000   0.00000
     40135 MEOH     2397     MEOH     H1C      HDA3B    0.080000        1.0080           0   0.00000   0.00000
     40136 MEOH     2397     MEOH     LP1A     LPD     -0.230000        0.0000           -1   0.00000   0.00000
     40137 MEOH     2397     MEOH     LP1B     LPD     -0.230000        0.0000           -1   0.00000   0.00000
     40138 MEOH     2398     MEOH     C1       CD33B    2.314100       11.6110           0   -1.00000   1.30000
     40139 MEOH     2398     MEOH     DC1      DRUD    -2.454100        0.4000           0   0.00000   0.00000
     40140 MEOH     2398     MEOH     O1       OD31H    2.488300       15.5990           0   -1.02800   1.30000
     40141 MEOH     2398     MEOH     DO1      DRUD    -2.488300        0.4000           0   0.00000   0.00000
     40142 MEOH     2398     MEOH     HO1      HDP1A    0.360000        1.0080           0   0.00000   0.00000
     40143 MEOH     2398     MEOH     HO2      DUMH     0.000000        1.0080           0   0.00000   0.00000
     40144 MEOH     2398     MEOH     H1A      HDA3B    0.080000        1.0080           0   0.00000   0.00000
     40145 MEOH     2398     MEOH     H1B      HDA3B    0.080000        1.0080           0   0.00000   0.00000
     40146 MEOH     2398     MEOH     H1C      HDA3B    0.080000        1.0080           0   0.00000   0.00000
     40147 MEOH     2398     MEOH     LP1A     LPD     -0.230000        0.0000           -1   0.00000   0.00000
     40148 MEOH     2398     MEOH     LP1B     LPD     -0.230000        0.0000           -1   0.00000   0.00000
     40149 MEOH     2399     MEOH     C1       CD33B    2.314100       11.6110           0   -1.00000   1.30000
     40150 MEOH     2399     MEOH     DC1      DRUD    -2.454100        0.4000           0   0.00000   0.00000
     40151 MEOH     2399     MEOH     O1       OD31H    2.488300       15.5990           0   -1.02800   1.30000
     40152 MEOH     2399     MEOH     DO1      DRUD    -2.488300        0.4000           0   0.00000   0.00000
     40153 MEOH     2399     MEOH     HO1      HDP1A    0.360000        1.0080           0   0.00000   0.00000
     40154 MEOH     2399     MEOH     HO2      DUMH     0.000000        1.0080           0   0.00000   0.00000
     40155 MEOH     2399     MEOH     H1A      HDA3B    0.080000        1.0080           0   0.00000   0.00000
     40156 MEOH     2399     MEOH     H1B      HDA3B    0.080000        1.0080           0   0.00000   0.00000
     40157 MEOH     2399     MEOH     H1C      HDA3B    0.080000        1.0080           0   0.00000   0.00000
     40158 MEOH     2399     MEOH     LP1A     LPD     -0.230000        0.0000           -1   0.00000   0.00000
     40159 MEOH     2399     MEOH     LP1B     LPD     -0.230000        0.0000           -1   0.00000   0.00000
     40160 MEOH     2400     MEOH     C1       CD33B    2.314100       11.6110           0   -1.00000   1.30000
     40161 MEOH     2400     MEOH     DC1      DRUD    -2.454100        0.4000           0   0.00000   0.00000
     40162 MEOH     2400     MEOH     O1       OD31H    2.488300       15.5990           0   -1.02800   1.30000
     40163 MEOH     2400     MEOH     DO1      DRUD    -2.488300        0.4000           0   0.00000   0.00000
     40164 MEOH     2400     MEOH     HO1      HDP1A    0.360000        1.0080           0   0.00000   0.00000
     40165 MEOH     2400     MEOH     HO2      DUMH     0.000000        1.0080           0   0.00000   0.00000
     40166 MEOH     2400     MEOH     H1A      HDA3B    0.080000        1.0080           0   0.00000   0.00000
     40167 MEOH     2400     MEOH     H1B      HDA3B    0.080000        1.0080           0   0.00000   0.00000
     40168 MEOH     2400     MEOH     H1C      HDA3B    0.080000        1.0080           0   0.00000   0.00000
     40169 MEOH     2400     MEOH     LP1A     LPD     -0.230000        0.0000           -1   0.00000   0.00000
     40170 MEOH     2400     MEOH     LP1B     LPD     -0.230000        0.0000           -1   0.00000   0.00000
     40171 MEOH     2401     MEOH     C1       CD33B    2.314100       11.6110           0   -1.00000   1.30000
     40172 MEOH     2401     MEOH     DC1      DRUD    -2.454100        0.4000           0   0.00000   0.00000
     40173 MEOH     2401     MEOH     O1       OD31H    2.488300       15.5990           0   -1.02800   1.30000
     40174 MEOH     2401     MEOH     DO1      DRUD    -2.488300        0.4000           0   0.00000   0.00000
     40175 MEOH     2401     MEOH     HO1      HDP1A    0.360000        1.0080           0   0.00000   0.00000
     40176 MEOH     2401     MEOH     HO2      DUMH     0.000000        1.0080           0   0.00000   0.00000
     40177 MEOH     2401     MEOH     H1A      HDA3B    0.080000        1.0080           0   0.00000   0.00000
     40178 MEOH     2401     MEOH     H1B      HDA3B    0.080000        1.0080           0   0.00000   0.00000
     40179 MEOH     2401     MEOH     H1C      HDA3B    0.080000        1.0080           0   0.00000   0.00000
     40180 MEOH     2401     MEOH     LP1A     LPD     -0.230000        0.0000           -1   0.00000   0.00000
     40181 MEOH     2401     MEOH     LP1B     LPD     -0.230000        0.0000           -1   0.00000   0.00000
     40182 MEOH     2402     MEOH     C1       CD33B    2.314100       11.6110           0   -1.00000   1.30000
     40183 MEOH     2402     MEOH     DC1      DRUD    -2.454100        0.4000           0   0.00000   0.00000
     40184 MEOH     2402     MEOH     O1       OD31H    2.488300       15.5990           0   -1.02800   1.30000
     40185 MEOH     2402     MEOH     DO1      DRUD    -2.488300        0.4000           0   0.00000   0.00000
     40186 MEOH     2402     MEOH     HO1      HDP1A    0.360000        1.0080           0   0.00000   0.00000
     40187 MEOH     2402     MEOH     HO2      DUMH     0.000000        1.0080           0   0.00000   0.00000
     40188 MEOH     2402     MEOH     H1A      HDA3B    0.080000        1.0080           0   0.00000   0.00000
     40189 MEOH     2402     MEOH     H1B      HDA3B    0.080000        1.0080           0   0.00000   0.00000
     40190 MEOH     2402     MEOH     H1C      HDA3B    0.080000        1.0080           0   0.00000   0.00000
     40191 MEOH     2402     MEOH     LP1A     LPD     -0.230000        0.0000           -1   0.00000   0.00000
     40192 MEOH     2402     MEOH     LP1B     LPD     -0.230000        0.0000           -1   0.00000   0.00000
     40193 MEOH     2403     MEOH     C1       CD33B    2.314100       11.6110           0   -1.00000   1.30000
     40194 MEOH     2403     MEOH     DC1      DRUD    -2.454100        0.4000           0   0.00000   0.00000
     40195 MEOH     2403     MEOH     O1       OD31H    2.488300       15.5990           0   -1.02800   1.30000
     40196 MEOH     2403     MEOH     DO1      DRUD    -2.488300        0.4000           0   0.00000   0.00000
     40197 MEOH     2403     MEOH     HO1      HDP1A    0.360000        1.0080           0   0.00000   0.00000
     40198 MEOH     2403     MEOH     HO2      DUMH     0.000000        1.0080           0   0.00000   0.00000
     40199 MEOH     2403     MEOH     H1A      HDA3B    0.080000        1.0080           0   0.00000   0.00000
     40200 MEOH     2403     MEOH     H1B      HDA3B    0.080000        1.0080           0   0.00000   0.00000
     40201 MEOH     2403     MEOH     H1C      HDA3B    0.080000        1.0080           0   0.00000   0.00000
     40202 MEOH     2403     MEOH     LP1A     LPD     -0.230000        0.0000           -1   0.00000   0.00000
     40203 MEOH     2403     MEOH     LP1B     LPD     -0.230000        0.0000           -1   0.00000   0.00000
     40204 MEOH     2404     MEOH     C1       CD33B    2.314100       11.6110           0   -1.00000   1.30000
     40205 MEOH     2404     MEOH     DC1      DRUD    -2.454100        0.4000           0   0.00000   0.00000
     40206 MEOH     2404     MEOH     O1       OD31H    2.488300       15.5990           0   -1.02800   1.30000
     40207 MEOH     2404     MEOH     DO1      DRUD    -2.488300        0.4000           0   0.00000   0.00000
     40208 MEOH     2404     MEOH     HO1      HDP1A    0.360000        1.0080           0   0.00000   0.00000
     40209 MEOH     2404     MEOH     HO2      DUMH     0.000000        1.0080           0   0.00000   0.00000
     40210 MEOH     2404     MEOH     H1A      HDA3B    0.080000        1.0080           0   0.00000   0.00000
     40211 MEOH     2404     MEOH     H1B      HDA3B    0.080000        1.0080           0   0.00000   0.00000
     40212 MEOH     2404     MEOH     H1C      HDA3B    0.080000        1.0080           0   0.00000   0.00000
     40213 MEOH     2404     MEOH     LP1A     LPD     -0.230000        0.0000           -1   0.00000   0.00000
     40214 MEOH     2404     MEOH     LP1B     LPD     -0.230000        0.0000           -1   0.00000   0.00000
     40215 MEOH     2405     MEOH     C1       CD33B    2.314100       11.6110           0   -1.00000   1.30000
     40216 MEOH     2405     MEOH     DC1      DRUD    -2.454100        0.4000           0   0.00000   0.00000
     40217 MEOH     2405     MEOH     O1       OD31H    2.488300       15.5990           0   -1.02800   1.30000
     40218 MEOH     2405     MEOH     DO1      DRUD    -2.488300        0.4000           0   0.00000   0.00000
     40219 MEOH     2405     MEOH     HO1      HDP1A    0.360000        1.0080           0   0.00000   0.00000
     40220 MEOH     2405     MEOH     HO2      DUMH     0.000000        1.0080           0   0.00000   0.00000
     40221 MEOH     2405     MEOH     H1A      HDA3B    0.080000        1.0080           0   0.00000   0.00000
     40222 MEOH     2405     MEOH     H1B      HDA3B    0.080000        1.0080           0   0.00000   0.00000
     40223 MEOH     2405     MEOH     H1C      HDA3B    0.080000        1.0080           0   0.00000   0.00000
     40224 MEOH     2405     MEOH     LP1A     LPD     -0.230000        0.0000           -1   0.00000   0.00000
     40225 MEOH     2405     MEOH     LP1B     LPD     -0.230000        0.0000           -1   0.00000   0.00000
     40226 MEOH     2406     MEOH     C1       CD33B    2.314100       11.6110           0   -1.00000   1.30000
     40227 MEOH     2406     MEOH     DC1      DRUD    -2.454100        0.4000           0   0.00000   0.00000
     40228 MEOH     2406     MEOH     O1       OD31H    2.488300       15.5990           0   -1.02800   1.30000
     40229 MEOH     2406     MEOH     DO1      DRUD    -2.488300        0.4000           0   0.00000   0.00000
     40230 MEOH     2406     MEOH     HO1      HDP1A    0.360000        1.0080           0   0.00000   0.00000
     40231 MEOH     2406     MEOH     HO2      DUMH     0.000000        1.0080           0   0.00000   0.00000
     40232 MEOH     2406     MEOH     H1A      HDA3B    0.080000        1.0080           0   0.00000   0.00000
     40233 MEOH     2406     MEOH     H1B      HDA3B    0.080000        1.0080           0   0.00000   0.00000
     40234 MEOH     2406     MEOH     H1C      HDA3B    0.080000        1.0080           0   0.00000   0.00000
     40235 MEOH     2406     MEOH     LP1A     LPD     -0.230000        0.0000           -1   0.00000   0.00000
     40236 MEOH     2406     MEOH     LP1B     LPD     -0.230000        0.0000           -1   0.00000   0.00000
     40237 MEOH     2407     MEOH     C1       CD33B    2.314100       11.6110           0   -1.00000   1.30000
     40238 MEOH     2407     MEOH     DC1      DRUD    -2.454100        0.4000           0   0.00000   0.00000
     40239 MEOH     2407     MEOH     O1       OD31H    2.488300       15.5990           0   -1.02800   1.30000
     40240 MEOH     2407     MEOH     DO1      DRUD    -2.488300        0.4000           0   0.00000   0.00000
     40241 MEOH     2407     MEOH     HO1      HDP1A    0.360000        1.0080           0   0.00000   0.00000
     40242 MEOH     2407     MEOH     HO2      DUMH     0.000000        1.0080           0   0.00000   0.00000
     40243 MEOH     2407     MEOH     H1A      HDA3B    0.080000        1.0080           0   0.00000   0.00000
     40244 MEOH     2407     MEOH     H1B      HDA3B    0.080000        1.0080           0   0.00000   0.00000
     40245 MEOH     2407     MEOH     H1C      HDA3B    0.080000        1.0080           0   0.00000   0.00000
     40246 MEOH     2407     MEOH     LP1A     LPD     -0.230000        0.0000           -1   0.00000   0.00000
     40247 MEOH     2407     MEOH     LP1B     LPD     -0.230000        0.0000           -1   0.00000   0.00000
     40248 MEOH     2408     MEOH     C1       CD33B    2.314100       11.6110           0   -1.00000   1.30000
     40249 MEOH     2408     MEOH     DC1      DRUD    -2.454100        0.4000           0   0.00000   0.00000
     40250 MEOH     2408     MEOH     O1       OD31H    2.488300       15.5990           0   -1.02800   1.30000
     40251 MEOH     2408     MEOH     DO1      DRUD    -2.488300        0.4000           0   0.00000   0.00000
     40252 MEOH     2408     MEOH     HO1      HDP1A    0.360000        1.0080           0   0.00000   0.00000
     40253 MEOH     2408     MEOH     HO2      DUMH     0.000000        1.0080           0   0.00000   0.00000
     40254 MEOH     2408     MEOH     H1A      HDA3B    0.080000        1.0080           0   0.00000   0.00000
     40255 MEOH     2408     MEOH     H1B      HDA3B    0.080000        1.0080           0   0.00000   0.00000
     40256 MEOH     2408     MEOH     H1C      HDA3B    0.080000        1.0080           0   0.00000   0.00000
     40257 MEOH     2408     MEOH     LP1A     LPD     -0.230000        0.0000           -1   0.00000   0.00000
     40258 MEOH     2408     MEOH     LP1B     LPD     -0.230000        0.0000           -1   0.00000   0.00000
     40259 MEOH     2409     MEOH     C1       CD33B    2.314100       11.6110           0   -1.00000   1.30000
     40260 MEOH     2409     MEOH     DC1      DRUD    -2.454100        0.4000           0   0.00000   0.00000
     40261 MEOH     2409     MEOH     O1       OD31H    2.488300       15.5990           0   -1.02800   1.30000
     40262 MEOH     2409     MEOH     DO1      DRUD    -2.488300        0.4000           0   0.00000   0.00000
     40263 MEOH     2409     MEOH     HO1      HDP1A    0.360000        1.0080           0   0.00000   0.00000
     40264 MEOH     2409     MEOH     HO2      DUMH     0.000000        1.0080           0   0.00000   0.00000
     40265 MEOH     2409     MEOH     H1A      HDA3B    0.080000        1.0080           0   0.00000   0.00000
     40266 MEOH     2409     MEOH     H1B      HDA3B    0.080000        1.0080           0   0.00000   0.00000
     40267 MEOH     2409     MEOH     H1C      HDA3B    0.080000        1.0080           0   0.00000   0.00000
     40268 MEOH     2409     MEOH     LP1A     LPD     -0.230000        0.0000           -1   0.00000   0.00000
     40269 MEOH     2409     MEOH     LP1B     LPD     -0.230000        0.0000           -1   0.00000   0.00000
     40270 MEOH     2410     MEOH     C1       CD33B    2.314100       11.6110           0   -1.00000   1.30000
     40271 MEOH     2410     MEOH     DC1      DRUD    -2.454100        0.4000           0   0.00000   0.00000
     40272 MEOH     2410     MEOH     O1       OD31H    2.488300       15.5990           0   -1.02800   1.30000
     40273 MEOH     2410     MEOH     DO1      DRUD    -2.488300        0.4000           0   0.00000   0.00000
     40274 MEOH     2410     MEOH     HO1      HDP1A    0.360000        1.0080           0   0.00000   0.00000
     40275 MEOH     2410     MEOH     HO2      DUMH     0.000000        1.0080           0   0.00000   0.00000
     40276 MEOH     2410     MEOH     H1A      HDA3B    0.080000        1.0080           0   0.00000   0.00000
     40277 MEOH     2410     MEOH     H1B      HDA3B    0.080000        1.0080           0   0.00000   0.00000
     40278 MEOH     2410     MEOH     H1C      HDA3B    0.080000        1.0080           0   0.00000   0.00000
     40279 MEOH     2410     MEOH     LP1A     LPD     -0.230000        0.0000           -1   0.00000   0.00000
     40280 MEOH     2410     MEOH     LP1B     LPD     -0.230000        0.0000           -1   0.00000   0.00000
     40281 MEOH     2411     MEOH     C1       CD33B    2.314100       11.6110           0   -1.00000   1.30000
     40282 MEOH     2411     MEOH     DC1      DRUD    -2.454100        0.4000           0   0.00000   0.00000
     40283 MEOH     2411     MEOH     O1       OD31H    2.488300       15.5990           0   -1.02800   1.30000
     40284 MEOH     2411     MEOH     DO1      DRUD    -2.488300        0.4000           0   0.00000   0.00000
     40285 MEOH     2411     MEOH     HO1      HDP1A    0.360000        1.0080           0   0.00000   0.00000
     40286 MEOH     2411     MEOH     HO2      DUMH     0.000000        1.0080           0   0.00000   0.00000
     40287 MEOH     2411     MEOH     H1A      HDA3B    0.080000        1.0080           0   0.00000   0.00000
     40288 MEOH     2411     MEOH     H1B      HDA3B    0.080000        1.0080           0   0.00000   0.00000
     40289 MEOH     2411     MEOH     H1C      HDA3B    0.080000        1.0080           0   0.00000   0.00000
     40290 MEOH     2411     MEOH     LP1A     LPD     -0.230000        0.0000           -1   0.00000   0.00000
     40291 MEOH     2411     MEOH     LP1B     LPD     -0.230000        0.0000           -1   0.00000   0.00000
     40292 MEOH     2412     MEOH     C1       CD33B    2.314100       11.6110           0   -1.00000   1.30000
     40293 MEOH     2412     MEOH     DC1      DRUD    -2.454100        0.4000           0   0.00000   0.00000
     40294 MEOH     2412     MEOH     O1       OD31H    2.488300       15.5990           0   -1.02800   1.30000
     40295 MEOH     2412     MEOH     DO1      DRUD    -2.488300        0.4000           0   0.00000   0.00000
     40296 MEOH     2412     MEOH     HO1      HDP1A    0.360000        1.0080           0   0.00000   0.00000
     40297 MEOH     2412     MEOH     HO2      DUMH     0.000000        1.0080           0   0.00000   0.00000
     40298 MEOH     2412     MEOH     H1A      HDA3B    0.080000        1.0080           0   0.00000   0.00000
     40299 MEOH     2412     MEOH     H1B      HDA3B    0.080000        1.0080           0   0.00000   0.00000
     40300 MEOH     2412     MEOH     H1C      HDA3B    0.080000        1.0080           0   0.00000   0.00000
     40301 MEOH     2412     MEOH     LP1A     LPD     -0.230000        0.0000           -1   0.00000   0.00000
     40302 MEOH     2412     MEOH     LP1B     LPD     -0.230000        0.0000           -1   0.00000   0.00000
     40303 MEOH     2413     MEOH     C1       CD33B    2.314100       11.6110           0   -1.00000   1.30000
     40304 MEOH     2413     MEOH     DC1      DRUD    -2.454100        0.4000           0   0.00000   0.00000
     40305 MEOH     2413     MEOH     O1       OD31H    2.488300       15.5990           0   -1.02800   1.30000
     40306 MEOH     2413     MEOH     DO1      DRUD    -2.488300        0.4000           0   0.00000   0.00000
     40307 MEOH     2413     MEOH     HO1      HDP1A    0.360000        1.0080           0   0.00000   0.00000
     40308 MEOH     2413     MEOH     HO2      DUMH     0.000000        1.0080           0   0.00000   0.00000
     40309 MEOH     2413     MEOH     H1A      HDA3B    0.080000        1.0080           0   0.00000   0.00000
     40310 MEOH     2413     MEOH     H1B      HDA3B    0.080000        1.0080           0   0.00000   0.00000
     40311 MEOH     2413     MEOH     H1C      HDA3B    0.080000        1.0080           0   0.00000   0.00000
     40312 MEOH     2413     MEOH     LP1A     LPD     -0.230000        0.0000           -1   0.00000   0.00000
     40313 MEOH     2413     MEOH     LP1B     LPD     -0.230000        0.0000           -1   0.00000   0.00000
     40314 MEOH     2414     MEOH     C1       CD33B    2.314100       11.6110           0   -1.00000   1.30000
     40315 MEOH     2414     MEOH     DC1      DRUD    -2.454100        0.4000           0   0.00000   0.00000
     40316 MEOH     2414     MEOH     O1       OD31H    2.488300       15.5990           0   -1.02800   1.30000
     40317 MEOH     2414     MEOH     DO1      DRUD    -2.488300        0.4000           0   0.00000   0.00000
     40318 MEOH     2414     MEOH     HO1      HDP1A    0.360000        1.0080           0   0.00000   0.00000
     40319 MEOH     2414     MEOH     HO2      DUMH     0.000000        1.0080           0   0.00000   0.00000
     40320 MEOH     2414     MEOH     H1A      HDA3B    0.080000        1.0080           0   0.00000   0.00000
     40321 MEOH     2414     MEOH     H1B      HDA3B    0.080000        1.0080           0   0.00000   0.00000
     40322 MEOH     2414     MEOH     H1C      HDA3B    0.080000        1.0080           0   0.00000   0.00000
     40323 MEOH     2414     MEOH     LP1A     LPD     -0.230000        0.0000           -1   0.00000   0.00000
     40324 MEOH     2414     MEOH     LP1B     LPD     -0.230000        0.0000           -1   0.00000   0.00000
     40325 MEOH     2415     MEOH     C1       CD33B    2.314100       11.6110           0   -1.00000   1.30000
     40326 MEOH     2415     MEOH     DC1      DRUD    -2.454100        0.4000           0   0.00000   0.00000
     40327 MEOH     2415     MEOH     O1       OD31H    2.488300       15.5990           0   -1.02800   1.30000
     40328 MEOH     2415     MEOH     DO1      DRUD    -2.488300        0.4000           0   0.00000   0.00000
     40329 MEOH     2415     MEOH     HO1      HDP1A    0.360000        1.0080           0   0.00000   0.00000
     40330 MEOH     2415     MEOH     HO2      DUMH     0.000000        1.0080           0   0.00000   0.00000
     40331 MEOH     2415     MEOH     H1A      HDA3B    0.080000        1.0080           0   0.00000   0.00000
     40332 MEOH     2415     MEOH     H1B      HDA3B    0.080000        1.0080           0   0.00000   0.00000
     40333 MEOH     2415     MEOH     H1C      HDA3B    0.080000        1.0080           0   0.00000   0.00000
     40334 MEOH     2415     MEOH     LP1A     LPD     -0.230000        0.0000           -1   0.00000   0.00000
     40335 MEOH     2415     MEOH     LP1B     LPD     -0.230000        0.0000           -1   0.00000   0.00000
     40336 MEOH     2416     MEOH     C1       CD33B    2.314100       11.6110           0   -1.00000   1.30000
     40337 MEOH     2416     MEOH     DC1      DRUD    -2.454100        0.4000           0   0.00000   0.00000
     40338 MEOH     2416     MEOH     O1       OD31H    2.488300       15.5990           0   -1.02800   1.30000
     40339 MEOH     2416     MEOH     DO1      DRUD    -2.488300        0.4000           0   0.00000   0.00000
     40340 MEOH     2416     MEOH     HO1      HDP1A    0.360000        1.0080           0   0.00000   0.00000
     40341 MEOH     2416     MEOH     HO2      DUMH     0.000000        1.0080           0   0.00000   0.00000
     40342 MEOH     2416     MEOH     H1A      HDA3B    0.080000        1.0080           0   0.00000   0.00000
     40343 MEOH     2416     MEOH     H1B      HDA3B    0.080000        1.0080           0   0.00000   0.00000
     40344 MEOH     2416     MEOH     H1C      HDA3B    0.080000        1.0080           0   0.00000   0.00000
     40345 MEOH     2416     MEOH     LP1A     LPD     -0.230000        0.0000           -1   0.00000   0.00000
     40346 MEOH     2416     MEOH     LP1B     LPD     -0.230000        0.0000           -1   0.00000   0.00000
     40347 MEOH     2417     MEOH     C1       CD33B    2.314100       11.6110           0   -1.00000   1.30000
     40348 MEOH     2417     MEOH     DC1      DRUD    -2.454100        0.4000           0   0.00000   0.00000
     40349 MEOH     2417     MEOH     O1       OD31H    2.488300       15.5990           0   -1.02800   1.30000
     40350 MEOH     2417     MEOH     DO1      DRUD    -2.488300        0.4000           0   0.00000   0.00000
     40351 MEOH     2417     MEOH     HO1      HDP1A    0.360000        1.0080           0   0.00000   0.00000
     40352 MEOH     2417     MEOH     HO2      DUMH     0.000000        1.0080           0   0.00000   0.00000
     40353 MEOH     2417     MEOH     H1A      HDA3B    0.080000        1.0080           0   0.00000   0.00000
     40354 MEOH     2417     MEOH     H1B      HDA3B    0.080000        1.0080           0   0.00000   0.00000
     40355 MEOH     2417     MEOH     H1C      HDA3B    0.080000        1.0080           0   0.00000   0.00000
     40356 MEOH     2417     MEOH     LP1A     LPD     -0.230000        0.0000           -1   0.00000   0.00000
     40357 MEOH     2417     MEOH     LP1B     LPD     -0.230000        0.0000           -1   0.00000   0.00000
     40358 MEOH     2418     MEOH     C1       CD33B    2.314100       11.6110           0   -1.00000   1.30000
     40359 MEOH     2418     MEOH     DC1      DRUD    -2.454100        0.4000           0   0.00000   0.00000
     40360 MEOH     2418     MEOH     O1       OD31H    2.488300       15.5990           0   -1.02800   1.30000
     40361 MEOH     2418     MEOH     DO1      DRUD    -2.488300        0.4000           0   0.00000   0.00000
     40362 MEOH     2418     MEOH     HO1      HDP1A    0.360000        1.0080           0   0.00000   0.00000
     40363 MEOH     2418     MEOH     HO2      DUMH     0.000000        1.0080           0   0.00000   0.00000
     40364 MEOH     2418     MEOH     H1A      HDA3B    0.080000        1.0080           0   0.00000   0.00000
     40365 MEOH     2418     MEOH     H1B      HDA3B    0.080000        1.0080           0   0.00000   0.00000
     40366 MEOH     2418     MEOH     H1C      HDA3B    0.080000        1.0080           0   0.00000   0.00000
     40367 MEOH     2418     MEOH     LP1A     LPD     -0.230000        0.0000           -1   0.00000   0.00000
     40368 MEOH     2418     MEOH     LP1B     LPD     -0.230000        0.0000           -1   0.00000   0.00000
     40369 MEOH     2419     MEOH     C1       CD33B    2.314100       11.6110           0   -1.00000   1.30000
     40370 MEOH     2419     MEOH     DC1      DRUD    -2.454100        0.4000           0   0.00000   0.00000
     40371 MEOH     2419     MEOH     O1       OD31H    2.488300       15.5990           0   -1.02800   1.30000
     40372 MEOH     2419     MEOH     DO1      DRUD    -2.488300        0.4000           0   0.00000   0.00000
     40373 MEOH     2419     MEOH     HO1      HDP1A    0.360000        1.0080           0   0.00000   0.00000
     40374 MEOH     2419     MEOH     HO2      DUMH     0.000000        1.0080           0   0.00000   0.00000
     40375 MEOH     2419     MEOH     H1A      HDA3B    0.080000        1.0080           0   0.00000   0.00000
     40376 MEOH     2419     MEOH     H1B      HDA3B    0.080000        1.0080           0   0.00000   0.00000
     40377 MEOH     2419     MEOH     H1C      HDA3B    0.080000        1.0080           0   0.00000   0.00000
     40378 MEOH     2419     MEOH     LP1A     LPD     -0.230000        0.0000           -1   0.00000   0.00000
     40379 MEOH     2419     MEOH     LP1B     LPD     -0.230000        0.0000           -1   0.00000   0.00000
     40380 MEOH     2420     MEOH     C1       CD33B    2.314100       11.6110           0   -1.00000   1.30000
     40381 MEOH     2420     MEOH     DC1      DRUD    -2.454100        0.4000           0   0.00000   0.00000
     40382 MEOH     2420     MEOH     O1       OD31H    2.488300       15.5990           0   -1.02800   1.30000
     40383 MEOH     2420     MEOH     DO1      DRUD    -2.488300        0.4000           0   0.00000   0.00000
     40384 MEOH     2420     MEOH     HO1      HDP1A    0.360000        1.0080           0   0.00000   0.00000
     40385 MEOH     2420     MEOH     HO2      DUMH     0.000000        1.0080           0   0.00000   0.00000
     40386 MEOH     2420     MEOH     H1A      HDA3B    0.080000        1.0080           0   0.00000   0.00000
     40387 MEOH     2420     MEOH     H1B      HDA3B    0.080000        1.0080           0   0.00000   0.00000
     40388 MEOH     2420     MEOH     H1C      HDA3B    0.080000        1.0080           0   0.00000   0.00000
     40389 MEOH     2420     MEOH     LP1A     LPD     -0.230000        0.0000           -1   0.00000   0.00000
     40390 MEOH     2420     MEOH     LP1B     LPD     -0.230000        0.0000           -1   0.00000   0.00000
     40391 MEOH     2421     MEOH     C1       CD33B    2.314100       11.6110           0   -1.00000   1.30000
     40392 MEOH     2421     MEOH     DC1      DRUD    -2.454100        0.4000           0   0.00000   0.00000
     40393 MEOH     2421     MEOH     O1       OD31H    2.488300       15.5990           0   -1.02800   1.30000
     40394 MEOH     2421     MEOH     DO1      DRUD    -2.488300        0.4000           0   0.00000   0.00000
     40395 MEOH     2421     MEOH     HO1      HDP1A    0.360000        1.0080           0   0.00000   0.00000
     40396 MEOH     2421     MEOH     HO2      DUMH     0.000000        1.0080           0   0.00000   0.00000
     40397 MEOH     2421     MEOH     H1A      HDA3B    0.080000        1.0080           0   0.00000   0.00000
     40398 MEOH     2421     MEOH     H1B      HDA3B    0.080000        1.0080           0   0.00000   0.00000
     40399 MEOH     2421     MEOH     H1C      HDA3B    0.080000        1.0080           0   0.00000   0.00000
     40400 MEOH     2421     MEOH     LP1A     LPD     -0.230000        0.0000           -1   0.00000   0.00000
     40401 MEOH     2421     MEOH     LP1B     LPD     -0.230000        0.0000           -1   0.00000   0.00000
     40402 MEOH     2422     MEOH     C1       CD33B    2.314100       11.6110           0   -1.00000   1.30000
     40403 MEOH     2422     MEOH     DC1      DRUD    -2.454100        0.4000           0   0.00000   0.00000
     40404 MEOH     2422     MEOH     O1       OD31H    2.488300       15.5990           0   -1.02800   1.30000
     40405 MEOH     2422     MEOH     DO1      DRUD    -2.488300        0.4000           0   0.00000   0.00000
     40406 MEOH     2422     MEOH     HO1      HDP1A    0.360000        1.0080           0   0.00000   0.00000
     40407 MEOH     2422     MEOH     HO2      DUMH     0.000000        1.0080           0   0.00000   0.00000
     40408 MEOH     2422     MEOH     H1A      HDA3B    0.080000        1.0080           0   0.00000   0.00000
     40409 MEOH     2422     MEOH     H1B      HDA3B    0.080000        1.0080           0   0.00000   0.00000
     40410 MEOH     2422     MEOH     H1C      HDA3B    0.080000        1.0080           0   0.00000   0.00000
     40411 MEOH     2422     MEOH     LP1A     LPD     -0.230000        0.0000           -1   0.00000   0.00000
     40412 MEOH     2422     MEOH     LP1B     LPD     -0.230000        0.0000           -1   0.00000   0.00000
     40413 MEOH     2423     MEOH     C1       CD33B    2.314100       11.6110           0   -1.00000   1.30000
     40414 MEOH     2423     MEOH     DC1      DRUD    -2.454100        0.4000           0   0.00000   0.00000
     40415 MEOH     2423     MEOH     O1       OD31H    2.488300       15.5990           0   -1.02800   1.30000
     40416 MEOH     2423     MEOH     DO1      DRUD    -2.488300        0.4000           0   0.00000   0.00000
     40417 MEOH     2423     MEOH     HO1      HDP1A    0.360000        1.0080           0   0.00000   0.00000
     40418 MEOH     2423     MEOH     HO2      DUMH     0.000000        1.0080           0   0.00000   0.00000
     40419 MEOH     2423     MEOH     H1A      HDA3B    0.080000        1.0080           0   0.00000   0.00000
     40420 MEOH     2423     MEOH     H1B      HDA3B    0.080000        1.0080           0   0.00000   0.00000
     40421 MEOH     2423     MEOH     H1C      HDA3B    0.080000        1.0080           0   0.00000   0.00000
     40422 MEOH     2423     MEOH     LP1A     LPD     -0.230000        0.0000           -1   0.00000   0.00000
     40423 MEOH     2423     MEOH     LP1B     LPD     -0.230000        0.0000           -1   0.00000   0.00000
     40424 MEOH     2424     MEOH     C1       CD33B    2.314100       11.6110           0   -1.00000   1.30000
     40425 MEOH     2424     MEOH     DC1      DRUD    -2.454100        0.4000           0   0.00000   0.00000
     40426 MEOH     2424     MEOH     O1       OD31H    2.488300       15.5990           0   -1.02800   1.30000
     40427 MEOH     2424     MEOH     DO1      DRUD    -2.488300        0.4000           0   0.00000   0.00000
     40428 MEOH     2424     MEOH     HO1      HDP1A    0.360000        1.0080           0   0.00000   0.00000
     40429 MEOH     2424     MEOH     HO2      DUMH     0.000000        1.0080           0   0.00000   0.00000
     40430 MEOH     2424     MEOH     H1A      HDA3B    0.080000        1.0080           0   0.00000   0.00000
     40431 MEOH     2424     MEOH     H1B      HDA3B    0.080000        1.0080           0   0.00000   0.00000
     40432 MEOH     2424     MEOH     H1C      HDA3B    0.080000        1.0080           0   0.00000   0.00000
     40433 MEOH     2424     MEOH     LP1A     LPD     -0.230000        0.0000           -1   0.00000   0.00000
     40434 MEOH     2424     MEOH     LP1B     LPD     -0.230000        0.0000           -1   0.00000   0.00000
     40435 MEOH     2425     MEOH     C1       CD33B    2.314100       11.6110           0   -1.00000   1.30000
     40436 MEOH     2425     MEOH     DC1      DRUD    -2.454100        0.4000           0   0.00000   0.00000
     40437 MEOH     2425     MEOH     O1       OD31H    2.488300       15.5990           0   -1.02800   1.30000
     40438 MEOH     2425     MEOH     DO1      DRUD    -2.488300        0.4000           0   0.00000   0.00000
     40439 MEOH     2425     MEOH     HO1      HDP1A    0.360000        1.0080           0   0.00000   0.00000
     40440 MEOH     2425     MEOH     HO2      DUMH     0.000000        1.0080           0   0.00000   0.00000
     40441 MEOH     2425     MEOH     H1A      HDA3B    0.080000        1.0080           0   0.00000   0.00000
     40442 MEOH     2425     MEOH     H1B      HDA3B    0.080000        1.0080           0   0.00000   0.00000
     40443 MEOH     2425     MEOH     H1C      HDA3B    0.080000        1.0080           0   0.00000   0.00000
     40444 MEOH     2425     MEOH     LP1A     LPD     -0.230000        0.0000           -1   0.00000   0.00000
     40445 MEOH     2425     MEOH     LP1B     LPD     -0.230000        0.0000           -1   0.00000   0.00000
     40446 MEOH     2426     MEOH     C1       CD33B    2.314100       11.6110           0   -1.00000   1.30000
     40447 MEOH     2426     MEOH     DC1      DRUD    -2.454100        0.4000           0   0.00000   0.00000
     40448 MEOH     2426     MEOH     O1       OD31H    2.488300       15.5990           0   -1.02800   1.30000
     40449 MEOH     2426     MEOH     DO1      DRUD    -2.488300        0.4000           0   0.00000   0.00000
     40450 MEOH     2426     MEOH     HO1      HDP1A    0.360000        1.0080           0   0.00000   0.00000
     40451 MEOH     2426     MEOH     HO2      DUMH     0.000000        1.0080           0   0.00000   0.00000
     40452 MEOH     2426     MEOH     H1A      HDA3B    0.080000        1.0080           0   0.00000   0.00000
     40453 MEOH     2426     MEOH     H1B      HDA3B    0.080000        1.0080           0   0.00000   0.00000
     40454 MEOH     2426     MEOH     H1C      HDA3B    0.080000        1.0080           0   0.00000   0.00000
     40455 MEOH     2426     MEOH     LP1A     LPD     -0.230000        0.0000           -1   0.00000   0.00000
     40456 MEOH     2426     MEOH     LP1B     LPD     -0.230000        0.0000           -1   0.00000   0.00000
     40457 MEOH     2427     MEOH     C1       CD33B    2.314100       11.6110           0   -1.00000   1.30000
     40458 MEOH     2427     MEOH     DC1      DRUD    -2.454100        0.4000           0   0.00000   0.00000
     40459 MEOH     2427     MEOH     O1       OD31H    2.488300       15.5990           0   -1.02800   1.30000
     40460 MEOH     2427     MEOH     DO1      DRUD    -2.488300        0.4000           0   0.00000   0.00000
     40461 MEOH     2427     MEOH     HO1      HDP1A    0.360000        1.0080           0   0.00000   0.00000
     40462 MEOH     2427     MEOH     HO2      DUMH     0.000000        1.0080           0   0.00000   0.00000
     40463 MEOH     2427     MEOH     H1A      HDA3B    0.080000        1.0080           0   0.00000   0.00000
     40464 MEOH     2427     MEOH     H1B      HDA3B    0.080000        1.0080           0   0.00000   0.00000
     40465 MEOH     2427     MEOH     H1C      HDA3B    0.080000        1.0080           0   0.00000   0.00000
     40466 MEOH     2427     MEOH     LP1A     LPD     -0.230000        0.0000           -1   0.00000   0.00000
     40467 MEOH     2427     MEOH     LP1B     LPD     -0.230000        0.0000           -1   0.00000   0.00000
     40468 MEOH     2428     MEOH     C1       CD33B    2.314100       11.6110           0   -1.00000   1.30000
     40469 MEOH     2428     MEOH     DC1      DRUD    -2.454100        0.4000           0   0.00000   0.00000
     40470 MEOH     2428     MEOH     O1       OD31H    2.488300       15.5990           0   -1.02800   1.30000
     40471 MEOH     2428     MEOH     DO1      DRUD    -2.488300        0.4000           0   0.00000   0.00000
     40472 MEOH     2428     MEOH     HO1      HDP1A    0.360000        1.0080           0   0.00000   0.00000
     40473 MEOH     2428     MEOH     HO2      DUMH     0.000000        1.0080           0   0.00000   0.00000
     40474 MEOH     2428     MEOH     H1A      HDA3B    0.080000        1.0080           0   0.00000   0.00000
     40475 MEOH     2428     MEOH     H1B      HDA3B    0.080000        1.0080           0   0.00000   0.00000
     40476 MEOH     2428     MEOH     H1C      HDA3B    0.080000        1.0080           0   0.00000   0.00000
     40477 MEOH     2428     MEOH     LP1A     LPD     -0.230000        0.0000           -1   0.00000   0.00000
     40478 MEOH     2428     MEOH     LP1B     LPD     -0.230000        0.0000           -1   0.00000   0.00000
     40479 MEOH     2429     MEOH     C1       CD33B    2.314100       11.6110           0   -1.00000   1.30000
     40480 MEOH     2429     MEOH     DC1      DRUD    -2.454100        0.4000           0   0.00000   0.00000
     40481 MEOH     2429     MEOH     O1       OD31H    2.488300       15.5990           0   -1.02800   1.30000
     40482 MEOH     2429     MEOH     DO1      DRUD    -2.488300        0.4000           0   0.00000   0.00000
     40483 MEOH     2429     MEOH     HO1      HDP1A    0.360000        1.0080           0   0.00000   0.00000
     40484 MEOH     2429     MEOH     HO2      DUMH     0.000000        1.0080           0   0.00000   0.00000
     40485 MEOH     2429     MEOH     H1A      HDA3B    0.080000        1.0080           0   0.00000   0.00000
     40486 MEOH     2429     MEOH     H1B      HDA3B    0.080000        1.0080           0   0.00000   0.00000
     40487 MEOH     2429     MEOH     H1C      HDA3B    0.080000        1.0080           0   0.00000   0.00000
     40488 MEOH     2429     MEOH     LP1A     LPD     -0.230000        0.0000           -1   0.00000   0.00000
     40489 MEOH     2429     MEOH     LP1B     LPD     -0.230000        0.0000           -1   0.00000   0.00000
     40490 MEOH     2430     MEOH     C1       CD33B    2.314100       11.6110           0   -1.00000   1.30000
     40491 MEOH     2430     MEOH     DC1      DRUD    -2.454100        0.4000           0   0.00000   0.00000
     40492 MEOH     2430     MEOH     O1       OD31H    2.488300       15.5990           0   -1.02800   1.30000
     40493 MEOH     2430     MEOH     DO1      DRUD    -2.488300        0.4000           0   0.00000   0.00000
     40494 MEOH     2430     MEOH     HO1      HDP1A    0.360000        1.0080           0   0.00000   0.00000
     40495 MEOH     2430     MEOH     HO2      DUMH     0.000000        1.0080           0   0.00000   0.00000
     40496 MEOH     2430     MEOH     H1A      HDA3B    0.080000        1.0080           0   0.00000   0.00000
     40497 MEOH     2430     MEOH     H1B      HDA3B    0.080000        1.0080           0   0.00000   0.00000
     40498 MEOH     2430     MEOH     H1C      HDA3B    0.080000        1.0080           0   0.00000   0.00000
     40499 MEOH     2430     MEOH     LP1A     LPD     -0.230000        0.0000           -1   0.00000   0.00000
     40500 MEOH     2430     MEOH     LP1B     LPD     -0.230000        0.0000           -1   0.00000   0.00000
     40501 MEOH     2431     MEOH     C1       CD33B    2.314100       11.6110           0   -1.00000   1.30000
     40502 MEOH     2431     MEOH     DC1      DRUD    -2.454100        0.4000           0   0.00000   0.00000
     40503 MEOH     2431     MEOH     O1       OD31H    2.488300       15.5990           0   -1.02800   1.30000
     40504 MEOH     2431     MEOH     DO1      DRUD    -2.488300        0.4000           0   0.00000   0.00000
     40505 MEOH     2431     MEOH     HO1      HDP1A    0.360000        1.0080           0   0.00000   0.00000
     40506 MEOH     2431     MEOH     HO2      DUMH     0.000000        1.0080           0   0.00000   0.00000
     40507 MEOH     2431     MEOH     H1A      HDA3B    0.080000        1.0080           0   0.00000   0.00000
     40508 MEOH     2431     MEOH     H1B      HDA3B    0.080000        1.0080           0   0.00000   0.00000
     40509 MEOH     2431     MEOH     H1C      HDA3B    0.080000        1.0080           0   0.00000   0.00000
     40510 MEOH     2431     MEOH     LP1A     LPD     -0.230000        0.0000           -1   0.00000   0.00000
     40511 MEOH     2431     MEOH     LP1B     LPD     -0.230000        0.0000           -1   0.00000   0.00000
     40512 MEOH     2432     MEOH     C1       CD33B    2.314100       11.6110           0   -1.00000   1.30000
     40513 MEOH     2432     MEOH     DC1      DRUD    -2.454100        0.4000           0   0.00000   0.00000
     40514 MEOH     2432     MEOH     O1       OD31H    2.488300       15.5990           0   -1.02800   1.30000
     40515 MEOH     2432     MEOH     DO1      DRUD    -2.488300        0.4000           0   0.00000   0.00000
     40516 MEOH     2432     MEOH     HO1      HDP1A    0.360000        1.0080           0   0.00000   0.00000
     40517 MEOH     2432     MEOH     HO2      DUMH     0.000000        1.0080           0   0.00000   0.00000
     40518 MEOH     2432     MEOH     H1A      HDA3B    0.080000        1.0080           0   0.00000   0.00000
     40519 MEOH     2432     MEOH     H1B      HDA3B    0.080000        1.0080           0   0.00000   0.00000
     40520 MEOH     2432     MEOH     H1C      HDA3B    0.080000        1.0080           0   0.00000   0.00000
     40521 MEOH     2432     MEOH     LP1A     LPD     -0.230000        0.0000           -1   0.00000   0.00000
     40522 MEOH     2432     MEOH     LP1B     LPD     -0.230000        0.0000           -1   0.00000   0.00000
     40523 MEOH     2433     MEOH     C1       CD33B    2.314100       11.6110           0   -1.00000   1.30000
     40524 MEOH     2433     MEOH     DC1      DRUD    -2.454100        0.4000           0   0.00000   0.00000
     40525 MEOH     2433     MEOH     O1       OD31H    2.488300       15.5990           0   -1.02800   1.30000
     40526 MEOH     2433     MEOH     DO1      DRUD    -2.488300        0.4000           0   0.00000   0.00000
     40527 MEOH     2433     MEOH     HO1      HDP1A    0.360000        1.0080           0   0.00000   0.00000
     40528 MEOH     2433     MEOH     HO2      DUMH     0.000000        1.0080           0   0.00000   0.00000
     40529 MEOH     2433     MEOH     H1A      HDA3B    0.080000        1.0080           0   0.00000   0.00000
     40530 MEOH     2433     MEOH     H1B      HDA3B    0.080000        1.0080           0   0.00000   0.00000
     40531 MEOH     2433     MEOH     H1C      HDA3B    0.080000        1.0080           0   0.00000   0.00000
     40532 MEOH     2433     MEOH     LP1A     LPD     -0.230000        0.0000           -1   0.00000   0.00000
     40533 MEOH     2433     MEOH     LP1B     LPD     -0.230000        0.0000           -1   0.00000   0.00000
     40534 MEOH     2434     MEOH     C1       CD33B    2.314100       11.6110           0   -1.00000   1.30000
     40535 MEOH     2434     MEOH     DC1      DRUD    -2.454100        0.4000           0   0.00000   0.00000
     40536 MEOH     2434     MEOH     O1       OD31H    2.488300       15.5990           0   -1.02800   1.30000
     40537 MEOH     2434     MEOH     DO1      DRUD    -2.488300        0.4000           0   0.00000   0.00000
     40538 MEOH     2434     MEOH     HO1      HDP1A    0.360000        1.0080           0   0.00000   0.00000
     40539 MEOH     2434     MEOH     HO2      DUMH     0.000000        1.0080           0   0.00000   0.00000
     40540 MEOH     2434     MEOH     H1A      HDA3B    0.080000        1.0080           0   0.00000   0.00000
     40541 MEOH     2434     MEOH     H1B      HDA3B    0.080000        1.0080           0   0.00000   0.00000
     40542 MEOH     2434     MEOH     H1C      HDA3B    0.080000        1.0080           0   0.00000   0.00000
     40543 MEOH     2434     MEOH     LP1A     LPD     -0.230000        0.0000           -1   0.00000   0.00000
     40544 MEOH     2434     MEOH     LP1B     LPD     -0.230000        0.0000           -1   0.00000   0.00000
     40545 MEOH     2435     MEOH     C1       CD33B    2.314100       11.6110           0   -1.00000   1.30000
     40546 MEOH     2435     MEOH     DC1      DRUD    -2.454100        0.4000           0   0.00000   0.00000
     40547 MEOH     2435     MEOH     O1       OD31H    2.488300       15.5990           0   -1.02800   1.30000
     40548 MEOH     2435     MEOH     DO1      DRUD    -2.488300        0.4000           0   0.00000   0.00000
     40549 MEOH     2435     MEOH     HO1      HDP1A    0.360000        1.0080           0   0.00000   0.00000
     40550 MEOH     2435     MEOH     HO2      DUMH     0.000000        1.0080           0   0.00000   0.00000
     40551 MEOH     2435     MEOH     H1A      HDA3B    0.080000        1.0080           0   0.00000   0.00000
     40552 MEOH     2435     MEOH     H1B      HDA3B    0.080000        1.0080           0   0.00000   0.00000
     40553 MEOH     2435     MEOH     H1C      HDA3B    0.080000        1.0080           0   0.00000   0.00000
     40554 MEOH     2435     MEOH     LP1A     LPD     -0.230000        0.0000           -1   0.00000   0.00000
     40555 MEOH     2435     MEOH     LP1B     LPD     -0.230000        0.0000           -1   0.00000   0.00000
     40556 MEOH     2436     MEOH     C1       CD33B    2.314100       11.6110           0   -1.00000   1.30000
     40557 MEOH     2436     MEOH     DC1      DRUD    -2.454100        0.4000           0   0.00000   0.00000
     40558 MEOH     2436     MEOH     O1       OD31H    2.488300       15.5990           0   -1.02800   1.30000
     40559 MEOH     2436     MEOH     DO1      DRUD    -2.488300        0.4000           0   0.00000   0.00000
     40560 MEOH     2436     MEOH     HO1      HDP1A    0.360000        1.0080           0   0.00000   0.00000
     40561 MEOH     2436     MEOH     HO2      DUMH     0.000000        1.0080           0   0.00000   0.00000
     40562 MEOH     2436     MEOH     H1A      HDA3B    0.080000        1.0080           0   0.00000   0.00000
     40563 MEOH     2436     MEOH     H1B      HDA3B    0.080000        1.0080           0   0.00000   0.00000
     40564 MEOH     2436     MEOH     H1C      HDA3B    0.080000        1.0080           0   0.00000   0.00000
     40565 MEOH     2436     MEOH     LP1A     LPD     -0.230000        0.0000           -1   0.00000   0.00000
     40566 MEOH     2436     MEOH     LP1B     LPD     -0.230000        0.0000           -1   0.00000   0.00000
     40567 MEOH     2437     MEOH     C1       CD33B    2.314100       11.6110           0   -1.00000   1.30000
     40568 MEOH     2437     MEOH     DC1      DRUD    -2.454100        0.4000           0   0.00000   0.00000
     40569 MEOH     2437     MEOH     O1       OD31H    2.488300       15.5990           0   -1.02800   1.30000
     40570 MEOH     2437     MEOH     DO1      DRUD    -2.488300        0.4000           0   0.00000   0.00000
     40571 MEOH     2437     MEOH     HO1      HDP1A    0.360000        1.0080           0   0.00000   0.00000
     40572 MEOH     2437     MEOH     HO2      DUMH     0.000000        1.0080           0   0.00000   0.00000
     40573 MEOH     2437     MEOH     H1A      HDA3B    0.080000        1.0080           0   0.00000   0.00000
     40574 MEOH     2437     MEOH     H1B      HDA3B    0.080000        1.0080           0   0.00000   0.00000
     40575 MEOH     2437     MEOH     H1C      HDA3B    0.080000        1.0080           0   0.00000   0.00000
     40576 MEOH     2437     MEOH     LP1A     LPD     -0.230000        0.0000           -1   0.00000   0.00000
     40577 MEOH     2437     MEOH     LP1B     LPD     -0.230000        0.0000           -1   0.00000   0.00000
     40578 MEOH     2438     MEOH     C1       CD33B    2.314100       11.6110           0   -1.00000   1.30000
     40579 MEOH     2438     MEOH     DC1      DRUD    -2.454100        0.4000           0   0.00000   0.00000
     40580 MEOH     2438     MEOH     O1       OD31H    2.488300       15.5990           0   -1.02800   1.30000
     40581 MEOH     2438     MEOH     DO1      DRUD    -2.488300        0.4000           0   0.00000   0.00000
     40582 MEOH     2438     MEOH     HO1      HDP1A    0.360000        1.0080           0   0.00000   0.00000
     40583 MEOH     2438     MEOH     HO2      DUMH     0.000000        1.0080           0   0.00000   0.00000
     40584 MEOH     2438     MEOH     H1A      HDA3B    0.080000        1.0080           0   0.00000   0.00000
     40585 MEOH     2438     MEOH     H1B      HDA3B    0.080000        1.0080           0   0.00000   0.00000
     40586 MEOH     2438     MEOH     H1C      HDA3B    0.080000        1.0080           0   0.00000   0.00000
     40587 MEOH     2438     MEOH     LP1A     LPD     -0.230000        0.0000           -1   0.00000   0.00000
     40588 MEOH     2438     MEOH     LP1B     LPD     -0.230000        0.0000           -1   0.00000   0.00000
     40589 MEOH     2439     MEOH     C1       CD33B    2.314100       11.6110           0   -1.00000   1.30000
     40590 MEOH     2439     MEOH     DC1      DRUD    -2.454100        0.4000           0   0.00000   0.00000
     40591 MEOH     2439     MEOH     O1       OD31H    2.488300       15.5990           0   -1.02800   1.30000
     40592 MEOH     2439     MEOH     DO1      DRUD    -2.488300        0.4000           0   0.00000   0.00000
     40593 MEOH     2439     MEOH     HO1      HDP1A    0.360000        1.0080           0   0.00000   0.00000
     40594 MEOH     2439     MEOH     HO2      DUMH     0.000000        1.0080           0   0.00000   0.00000
     40595 MEOH     2439     MEOH     H1A      HDA3B    0.080000        1.0080           0   0.00000   0.00000
     40596 MEOH     2439     MEOH     H1B      HDA3B    0.080000        1.0080           0   0.00000   0.00000
     40597 MEOH     2439     MEOH     H1C      HDA3B    0.080000        1.0080           0   0.00000   0.00000
     40598 MEOH     2439     MEOH     LP1A     LPD     -0.230000        0.0000           -1   0.00000   0.00000
     40599 MEOH     2439     MEOH     LP1B     LPD     -0.230000        0.0000           -1   0.00000   0.00000
     40600 MEOH     2440     MEOH     C1       CD33B    2.314100       11.6110           0   -1.00000   1.30000
     40601 MEOH     2440     MEOH     DC1      DRUD    -2.454100        0.4000           0   0.00000   0.00000
     40602 MEOH     2440     MEOH     O1       OD31H    2.488300       15.5990           0   -1.02800   1.30000
     40603 MEOH     2440     MEOH     DO1      DRUD    -2.488300        0.4000           0   0.00000   0.00000
     40604 MEOH     2440     MEOH     HO1      HDP1A    0.360000        1.0080           0   0.00000   0.00000
     40605 MEOH     2440     MEOH     HO2      DUMH     0.000000        1.0080           0   0.00000   0.00000
     40606 MEOH     2440     MEOH     H1A      HDA3B    0.080000        1.0080           0   0.00000   0.00000
     40607 MEOH     2440     MEOH     H1B      HDA3B    0.080000        1.0080           0   0.00000   0.00000
     40608 MEOH     2440     MEOH     H1C      HDA3B    0.080000        1.0080           0   0.00000   0.00000
     40609 MEOH     2440     MEOH     LP1A     LPD     -0.230000        0.0000           -1   0.00000   0.00000
     40610 MEOH     2440     MEOH     LP1B     LPD     -0.230000        0.0000           -1   0.00000   0.00000
     40611 MEOH     2441     MEOH     C1       CD33B    2.314100       11.6110           0   -1.00000   1.30000
     40612 MEOH     2441     MEOH     DC1      DRUD    -2.454100        0.4000           0   0.00000   0.00000
     40613 MEOH     2441     MEOH     O1       OD31H    2.488300       15.5990           0   -1.02800   1.30000
     40614 MEOH     2441     MEOH     DO1      DRUD    -2.488300        0.4000           0   0.00000   0.00000
     40615 MEOH     2441     MEOH     HO1      HDP1A    0.360000        1.0080           0   0.00000   0.00000
     40616 MEOH     2441     MEOH     HO2      DUMH     0.000000        1.0080           0   0.00000   0.00000
     40617 MEOH     2441     MEOH     H1A      HDA3B    0.080000        1.0080           0   0.00000   0.00000
     40618 MEOH     2441     MEOH     H1B      HDA3B    0.080000        1.0080           0   0.00000   0.00000
     40619 MEOH     2441     MEOH     H1C      HDA3B    0.080000        1.0080           0   0.00000   0.00000
     40620 MEOH     2441     MEOH     LP1A     LPD     -0.230000        0.0000           -1   0.00000   0.00000
     40621 MEOH     2441     MEOH     LP1B     LPD     -0.230000        0.0000           -1   0.00000   0.00000
     40622 MEOH     2442     MEOH     C1       CD33B    2.314100       11.6110           0   -1.00000   1.30000
     40623 MEOH     2442     MEOH     DC1      DRUD    -2.454100        0.4000           0   0.00000   0.00000
     40624 MEOH     2442     MEOH     O1       OD31H    2.488300       15.5990           0   -1.02800   1.30000
     40625 MEOH     2442     MEOH     DO1      DRUD    -2.488300        0.4000           0   0.00000   0.00000
     40626 MEOH     2442     MEOH     HO1      HDP1A    0.360000        1.0080           0   0.00000   0.00000
     40627 MEOH     2442     MEOH     HO2      DUMH     0.000000        1.0080           0   0.00000   0.00000
     40628 MEOH     2442     MEOH     H1A      HDA3B    0.080000        1.0080           0   0.00000   0.00000
     40629 MEOH     2442     MEOH     H1B      HDA3B    0.080000        1.0080           0   0.00000   0.00000
     40630 MEOH     2442     MEOH     H1C      HDA3B    0.080000        1.0080           0   0.00000   0.00000
     40631 MEOH     2442     MEOH     LP1A     LPD     -0.230000        0.0000           -1   0.00000   0.00000
     40632 MEOH     2442     MEOH     LP1B     LPD     -0.230000        0.0000           -1   0.00000   0.00000
     40633 MEOH     2443     MEOH     C1       CD33B    2.314100       11.6110           0   -1.00000   1.30000
     40634 MEOH     2443     MEOH     DC1      DRUD    -2.454100        0.4000           0   0.00000   0.00000
     40635 MEOH     2443     MEOH     O1       OD31H    2.488300       15.5990           0   -1.02800   1.30000
     40636 MEOH     2443     MEOH     DO1      DRUD    -2.488300        0.4000           0   0.00000   0.00000
     40637 MEOH     2443     MEOH     HO1      HDP1A    0.360000        1.0080           0   0.00000   0.00000
     40638 MEOH     2443     MEOH     HO2      DUMH     0.000000        1.0080           0   0.00000   0.00000
     40639 MEOH     2443     MEOH     H1A      HDA3B    0.080000        1.0080           0   0.00000   0.00000
     40640 MEOH     2443     MEOH     H1B      HDA3B    0.080000        1.0080           0   0.00000   0.00000
     40641 MEOH     2443     MEOH     H1C      HDA3B    0.080000        1.0080           0   0.00000   0.00000
     40642 MEOH     2443     MEOH     LP1A     LPD     -0.230000        0.0000           -1   0.00000   0.00000
     40643 MEOH     2443     MEOH     LP1B     LPD     -0.230000        0.0000           -1   0.00000   0.00000
     40644 MEOH     2444     MEOH     C1       CD33B    2.314100       11.6110           0   -1.00000   1.30000
     40645 MEOH     2444     MEOH     DC1      DRUD    -2.454100        0.4000           0   0.00000   0.00000
     40646 MEOH     2444     MEOH     O1       OD31H    2.488300       15.5990           0   -1.02800   1.30000
     40647 MEOH     2444     MEOH     DO1      DRUD    -2.488300        0.4000           0   0.00000   0.00000
     40648 MEOH     2444     MEOH     HO1      HDP1A    0.360000        1.0080           0   0.00000   0.00000
     40649 MEOH     2444     MEOH     HO2      DUMH     0.000000        1.0080           0   0.00000   0.00000
     40650 MEOH     2444     MEOH     H1A      HDA3B    0.080000        1.0080           0   0.00000   0.00000
     40651 MEOH     2444     MEOH     H1B      HDA3B    0.080000        1.0080           0   0.00000   0.00000
     40652 MEOH     2444     MEOH     H1C      HDA3B    0.080000        1.0080           0   0.00000   0.00000
     40653 MEOH     2444     MEOH     LP1A     LPD     -0.230000        0.0000           -1   0.00000   0.00000
     40654 MEOH     2444     MEOH     LP1B     LPD     -0.230000        0.0000           -1   0.00000   0.00000
     40655 MEOH     2445     MEOH     C1       CD33B    2.314100       11.6110           0   -1.00000   1.30000
     40656 MEOH     2445     MEOH     DC1      DRUD    -2.454100        0.4000           0   0.00000   0.00000
     40657 MEOH     2445     MEOH     O1       OD31H    2.488300       15.5990           0   -1.02800   1.30000
     40658 MEOH     2445     MEOH     DO1      DRUD    -2.488300        0.4000           0   0.00000   0.00000
     40659 MEOH     2445     MEOH     HO1      HDP1A    0.360000        1.0080           0   0.00000   0.00000
     40660 MEOH     2445     MEOH     HO2      DUMH     0.000000        1.0080           0   0.00000   0.00000
     40661 MEOH     2445     MEOH     H1A      HDA3B    0.080000        1.0080           0   0.00000   0.00000
     40662 MEOH     2445     MEOH     H1B      HDA3B    0.080000        1.0080           0   0.00000   0.00000
     40663 MEOH     2445     MEOH     H1C      HDA3B    0.080000        1.0080           0   0.00000   0.00000
     40664 MEOH     2445     MEOH     LP1A     LPD     -0.230000        0.0000           -1   0.00000   0.00000
     40665 MEOH     2445     MEOH     LP1B     LPD     -0.230000        0.0000           -1   0.00000   0.00000
     40666 MEOH     2446     MEOH     C1       CD33B    2.314100       11.6110           0   -1.00000   1.30000
     40667 MEOH     2446     MEOH     DC1      DRUD    -2.454100        0.4000           0   0.00000   0.00000
     40668 MEOH     2446     MEOH     O1       OD31H    2.488300       15.5990           0   -1.02800   1.30000
     40669 MEOH     2446     MEOH     DO1      DRUD    -2.488300        0.4000           0   0.00000   0.00000
     40670 MEOH     2446     MEOH     HO1      HDP1A    0.360000        1.0080           0   0.00000   0.00000
     40671 MEOH     2446     MEOH     HO2      DUMH     0.000000        1.0080           0   0.00000   0.00000
     40672 MEOH     2446     MEOH     H1A      HDA3B    0.080000        1.0080           0   0.00000   0.00000
     40673 MEOH     2446     MEOH     H1B      HDA3B    0.080000        1.0080           0   0.00000   0.00000
     40674 MEOH     2446     MEOH     H1C      HDA3B    0.080000        1.0080           0   0.00000   0.00000
     40675 MEOH     2446     MEOH     LP1A     LPD     -0.230000        0.0000           -1   0.00000   0.00000
     40676 MEOH     2446     MEOH     LP1B     LPD     -0.230000        0.0000           -1   0.00000   0.00000
     40677 MEOH     2447     MEOH     C1       CD33B    2.314100       11.6110           0   -1.00000   1.30000
     40678 MEOH     2447     MEOH     DC1      DRUD    -2.454100        0.4000           0   0.00000   0.00000
     40679 MEOH     2447     MEOH     O1       OD31H    2.488300       15.5990           0   -1.02800   1.30000
     40680 MEOH     2447     MEOH     DO1      DRUD    -2.488300        0.4000           0   0.00000   0.00000
     40681 MEOH     2447     MEOH     HO1      HDP1A    0.360000        1.0080           0   0.00000   0.00000
     40682 MEOH     2447     MEOH     HO2      DUMH     0.000000        1.0080           0   0.00000   0.00000
     40683 MEOH     2447     MEOH     H1A      HDA3B    0.080000        1.0080           0   0.00000   0.00000
     40684 MEOH     2447     MEOH     H1B      HDA3B    0.080000        1.0080           0   0.00000   0.00000
     40685 MEOH     2447     MEOH     H1C      HDA3B    0.080000        1.0080           0   0.00000   0.00000
     40686 MEOH     2447     MEOH     LP1A     LPD     -0.230000        0.0000           -1   0.00000   0.00000
     40687 MEOH     2447     MEOH     LP1B     LPD     -0.230000        0.0000           -1   0.00000   0.00000
     40688 MEOH     2448     MEOH     C1       CD33B    2.314100       11.6110           0   -1.00000   1.30000
     40689 MEOH     2448     MEOH     DC1      DRUD    -2.454100        0.4000           0   0.00000   0.00000
     40690 MEOH     2448     MEOH     O1       OD31H    2.488300       15.5990           0   -1.02800   1.30000
     40691 MEOH     2448     MEOH     DO1      DRUD    -2.488300        0.4000           0   0.00000   0.00000
     40692 MEOH     2448     MEOH     HO1      HDP1A    0.360000        1.0080           0   0.00000   0.00000
     40693 MEOH     2448     MEOH     HO2      DUMH     0.000000        1.0080           0   0.00000   0.00000
     40694 MEOH     2448     MEOH     H1A      HDA3B    0.080000        1.0080           0   0.00000   0.00000
     40695 MEOH     2448     MEOH     H1B      HDA3B    0.080000        1.0080           0   0.00000   0.00000
     40696 MEOH     2448     MEOH     H1C      HDA3B    0.080000        1.0080           0   0.00000   0.00000
     40697 MEOH     2448     MEOH     LP1A     LPD     -0.230000        0.0000           -1   0.00000   0.00000
     40698 MEOH     2448     MEOH     LP1B     LPD     -0.230000        0.0000           -1   0.00000   0.00000
     40699 MEOH     2449     MEOH     C1       CD33B    2.314100       11.6110           0   -1.00000   1.30000
     40700 MEOH     2449     MEOH     DC1      DRUD    -2.454100        0.4000           0   0.00000   0.00000
     40701 MEOH     2449     MEOH     O1       OD31H    2.488300       15.5990           0   -1.02800   1.30000
     40702 MEOH     2449     MEOH     DO1      DRUD    -2.488300        0.4000           0   0.00000   0.00000
     40703 MEOH     2449     MEOH     HO1      HDP1A    0.360000        1.0080           0   0.00000   0.00000
     40704 MEOH     2449     MEOH     HO2      DUMH     0.000000        1.0080           0   0.00000   0.00000
     40705 MEOH     2449     MEOH     H1A      HDA3B    0.080000        1.0080           0   0.00000   0.00000
     40706 MEOH     2449     MEOH     H1B      HDA3B    0.080000        1.0080           0   0.00000   0.00000
     40707 MEOH     2449     MEOH     H1C      HDA3B    0.080000        1.0080           0   0.00000   0.00000
     40708 MEOH     2449     MEOH     LP1A     LPD     -0.230000        0.0000           -1   0.00000   0.00000
     40709 MEOH     2449     MEOH     LP1B     LPD     -0.230000        0.0000           -1   0.00000   0.00000
     40710 MEOH     2450     MEOH     C1       CD33B    2.314100       11.6110           0   -1.00000   1.30000
     40711 MEOH     2450     MEOH     DC1      DRUD    -2.454100        0.4000           0   0.00000   0.00000
     40712 MEOH     2450     MEOH     O1       OD31H    2.488300       15.5990           0   -1.02800   1.30000
     40713 MEOH     2450     MEOH     DO1      DRUD    -2.488300        0.4000           0   0.00000   0.00000
     40714 MEOH     2450     MEOH     HO1      HDP1A    0.360000        1.0080           0   0.00000   0.00000
     40715 MEOH     2450     MEOH     HO2      DUMH     0.000000        1.0080           0   0.00000   0.00000
     40716 MEOH     2450     MEOH     H1A      HDA3B    0.080000        1.0080           0   0.00000   0.00000
     40717 MEOH     2450     MEOH     H1B      HDA3B    0.080000        1.0080           0   0.00000   0.00000
     40718 MEOH     2450     MEOH     H1C      HDA3B    0.080000        1.0080           0   0.00000   0.00000
     40719 MEOH     2450     MEOH     LP1A     LPD     -0.230000        0.0000           -1   0.00000   0.00000
     40720 MEOH     2450     MEOH     LP1B     LPD     -0.230000        0.0000           -1   0.00000   0.00000
     40721 MEOH     2451     MEOH     C1       CD33B    2.314100       11.6110           0   -1.00000   1.30000
     40722 MEOH     2451     MEOH     DC1      DRUD    -2.454100        0.4000           0   0.00000   0.00000
     40723 MEOH     2451     MEOH     O1       OD31H    2.488300       15.5990           0   -1.02800   1.30000
     40724 MEOH     2451     MEOH     DO1      DRUD    -2.488300        0.4000           0   0.00000   0.00000
     40725 MEOH     2451     MEOH     HO1      HDP1A    0.360000        1.0080           0   0.00000   0.00000
     40726 MEOH     2451     MEOH     HO2      DUMH     0.000000        1.0080           0   0.00000   0.00000
     40727 MEOH     2451     MEOH     H1A      HDA3B    0.080000        1.0080           0   0.00000   0.00000
     40728 MEOH     2451     MEOH     H1B      HDA3B    0.080000        1.0080           0   0.00000   0.00000
     40729 MEOH     2451     MEOH     H1C      HDA3B    0.080000        1.0080           0   0.00000   0.00000
     40730 MEOH     2451     MEOH     LP1A     LPD     -0.230000        0.0000           -1   0.00000   0.00000
     40731 MEOH     2451     MEOH     LP1B     LPD     -0.230000        0.0000           -1   0.00000   0.00000
     40732 MEOH     2452     MEOH     C1       CD33B    2.314100       11.6110           0   -1.00000   1.30000
     40733 MEOH     2452     MEOH     DC1      DRUD    -2.454100        0.4000           0   0.00000   0.00000
     40734 MEOH     2452     MEOH     O1       OD31H    2.488300       15.5990           0   -1.02800   1.30000
     40735 MEOH     2452     MEOH     DO1      DRUD    -2.488300        0.4000           0   0.00000   0.00000
     40736 MEOH     2452     MEOH     HO1      HDP1A    0.360000        1.0080           0   0.00000   0.00000
     40737 MEOH     2452     MEOH     HO2      DUMH     0.000000        1.0080           0   0.00000   0.00000
     40738 MEOH     2452     MEOH     H1A      HDA3B    0.080000        1.0080           0   0.00000   0.00000
     40739 MEOH     2452     MEOH     H1B      HDA3B    0.080000        1.0080           0   0.00000   0.00000
     40740 MEOH     2452     MEOH     H1C      HDA3B    0.080000        1.0080           0   0.00000   0.00000
     40741 MEOH     2452     MEOH     LP1A     LPD     -0.230000        0.0000           -1   0.00000   0.00000
     40742 MEOH     2452     MEOH     LP1B     LPD     -0.230000        0.0000           -1   0.00000   0.00000
     40743 MEOH     2453     MEOH     C1       CD33B    2.314100       11.6110           0   -1.00000   1.30000
     40744 MEOH     2453     MEOH     DC1      DRUD    -2.454100        0.4000           0   0.00000   0.00000
     40745 MEOH     2453     MEOH     O1       OD31H    2.488300       15.5990           0   -1.02800   1.30000
     40746 MEOH     2453     MEOH     DO1      DRUD    -2.488300        0.4000           0   0.00000   0.00000
     40747 MEOH     2453     MEOH     HO1      HDP1A    0.360000        1.0080           0   0.00000   0.00000
     40748 MEOH     2453     MEOH     HO2      DUMH     0.000000        1.0080           0   0.00000   0.00000
     40749 MEOH     2453     MEOH     H1A      HDA3B    0.080000        1.0080           0   0.00000   0.00000
     40750 MEOH     2453     MEOH     H1B      HDA3B    0.080000        1.0080           0   0.00000   0.00000
     40751 MEOH     2453     MEOH     H1C      HDA3B    0.080000        1.0080           0   0.00000   0.00000
     40752 MEOH     2453     MEOH     LP1A     LPD     -0.230000        0.0000           -1   0.00000   0.00000
     40753 MEOH     2453     MEOH     LP1B     LPD     -0.230000        0.0000           -1   0.00000   0.00000
     40754 MEOH     2454     MEOH     C1       CD33B    2.314100       11.6110           0   -1.00000   1.30000
     40755 MEOH     2454     MEOH     DC1      DRUD    -2.454100        0.4000           0   0.00000   0.00000
     40756 MEOH     2454     MEOH     O1       OD31H    2.488300       15.5990           0   -1.02800   1.30000
     40757 MEOH     2454     MEOH     DO1      DRUD    -2.488300        0.4000           0   0.00000   0.00000
     40758 MEOH     2454     MEOH     HO1      HDP1A    0.360000        1.0080           0   0.00000   0.00000
     40759 MEOH     2454     MEOH     HO2      DUMH     0.000000        1.0080           0   0.00000   0.00000
     40760 MEOH     2454     MEOH     H1A      HDA3B    0.080000        1.0080           0   0.00000   0.00000
     40761 MEOH     2454     MEOH     H1B      HDA3B    0.080000        1.0080           0   0.00000   0.00000
     40762 MEOH     2454     MEOH     H1C      HDA3B    0.080000        1.0080           0   0.00000   0.00000
     40763 MEOH     2454     MEOH     LP1A     LPD     -0.230000        0.0000           -1   0.00000   0.00000
     40764 MEOH     2454     MEOH     LP1B     LPD     -0.230000        0.0000           -1   0.00000   0.00000
     40765 MEOH     2455     MEOH     C1       CD33B    2.314100       11.6110           0   -1.00000   1.30000
     40766 MEOH     2455     MEOH     DC1      DRUD    -2.454100        0.4000           0   0.00000   0.00000
     40767 MEOH     2455     MEOH     O1       OD31H    2.488300       15.5990           0   -1.02800   1.30000
     40768 MEOH     2455     MEOH     DO1      DRUD    -2.488300        0.4000           0   0.00000   0.00000
     40769 MEOH     2455     MEOH     HO1      HDP1A    0.360000        1.0080           0   0.00000   0.00000
     40770 MEOH     2455     MEOH     HO2      DUMH     0.000000        1.0080           0   0.00000   0.00000
     40771 MEOH     2455     MEOH     H1A      HDA3B    0.080000        1.0080           0   0.00000   0.00000
     40772 MEOH     2455     MEOH     H1B      HDA3B    0.080000        1.0080           0   0.00000   0.00000
     40773 MEOH     2455     MEOH     H1C      HDA3B    0.080000        1.0080           0   0.00000   0.00000
     40774 MEOH     2455     MEOH     LP1A     LPD     -0.230000        0.0000           -1   0.00000   0.00000
     40775 MEOH     2455     MEOH     LP1B     LPD     -0.230000        0.0000           -1   0.00000   0.00000
     40776 MEOH     2456     MEOH     C1       CD33B    2.314100       11.6110           0   -1.00000   1.30000
     40777 MEOH     2456     MEOH     DC1      DRUD    -2.454100        0.4000           0   0.00000   0.00000
     40778 MEOH     2456     MEOH     O1       OD31H    2.488300       15.5990           0   -1.02800   1.30000
     40779 MEOH     2456     MEOH     DO1      DRUD    -2.488300        0.4000           0   0.00000   0.00000
     40780 MEOH     2456     MEOH     HO1      HDP1A    0.360000        1.0080           0   0.00000   0.00000
     40781 MEOH     2456     MEOH     HO2      DUMH     0.000000        1.0080           0   0.00000   0.00000
     40782 MEOH     2456     MEOH     H1A      HDA3B    0.080000        1.0080           0   0.00000   0.00000
     40783 MEOH     2456     MEOH     H1B      HDA3B    0.080000        1.0080           0   0.00000   0.00000
     40784 MEOH     2456     MEOH     H1C      HDA3B    0.080000        1.0080           0   0.00000   0.00000
     40785 MEOH     2456     MEOH     LP1A     LPD     -0.230000        0.0000           -1   0.00000   0.00000
     40786 MEOH     2456     MEOH     LP1B     LPD     -0.230000        0.0000           -1   0.00000   0.00000
     40787 MEOH     2457     MEOH     C1       CD33B    2.314100       11.6110           0   -1.00000   1.30000
     40788 MEOH     2457     MEOH     DC1      DRUD    -2.454100        0.4000           0   0.00000   0.00000
     40789 MEOH     2457     MEOH     O1       OD31H    2.488300       15.5990           0   -1.02800   1.30000
     40790 MEOH     2457     MEOH     DO1      DRUD    -2.488300        0.4000           0   0.00000   0.00000
     40791 MEOH     2457     MEOH     HO1      HDP1A    0.360000        1.0080           0   0.00000   0.00000
     40792 MEOH     2457     MEOH     HO2      DUMH     0.000000        1.0080           0   0.00000   0.00000
     40793 MEOH     2457     MEOH     H1A      HDA3B    0.080000        1.0080           0   0.00000   0.00000
     40794 MEOH     2457     MEOH     H1B      HDA3B    0.080000        1.0080           0   0.00000   0.00000
     40795 MEOH     2457     MEOH     H1C      HDA3B    0.080000        1.0080           0   0.00000   0.00000
     40796 MEOH     2457     MEOH     LP1A     LPD     -0.230000        0.0000           -1   0.00000   0.00000
     40797 MEOH     2457     MEOH     LP1B     LPD     -0.230000        0.0000           -1   0.00000   0.00000
     40798 MEOH     2458     MEOH     C1       CD33B    2.314100       11.6110           0   -1.00000   1.30000
     40799 MEOH     2458     MEOH     DC1      DRUD    -2.454100        0.4000           0   0.00000   0.00000
     40800 MEOH     2458     MEOH     O1       OD31H    2.488300       15.5990           0   -1.02800   1.30000
     40801 MEOH     2458     MEOH     DO1      DRUD    -2.488300        0.4000           0   0.00000   0.00000
     40802 MEOH     2458     MEOH     HO1      HDP1A    0.360000        1.0080           0   0.00000   0.00000
     40803 MEOH     2458     MEOH     HO2      DUMH     0.000000        1.0080           0   0.00000   0.00000
     40804 MEOH     2458     MEOH     H1A      HDA3B    0.080000        1.0080           0   0.00000   0.00000
     40805 MEOH     2458     MEOH     H1B      HDA3B    0.080000        1.0080           0   0.00000   0.00000
     40806 MEOH     2458     MEOH     H1C      HDA3B    0.080000        1.0080           0   0.00000   0.00000
     40807 MEOH     2458     MEOH     LP1A     LPD     -0.230000        0.0000           -1   0.00000   0.00000
     40808 MEOH     2458     MEOH     LP1B     LPD     -0.230000        0.0000           -1   0.00000   0.00000
     40809 MEOH     2459     MEOH     C1       CD33B    2.314100       11.6110           0   -1.00000   1.30000
     40810 MEOH     2459     MEOH     DC1      DRUD    -2.454100        0.4000           0   0.00000   0.00000
     40811 MEOH     2459     MEOH     O1       OD31H    2.488300       15.5990           0   -1.02800   1.30000
     40812 MEOH     2459     MEOH     DO1      DRUD    -2.488300        0.4000           0   0.00000   0.00000
     40813 MEOH     2459     MEOH     HO1      HDP1A    0.360000        1.0080           0   0.00000   0.00000
     40814 MEOH     2459     MEOH     HO2      DUMH     0.000000        1.0080           0   0.00000   0.00000
     40815 MEOH     2459     MEOH     H1A      HDA3B    0.080000        1.0080           0   0.00000   0.00000
     40816 MEOH     2459     MEOH     H1B      HDA3B    0.080000        1.0080           0   0.00000   0.00000
     40817 MEOH     2459     MEOH     H1C      HDA3B    0.080000        1.0080           0   0.00000   0.00000
     40818 MEOH     2459     MEOH     LP1A     LPD     -0.230000        0.0000           -1   0.00000   0.00000
     40819 MEOH     2459     MEOH     LP1B     LPD     -0.230000        0.0000           -1   0.00000   0.00000
     40820 MEOH     2460     MEOH     C1       CD33B    2.314100       11.6110           0   -1.00000   1.30000
     40821 MEOH     2460     MEOH     DC1      DRUD    -2.454100        0.4000           0   0.00000   0.00000
     40822 MEOH     2460     MEOH     O1       OD31H    2.488300       15.5990           0   -1.02800   1.30000
     40823 MEOH     2460     MEOH     DO1      DRUD    -2.488300        0.4000           0   0.00000   0.00000
     40824 MEOH     2460     MEOH     HO1      HDP1A    0.360000        1.0080           0   0.00000   0.00000
     40825 MEOH     2460     MEOH     HO2      DUMH     0.000000        1.0080           0   0.00000   0.00000
     40826 MEOH     2460     MEOH     H1A      HDA3B    0.080000        1.0080           0   0.00000   0.00000
     40827 MEOH     2460     MEOH     H1B      HDA3B    0.080000        1.0080           0   0.00000   0.00000
     40828 MEOH     2460     MEOH     H1C      HDA3B    0.080000        1.0080           0   0.00000   0.00000
     40829 MEOH     2460     MEOH     LP1A     LPD     -0.230000        0.0000           -1   0.00000   0.00000
     40830 MEOH     2460     MEOH     LP1B     LPD     -0.230000        0.0000           -1   0.00000   0.00000
     40831 MEOH     2461     MEOH     C1       CD33B    2.314100       11.6110           0   -1.00000   1.30000
     40832 MEOH     2461     MEOH     DC1      DRUD    -2.454100        0.4000           0   0.00000   0.00000
     40833 MEOH     2461     MEOH     O1       OD31H    2.488300       15.5990           0   -1.02800   1.30000
     40834 MEOH     2461     MEOH     DO1      DRUD    -2.488300        0.4000           0   0.00000   0.00000
     40835 MEOH     2461     MEOH     HO1      HDP1A    0.360000        1.0080           0   0.00000   0.00000
     40836 MEOH     2461     MEOH     HO2      DUMH     0.000000        1.0080           0   0.00000   0.00000
     40837 MEOH     2461     MEOH     H1A      HDA3B    0.080000        1.0080           0   0.00000   0.00000
     40838 MEOH     2461     MEOH     H1B      HDA3B    0.080000        1.0080           0   0.00000   0.00000
     40839 MEOH     2461     MEOH     H1C      HDA3B    0.080000        1.0080           0   0.00000   0.00000
     40840 MEOH     2461     MEOH     LP1A     LPD     -0.230000        0.0000           -1   0.00000   0.00000
     40841 MEOH     2461     MEOH     LP1B     LPD     -0.230000        0.0000           -1   0.00000   0.00000
     40842 MEOH     2462     MEOH     C1       CD33B    2.314100       11.6110           0   -1.00000   1.30000
     40843 MEOH     2462     MEOH     DC1      DRUD    -2.454100        0.4000           0   0.00000   0.00000
     40844 MEOH     2462     MEOH     O1       OD31H    2.488300       15.5990           0   -1.02800   1.30000
     40845 MEOH     2462     MEOH     DO1      DRUD    -2.488300        0.4000           0   0.00000   0.00000
     40846 MEOH     2462     MEOH     HO1      HDP1A    0.360000        1.0080           0   0.00000   0.00000
     40847 MEOH     2462     MEOH     HO2      DUMH     0.000000        1.0080           0   0.00000   0.00000
     40848 MEOH     2462     MEOH     H1A      HDA3B    0.080000        1.0080           0   0.00000   0.00000
     40849 MEOH     2462     MEOH     H1B      HDA3B    0.080000        1.0080           0   0.00000   0.00000
     40850 MEOH     2462     MEOH     H1C      HDA3B    0.080000        1.0080           0   0.00000   0.00000
     40851 MEOH     2462     MEOH     LP1A     LPD     -0.230000        0.0000           -1   0.00000   0.00000
     40852 MEOH     2462     MEOH     LP1B     LPD     -0.230000        0.0000           -1   0.00000   0.00000
     40853 MEOH     2463     MEOH     C1       CD33B    2.314100       11.6110           0   -1.00000   1.30000
     40854 MEOH     2463     MEOH     DC1      DRUD    -2.454100        0.4000           0   0.00000   0.00000
     40855 MEOH     2463     MEOH     O1       OD31H    2.488300       15.5990           0   -1.02800   1.30000
     40856 MEOH     2463     MEOH     DO1      DRUD    -2.488300        0.4000           0   0.00000   0.00000
     40857 MEOH     2463     MEOH     HO1      HDP1A    0.360000        1.0080           0   0.00000   0.00000
     40858 MEOH     2463     MEOH     HO2      DUMH     0.000000        1.0080           0   0.00000   0.00000
     40859 MEOH     2463     MEOH     H1A      HDA3B    0.080000        1.0080           0   0.00000   0.00000
     40860 MEOH     2463     MEOH     H1B      HDA3B    0.080000        1.0080           0   0.00000   0.00000
     40861 MEOH     2463     MEOH     H1C      HDA3B    0.080000        1.0080           0   0.00000   0.00000
     40862 MEOH     2463     MEOH     LP1A     LPD     -0.230000        0.0000           -1   0.00000   0.00000
     40863 MEOH     2463     MEOH     LP1B     LPD     -0.230000        0.0000           -1   0.00000   0.00000
     40864 MEOH     2464     MEOH     C1       CD33B    2.314100       11.6110           0   -1.00000   1.30000
     40865 MEOH     2464     MEOH     DC1      DRUD    -2.454100        0.4000           0   0.00000   0.00000
     40866 MEOH     2464     MEOH     O1       OD31H    2.488300       15.5990           0   -1.02800   1.30000
     40867 MEOH     2464     MEOH     DO1      DRUD    -2.488300        0.4000           0   0.00000   0.00000
     40868 MEOH     2464     MEOH     HO1      HDP1A    0.360000        1.0080           0   0.00000   0.00000
     40869 MEOH     2464     MEOH     HO2      DUMH     0.000000        1.0080           0   0.00000   0.00000
     40870 MEOH     2464     MEOH     H1A      HDA3B    0.080000        1.0080           0   0.00000   0.00000
     40871 MEOH     2464     MEOH     H1B      HDA3B    0.080000        1.0080           0   0.00000   0.00000
     40872 MEOH     2464     MEOH     H1C      HDA3B    0.080000        1.0080           0   0.00000   0.00000
     40873 MEOH     2464     MEOH     LP1A     LPD     -0.230000        0.0000           -1   0.00000   0.00000
     40874 MEOH     2464     MEOH     LP1B     LPD     -0.230000        0.0000           -1   0.00000   0.00000
     40875 MEOH     2465     MEOH     C1       CD33B    2.314100       11.6110           0   -1.00000   1.30000
     40876 MEOH     2465     MEOH     DC1      DRUD    -2.454100        0.4000           0   0.00000   0.00000
     40877 MEOH     2465     MEOH     O1       OD31H    2.488300       15.5990           0   -1.02800   1.30000
     40878 MEOH     2465     MEOH     DO1      DRUD    -2.488300        0.4000           0   0.00000   0.00000
     40879 MEOH     2465     MEOH     HO1      HDP1A    0.360000        1.0080           0   0.00000   0.00000
     40880 MEOH     2465     MEOH     HO2      DUMH     0.000000        1.0080           0   0.00000   0.00000
     40881 MEOH     2465     MEOH     H1A      HDA3B    0.080000        1.0080           0   0.00000   0.00000
     40882 MEOH     2465     MEOH     H1B      HDA3B    0.080000        1.0080           0   0.00000   0.00000
     40883 MEOH     2465     MEOH     H1C      HDA3B    0.080000        1.0080           0   0.00000   0.00000
     40884 MEOH     2465     MEOH     LP1A     LPD     -0.230000        0.0000           -1   0.00000   0.00000
     40885 MEOH     2465     MEOH     LP1B     LPD     -0.230000        0.0000           -1   0.00000   0.00000
     40886 MEOH     2466     MEOH     C1       CD33B    2.314100       11.6110           0   -1.00000   1.30000
     40887 MEOH     2466     MEOH     DC1      DRUD    -2.454100        0.4000           0   0.00000   0.00000
     40888 MEOH     2466     MEOH     O1       OD31H    2.488300       15.5990           0   -1.02800   1.30000
     40889 MEOH     2466     MEOH     DO1      DRUD    -2.488300        0.4000           0   0.00000   0.00000
     40890 MEOH     2466     MEOH     HO1      HDP1A    0.360000        1.0080           0   0.00000   0.00000
     40891 MEOH     2466     MEOH     HO2      DUMH     0.000000        1.0080           0   0.00000   0.00000
     40892 MEOH     2466     MEOH     H1A      HDA3B    0.080000        1.0080           0   0.00000   0.00000
     40893 MEOH     2466     MEOH     H1B      HDA3B    0.080000        1.0080           0   0.00000   0.00000
     40894 MEOH     2466     MEOH     H1C      HDA3B    0.080000        1.0080           0   0.00000   0.00000
     40895 MEOH     2466     MEOH     LP1A     LPD     -0.230000        0.0000           -1   0.00000   0.00000
     40896 MEOH     2466     MEOH     LP1B     LPD     -0.230000        0.0000           -1   0.00000   0.00000
     40897 MEOH     2467     MEOH     C1       CD33B    2.314100       11.6110           0   -1.00000   1.30000
     40898 MEOH     2467     MEOH     DC1      DRUD    -2.454100        0.4000           0   0.00000   0.00000
     40899 MEOH     2467     MEOH     O1       OD31H    2.488300       15.5990           0   -1.02800   1.30000
     40900 MEOH     2467     MEOH     DO1      DRUD    -2.488300        0.4000           0   0.00000   0.00000
     40901 MEOH     2467     MEOH     HO1      HDP1A    0.360000        1.0080           0   0.00000   0.00000
     40902 MEOH     2467     MEOH     HO2      DUMH     0.000000        1.0080           0   0.00000   0.00000
     40903 MEOH     2467     MEOH     H1A      HDA3B    0.080000        1.0080           0   0.00000   0.00000
     40904 MEOH     2467     MEOH     H1B      HDA3B    0.080000        1.0080           0   0.00000   0.00000
     40905 MEOH     2467     MEOH     H1C      HDA3B    0.080000        1.0080           0   0.00000   0.00000
     40906 MEOH     2467     MEOH     LP1A     LPD     -0.230000        0.0000           -1   0.00000   0.00000
     40907 MEOH     2467     MEOH     LP1B     LPD     -0.230000        0.0000           -1   0.00000   0.00000
     40908 MEOH     2468     MEOH     C1       CD33B    2.314100       11.6110           0   -1.00000   1.30000
     40909 MEOH     2468     MEOH     DC1      DRUD    -2.454100        0.4000           0   0.00000   0.00000
     40910 MEOH     2468     MEOH     O1       OD31H    2.488300       15.5990           0   -1.02800   1.30000
     40911 MEOH     2468     MEOH     DO1      DRUD    -2.488300        0.4000           0   0.00000   0.00000
     40912 MEOH     2468     MEOH     HO1      HDP1A    0.360000        1.0080           0   0.00000   0.00000
     40913 MEOH     2468     MEOH     HO2      DUMH     0.000000        1.0080           0   0.00000   0.00000
     40914 MEOH     2468     MEOH     H1A      HDA3B    0.080000        1.0080           0   0.00000   0.00000
     40915 MEOH     2468     MEOH     H1B      HDA3B    0.080000        1.0080           0   0.00000   0.00000
     40916 MEOH     2468     MEOH     H1C      HDA3B    0.080000        1.0080           0   0.00000   0.00000
     40917 MEOH     2468     MEOH     LP1A     LPD     -0.230000        0.0000           -1   0.00000   0.00000
     40918 MEOH     2468     MEOH     LP1B     LPD     -0.230000        0.0000           -1   0.00000   0.00000
     40919 MEOH     2469     MEOH     C1       CD33B    2.314100       11.6110           0   -1.00000   1.30000
     40920 MEOH     2469     MEOH     DC1      DRUD    -2.454100        0.4000           0   0.00000   0.00000
     40921 MEOH     2469     MEOH     O1       OD31H    2.488300       15.5990           0   -1.02800   1.30000
     40922 MEOH     2469     MEOH     DO1      DRUD    -2.488300        0.4000           0   0.00000   0.00000
     40923 MEOH     2469     MEOH     HO1      HDP1A    0.360000        1.0080           0   0.00000   0.00000
     40924 MEOH     2469     MEOH     HO2      DUMH     0.000000        1.0080           0   0.00000   0.00000
     40925 MEOH     2469     MEOH     H1A      HDA3B    0.080000        1.0080           0   0.00000   0.00000
     40926 MEOH     2469     MEOH     H1B      HDA3B    0.080000        1.0080           0   0.00000   0.00000
     40927 MEOH     2469     MEOH     H1C      HDA3B    0.080000        1.0080           0   0.00000   0.00000
     40928 MEOH     2469     MEOH     LP1A     LPD     -0.230000        0.0000           -1   0.00000   0.00000
     40929 MEOH     2469     MEOH     LP1B     LPD     -0.230000        0.0000           -1   0.00000   0.00000
     40930 MEOH     2470     MEOH     C1       CD33B    2.314100       11.6110           0   -1.00000   1.30000
     40931 MEOH     2470     MEOH     DC1      DRUD    -2.454100        0.4000           0   0.00000   0.00000
     40932 MEOH     2470     MEOH     O1       OD31H    2.488300       15.5990           0   -1.02800   1.30000
     40933 MEOH     2470     MEOH     DO1      DRUD    -2.488300        0.4000           0   0.00000   0.00000
     40934 MEOH     2470     MEOH     HO1      HDP1A    0.360000        1.0080           0   0.00000   0.00000
     40935 MEOH     2470     MEOH     HO2      DUMH     0.000000        1.0080           0   0.00000   0.00000
     40936 MEOH     2470     MEOH     H1A      HDA3B    0.080000        1.0080           0   0.00000   0.00000
     40937 MEOH     2470     MEOH     H1B      HDA3B    0.080000        1.0080           0   0.00000   0.00000
     40938 MEOH     2470     MEOH     H1C      HDA3B    0.080000        1.0080           0   0.00000   0.00000
     40939 MEOH     2470     MEOH     LP1A     LPD     -0.230000        0.0000           -1   0.00000   0.00000
     40940 MEOH     2470     MEOH     LP1B     LPD     -0.230000        0.0000           -1   0.00000   0.00000
     40941 MEOH     2471     MEOH     C1       CD33B    2.314100       11.6110           0   -1.00000   1.30000
     40942 MEOH     2471     MEOH     DC1      DRUD    -2.454100        0.4000           0   0.00000   0.00000
     40943 MEOH     2471     MEOH     O1       OD31H    2.488300       15.5990           0   -1.02800   1.30000
     40944 MEOH     2471     MEOH     DO1      DRUD    -2.488300        0.4000           0   0.00000   0.00000
     40945 MEOH     2471     MEOH     HO1      HDP1A    0.360000        1.0080           0   0.00000   0.00000
     40946 MEOH     2471     MEOH     HO2      DUMH     0.000000        1.0080           0   0.00000   0.00000
     40947 MEOH     2471     MEOH     H1A      HDA3B    0.080000        1.0080           0   0.00000   0.00000
     40948 MEOH     2471     MEOH     H1B      HDA3B    0.080000        1.0080           0   0.00000   0.00000
     40949 MEOH     2471     MEOH     H1C      HDA3B    0.080000        1.0080           0   0.00000   0.00000
     40950 MEOH     2471     MEOH     LP1A     LPD     -0.230000        0.0000           -1   0.00000   0.00000
     40951 MEOH     2471     MEOH     LP1B     LPD     -0.230000        0.0000           -1   0.00000   0.00000
     40952 MEOH     2472     MEOH     C1       CD33B    2.314100       11.6110           0   -1.00000   1.30000
     40953 MEOH     2472     MEOH     DC1      DRUD    -2.454100        0.4000           0   0.00000   0.00000
     40954 MEOH     2472     MEOH     O1       OD31H    2.488300       15.5990           0   -1.02800   1.30000
     40955 MEOH     2472     MEOH     DO1      DRUD    -2.488300        0.4000           0   0.00000   0.00000
     40956 MEOH     2472     MEOH     HO1      HDP1A    0.360000        1.0080           0   0.00000   0.00000
     40957 MEOH     2472     MEOH     HO2      DUMH     0.000000        1.0080           0   0.00000   0.00000
     40958 MEOH     2472     MEOH     H1A      HDA3B    0.080000        1.0080           0   0.00000   0.00000
     40959 MEOH     2472     MEOH     H1B      HDA3B    0.080000        1.0080           0   0.00000   0.00000
     40960 MEOH     2472     MEOH     H1C      HDA3B    0.080000        1.0080           0   0.00000   0.00000
     40961 MEOH     2472     MEOH     LP1A     LPD     -0.230000        0.0000           -1   0.00000   0.00000
     40962 MEOH     2472     MEOH     LP1B     LPD     -0.230000        0.0000           -1   0.00000   0.00000
     40963 MEOH     2473     MEOH     C1       CD33B    2.314100       11.6110           0   -1.00000   1.30000
     40964 MEOH     2473     MEOH     DC1      DRUD    -2.454100        0.4000           0   0.00000   0.00000
     40965 MEOH     2473     MEOH     O1       OD31H    2.488300       15.5990           0   -1.02800   1.30000
     40966 MEOH     2473     MEOH     DO1      DRUD    -2.488300        0.4000           0   0.00000   0.00000
     40967 MEOH     2473     MEOH     HO1      HDP1A    0.360000        1.0080           0   0.00000   0.00000
     40968 MEOH     2473     MEOH     HO2      DUMH     0.000000        1.0080           0   0.00000   0.00000
     40969 MEOH     2473     MEOH     H1A      HDA3B    0.080000        1.0080           0   0.00000   0.00000
     40970 MEOH     2473     MEOH     H1B      HDA3B    0.080000        1.0080           0   0.00000   0.00000
     40971 MEOH     2473     MEOH     H1C      HDA3B    0.080000        1.0080           0   0.00000   0.00000
     40972 MEOH     2473     MEOH     LP1A     LPD     -0.230000        0.0000           -1   0.00000   0.00000
     40973 MEOH     2473     MEOH     LP1B     LPD     -0.230000        0.0000           -1   0.00000   0.00000
     40974 MEOH     2474     MEOH     C1       CD33B    2.314100       11.6110           0   -1.00000   1.30000
     40975 MEOH     2474     MEOH     DC1      DRUD    -2.454100        0.4000           0   0.00000   0.00000
     40976 MEOH     2474     MEOH     O1       OD31H    2.488300       15.5990           0   -1.02800   1.30000
     40977 MEOH     2474     MEOH     DO1      DRUD    -2.488300        0.4000           0   0.00000   0.00000
     40978 MEOH     2474     MEOH     HO1      HDP1A    0.360000        1.0080           0   0.00000   0.00000
     40979 MEOH     2474     MEOH     HO2      DUMH     0.000000        1.0080           0   0.00000   0.00000
     40980 MEOH     2474     MEOH     H1A      HDA3B    0.080000        1.0080           0   0.00000   0.00000
     40981 MEOH     2474     MEOH     H1B      HDA3B    0.080000        1.0080           0   0.00000   0.00000
     40982 MEOH     2474     MEOH     H1C      HDA3B    0.080000        1.0080           0   0.00000   0.00000
     40983 MEOH     2474     MEOH     LP1A     LPD     -0.230000        0.0000           -1   0.00000   0.00000
     40984 MEOH     2474     MEOH     LP1B     LPD     -0.230000        0.0000           -1   0.00000   0.00000
     40985 MEOH     2475     MEOH     C1       CD33B    2.314100       11.6110           0   -1.00000   1.30000
     40986 MEOH     2475     MEOH     DC1      DRUD    -2.454100        0.4000           0   0.00000   0.00000
     40987 MEOH     2475     MEOH     O1       OD31H    2.488300       15.5990           0   -1.02800   1.30000
     40988 MEOH     2475     MEOH     DO1      DRUD    -2.488300        0.4000           0   0.00000   0.00000
     40989 MEOH     2475     MEOH     HO1      HDP1A    0.360000        1.0080           0   0.00000   0.00000
     40990 MEOH     2475     MEOH     HO2      DUMH     0.000000        1.0080           0   0.00000   0.00000
     40991 MEOH     2475     MEOH     H1A      HDA3B    0.080000        1.0080           0   0.00000   0.00000
     40992 MEOH     2475     MEOH     H1B      HDA3B    0.080000        1.0080           0   0.00000   0.00000
     40993 MEOH     2475     MEOH     H1C      HDA3B    0.080000        1.0080           0   0.00000   0.00000
     40994 MEOH     2475     MEOH     LP1A     LPD     -0.230000        0.0000           -1   0.00000   0.00000
     40995 MEOH     2475     MEOH     LP1B     LPD     -0.230000        0.0000           -1   0.00000   0.00000
     40996 MEOH     2476     MEOH     C1       CD33B    2.314100       11.6110           0   -1.00000   1.30000
     40997 MEOH     2476     MEOH     DC1      DRUD    -2.454100        0.4000           0   0.00000   0.00000
     40998 MEOH     2476     MEOH     O1       OD31H    2.488300       15.5990           0   -1.02800   1.30000
     40999 MEOH     2476     MEOH     DO1      DRUD    -2.488300        0.4000           0   0.00000   0.00000
     41000 MEOH     2476     MEOH     HO1      HDP1A    0.360000        1.0080           0   0.00000   0.00000
     41001 MEOH     2476     MEOH     HO2      DUMH     0.000000        1.0080           0   0.00000   0.00000
     41002 MEOH     2476     MEOH     H1A      HDA3B    0.080000        1.0080           0   0.00000   0.00000
     41003 MEOH     2476     MEOH     H1B      HDA3B    0.080000        1.0080           0   0.00000   0.00000
     41004 MEOH     2476     MEOH     H1C      HDA3B    0.080000        1.0080           0   0.00000   0.00000
     41005 MEOH     2476     MEOH     LP1A     LPD     -0.230000        0.0000           -1   0.00000   0.00000
     41006 MEOH     2476     MEOH     LP1B     LPD     -0.230000        0.0000           -1   0.00000   0.00000
     41007 MEOH     2477     MEOH     C1       CD33B    2.314100       11.6110           0   -1.00000   1.30000
     41008 MEOH     2477     MEOH     DC1      DRUD    -2.454100        0.4000           0   0.00000   0.00000
     41009 MEOH     2477     MEOH     O1       OD31H    2.488300       15.5990           0   -1.02800   1.30000
     41010 MEOH     2477     MEOH     DO1      DRUD    -2.488300        0.4000           0   0.00000   0.00000
     41011 MEOH     2477     MEOH     HO1      HDP1A    0.360000        1.0080           0   0.00000   0.00000
     41012 MEOH     2477     MEOH     HO2      DUMH     0.000000        1.0080           0   0.00000   0.00000
     41013 MEOH     2477     MEOH     H1A      HDA3B    0.080000        1.0080           0   0.00000   0.00000
     41014 MEOH     2477     MEOH     H1B      HDA3B    0.080000        1.0080           0   0.00000   0.00000
     41015 MEOH     2477     MEOH     H1C      HDA3B    0.080000        1.0080           0   0.00000   0.00000
     41016 MEOH     2477     MEOH     LP1A     LPD     -0.230000        0.0000           -1   0.00000   0.00000
     41017 MEOH     2477     MEOH     LP1B     LPD     -0.230000        0.0000           -1   0.00000   0.00000
     41018 MEOH     2478     MEOH     C1       CD33B    2.314100       11.6110           0   -1.00000   1.30000
     41019 MEOH     2478     MEOH     DC1      DRUD    -2.454100        0.4000           0   0.00000   0.00000
     41020 MEOH     2478     MEOH     O1       OD31H    2.488300       15.5990           0   -1.02800   1.30000
     41021 MEOH     2478     MEOH     DO1      DRUD    -2.488300        0.4000           0   0.00000   0.00000
     41022 MEOH     2478     MEOH     HO1      HDP1A    0.360000        1.0080           0   0.00000   0.00000
     41023 MEOH     2478     MEOH     HO2      DUMH     0.000000        1.0080           0   0.00000   0.00000
     41024 MEOH     2478     MEOH     H1A      HDA3B    0.080000        1.0080           0   0.00000   0.00000
     41025 MEOH     2478     MEOH     H1B      HDA3B    0.080000        1.0080           0   0.00000   0.00000
     41026 MEOH     2478     MEOH     H1C      HDA3B    0.080000        1.0080           0   0.00000   0.00000
     41027 MEOH     2478     MEOH     LP1A     LPD     -0.230000        0.0000           -1   0.00000   0.00000
     41028 MEOH     2478     MEOH     LP1B     LPD     -0.230000        0.0000           -1   0.00000   0.00000
     41029 MEOH     2479     MEOH     C1       CD33B    2.314100       11.6110           0   -1.00000   1.30000
     41030 MEOH     2479     MEOH     DC1      DRUD    -2.454100        0.4000           0   0.00000   0.00000
     41031 MEOH     2479     MEOH     O1       OD31H    2.488300       15.5990           0   -1.02800   1.30000
     41032 MEOH     2479     MEOH     DO1      DRUD    -2.488300        0.4000           0   0.00000   0.00000
     41033 MEOH     2479     MEOH     HO1      HDP1A    0.360000        1.0080           0   0.00000   0.00000
     41034 MEOH     2479     MEOH     HO2      DUMH     0.000000        1.0080           0   0.00000   0.00000
     41035 MEOH     2479     MEOH     H1A      HDA3B    0.080000        1.0080           0   0.00000   0.00000
     41036 MEOH     2479     MEOH     H1B      HDA3B    0.080000        1.0080           0   0.00000   0.00000
     41037 MEOH     2479     MEOH     H1C      HDA3B    0.080000        1.0080           0   0.00000   0.00000
     41038 MEOH     2479     MEOH     LP1A     LPD     -0.230000        0.0000           -1   0.00000   0.00000
     41039 MEOH     2479     MEOH     LP1B     LPD     -0.230000        0.0000           -1   0.00000   0.00000
     41040 MEOH     2480     MEOH     C1       CD33B    2.314100       11.6110           0   -1.00000   1.30000
     41041 MEOH     2480     MEOH     DC1      DRUD    -2.454100        0.4000           0   0.00000   0.00000
     41042 MEOH     2480     MEOH     O1       OD31H    2.488300       15.5990           0   -1.02800   1.30000
     41043 MEOH     2480     MEOH     DO1      DRUD    -2.488300        0.4000           0   0.00000   0.00000
     41044 MEOH     2480     MEOH     HO1      HDP1A    0.360000        1.0080           0   0.00000   0.00000
     41045 MEOH     2480     MEOH     HO2      DUMH     0.000000        1.0080           0   0.00000   0.00000
     41046 MEOH     2480     MEOH     H1A      HDA3B    0.080000        1.0080           0   0.00000   0.00000
     41047 MEOH     2480     MEOH     H1B      HDA3B    0.080000        1.0080           0   0.00000   0.00000
     41048 MEOH     2480     MEOH     H1C      HDA3B    0.080000        1.0080           0   0.00000   0.00000
     41049 MEOH     2480     MEOH     LP1A     LPD     -0.230000        0.0000           -1   0.00000   0.00000
     41050 MEOH     2480     MEOH     LP1B     LPD     -0.230000        0.0000           -1   0.00000   0.00000
     41051 MEOH     2481     MEOH     C1       CD33B    2.314100       11.6110           0   -1.00000   1.30000
     41052 MEOH     2481     MEOH     DC1      DRUD    -2.454100        0.4000           0   0.00000   0.00000
     41053 MEOH     2481     MEOH     O1       OD31H    2.488300       15.5990           0   -1.02800   1.30000
     41054 MEOH     2481     MEOH     DO1      DRUD    -2.488300        0.4000           0   0.00000   0.00000
     41055 MEOH     2481     MEOH     HO1      HDP1A    0.360000        1.0080           0   0.00000   0.00000
     41056 MEOH     2481     MEOH     HO2      DUMH     0.000000        1.0080           0   0.00000   0.00000
     41057 MEOH     2481     MEOH     H1A      HDA3B    0.080000        1.0080           0   0.00000   0.00000
     41058 MEOH     2481     MEOH     H1B      HDA3B    0.080000        1.0080           0   0.00000   0.00000
     41059 MEOH     2481     MEOH     H1C      HDA3B    0.080000        1.0080           0   0.00000   0.00000
     41060 MEOH     2481     MEOH     LP1A     LPD     -0.230000        0.0000           -1   0.00000   0.00000
     41061 MEOH     2481     MEOH     LP1B     LPD     -0.230000        0.0000           -1   0.00000   0.00000
     41062 MEOH     2482     MEOH     C1       CD33B    2.314100       11.6110           0   -1.00000   1.30000
     41063 MEOH     2482     MEOH     DC1      DRUD    -2.454100        0.4000           0   0.00000   0.00000
     41064 MEOH     2482     MEOH     O1       OD31H    2.488300       15.5990           0   -1.02800   1.30000
     41065 MEOH     2482     MEOH     DO1      DRUD    -2.488300        0.4000           0   0.00000   0.00000
     41066 MEOH     2482     MEOH     HO1      HDP1A    0.360000        1.0080           0   0.00000   0.00000
     41067 MEOH     2482     MEOH     HO2      DUMH     0.000000        1.0080           0   0.00000   0.00000
     41068 MEOH     2482     MEOH     H1A      HDA3B    0.080000        1.0080           0   0.00000   0.00000
     41069 MEOH     2482     MEOH     H1B      HDA3B    0.080000        1.0080           0   0.00000   0.00000
     41070 MEOH     2482     MEOH     H1C      HDA3B    0.080000        1.0080           0   0.00000   0.00000
     41071 MEOH     2482     MEOH     LP1A     LPD     -0.230000        0.0000           -1   0.00000   0.00000
     41072 MEOH     2482     MEOH     LP1B     LPD     -0.230000        0.0000           -1   0.00000   0.00000
     41073 MEOH     2483     MEOH     C1       CD33B    2.314100       11.6110           0   -1.00000   1.30000
     41074 MEOH     2483     MEOH     DC1      DRUD    -2.454100        0.4000           0   0.00000   0.00000
     41075 MEOH     2483     MEOH     O1       OD31H    2.488300       15.5990           0   -1.02800   1.30000
     41076 MEOH     2483     MEOH     DO1      DRUD    -2.488300        0.4000           0   0.00000   0.00000
     41077 MEOH     2483     MEOH     HO1      HDP1A    0.360000        1.0080           0   0.00000   0.00000
     41078 MEOH     2483     MEOH     HO2      DUMH     0.000000        1.0080           0   0.00000   0.00000
     41079 MEOH     2483     MEOH     H1A      HDA3B    0.080000        1.0080           0   0.00000   0.00000
     41080 MEOH     2483     MEOH     H1B      HDA3B    0.080000        1.0080           0   0.00000   0.00000
     41081 MEOH     2483     MEOH     H1C      HDA3B    0.080000        1.0080           0   0.00000   0.00000
     41082 MEOH     2483     MEOH     LP1A     LPD     -0.230000        0.0000           -1   0.00000   0.00000
     41083 MEOH     2483     MEOH     LP1B     LPD     -0.230000        0.0000           -1   0.00000   0.00000
     41084 MEOH     2484     MEOH     C1       CD33B    2.314100       11.6110           0   -1.00000   1.30000
     41085 MEOH     2484     MEOH     DC1      DRUD    -2.454100        0.4000           0   0.00000   0.00000
     41086 MEOH     2484     MEOH     O1       OD31H    2.488300       15.5990           0   -1.02800   1.30000
     41087 MEOH     2484     MEOH     DO1      DRUD    -2.488300        0.4000           0   0.00000   0.00000
     41088 MEOH     2484     MEOH     HO1      HDP1A    0.360000        1.0080           0   0.00000   0.00000
     41089 MEOH     2484     MEOH     HO2      DUMH     0.000000        1.0080           0   0.00000   0.00000
     41090 MEOH     2484     MEOH     H1A      HDA3B    0.080000        1.0080           0   0.00000   0.00000
     41091 MEOH     2484     MEOH     H1B      HDA3B    0.080000        1.0080           0   0.00000   0.00000
     41092 MEOH     2484     MEOH     H1C      HDA3B    0.080000        1.0080           0   0.00000   0.00000
     41093 MEOH     2484     MEOH     LP1A     LPD     -0.230000        0.0000           -1   0.00000   0.00000
     41094 MEOH     2484     MEOH     LP1B     LPD     -0.230000        0.0000           -1   0.00000   0.00000
     41095 MEOH     2485     MEOH     C1       CD33B    2.314100       11.6110           0   -1.00000   1.30000
     41096 MEOH     2485     MEOH     DC1      DRUD    -2.454100        0.4000           0   0.00000   0.00000
     41097 MEOH     2485     MEOH     O1       OD31H    2.488300       15.5990           0   -1.02800   1.30000
     41098 MEOH     2485     MEOH     DO1      DRUD    -2.488300        0.4000           0   0.00000   0.00000
     41099 MEOH     2485     MEOH     HO1      HDP1A    0.360000        1.0080           0   0.00000   0.00000
     41100 MEOH     2485     MEOH     HO2      DUMH     0.000000        1.0080           0   0.00000   0.00000
     41101 MEOH     2485     MEOH     H1A      HDA3B    0.080000        1.0080           0   0.00000   0.00000
     41102 MEOH     2485     MEOH     H1B      HDA3B    0.080000        1.0080           0   0.00000   0.00000
     41103 MEOH     2485     MEOH     H1C      HDA3B    0.080000        1.0080           0   0.00000   0.00000
     41104 MEOH     2485     MEOH     LP1A     LPD     -0.230000        0.0000           -1   0.00000   0.00000
     41105 MEOH     2485     MEOH     LP1B     LPD     -0.230000        0.0000           -1   0.00000   0.00000
     41106 MEOH     2486     MEOH     C1       CD33B    2.314100       11.6110           0   -1.00000   1.30000
     41107 MEOH     2486     MEOH     DC1      DRUD    -2.454100        0.4000           0   0.00000   0.00000
     41108 MEOH     2486     MEOH     O1       OD31H    2.488300       15.5990           0   -1.02800   1.30000
     41109 MEOH     2486     MEOH     DO1      DRUD    -2.488300        0.4000           0   0.00000   0.00000
     41110 MEOH     2486     MEOH     HO1      HDP1A    0.360000        1.0080           0   0.00000   0.00000
     41111 MEOH     2486     MEOH     HO2      DUMH     0.000000        1.0080           0   0.00000   0.00000
     41112 MEOH     2486     MEOH     H1A      HDA3B    0.080000        1.0080           0   0.00000   0.00000
     41113 MEOH     2486     MEOH     H1B      HDA3B    0.080000        1.0080           0   0.00000   0.00000
     41114 MEOH     2486     MEOH     H1C      HDA3B    0.080000        1.0080           0   0.00000   0.00000
     41115 MEOH     2486     MEOH     LP1A     LPD     -0.230000        0.0000           -1   0.00000   0.00000
     41116 MEOH     2486     MEOH     LP1B     LPD     -0.230000        0.0000           -1   0.00000   0.00000
     41117 MEOH     2487     MEOH     C1       CD33B    2.314100       11.6110           0   -1.00000   1.30000
     41118 MEOH     2487     MEOH     DC1      DRUD    -2.454100        0.4000           0   0.00000   0.00000
     41119 MEOH     2487     MEOH     O1       OD31H    2.488300       15.5990           0   -1.02800   1.30000
     41120 MEOH     2487     MEOH     DO1      DRUD    -2.488300        0.4000           0   0.00000   0.00000
     41121 MEOH     2487     MEOH     HO1      HDP1A    0.360000        1.0080           0   0.00000   0.00000
     41122 MEOH     2487     MEOH     HO2      DUMH     0.000000        1.0080           0   0.00000   0.00000
     41123 MEOH     2487     MEOH     H1A      HDA3B    0.080000        1.0080           0   0.00000   0.00000
     41124 MEOH     2487     MEOH     H1B      HDA3B    0.080000        1.0080           0   0.00000   0.00000
     41125 MEOH     2487     MEOH     H1C      HDA3B    0.080000        1.0080           0   0.00000   0.00000
     41126 MEOH     2487     MEOH     LP1A     LPD     -0.230000        0.0000           -1   0.00000   0.00000
     41127 MEOH     2487     MEOH     LP1B     LPD     -0.230000        0.0000           -1   0.00000   0.00000
     41128 MEOH     2488     MEOH     C1       CD33B    2.314100       11.6110           0   -1.00000   1.30000
     41129 MEOH     2488     MEOH     DC1      DRUD    -2.454100        0.4000           0   0.00000   0.00000
     41130 MEOH     2488     MEOH     O1       OD31H    2.488300       15.5990           0   -1.02800   1.30000
     41131 MEOH     2488     MEOH     DO1      DRUD    -2.488300        0.4000           0   0.00000   0.00000
     41132 MEOH     2488     MEOH     HO1      HDP1A    0.360000        1.0080           0   0.00000   0.00000
     41133 MEOH     2488     MEOH     HO2      DUMH     0.000000        1.0080           0   0.00000   0.00000
     41134 MEOH     2488     MEOH     H1A      HDA3B    0.080000        1.0080           0   0.00000   0.00000
     41135 MEOH     2488     MEOH     H1B      HDA3B    0.080000        1.0080           0   0.00000   0.00000
     41136 MEOH     2488     MEOH     H1C      HDA3B    0.080000        1.0080           0   0.00000   0.00000
     41137 MEOH     2488     MEOH     LP1A     LPD     -0.230000        0.0000           -1   0.00000   0.00000
     41138 MEOH     2488     MEOH     LP1B     LPD     -0.230000        0.0000           -1   0.00000   0.00000
     41139 MEOH     2489     MEOH     C1       CD33B    2.314100       11.6110           0   -1.00000   1.30000
     41140 MEOH     2489     MEOH     DC1      DRUD    -2.454100        0.4000           0   0.00000   0.00000
     41141 MEOH     2489     MEOH     O1       OD31H    2.488300       15.5990           0   -1.02800   1.30000
     41142 MEOH     2489     MEOH     DO1      DRUD    -2.488300        0.4000           0   0.00000   0.00000
     41143 MEOH     2489     MEOH     HO1      HDP1A    0.360000        1.0080           0   0.00000   0.00000
     41144 MEOH     2489     MEOH     HO2      DUMH     0.000000        1.0080           0   0.00000   0.00000
     41145 MEOH     2489     MEOH     H1A      HDA3B    0.080000        1.0080           0   0.00000   0.00000
     41146 MEOH     2489     MEOH     H1B      HDA3B    0.080000        1.0080           0   0.00000   0.00000
     41147 MEOH     2489     MEOH     H1C      HDA3B    0.080000        1.0080           0   0.00000   0.00000
     41148 MEOH     2489     MEOH     LP1A     LPD     -0.230000        0.0000           -1   0.00000   0.00000
     41149 MEOH     2489     MEOH     LP1B     LPD     -0.230000        0.0000           -1   0.00000   0.00000
     41150 MEOH     2490     MEOH     C1       CD33B    2.314100       11.6110           0   -1.00000   1.30000
     41151 MEOH     2490     MEOH     DC1      DRUD    -2.454100        0.4000           0   0.00000   0.00000
     41152 MEOH     2490     MEOH     O1       OD31H    2.488300       15.5990           0   -1.02800   1.30000
     41153 MEOH     2490     MEOH     DO1      DRUD    -2.488300        0.4000           0   0.00000   0.00000
     41154 MEOH     2490     MEOH     HO1      HDP1A    0.360000        1.0080           0   0.00000   0.00000
     41155 MEOH     2490     MEOH     HO2      DUMH     0.000000        1.0080           0   0.00000   0.00000
     41156 MEOH     2490     MEOH     H1A      HDA3B    0.080000        1.0080           0   0.00000   0.00000
     41157 MEOH     2490     MEOH     H1B      HDA3B    0.080000        1.0080           0   0.00000   0.00000
     41158 MEOH     2490     MEOH     H1C      HDA3B    0.080000        1.0080           0   0.00000   0.00000
     41159 MEOH     2490     MEOH     LP1A     LPD     -0.230000        0.0000           -1   0.00000   0.00000
     41160 MEOH     2490     MEOH     LP1B     LPD     -0.230000        0.0000           -1   0.00000   0.00000
     41161 MEOH     2491     MEOH     C1       CD33B    2.314100       11.6110           0   -1.00000   1.30000
     41162 MEOH     2491     MEOH     DC1      DRUD    -2.454100        0.4000           0   0.00000   0.00000
     41163 MEOH     2491     MEOH     O1       OD31H    2.488300       15.5990           0   -1.02800   1.30000
     41164 MEOH     2491     MEOH     DO1      DRUD    -2.488300        0.4000           0   0.00000   0.00000
     41165 MEOH     2491     MEOH     HO1      HDP1A    0.360000        1.0080           0   0.00000   0.00000
     41166 MEOH     2491     MEOH     HO2      DUMH     0.000000        1.0080           0   0.00000   0.00000
     41167 MEOH     2491     MEOH     H1A      HDA3B    0.080000        1.0080           0   0.00000   0.00000
     41168 MEOH     2491     MEOH     H1B      HDA3B    0.080000        1.0080           0   0.00000   0.00000
     41169 MEOH     2491     MEOH     H1C      HDA3B    0.080000        1.0080           0   0.00000   0.00000
     41170 MEOH     2491     MEOH     LP1A     LPD     -0.230000        0.0000           -1   0.00000   0.00000
     41171 MEOH     2491     MEOH     LP1B     LPD     -0.230000        0.0000           -1   0.00000   0.00000
     41172 MEOH     2492     MEOH     C1       CD33B    2.314100       11.6110           0   -1.00000   1.30000
     41173 MEOH     2492     MEOH     DC1      DRUD    -2.454100        0.4000           0   0.00000   0.00000
     41174 MEOH     2492     MEOH     O1       OD31H    2.488300       15.5990           0   -1.02800   1.30000
     41175 MEOH     2492     MEOH     DO1      DRUD    -2.488300        0.4000           0   0.00000   0.00000
     41176 MEOH     2492     MEOH     HO1      HDP1A    0.360000        1.0080           0   0.00000   0.00000
     41177 MEOH     2492     MEOH     HO2      DUMH     0.000000        1.0080           0   0.00000   0.00000
     41178 MEOH     2492     MEOH     H1A      HDA3B    0.080000        1.0080           0   0.00000   0.00000
     41179 MEOH     2492     MEOH     H1B      HDA3B    0.080000        1.0080           0   0.00000   0.00000
     41180 MEOH     2492     MEOH     H1C      HDA3B    0.080000        1.0080           0   0.00000   0.00000
     41181 MEOH     2492     MEOH     LP1A     LPD     -0.230000        0.0000           -1   0.00000   0.00000
     41182 MEOH     2492     MEOH     LP1B     LPD     -0.230000        0.0000           -1   0.00000   0.00000
     41183 MEOH     2493     MEOH     C1       CD33B    2.314100       11.6110           0   -1.00000   1.30000
     41184 MEOH     2493     MEOH     DC1      DRUD    -2.454100        0.4000           0   0.00000   0.00000
     41185 MEOH     2493     MEOH     O1       OD31H    2.488300       15.5990           0   -1.02800   1.30000
     41186 MEOH     2493     MEOH     DO1      DRUD    -2.488300        0.4000           0   0.00000   0.00000
     41187 MEOH     2493     MEOH     HO1      HDP1A    0.360000        1.0080           0   0.00000   0.00000
     41188 MEOH     2493     MEOH     HO2      DUMH     0.000000        1.0080           0   0.00000   0.00000
     41189 MEOH     2493     MEOH     H1A      HDA3B    0.080000        1.0080           0   0.00000   0.00000
     41190 MEOH     2493     MEOH     H1B      HDA3B    0.080000        1.0080           0   0.00000   0.00000
     41191 MEOH     2493     MEOH     H1C      HDA3B    0.080000        1.0080           0   0.00000   0.00000
     41192 MEOH     2493     MEOH     LP1A     LPD     -0.230000        0.0000           -1   0.00000   0.00000
     41193 MEOH     2493     MEOH     LP1B     LPD     -0.230000        0.0000           -1   0.00000   0.00000
     41194 MEOH     2494     MEOH     C1       CD33B    2.314100       11.6110           0   -1.00000   1.30000
     41195 MEOH     2494     MEOH     DC1      DRUD    -2.454100        0.4000           0   0.00000   0.00000
     41196 MEOH     2494     MEOH     O1       OD31H    2.488300       15.5990           0   -1.02800   1.30000
     41197 MEOH     2494     MEOH     DO1      DRUD    -2.488300        0.4000           0   0.00000   0.00000
     41198 MEOH     2494     MEOH     HO1      HDP1A    0.360000        1.0080           0   0.00000   0.00000
     41199 MEOH     2494     MEOH     HO2      DUMH     0.000000        1.0080           0   0.00000   0.00000
     41200 MEOH     2494     MEOH     H1A      HDA3B    0.080000        1.0080           0   0.00000   0.00000
     41201 MEOH     2494     MEOH     H1B      HDA3B    0.080000        1.0080           0   0.00000   0.00000
     41202 MEOH     2494     MEOH     H1C      HDA3B    0.080000        1.0080           0   0.00000   0.00000
     41203 MEOH     2494     MEOH     LP1A     LPD     -0.230000        0.0000           -1   0.00000   0.00000
     41204 MEOH     2494     MEOH     LP1B     LPD     -0.230000        0.0000           -1   0.00000   0.00000
     41205 MEOH     2495     MEOH     C1       CD33B    2.314100       11.6110           0   -1.00000   1.30000
     41206 MEOH     2495     MEOH     DC1      DRUD    -2.454100        0.4000           0   0.00000   0.00000
     41207 MEOH     2495     MEOH     O1       OD31H    2.488300       15.5990           0   -1.02800   1.30000
     41208 MEOH     2495     MEOH     DO1      DRUD    -2.488300        0.4000           0   0.00000   0.00000
     41209 MEOH     2495     MEOH     HO1      HDP1A    0.360000        1.0080           0   0.00000   0.00000
     41210 MEOH     2495     MEOH     HO2      DUMH     0.000000        1.0080           0   0.00000   0.00000
     41211 MEOH     2495     MEOH     H1A      HDA3B    0.080000        1.0080           0   0.00000   0.00000
     41212 MEOH     2495     MEOH     H1B      HDA3B    0.080000        1.0080           0   0.00000   0.00000
     41213 MEOH     2495     MEOH     H1C      HDA3B    0.080000        1.0080           0   0.00000   0.00000
     41214 MEOH     2495     MEOH     LP1A     LPD     -0.230000        0.0000           -1   0.00000   0.00000
     41215 MEOH     2495     MEOH     LP1B     LPD     -0.230000        0.0000           -1   0.00000   0.00000
     41216 MEOH     2496     MEOH     C1       CD33B    2.314100       11.6110           0   -1.00000   1.30000
     41217 MEOH     2496     MEOH     DC1      DRUD    -2.454100        0.4000           0   0.00000   0.00000
     41218 MEOH     2496     MEOH     O1       OD31H    2.488300       15.5990           0   -1.02800   1.30000
     41219 MEOH     2496     MEOH     DO1      DRUD    -2.488300        0.4000           0   0.00000   0.00000
     41220 MEOH     2496     MEOH     HO1      HDP1A    0.360000        1.0080           0   0.00000   0.00000
     41221 MEOH     2496     MEOH     HO2      DUMH     0.000000        1.0080           0   0.00000   0.00000
     41222 MEOH     2496     MEOH     H1A      HDA3B    0.080000        1.0080           0   0.00000   0.00000
     41223 MEOH     2496     MEOH     H1B      HDA3B    0.080000        1.0080           0   0.00000   0.00000
     41224 MEOH     2496     MEOH     H1C      HDA3B    0.080000        1.0080           0   0.00000   0.00000
     41225 MEOH     2496     MEOH     LP1A     LPD     -0.230000        0.0000           -1   0.00000   0.00000
     41226 MEOH     2496     MEOH     LP1B     LPD     -0.230000        0.0000           -1   0.00000   0.00000
     41227 MEOH     2497     MEOH     C1       CD33B    2.314100       11.6110           0   -1.00000   1.30000
     41228 MEOH     2497     MEOH     DC1      DRUD    -2.454100        0.4000           0   0.00000   0.00000
     41229 MEOH     2497     MEOH     O1       OD31H    2.488300       15.5990           0   -1.02800   1.30000
     41230 MEOH     2497     MEOH     DO1      DRUD    -2.488300        0.4000           0   0.00000   0.00000
     41231 MEOH     2497     MEOH     HO1      HDP1A    0.360000        1.0080           0   0.00000   0.00000
     41232 MEOH     2497     MEOH     HO2      DUMH     0.000000        1.0080           0   0.00000   0.00000
     41233 MEOH     2497     MEOH     H1A      HDA3B    0.080000        1.0080           0   0.00000   0.00000
     41234 MEOH     2497     MEOH     H1B      HDA3B    0.080000        1.0080           0   0.00000   0.00000
     41235 MEOH     2497     MEOH     H1C      HDA3B    0.080000        1.0080           0   0.00000   0.00000
     41236 MEOH     2497     MEOH     LP1A     LPD     -0.230000        0.0000           -1   0.00000   0.00000
     41237 MEOH     2497     MEOH     LP1B     LPD     -0.230000        0.0000           -1   0.00000   0.00000
     41238 MEOH     2498     MEOH     C1       CD33B    2.314100       11.6110           0   -1.00000   1.30000
     41239 MEOH     2498     MEOH     DC1      DRUD    -2.454100        0.4000           0   0.00000   0.00000
     41240 MEOH     2498     MEOH     O1       OD31H    2.488300       15.5990           0   -1.02800   1.30000
     41241 MEOH     2498     MEOH     DO1      DRUD    -2.488300        0.4000           0   0.00000   0.00000
     41242 MEOH     2498     MEOH     HO1      HDP1A    0.360000        1.0080           0   0.00000   0.00000
     41243 MEOH     2498     MEOH     HO2      DUMH     0.000000        1.0080           0   0.00000   0.00000
     41244 MEOH     2498     MEOH     H1A      HDA3B    0.080000        1.0080           0   0.00000   0.00000
     41245 MEOH     2498     MEOH     H1B      HDA3B    0.080000        1.0080           0   0.00000   0.00000
     41246 MEOH     2498     MEOH     H1C      HDA3B    0.080000        1.0080           0   0.00000   0.00000
     41247 MEOH     2498     MEOH     LP1A     LPD     -0.230000        0.0000           -1   0.00000   0.00000
     41248 MEOH     2498     MEOH     LP1B     LPD     -0.230000        0.0000           -1   0.00000   0.00000
     41249 MEOH     2499     MEOH     C1       CD33B    2.314100       11.6110           0   -1.00000   1.30000
     41250 MEOH     2499     MEOH     DC1      DRUD    -2.454100        0.4000           0   0.00000   0.00000
     41251 MEOH     2499     MEOH     O1       OD31H    2.488300       15.5990           0   -1.02800   1.30000
     41252 MEOH     2499     MEOH     DO1      DRUD    -2.488300        0.4000           0   0.00000   0.00000
     41253 MEOH     2499     MEOH     HO1      HDP1A    0.360000        1.0080           0   0.00000   0.00000
     41254 MEOH     2499     MEOH     HO2      DUMH     0.000000        1.0080           0   0.00000   0.00000
     41255 MEOH     2499     MEOH     H1A      HDA3B    0.080000        1.0080           0   0.00000   0.00000
     41256 MEOH     2499     MEOH     H1B      HDA3B    0.080000        1.0080           0   0.00000   0.00000
     41257 MEOH     2499     MEOH     H1C      HDA3B    0.080000        1.0080           0   0.00000   0.00000
     41258 MEOH     2499     MEOH     LP1A     LPD     -0.230000        0.0000           -1   0.00000   0.00000
     41259 MEOH     2499     MEOH     LP1B     LPD     -0.230000        0.0000           -1   0.00000   0.00000
     41260 MEOH     2500     MEOH     C1       CD33B    2.314100       11.6110           0   -1.00000   1.30000
     41261 MEOH     2500     MEOH     DC1      DRUD    -2.454100        0.4000           0   0.00000   0.00000
     41262 MEOH     2500     MEOH     O1       OD31H    2.488300       15.5990           0   -1.02800   1.30000
     41263 MEOH     2500     MEOH     DO1      DRUD    -2.488300        0.4000           0   0.00000   0.00000
     41264 MEOH     2500     MEOH     HO1      HDP1A    0.360000        1.0080           0   0.00000   0.00000
     41265 MEOH     2500     MEOH     HO2      DUMH     0.000000        1.0080           0   0.00000   0.00000
     41266 MEOH     2500     MEOH     H1A      HDA3B    0.080000        1.0080           0   0.00000   0.00000
     41267 MEOH     2500     MEOH     H1B      HDA3B    0.080000        1.0080           0   0.00000   0.00000
     41268 MEOH     2500     MEOH     H1C      HDA3B    0.080000        1.0080           0   0.00000   0.00000
     41269 MEOH     2500     MEOH     LP1A     LPD     -0.230000        0.0000           -1   0.00000   0.00000
     41270 MEOH     2500     MEOH     LP1B     LPD     -0.230000        0.0000           -1   0.00000   0.00000
     41271 MEOH     2501     MEOH     C1       CD33B    2.314100       11.6110           0   -1.00000   1.30000
     41272 MEOH     2501     MEOH     DC1      DRUD    -2.454100        0.4000           0   0.00000   0.00000
     41273 MEOH     2501     MEOH     O1       OD31H    2.488300       15.5990           0   -1.02800   1.30000
     41274 MEOH     2501     MEOH     DO1      DRUD    -2.488300        0.4000           0   0.00000   0.00000
     41275 MEOH     2501     MEOH     HO1      HDP1A    0.360000        1.0080           0   0.00000   0.00000
     41276 MEOH     2501     MEOH     HO2      DUMH     0.000000        1.0080           0   0.00000   0.00000
     41277 MEOH     2501     MEOH     H1A      HDA3B    0.080000        1.0080           0   0.00000   0.00000
     41278 MEOH     2501     MEOH     H1B      HDA3B    0.080000        1.0080           0   0.00000   0.00000
     41279 MEOH     2501     MEOH     H1C      HDA3B    0.080000        1.0080           0   0.00000   0.00000
     41280 MEOH     2501     MEOH     LP1A     LPD     -0.230000        0.0000           -1   0.00000   0.00000
     41281 MEOH     2501     MEOH     LP1B     LPD     -0.230000        0.0000           -1   0.00000   0.00000
     41282 MEOH     2502     MEOH     C1       CD33B    2.314100       11.6110           0   -1.00000   1.30000
     41283 MEOH     2502     MEOH     DC1      DRUD    -2.454100        0.4000           0   0.00000   0.00000
     41284 MEOH     2502     MEOH     O1       OD31H    2.488300       15.5990           0   -1.02800   1.30000
     41285 MEOH     2502     MEOH     DO1      DRUD    -2.488300        0.4000           0   0.00000   0.00000
     41286 MEOH     2502     MEOH     HO1      HDP1A    0.360000        1.0080           0   0.00000   0.00000
     41287 MEOH     2502     MEOH     HO2      DUMH     0.000000        1.0080           0   0.00000   0.00000
     41288 MEOH     2502     MEOH     H1A      HDA3B    0.080000        1.0080           0   0.00000   0.00000
     41289 MEOH     2502     MEOH     H1B      HDA3B    0.080000        1.0080           0   0.00000   0.00000
     41290 MEOH     2502     MEOH     H1C      HDA3B    0.080000        1.0080           0   0.00000   0.00000
     41291 MEOH     2502     MEOH     LP1A     LPD     -0.230000        0.0000           -1   0.00000   0.00000
     41292 MEOH     2502     MEOH     LP1B     LPD     -0.230000        0.0000           -1   0.00000   0.00000
     41293 MEOH     2503     MEOH     C1       CD33B    2.314100       11.6110           0   -1.00000   1.30000
     41294 MEOH     2503     MEOH     DC1      DRUD    -2.454100        0.4000           0   0.00000   0.00000
     41295 MEOH     2503     MEOH     O1       OD31H    2.488300       15.5990           0   -1.02800   1.30000
     41296 MEOH     2503     MEOH     DO1      DRUD    -2.488300        0.4000           0   0.00000   0.00000
     41297 MEOH     2503     MEOH     HO1      HDP1A    0.360000        1.0080           0   0.00000   0.00000
     41298 MEOH     2503     MEOH     HO2      DUMH     0.000000        1.0080           0   0.00000   0.00000
     41299 MEOH     2503     MEOH     H1A      HDA3B    0.080000        1.0080           0   0.00000   0.00000
     41300 MEOH     2503     MEOH     H1B      HDA3B    0.080000        1.0080           0   0.00000   0.00000
     41301 MEOH     2503     MEOH     H1C      HDA3B    0.080000        1.0080           0   0.00000   0.00000
     41302 MEOH     2503     MEOH     LP1A     LPD     -0.230000        0.0000           -1   0.00000   0.00000
     41303 MEOH     2503     MEOH     LP1B     LPD     -0.230000        0.0000           -1   0.00000   0.00000
     41304 MEOH     2504     MEOH     C1       CD33B    2.314100       11.6110           0   -1.00000   1.30000
     41305 MEOH     2504     MEOH     DC1      DRUD    -2.454100        0.4000           0   0.00000   0.00000
     41306 MEOH     2504     MEOH     O1       OD31H    2.488300       15.5990           0   -1.02800   1.30000
     41307 MEOH     2504     MEOH     DO1      DRUD    -2.488300        0.4000           0   0.00000   0.00000
     41308 MEOH     2504     MEOH     HO1      HDP1A    0.360000        1.0080           0   0.00000   0.00000
     41309 MEOH     2504     MEOH     HO2      DUMH     0.000000        1.0080           0   0.00000   0.00000
     41310 MEOH     2504     MEOH     H1A      HDA3B    0.080000        1.0080           0   0.00000   0.00000
     41311 MEOH     2504     MEOH     H1B      HDA3B    0.080000        1.0080           0   0.00000   0.00000
     41312 MEOH     2504     MEOH     H1C      HDA3B    0.080000        1.0080           0   0.00000   0.00000
     41313 MEOH     2504     MEOH     LP1A     LPD     -0.230000        0.0000           -1   0.00000   0.00000
     41314 MEOH     2504     MEOH     LP1B     LPD     -0.230000        0.0000           -1   0.00000   0.00000
     41315 MEOH     2505     MEOH     C1       CD33B    2.314100       11.6110           0   -1.00000   1.30000
     41316 MEOH     2505     MEOH     DC1      DRUD    -2.454100        0.4000           0   0.00000   0.00000
     41317 MEOH     2505     MEOH     O1       OD31H    2.488300       15.5990           0   -1.02800   1.30000
     41318 MEOH     2505     MEOH     DO1      DRUD    -2.488300        0.4000           0   0.00000   0.00000
     41319 MEOH     2505     MEOH     HO1      HDP1A    0.360000        1.0080           0   0.00000   0.00000
     41320 MEOH     2505     MEOH     HO2      DUMH     0.000000        1.0080           0   0.00000   0.00000
     41321 MEOH     2505     MEOH     H1A      HDA3B    0.080000        1.0080           0   0.00000   0.00000
     41322 MEOH     2505     MEOH     H1B      HDA3B    0.080000        1.0080           0   0.00000   0.00000
     41323 MEOH     2505     MEOH     H1C      HDA3B    0.080000        1.0080           0   0.00000   0.00000
     41324 MEOH     2505     MEOH     LP1A     LPD     -0.230000        0.0000           -1   0.00000   0.00000
     41325 MEOH     2505     MEOH     LP1B     LPD     -0.230000        0.0000           -1   0.00000   0.00000
     41326 MEOH     2506     MEOH     C1       CD33B    2.314100       11.6110           0   -1.00000   1.30000
     41327 MEOH     2506     MEOH     DC1      DRUD    -2.454100        0.4000           0   0.00000   0.00000
     41328 MEOH     2506     MEOH     O1       OD31H    2.488300       15.5990           0   -1.02800   1.30000
     41329 MEOH     2506     MEOH     DO1      DRUD    -2.488300        0.4000           0   0.00000   0.00000
     41330 MEOH     2506     MEOH     HO1      HDP1A    0.360000        1.0080           0   0.00000   0.00000
     41331 MEOH     2506     MEOH     HO2      DUMH     0.000000        1.0080           0   0.00000   0.00000
     41332 MEOH     2506     MEOH     H1A      HDA3B    0.080000        1.0080           0   0.00000   0.00000
     41333 MEOH     2506     MEOH     H1B      HDA3B    0.080000        1.0080           0   0.00000   0.00000
     41334 MEOH     2506     MEOH     H1C      HDA3B    0.080000        1.0080           0   0.00000   0.00000
     41335 MEOH     2506     MEOH     LP1A     LPD     -0.230000        0.0000           -1   0.00000   0.00000
     41336 MEOH     2506     MEOH     LP1B     LPD     -0.230000        0.0000           -1   0.00000   0.00000
     41337 MEOH     2507     MEOH     C1       CD33B    2.314100       11.6110           0   -1.00000   1.30000
     41338 MEOH     2507     MEOH     DC1      DRUD    -2.454100        0.4000           0   0.00000   0.00000
     41339 MEOH     2507     MEOH     O1       OD31H    2.488300       15.5990           0   -1.02800   1.30000
     41340 MEOH     2507     MEOH     DO1      DRUD    -2.488300        0.4000           0   0.00000   0.00000
     41341 MEOH     2507     MEOH     HO1      HDP1A    0.360000        1.0080           0   0.00000   0.00000
     41342 MEOH     2507     MEOH     HO2      DUMH     0.000000        1.0080           0   0.00000   0.00000
     41343 MEOH     2507     MEOH     H1A      HDA3B    0.080000        1.0080           0   0.00000   0.00000
     41344 MEOH     2507     MEOH     H1B      HDA3B    0.080000        1.0080           0   0.00000   0.00000
     41345 MEOH     2507     MEOH     H1C      HDA3B    0.080000        1.0080           0   0.00000   0.00000
     41346 MEOH     2507     MEOH     LP1A     LPD     -0.230000        0.0000           -1   0.00000   0.00000
     41347 MEOH     2507     MEOH     LP1B     LPD     -0.230000        0.0000           -1   0.00000   0.00000
     41348 MEOH     2508     MEOH     C1       CD33B    2.314100       11.6110           0   -1.00000   1.30000
     41349 MEOH     2508     MEOH     DC1      DRUD    -2.454100        0.4000           0   0.00000   0.00000
     41350 MEOH     2508     MEOH     O1       OD31H    2.488300       15.5990           0   -1.02800   1.30000
     41351 MEOH     2508     MEOH     DO1      DRUD    -2.488300        0.4000           0   0.00000   0.00000
     41352 MEOH     2508     MEOH     HO1      HDP1A    0.360000        1.0080           0   0.00000   0.00000
     41353 MEOH     2508     MEOH     HO2      DUMH     0.000000        1.0080           0   0.00000   0.00000
     41354 MEOH     2508     MEOH     H1A      HDA3B    0.080000        1.0080           0   0.00000   0.00000
     41355 MEOH     2508     MEOH     H1B      HDA3B    0.080000        1.0080           0   0.00000   0.00000
     41356 MEOH     2508     MEOH     H1C      HDA3B    0.080000        1.0080           0   0.00000   0.00000
     41357 MEOH     2508     MEOH     LP1A     LPD     -0.230000        0.0000           -1   0.00000   0.00000
     41358 MEOH     2508     MEOH     LP1B     LPD     -0.230000        0.0000           -1   0.00000   0.00000
     41359 MEOH     2509     MEOH     C1       CD33B    2.314100       11.6110           0   -1.00000   1.30000
     41360 MEOH     2509     MEOH     DC1      DRUD    -2.454100        0.4000           0   0.00000   0.00000
     41361 MEOH     2509     MEOH     O1       OD31H    2.488300       15.5990           0   -1.02800   1.30000
     41362 MEOH     2509     MEOH     DO1      DRUD    -2.488300        0.4000           0   0.00000   0.00000
     41363 MEOH     2509     MEOH     HO1      HDP1A    0.360000        1.0080           0   0.00000   0.00000
     41364 MEOH     2509     MEOH     HO2      DUMH     0.000000        1.0080           0   0.00000   0.00000
     41365 MEOH     2509     MEOH     H1A      HDA3B    0.080000        1.0080           0   0.00000   0.00000
     41366 MEOH     2509     MEOH     H1B      HDA3B    0.080000        1.0080           0   0.00000   0.00000
     41367 MEOH     2509     MEOH     H1C      HDA3B    0.080000        1.0080           0   0.00000   0.00000
     41368 MEOH     2509     MEOH     LP1A     LPD     -0.230000        0.0000           -1   0.00000   0.00000
     41369 MEOH     2509     MEOH     LP1B     LPD     -0.230000        0.0000           -1   0.00000   0.00000
     41370 MEOH     2510     MEOH     C1       CD33B    2.314100       11.6110           0   -1.00000   1.30000
     41371 MEOH     2510     MEOH     DC1      DRUD    -2.454100        0.4000           0   0.00000   0.00000
     41372 MEOH     2510     MEOH     O1       OD31H    2.488300       15.5990           0   -1.02800   1.30000
     41373 MEOH     2510     MEOH     DO1      DRUD    -2.488300        0.4000           0   0.00000   0.00000
     41374 MEOH     2510     MEOH     HO1      HDP1A    0.360000        1.0080           0   0.00000   0.00000
     41375 MEOH     2510     MEOH     HO2      DUMH     0.000000        1.0080           0   0.00000   0.00000
     41376 MEOH     2510     MEOH     H1A      HDA3B    0.080000        1.0080           0   0.00000   0.00000
     41377 MEOH     2510     MEOH     H1B      HDA3B    0.080000        1.0080           0   0.00000   0.00000
     41378 MEOH     2510     MEOH     H1C      HDA3B    0.080000        1.0080           0   0.00000   0.00000
     41379 MEOH     2510     MEOH     LP1A     LPD     -0.230000        0.0000           -1   0.00000   0.00000
     41380 MEOH     2510     MEOH     LP1B     LPD     -0.230000        0.0000           -1   0.00000   0.00000
     41381 MEOH     2511     MEOH     C1       CD33B    2.314100       11.6110           0   -1.00000   1.30000
     41382 MEOH     2511     MEOH     DC1      DRUD    -2.454100        0.4000           0   0.00000   0.00000
     41383 MEOH     2511     MEOH     O1       OD31H    2.488300       15.5990           0   -1.02800   1.30000
     41384 MEOH     2511     MEOH     DO1      DRUD    -2.488300        0.4000           0   0.00000   0.00000
     41385 MEOH     2511     MEOH     HO1      HDP1A    0.360000        1.0080           0   0.00000   0.00000
     41386 MEOH     2511     MEOH     HO2      DUMH     0.000000        1.0080           0   0.00000   0.00000
     41387 MEOH     2511     MEOH     H1A      HDA3B    0.080000        1.0080           0   0.00000   0.00000
     41388 MEOH     2511     MEOH     H1B      HDA3B    0.080000        1.0080           0   0.00000   0.00000
     41389 MEOH     2511     MEOH     H1C      HDA3B    0.080000        1.0080           0   0.00000   0.00000
     41390 MEOH     2511     MEOH     LP1A     LPD     -0.230000        0.0000           -1   0.00000   0.00000
     41391 MEOH     2511     MEOH     LP1B     LPD     -0.230000        0.0000           -1   0.00000   0.00000
     41392 MEOH     2512     MEOH     C1       CD33B    2.314100       11.6110           0   -1.00000   1.30000
     41393 MEOH     2512     MEOH     DC1      DRUD    -2.454100        0.4000           0   0.00000   0.00000
     41394 MEOH     2512     MEOH     O1       OD31H    2.488300       15.5990           0   -1.02800   1.30000
     41395 MEOH     2512     MEOH     DO1      DRUD    -2.488300        0.4000           0   0.00000   0.00000
     41396 MEOH     2512     MEOH     HO1      HDP1A    0.360000        1.0080           0   0.00000   0.00000
     41397 MEOH     2512     MEOH     HO2      DUMH     0.000000        1.0080           0   0.00000   0.00000
     41398 MEOH     2512     MEOH     H1A      HDA3B    0.080000        1.0080           0   0.00000   0.00000
     41399 MEOH     2512     MEOH     H1B      HDA3B    0.080000        1.0080           0   0.00000   0.00000
     41400 MEOH     2512     MEOH     H1C      HDA3B    0.080000        1.0080           0   0.00000   0.00000
     41401 MEOH     2512     MEOH     LP1A     LPD     -0.230000        0.0000           -1   0.00000   0.00000
     41402 MEOH     2512     MEOH     LP1B     LPD     -0.230000        0.0000           -1   0.00000   0.00000
     41403 MEOH     2513     MEOH     C1       CD33B    2.314100       11.6110           0   -1.00000   1.30000
     41404 MEOH     2513     MEOH     DC1      DRUD    -2.454100        0.4000           0   0.00000   0.00000
     41405 MEOH     2513     MEOH     O1       OD31H    2.488300       15.5990           0   -1.02800   1.30000
     41406 MEOH     2513     MEOH     DO1      DRUD    -2.488300        0.4000           0   0.00000   0.00000
     41407 MEOH     2513     MEOH     HO1      HDP1A    0.360000        1.0080           0   0.00000   0.00000
     41408 MEOH     2513     MEOH     HO2      DUMH     0.000000        1.0080           0   0.00000   0.00000
     41409 MEOH     2513     MEOH     H1A      HDA3B    0.080000        1.0080           0   0.00000   0.00000
     41410 MEOH     2513     MEOH     H1B      HDA3B    0.080000        1.0080           0   0.00000   0.00000
     41411 MEOH     2513     MEOH     H1C      HDA3B    0.080000        1.0080           0   0.00000   0.00000
     41412 MEOH     2513     MEOH     LP1A     LPD     -0.230000        0.0000           -1   0.00000   0.00000
     41413 MEOH     2513     MEOH     LP1B     LPD     -0.230000        0.0000           -1   0.00000   0.00000
     41414 MEOH     2514     MEOH     C1       CD33B    2.314100       11.6110           0   -1.00000   1.30000
     41415 MEOH     2514     MEOH     DC1      DRUD    -2.454100        0.4000           0   0.00000   0.00000
     41416 MEOH     2514     MEOH     O1       OD31H    2.488300       15.5990           0   -1.02800   1.30000
     41417 MEOH     2514     MEOH     DO1      DRUD    -2.488300        0.4000           0   0.00000   0.00000
     41418 MEOH     2514     MEOH     HO1      HDP1A    0.360000        1.0080           0   0.00000   0.00000
     41419 MEOH     2514     MEOH     HO2      DUMH     0.000000        1.0080           0   0.00000   0.00000
     41420 MEOH     2514     MEOH     H1A      HDA3B    0.080000        1.0080           0   0.00000   0.00000
     41421 MEOH     2514     MEOH     H1B      HDA3B    0.080000        1.0080           0   0.00000   0.00000
     41422 MEOH     2514     MEOH     H1C      HDA3B    0.080000        1.0080           0   0.00000   0.00000
     41423 MEOH     2514     MEOH     LP1A     LPD     -0.230000        0.0000           -1   0.00000   0.00000
     41424 MEOH     2514     MEOH     LP1B     LPD     -0.230000        0.0000           -1   0.00000   0.00000
     41425 MEOH     2515     MEOH     C1       CD33B    2.314100       11.6110           0   -1.00000   1.30000
     41426 MEOH     2515     MEOH     DC1      DRUD    -2.454100        0.4000           0   0.00000   0.00000
     41427 MEOH     2515     MEOH     O1       OD31H    2.488300       15.5990           0   -1.02800   1.30000
     41428 MEOH     2515     MEOH     DO1      DRUD    -2.488300        0.4000           0   0.00000   0.00000
     41429 MEOH     2515     MEOH     HO1      HDP1A    0.360000        1.0080           0   0.00000   0.00000
     41430 MEOH     2515     MEOH     HO2      DUMH     0.000000        1.0080           0   0.00000   0.00000
     41431 MEOH     2515     MEOH     H1A      HDA3B    0.080000        1.0080           0   0.00000   0.00000
     41432 MEOH     2515     MEOH     H1B      HDA3B    0.080000        1.0080           0   0.00000   0.00000
     41433 MEOH     2515     MEOH     H1C      HDA3B    0.080000        1.0080           0   0.00000   0.00000
     41434 MEOH     2515     MEOH     LP1A     LPD     -0.230000        0.0000           -1   0.00000   0.00000
     41435 MEOH     2515     MEOH     LP1B     LPD     -0.230000        0.0000           -1   0.00000   0.00000
     41436 MEOH     2516     MEOH     C1       CD33B    2.314100       11.6110           0   -1.00000   1.30000
     41437 MEOH     2516     MEOH     DC1      DRUD    -2.454100        0.4000           0   0.00000   0.00000
     41438 MEOH     2516     MEOH     O1       OD31H    2.488300       15.5990           0   -1.02800   1.30000
     41439 MEOH     2516     MEOH     DO1      DRUD    -2.488300        0.4000           0   0.00000   0.00000
     41440 MEOH     2516     MEOH     HO1      HDP1A    0.360000        1.0080           0   0.00000   0.00000
     41441 MEOH     2516     MEOH     HO2      DUMH     0.000000        1.0080           0   0.00000   0.00000
     41442 MEOH     2516     MEOH     H1A      HDA3B    0.080000        1.0080           0   0.00000   0.00000
     41443 MEOH     2516     MEOH     H1B      HDA3B    0.080000        1.0080           0   0.00000   0.00000
     41444 MEOH     2516     MEOH     H1C      HDA3B    0.080000        1.0080           0   0.00000   0.00000
     41445 MEOH     2516     MEOH     LP1A     LPD     -0.230000        0.0000           -1   0.00000   0.00000
     41446 MEOH     2516     MEOH     LP1B     LPD     -0.230000        0.0000           -1   0.00000   0.00000
     41447 MEOH     2517     MEOH     C1       CD33B    2.314100       11.6110           0   -1.00000   1.30000
     41448 MEOH     2517     MEOH     DC1      DRUD    -2.454100        0.4000           0   0.00000   0.00000
     41449 MEOH     2517     MEOH     O1       OD31H    2.488300       15.5990           0   -1.02800   1.30000
     41450 MEOH     2517     MEOH     DO1      DRUD    -2.488300        0.4000           0   0.00000   0.00000
     41451 MEOH     2517     MEOH     HO1      HDP1A    0.360000        1.0080           0   0.00000   0.00000
     41452 MEOH     2517     MEOH     HO2      DUMH     0.000000        1.0080           0   0.00000   0.00000
     41453 MEOH     2517     MEOH     H1A      HDA3B    0.080000        1.0080           0   0.00000   0.00000
     41454 MEOH     2517     MEOH     H1B      HDA3B    0.080000        1.0080           0   0.00000   0.00000
     41455 MEOH     2517     MEOH     H1C      HDA3B    0.080000        1.0080           0   0.00000   0.00000
     41456 MEOH     2517     MEOH     LP1A     LPD     -0.230000        0.0000           -1   0.00000   0.00000
     41457 MEOH     2517     MEOH     LP1B     LPD     -0.230000        0.0000           -1   0.00000   0.00000
     41458 MEOH     2518     MEOH     C1       CD33B    2.314100       11.6110           0   -1.00000   1.30000
     41459 MEOH     2518     MEOH     DC1      DRUD    -2.454100        0.4000           0   0.00000   0.00000
     41460 MEOH     2518     MEOH     O1       OD31H    2.488300       15.5990           0   -1.02800   1.30000
     41461 MEOH     2518     MEOH     DO1      DRUD    -2.488300        0.4000           0   0.00000   0.00000
     41462 MEOH     2518     MEOH     HO1      HDP1A    0.360000        1.0080           0   0.00000   0.00000
     41463 MEOH     2518     MEOH     HO2      DUMH     0.000000        1.0080           0   0.00000   0.00000
     41464 MEOH     2518     MEOH     H1A      HDA3B    0.080000        1.0080           0   0.00000   0.00000
     41465 MEOH     2518     MEOH     H1B      HDA3B    0.080000        1.0080           0   0.00000   0.00000
     41466 MEOH     2518     MEOH     H1C      HDA3B    0.080000        1.0080           0   0.00000   0.00000
     41467 MEOH     2518     MEOH     LP1A     LPD     -0.230000        0.0000           -1   0.00000   0.00000
     41468 MEOH     2518     MEOH     LP1B     LPD     -0.230000        0.0000           -1   0.00000   0.00000
     41469 MEOH     2519     MEOH     C1       CD33B    2.314100       11.6110           0   -1.00000   1.30000
     41470 MEOH     2519     MEOH     DC1      DRUD    -2.454100        0.4000           0   0.00000   0.00000
     41471 MEOH     2519     MEOH     O1       OD31H    2.488300       15.5990           0   -1.02800   1.30000
     41472 MEOH     2519     MEOH     DO1      DRUD    -2.488300        0.4000           0   0.00000   0.00000
     41473 MEOH     2519     MEOH     HO1      HDP1A    0.360000        1.0080           0   0.00000   0.00000
     41474 MEOH     2519     MEOH     HO2      DUMH     0.000000        1.0080           0   0.00000   0.00000
     41475 MEOH     2519     MEOH     H1A      HDA3B    0.080000        1.0080           0   0.00000   0.00000
     41476 MEOH     2519     MEOH     H1B      HDA3B    0.080000        1.0080           0   0.00000   0.00000
     41477 MEOH     2519     MEOH     H1C      HDA3B    0.080000        1.0080           0   0.00000   0.00000
     41478 MEOH     2519     MEOH     LP1A     LPD     -0.230000        0.0000           -1   0.00000   0.00000
     41479 MEOH     2519     MEOH     LP1B     LPD     -0.230000        0.0000           -1   0.00000   0.00000
     41480 MEOH     2520     MEOH     C1       CD33B    2.314100       11.6110           0   -1.00000   1.30000
     41481 MEOH     2520     MEOH     DC1      DRUD    -2.454100        0.4000           0   0.00000   0.00000
     41482 MEOH     2520     MEOH     O1       OD31H    2.488300       15.5990           0   -1.02800   1.30000
     41483 MEOH     2520     MEOH     DO1      DRUD    -2.488300        0.4000           0   0.00000   0.00000
     41484 MEOH     2520     MEOH     HO1      HDP1A    0.360000        1.0080           0   0.00000   0.00000
     41485 MEOH     2520     MEOH     HO2      DUMH     0.000000        1.0080           0   0.00000   0.00000
     41486 MEOH     2520     MEOH     H1A      HDA3B    0.080000        1.0080           0   0.00000   0.00000
     41487 MEOH     2520     MEOH     H1B      HDA3B    0.080000        1.0080           0   0.00000   0.00000
     41488 MEOH     2520     MEOH     H1C      HDA3B    0.080000        1.0080           0   0.00000   0.00000
     41489 MEOH     2520     MEOH     LP1A     LPD     -0.230000        0.0000           -1   0.00000   0.00000
     41490 MEOH     2520     MEOH     LP1B     LPD     -0.230000        0.0000           -1   0.00000   0.00000
     41491 MEOH     2521     MEOH     C1       CD33B    2.314100       11.6110           0   -1.00000   1.30000
     41492 MEOH     2521     MEOH     DC1      DRUD    -2.454100        0.4000           0   0.00000   0.00000
     41493 MEOH     2521     MEOH     O1       OD31H    2.488300       15.5990           0   -1.02800   1.30000
     41494 MEOH     2521     MEOH     DO1      DRUD    -2.488300        0.4000           0   0.00000   0.00000
     41495 MEOH     2521     MEOH     HO1      HDP1A    0.360000        1.0080           0   0.00000   0.00000
     41496 MEOH     2521     MEOH     HO2      DUMH     0.000000        1.0080           0   0.00000   0.00000
     41497 MEOH     2521     MEOH     H1A      HDA3B    0.080000        1.0080           0   0.00000   0.00000
     41498 MEOH     2521     MEOH     H1B      HDA3B    0.080000        1.0080           0   0.00000   0.00000
     41499 MEOH     2521     MEOH     H1C      HDA3B    0.080000        1.0080           0   0.00000   0.00000
     41500 MEOH     2521     MEOH     LP1A     LPD     -0.230000        0.0000           -1   0.00000   0.00000
     41501 MEOH     2521     MEOH     LP1B     LPD     -0.230000        0.0000           -1   0.00000   0.00000
     41502 MEOH     2522     MEOH     C1       CD33B    2.314100       11.6110           0   -1.00000   1.30000
     41503 MEOH     2522     MEOH     DC1      DRUD    -2.454100        0.4000           0   0.00000   0.00000
     41504 MEOH     2522     MEOH     O1       OD31H    2.488300       15.5990           0   -1.02800   1.30000
     41505 MEOH     2522     MEOH     DO1      DRUD    -2.488300        0.4000           0   0.00000   0.00000
     41506 MEOH     2522     MEOH     HO1      HDP1A    0.360000        1.0080           0   0.00000   0.00000
     41507 MEOH     2522     MEOH     HO2      DUMH     0.000000        1.0080           0   0.00000   0.00000
     41508 MEOH     2522     MEOH     H1A      HDA3B    0.080000        1.0080           0   0.00000   0.00000
     41509 MEOH     2522     MEOH     H1B      HDA3B    0.080000        1.0080           0   0.00000   0.00000
     41510 MEOH     2522     MEOH     H1C      HDA3B    0.080000        1.0080           0   0.00000   0.00000
     41511 MEOH     2522     MEOH     LP1A     LPD     -0.230000        0.0000           -1   0.00000   0.00000
     41512 MEOH     2522     MEOH     LP1B     LPD     -0.230000        0.0000           -1   0.00000   0.00000
     41513 MEOH     2523     MEOH     C1       CD33B    2.314100       11.6110           0   -1.00000   1.30000
     41514 MEOH     2523     MEOH     DC1      DRUD    -2.454100        0.4000           0   0.00000   0.00000
     41515 MEOH     2523     MEOH     O1       OD31H    2.488300       15.5990           0   -1.02800   1.30000
     41516 MEOH     2523     MEOH     DO1      DRUD    -2.488300        0.4000           0   0.00000   0.00000
     41517 MEOH     2523     MEOH     HO1      HDP1A    0.360000        1.0080           0   0.00000   0.00000
     41518 MEOH     2523     MEOH     HO2      DUMH     0.000000        1.0080           0   0.00000   0.00000
     41519 MEOH     2523     MEOH     H1A      HDA3B    0.080000        1.0080           0   0.00000   0.00000
     41520 MEOH     2523     MEOH     H1B      HDA3B    0.080000        1.0080           0   0.00000   0.00000
     41521 MEOH     2523     MEOH     H1C      HDA3B    0.080000        1.0080           0   0.00000   0.00000
     41522 MEOH     2523     MEOH     LP1A     LPD     -0.230000        0.0000           -1   0.00000   0.00000
     41523 MEOH     2523     MEOH     LP1B     LPD     -0.230000        0.0000           -1   0.00000   0.00000
     41524 MEOH     2524     MEOH     C1       CD33B    2.314100       11.6110           0   -1.00000   1.30000
     41525 MEOH     2524     MEOH     DC1      DRUD    -2.454100        0.4000           0   0.00000   0.00000
     41526 MEOH     2524     MEOH     O1       OD31H    2.488300       15.5990           0   -1.02800   1.30000
     41527 MEOH     2524     MEOH     DO1      DRUD    -2.488300        0.4000           0   0.00000   0.00000
     41528 MEOH     2524     MEOH     HO1      HDP1A    0.360000        1.0080           0   0.00000   0.00000
     41529 MEOH     2524     MEOH     HO2      DUMH     0.000000        1.0080           0   0.00000   0.00000
     41530 MEOH     2524     MEOH     H1A      HDA3B    0.080000        1.0080           0   0.00000   0.00000
     41531 MEOH     2524     MEOH     H1B      HDA3B    0.080000        1.0080           0   0.00000   0.00000
     41532 MEOH     2524     MEOH     H1C      HDA3B    0.080000        1.0080           0   0.00000   0.00000
     41533 MEOH     2524     MEOH     LP1A     LPD     -0.230000        0.0000           -1   0.00000   0.00000
     41534 MEOH     2524     MEOH     LP1B     LPD     -0.230000        0.0000           -1   0.00000   0.00000
     41535 MEOH     2525     MEOH     C1       CD33B    2.314100       11.6110           0   -1.00000   1.30000
     41536 MEOH     2525     MEOH     DC1      DRUD    -2.454100        0.4000           0   0.00000   0.00000
     41537 MEOH     2525     MEOH     O1       OD31H    2.488300       15.5990           0   -1.02800   1.30000
     41538 MEOH     2525     MEOH     DO1      DRUD    -2.488300        0.4000           0   0.00000   0.00000
     41539 MEOH     2525     MEOH     HO1      HDP1A    0.360000        1.0080           0   0.00000   0.00000
     41540 MEOH     2525     MEOH     HO2      DUMH     0.000000        1.0080           0   0.00000   0.00000
     41541 MEOH     2525     MEOH     H1A      HDA3B    0.080000        1.0080           0   0.00000   0.00000
     41542 MEOH     2525     MEOH     H1B      HDA3B    0.080000        1.0080           0   0.00000   0.00000
     41543 MEOH     2525     MEOH     H1C      HDA3B    0.080000        1.0080           0   0.00000   0.00000
     41544 MEOH     2525     MEOH     LP1A     LPD     -0.230000        0.0000           -1   0.00000   0.00000
     41545 MEOH     2525     MEOH     LP1B     LPD     -0.230000        0.0000           -1   0.00000   0.00000
     41546 MEOH     2526     MEOH     C1       CD33B    2.314100       11.6110           0   -1.00000   1.30000
     41547 MEOH     2526     MEOH     DC1      DRUD    -2.454100        0.4000           0   0.00000   0.00000
     41548 MEOH     2526     MEOH     O1       OD31H    2.488300       15.5990           0   -1.02800   1.30000
     41549 MEOH     2526     MEOH     DO1      DRUD    -2.488300        0.4000           0   0.00000   0.00000
     41550 MEOH     2526     MEOH     HO1      HDP1A    0.360000        1.0080           0   0.00000   0.00000
     41551 MEOH     2526     MEOH     HO2      DUMH     0.000000        1.0080           0   0.00000   0.00000
     41552 MEOH     2526     MEOH     H1A      HDA3B    0.080000        1.0080           0   0.00000   0.00000
     41553 MEOH     2526     MEOH     H1B      HDA3B    0.080000        1.0080           0   0.00000   0.00000
     41554 MEOH     2526     MEOH     H1C      HDA3B    0.080000        1.0080           0   0.00000   0.00000
     41555 MEOH     2526     MEOH     LP1A     LPD     -0.230000        0.0000           -1   0.00000   0.00000
     41556 MEOH     2526     MEOH     LP1B     LPD     -0.230000        0.0000           -1   0.00000   0.00000
     41557 MEOH     2527     MEOH     C1       CD33B    2.314100       11.6110           0   -1.00000   1.30000
     41558 MEOH     2527     MEOH     DC1      DRUD    -2.454100        0.4000           0   0.00000   0.00000
     41559 MEOH     2527     MEOH     O1       OD31H    2.488300       15.5990           0   -1.02800   1.30000
     41560 MEOH     2527     MEOH     DO1      DRUD    -2.488300        0.4000           0   0.00000   0.00000
     41561 MEOH     2527     MEOH     HO1      HDP1A    0.360000        1.0080           0   0.00000   0.00000
     41562 MEOH     2527     MEOH     HO2      DUMH     0.000000        1.0080           0   0.00000   0.00000
     41563 MEOH     2527     MEOH     H1A      HDA3B    0.080000        1.0080           0   0.00000   0.00000
     41564 MEOH     2527     MEOH     H1B      HDA3B    0.080000        1.0080           0   0.00000   0.00000
     41565 MEOH     2527     MEOH     H1C      HDA3B    0.080000        1.0080           0   0.00000   0.00000
     41566 MEOH     2527     MEOH     LP1A     LPD     -0.230000        0.0000           -1   0.00000   0.00000
     41567 MEOH     2527     MEOH     LP1B     LPD     -0.230000        0.0000           -1   0.00000   0.00000
     41568 MEOH     2528     MEOH     C1       CD33B    2.314100       11.6110           0   -1.00000   1.30000
     41569 MEOH     2528     MEOH     DC1      DRUD    -2.454100        0.4000           0   0.00000   0.00000
     41570 MEOH     2528     MEOH     O1       OD31H    2.488300       15.5990           0   -1.02800   1.30000
     41571 MEOH     2528     MEOH     DO1      DRUD    -2.488300        0.4000           0   0.00000   0.00000
     41572 MEOH     2528     MEOH     HO1      HDP1A    0.360000        1.0080           0   0.00000   0.00000
     41573 MEOH     2528     MEOH     HO2      DUMH     0.000000        1.0080           0   0.00000   0.00000
     41574 MEOH     2528     MEOH     H1A      HDA3B    0.080000        1.0080           0   0.00000   0.00000
     41575 MEOH     2528     MEOH     H1B      HDA3B    0.080000        1.0080           0   0.00000   0.00000
     41576 MEOH     2528     MEOH     H1C      HDA3B    0.080000        1.0080           0   0.00000   0.00000
     41577 MEOH     2528     MEOH     LP1A     LPD     -0.230000        0.0000           -1   0.00000   0.00000
     41578 MEOH     2528     MEOH     LP1B     LPD     -0.230000        0.0000           -1   0.00000   0.00000
     41579 MEOH     2529     MEOH     C1       CD33B    2.314100       11.6110           0   -1.00000   1.30000
     41580 MEOH     2529     MEOH     DC1      DRUD    -2.454100        0.4000           0   0.00000   0.00000
     41581 MEOH     2529     MEOH     O1       OD31H    2.488300       15.5990           0   -1.02800   1.30000
     41582 MEOH     2529     MEOH     DO1      DRUD    -2.488300        0.4000           0   0.00000   0.00000
     41583 MEOH     2529     MEOH     HO1      HDP1A    0.360000        1.0080           0   0.00000   0.00000
     41584 MEOH     2529     MEOH     HO2      DUMH     0.000000        1.0080           0   0.00000   0.00000
     41585 MEOH     2529     MEOH     H1A      HDA3B    0.080000        1.0080           0   0.00000   0.00000
     41586 MEOH     2529     MEOH     H1B      HDA3B    0.080000        1.0080           0   0.00000   0.00000
     41587 MEOH     2529     MEOH     H1C      HDA3B    0.080000        1.0080           0   0.00000   0.00000
     41588 MEOH     2529     MEOH     LP1A     LPD     -0.230000        0.0000           -1   0.00000   0.00000
     41589 MEOH     2529     MEOH     LP1B     LPD     -0.230000        0.0000           -1   0.00000   0.00000
     41590 MEOH     2530     MEOH     C1       CD33B    2.314100       11.6110           0   -1.00000   1.30000
     41591 MEOH     2530     MEOH     DC1      DRUD    -2.454100        0.4000           0   0.00000   0.00000
     41592 MEOH     2530     MEOH     O1       OD31H    2.488300       15.5990           0   -1.02800   1.30000
     41593 MEOH     2530     MEOH     DO1      DRUD    -2.488300        0.4000           0   0.00000   0.00000
     41594 MEOH     2530     MEOH     HO1      HDP1A    0.360000        1.0080           0   0.00000   0.00000
     41595 MEOH     2530     MEOH     HO2      DUMH     0.000000        1.0080           0   0.00000   0.00000
     41596 MEOH     2530     MEOH     H1A      HDA3B    0.080000        1.0080           0   0.00000   0.00000
     41597 MEOH     2530     MEOH     H1B      HDA3B    0.080000        1.0080           0   0.00000   0.00000
     41598 MEOH     2530     MEOH     H1C      HDA3B    0.080000        1.0080           0   0.00000   0.00000
     41599 MEOH     2530     MEOH     LP1A     LPD     -0.230000        0.0000           -1   0.00000   0.00000
     41600 MEOH     2530     MEOH     LP1B     LPD     -0.230000        0.0000           -1   0.00000   0.00000
     41601 MEOH     2531     MEOH     C1       CD33B    2.314100       11.6110           0   -1.00000   1.30000
     41602 MEOH     2531     MEOH     DC1      DRUD    -2.454100        0.4000           0   0.00000   0.00000
     41603 MEOH     2531     MEOH     O1       OD31H    2.488300       15.5990           0   -1.02800   1.30000
     41604 MEOH     2531     MEOH     DO1      DRUD    -2.488300        0.4000           0   0.00000   0.00000
     41605 MEOH     2531     MEOH     HO1      HDP1A    0.360000        1.0080           0   0.00000   0.00000
     41606 MEOH     2531     MEOH     HO2      DUMH     0.000000        1.0080           0   0.00000   0.00000
     41607 MEOH     2531     MEOH     H1A      HDA3B    0.080000        1.0080           0   0.00000   0.00000
     41608 MEOH     2531     MEOH     H1B      HDA3B    0.080000        1.0080           0   0.00000   0.00000
     41609 MEOH     2531     MEOH     H1C      HDA3B    0.080000        1.0080           0   0.00000   0.00000
     41610 MEOH     2531     MEOH     LP1A     LPD     -0.230000        0.0000           -1   0.00000   0.00000
     41611 MEOH     2531     MEOH     LP1B     LPD     -0.230000        0.0000           -1   0.00000   0.00000
     41612 MEOH     2532     MEOH     C1       CD33B    2.314100       11.6110           0   -1.00000   1.30000
     41613 MEOH     2532     MEOH     DC1      DRUD    -2.454100        0.4000           0   0.00000   0.00000
     41614 MEOH     2532     MEOH     O1       OD31H    2.488300       15.5990           0   -1.02800   1.30000
     41615 MEOH     2532     MEOH     DO1      DRUD    -2.488300        0.4000           0   0.00000   0.00000
     41616 MEOH     2532     MEOH     HO1      HDP1A    0.360000        1.0080           0   0.00000   0.00000
     41617 MEOH     2532     MEOH     HO2      DUMH     0.000000        1.0080           0   0.00000   0.00000
     41618 MEOH     2532     MEOH     H1A      HDA3B    0.080000        1.0080           0   0.00000   0.00000
     41619 MEOH     2532     MEOH     H1B      HDA3B    0.080000        1.0080           0   0.00000   0.00000
     41620 MEOH     2532     MEOH     H1C      HDA3B    0.080000        1.0080           0   0.00000   0.00000
     41621 MEOH     2532     MEOH     LP1A     LPD     -0.230000        0.0000           -1   0.00000   0.00000
     41622 MEOH     2532     MEOH     LP1B     LPD     -0.230000        0.0000           -1   0.00000   0.00000
     41623 MEOH     2533     MEOH     C1       CD33B    2.314100       11.6110           0   -1.00000   1.30000
     41624 MEOH     2533     MEOH     DC1      DRUD    -2.454100        0.4000           0   0.00000   0.00000
     41625 MEOH     2533     MEOH     O1       OD31H    2.488300       15.5990           0   -1.02800   1.30000
     41626 MEOH     2533     MEOH     DO1      DRUD    -2.488300        0.4000           0   0.00000   0.00000
     41627 MEOH     2533     MEOH     HO1      HDP1A    0.360000        1.0080           0   0.00000   0.00000
     41628 MEOH     2533     MEOH     HO2      DUMH     0.000000        1.0080           0   0.00000   0.00000
     41629 MEOH     2533     MEOH     H1A      HDA3B    0.080000        1.0080           0   0.00000   0.00000
     41630 MEOH     2533     MEOH     H1B      HDA3B    0.080000        1.0080           0   0.00000   0.00000
     41631 MEOH     2533     MEOH     H1C      HDA3B    0.080000        1.0080           0   0.00000   0.00000
     41632 MEOH     2533     MEOH     LP1A     LPD     -0.230000        0.0000           -1   0.00000   0.00000
     41633 MEOH     2533     MEOH     LP1B     LPD     -0.230000        0.0000           -1   0.00000   0.00000
     41634 MEOH     2534     MEOH     C1       CD33B    2.314100       11.6110           0   -1.00000   1.30000
     41635 MEOH     2534     MEOH     DC1      DRUD    -2.454100        0.4000           0   0.00000   0.00000
     41636 MEOH     2534     MEOH     O1       OD31H    2.488300       15.5990           0   -1.02800   1.30000
     41637 MEOH     2534     MEOH     DO1      DRUD    -2.488300        0.4000           0   0.00000   0.00000
     41638 MEOH     2534     MEOH     HO1      HDP1A    0.360000        1.0080           0   0.00000   0.00000
     41639 MEOH     2534     MEOH     HO2      DUMH     0.000000        1.0080           0   0.00000   0.00000
     41640 MEOH     2534     MEOH     H1A      HDA3B    0.080000        1.0080           0   0.00000   0.00000
     41641 MEOH     2534     MEOH     H1B      HDA3B    0.080000        1.0080           0   0.00000   0.00000
     41642 MEOH     2534     MEOH     H1C      HDA3B    0.080000        1.0080           0   0.00000   0.00000
     41643 MEOH     2534     MEOH     LP1A     LPD     -0.230000        0.0000           -1   0.00000   0.00000
     41644 MEOH     2534     MEOH     LP1B     LPD     -0.230000        0.0000           -1   0.00000   0.00000
     41645 MEOH     2535     MEOH     C1       CD33B    2.314100       11.6110           0   -1.00000   1.30000
     41646 MEOH     2535     MEOH     DC1      DRUD    -2.454100        0.4000           0   0.00000   0.00000
     41647 MEOH     2535     MEOH     O1       OD31H    2.488300       15.5990           0   -1.02800   1.30000
     41648 MEOH     2535     MEOH     DO1      DRUD    -2.488300        0.4000           0   0.00000   0.00000
     41649 MEOH     2535     MEOH     HO1      HDP1A    0.360000        1.0080           0   0.00000   0.00000
     41650 MEOH     2535     MEOH     HO2      DUMH     0.000000        1.0080           0   0.00000   0.00000
     41651 MEOH     2535     MEOH     H1A      HDA3B    0.080000        1.0080           0   0.00000   0.00000
     41652 MEOH     2535     MEOH     H1B      HDA3B    0.080000        1.0080           0   0.00000   0.00000
     41653 MEOH     2535     MEOH     H1C      HDA3B    0.080000        1.0080           0   0.00000   0.00000
     41654 MEOH     2535     MEOH     LP1A     LPD     -0.230000        0.0000           -1   0.00000   0.00000
     41655 MEOH     2535     MEOH     LP1B     LPD     -0.230000        0.0000           -1   0.00000   0.00000
     41656 MEOH     2536     MEOH     C1       CD33B    2.314100       11.6110           0   -1.00000   1.30000
     41657 MEOH     2536     MEOH     DC1      DRUD    -2.454100        0.4000           0   0.00000   0.00000
     41658 MEOH     2536     MEOH     O1       OD31H    2.488300       15.5990           0   -1.02800   1.30000
     41659 MEOH     2536     MEOH     DO1      DRUD    -2.488300        0.4000           0   0.00000   0.00000
     41660 MEOH     2536     MEOH     HO1      HDP1A    0.360000        1.0080           0   0.00000   0.00000
     41661 MEOH     2536     MEOH     HO2      DUMH     0.000000        1.0080           0   0.00000   0.00000
     41662 MEOH     2536     MEOH     H1A      HDA3B    0.080000        1.0080           0   0.00000   0.00000
     41663 MEOH     2536     MEOH     H1B      HDA3B    0.080000        1.0080           0   0.00000   0.00000
     41664 MEOH     2536     MEOH     H1C      HDA3B    0.080000        1.0080           0   0.00000   0.00000
     41665 MEOH     2536     MEOH     LP1A     LPD     -0.230000        0.0000           -1   0.00000   0.00000
     41666 MEOH     2536     MEOH     LP1B     LPD     -0.230000        0.0000           -1   0.00000   0.00000
     41667 MEOH     2537     MEOH     C1       CD33B    2.314100       11.6110           0   -1.00000   1.30000
     41668 MEOH     2537     MEOH     DC1      DRUD    -2.454100        0.4000           0   0.00000   0.00000
     41669 MEOH     2537     MEOH     O1       OD31H    2.488300       15.5990           0   -1.02800   1.30000
     41670 MEOH     2537     MEOH     DO1      DRUD    -2.488300        0.4000           0   0.00000   0.00000
     41671 MEOH     2537     MEOH     HO1      HDP1A    0.360000        1.0080           0   0.00000   0.00000
     41672 MEOH     2537     MEOH     HO2      DUMH     0.000000        1.0080           0   0.00000   0.00000
     41673 MEOH     2537     MEOH     H1A      HDA3B    0.080000        1.0080           0   0.00000   0.00000
     41674 MEOH     2537     MEOH     H1B      HDA3B    0.080000        1.0080           0   0.00000   0.00000
     41675 MEOH     2537     MEOH     H1C      HDA3B    0.080000        1.0080           0   0.00000   0.00000
     41676 MEOH     2537     MEOH     LP1A     LPD     -0.230000        0.0000           -1   0.00000   0.00000
     41677 MEOH     2537     MEOH     LP1B     LPD     -0.230000        0.0000           -1   0.00000   0.00000
     41678 MEOH     2538     MEOH     C1       CD33B    2.314100       11.6110           0   -1.00000   1.30000
     41679 MEOH     2538     MEOH     DC1      DRUD    -2.454100        0.4000           0   0.00000   0.00000
     41680 MEOH     2538     MEOH     O1       OD31H    2.488300       15.5990           0   -1.02800   1.30000
     41681 MEOH     2538     MEOH     DO1      DRUD    -2.488300        0.4000           0   0.00000   0.00000
     41682 MEOH     2538     MEOH     HO1      HDP1A    0.360000        1.0080           0   0.00000   0.00000
     41683 MEOH     2538     MEOH     HO2      DUMH     0.000000        1.0080           0   0.00000   0.00000
     41684 MEOH     2538     MEOH     H1A      HDA3B    0.080000        1.0080           0   0.00000   0.00000
     41685 MEOH     2538     MEOH     H1B      HDA3B    0.080000        1.0080           0   0.00000   0.00000
     41686 MEOH     2538     MEOH     H1C      HDA3B    0.080000        1.0080           0   0.00000   0.00000
     41687 MEOH     2538     MEOH     LP1A     LPD     -0.230000        0.0000           -1   0.00000   0.00000
     41688 MEOH     2538     MEOH     LP1B     LPD     -0.230000        0.0000           -1   0.00000   0.00000
     41689 MEOH     2539     MEOH     C1       CD33B    2.314100       11.6110           0   -1.00000   1.30000
     41690 MEOH     2539     MEOH     DC1      DRUD    -2.454100        0.4000           0   0.00000   0.00000
     41691 MEOH     2539     MEOH     O1       OD31H    2.488300       15.5990           0   -1.02800   1.30000
     41692 MEOH     2539     MEOH     DO1      DRUD    -2.488300        0.4000           0   0.00000   0.00000
     41693 MEOH     2539     MEOH     HO1      HDP1A    0.360000        1.0080           0   0.00000   0.00000
     41694 MEOH     2539     MEOH     HO2      DUMH     0.000000        1.0080           0   0.00000   0.00000
     41695 MEOH     2539     MEOH     H1A      HDA3B    0.080000        1.0080           0   0.00000   0.00000
     41696 MEOH     2539     MEOH     H1B      HDA3B    0.080000        1.0080           0   0.00000   0.00000
     41697 MEOH     2539     MEOH     H1C      HDA3B    0.080000        1.0080           0   0.00000   0.00000
     41698 MEOH     2539     MEOH     LP1A     LPD     -0.230000        0.0000           -1   0.00000   0.00000
     41699 MEOH     2539     MEOH     LP1B     LPD     -0.230000        0.0000           -1   0.00000   0.00000
     41700 MEOH     2540     MEOH     C1       CD33B    2.314100       11.6110           0   -1.00000   1.30000
     41701 MEOH     2540     MEOH     DC1      DRUD    -2.454100        0.4000           0   0.00000   0.00000
     41702 MEOH     2540     MEOH     O1       OD31H    2.488300       15.5990           0   -1.02800   1.30000
     41703 MEOH     2540     MEOH     DO1      DRUD    -2.488300        0.4000           0   0.00000   0.00000
     41704 MEOH     2540     MEOH     HO1      HDP1A    0.360000        1.0080           0   0.00000   0.00000
     41705 MEOH     2540     MEOH     HO2      DUMH     0.000000        1.0080           0   0.00000   0.00000
     41706 MEOH     2540     MEOH     H1A      HDA3B    0.080000        1.0080           0   0.00000   0.00000
     41707 MEOH     2540     MEOH     H1B      HDA3B    0.080000        1.0080           0   0.00000   0.00000
     41708 MEOH     2540     MEOH     H1C      HDA3B    0.080000        1.0080           0   0.00000   0.00000
     41709 MEOH     2540     MEOH     LP1A     LPD     -0.230000        0.0000           -1   0.00000   0.00000
     41710 MEOH     2540     MEOH     LP1B     LPD     -0.230000        0.0000           -1   0.00000   0.00000
     41711 MEOH     2541     MEOH     C1       CD33B    2.314100       11.6110           0   -1.00000   1.30000
     41712 MEOH     2541     MEOH     DC1      DRUD    -2.454100        0.4000           0   0.00000   0.00000
     41713 MEOH     2541     MEOH     O1       OD31H    2.488300       15.5990           0   -1.02800   1.30000
     41714 MEOH     2541     MEOH     DO1      DRUD    -2.488300        0.4000           0   0.00000   0.00000
     41715 MEOH     2541     MEOH     HO1      HDP1A    0.360000        1.0080           0   0.00000   0.00000
     41716 MEOH     2541     MEOH     HO2      DUMH     0.000000        1.0080           0   0.00000   0.00000
     41717 MEOH     2541     MEOH     H1A      HDA3B    0.080000        1.0080           0   0.00000   0.00000
     41718 MEOH     2541     MEOH     H1B      HDA3B    0.080000        1.0080           0   0.00000   0.00000
     41719 MEOH     2541     MEOH     H1C      HDA3B    0.080000        1.0080           0   0.00000   0.00000
     41720 MEOH     2541     MEOH     LP1A     LPD     -0.230000        0.0000           -1   0.00000   0.00000
     41721 MEOH     2541     MEOH     LP1B     LPD     -0.230000        0.0000           -1   0.00000   0.00000
     41722 MEOH     2542     MEOH     C1       CD33B    2.314100       11.6110           0   -1.00000   1.30000
     41723 MEOH     2542     MEOH     DC1      DRUD    -2.454100        0.4000           0   0.00000   0.00000
     41724 MEOH     2542     MEOH     O1       OD31H    2.488300       15.5990           0   -1.02800   1.30000
     41725 MEOH     2542     MEOH     DO1      DRUD    -2.488300        0.4000           0   0.00000   0.00000
     41726 MEOH     2542     MEOH     HO1      HDP1A    0.360000        1.0080           0   0.00000   0.00000
     41727 MEOH     2542     MEOH     HO2      DUMH     0.000000        1.0080           0   0.00000   0.00000
     41728 MEOH     2542     MEOH     H1A      HDA3B    0.080000        1.0080           0   0.00000   0.00000
     41729 MEOH     2542     MEOH     H1B      HDA3B    0.080000        1.0080           0   0.00000   0.00000
     41730 MEOH     2542     MEOH     H1C      HDA3B    0.080000        1.0080           0   0.00000   0.00000
     41731 MEOH     2542     MEOH     LP1A     LPD     -0.230000        0.0000           -1   0.00000   0.00000
     41732 MEOH     2542     MEOH     LP1B     LPD     -0.230000        0.0000           -1   0.00000   0.00000
     41733 MEOH     2543     MEOH     C1       CD33B    2.314100       11.6110           0   -1.00000   1.30000
     41734 MEOH     2543     MEOH     DC1      DRUD    -2.454100        0.4000           0   0.00000   0.00000
     41735 MEOH     2543     MEOH     O1       OD31H    2.488300       15.5990           0   -1.02800   1.30000
     41736 MEOH     2543     MEOH     DO1      DRUD    -2.488300        0.4000           0   0.00000   0.00000
     41737 MEOH     2543     MEOH     HO1      HDP1A    0.360000        1.0080           0   0.00000   0.00000
     41738 MEOH     2543     MEOH     HO2      DUMH     0.000000        1.0080           0   0.00000   0.00000
     41739 MEOH     2543     MEOH     H1A      HDA3B    0.080000        1.0080           0   0.00000   0.00000
     41740 MEOH     2543     MEOH     H1B      HDA3B    0.080000        1.0080           0   0.00000   0.00000
     41741 MEOH     2543     MEOH     H1C      HDA3B    0.080000        1.0080           0   0.00000   0.00000
     41742 MEOH     2543     MEOH     LP1A     LPD     -0.230000        0.0000           -1   0.00000   0.00000
     41743 MEOH     2543     MEOH     LP1B     LPD     -0.230000        0.0000           -1   0.00000   0.00000
     41744 MEOH     2544     MEOH     C1       CD33B    2.314100       11.6110           0   -1.00000   1.30000
     41745 MEOH     2544     MEOH     DC1      DRUD    -2.454100        0.4000           0   0.00000   0.00000
     41746 MEOH     2544     MEOH     O1       OD31H    2.488300       15.5990           0   -1.02800   1.30000
     41747 MEOH     2544     MEOH     DO1      DRUD    -2.488300        0.4000           0   0.00000   0.00000
     41748 MEOH     2544     MEOH     HO1      HDP1A    0.360000        1.0080           0   0.00000   0.00000
     41749 MEOH     2544     MEOH     HO2      DUMH     0.000000        1.0080           0   0.00000   0.00000
     41750 MEOH     2544     MEOH     H1A      HDA3B    0.080000        1.0080           0   0.00000   0.00000
     41751 MEOH     2544     MEOH     H1B      HDA3B    0.080000        1.0080           0   0.00000   0.00000
     41752 MEOH     2544     MEOH     H1C      HDA3B    0.080000        1.0080           0   0.00000   0.00000
     41753 MEOH     2544     MEOH     LP1A     LPD     -0.230000        0.0000           -1   0.00000   0.00000
     41754 MEOH     2544     MEOH     LP1B     LPD     -0.230000        0.0000           -1   0.00000   0.00000
     41755 MEOH     2545     MEOH     C1       CD33B    2.314100       11.6110           0   -1.00000   1.30000
     41756 MEOH     2545     MEOH     DC1      DRUD    -2.454100        0.4000           0   0.00000   0.00000
     41757 MEOH     2545     MEOH     O1       OD31H    2.488300       15.5990           0   -1.02800   1.30000
     41758 MEOH     2545     MEOH     DO1      DRUD    -2.488300        0.4000           0   0.00000   0.00000
     41759 MEOH     2545     MEOH     HO1      HDP1A    0.360000        1.0080           0   0.00000   0.00000
     41760 MEOH     2545     MEOH     HO2      DUMH     0.000000        1.0080           0   0.00000   0.00000
     41761 MEOH     2545     MEOH     H1A      HDA3B    0.080000        1.0080           0   0.00000   0.00000
     41762 MEOH     2545     MEOH     H1B      HDA3B    0.080000        1.0080           0   0.00000   0.00000
     41763 MEOH     2545     MEOH     H1C      HDA3B    0.080000        1.0080           0   0.00000   0.00000
     41764 MEOH     2545     MEOH     LP1A     LPD     -0.230000        0.0000           -1   0.00000   0.00000
     41765 MEOH     2545     MEOH     LP1B     LPD     -0.230000        0.0000           -1   0.00000   0.00000
     41766 MEOH     2546     MEOH     C1       CD33B    2.314100       11.6110           0   -1.00000   1.30000
     41767 MEOH     2546     MEOH     DC1      DRUD    -2.454100        0.4000           0   0.00000   0.00000
     41768 MEOH     2546     MEOH     O1       OD31H    2.488300       15.5990           0   -1.02800   1.30000
     41769 MEOH     2546     MEOH     DO1      DRUD    -2.488300        0.4000           0   0.00000   0.00000
     41770 MEOH     2546     MEOH     HO1      HDP1A    0.360000        1.0080           0   0.00000   0.00000
     41771 MEOH     2546     MEOH     HO2      DUMH     0.000000        1.0080           0   0.00000   0.00000
     41772 MEOH     2546     MEOH     H1A      HDA3B    0.080000        1.0080           0   0.00000   0.00000
     41773 MEOH     2546     MEOH     H1B      HDA3B    0.080000        1.0080           0   0.00000   0.00000
     41774 MEOH     2546     MEOH     H1C      HDA3B    0.080000        1.0080           0   0.00000   0.00000
     41775 MEOH     2546     MEOH     LP1A     LPD     -0.230000        0.0000           -1   0.00000   0.00000
     41776 MEOH     2546     MEOH     LP1B     LPD     -0.230000        0.0000           -1   0.00000   0.00000
     41777 MEOH     2547     MEOH     C1       CD33B    2.314100       11.6110           0   -1.00000   1.30000
     41778 MEOH     2547     MEOH     DC1      DRUD    -2.454100        0.4000           0   0.00000   0.00000
     41779 MEOH     2547     MEOH     O1       OD31H    2.488300       15.5990           0   -1.02800   1.30000
     41780 MEOH     2547     MEOH     DO1      DRUD    -2.488300        0.4000           0   0.00000   0.00000
     41781 MEOH     2547     MEOH     HO1      HDP1A    0.360000        1.0080           0   0.00000   0.00000
     41782 MEOH     2547     MEOH     HO2      DUMH     0.000000        1.0080           0   0.00000   0.00000
     41783 MEOH     2547     MEOH     H1A      HDA3B    0.080000        1.0080           0   0.00000   0.00000
     41784 MEOH     2547     MEOH     H1B      HDA3B    0.080000        1.0080           0   0.00000   0.00000
     41785 MEOH     2547     MEOH     H1C      HDA3B    0.080000        1.0080           0   0.00000   0.00000
     41786 MEOH     2547     MEOH     LP1A     LPD     -0.230000        0.0000           -1   0.00000   0.00000
     41787 MEOH     2547     MEOH     LP1B     LPD     -0.230000        0.0000           -1   0.00000   0.00000
     41788 MEOH     2548     MEOH     C1       CD33B    2.314100       11.6110           0   -1.00000   1.30000
     41789 MEOH     2548     MEOH     DC1      DRUD    -2.454100        0.4000           0   0.00000   0.00000
     41790 MEOH     2548     MEOH     O1       OD31H    2.488300       15.5990           0   -1.02800   1.30000
     41791 MEOH     2548     MEOH     DO1      DRUD    -2.488300        0.4000           0   0.00000   0.00000
     41792 MEOH     2548     MEOH     HO1      HDP1A    0.360000        1.0080           0   0.00000   0.00000
     41793 MEOH     2548     MEOH     HO2      DUMH     0.000000        1.0080           0   0.00000   0.00000
     41794 MEOH     2548     MEOH     H1A      HDA3B    0.080000        1.0080           0   0.00000   0.00000
     41795 MEOH     2548     MEOH     H1B      HDA3B    0.080000        1.0080           0   0.00000   0.00000
     41796 MEOH     2548     MEOH     H1C      HDA3B    0.080000        1.0080           0   0.00000   0.00000
     41797 MEOH     2548     MEOH     LP1A     LPD     -0.230000        0.0000           -1   0.00000   0.00000
     41798 MEOH     2548     MEOH     LP1B     LPD     -0.230000        0.0000           -1   0.00000   0.00000
     41799 MEOH     2549     MEOH     C1       CD33B    2.314100       11.6110           0   -1.00000   1.30000
     41800 MEOH     2549     MEOH     DC1      DRUD    -2.454100        0.4000           0   0.00000   0.00000
     41801 MEOH     2549     MEOH     O1       OD31H    2.488300       15.5990           0   -1.02800   1.30000
     41802 MEOH     2549     MEOH     DO1      DRUD    -2.488300        0.4000           0   0.00000   0.00000
     41803 MEOH     2549     MEOH     HO1      HDP1A    0.360000        1.0080           0   0.00000   0.00000
     41804 MEOH     2549     MEOH     HO2      DUMH     0.000000        1.0080           0   0.00000   0.00000
     41805 MEOH     2549     MEOH     H1A      HDA3B    0.080000        1.0080           0   0.00000   0.00000
     41806 MEOH     2549     MEOH     H1B      HDA3B    0.080000        1.0080           0   0.00000   0.00000
     41807 MEOH     2549     MEOH     H1C      HDA3B    0.080000        1.0080           0   0.00000   0.00000
     41808 MEOH     2549     MEOH     LP1A     LPD     -0.230000        0.0000           -1   0.00000   0.00000
     41809 MEOH     2549     MEOH     LP1B     LPD     -0.230000        0.0000           -1   0.00000   0.00000
     41810 MEOH     2550     MEOH     C1       CD33B    2.314100       11.6110           0   -1.00000   1.30000
     41811 MEOH     2550     MEOH     DC1      DRUD    -2.454100        0.4000           0   0.00000   0.00000
     41812 MEOH     2550     MEOH     O1       OD31H    2.488300       15.5990           0   -1.02800   1.30000
     41813 MEOH     2550     MEOH     DO1      DRUD    -2.488300        0.4000           0   0.00000   0.00000
     41814 MEOH     2550     MEOH     HO1      HDP1A    0.360000        1.0080           0   0.00000   0.00000
     41815 MEOH     2550     MEOH     HO2      DUMH     0.000000        1.0080           0   0.00000   0.00000
     41816 MEOH     2550     MEOH     H1A      HDA3B    0.080000        1.0080           0   0.00000   0.00000
     41817 MEOH     2550     MEOH     H1B      HDA3B    0.080000        1.0080           0   0.00000   0.00000
     41818 MEOH     2550     MEOH     H1C      HDA3B    0.080000        1.0080           0   0.00000   0.00000
     41819 MEOH     2550     MEOH     LP1A     LPD     -0.230000        0.0000           -1   0.00000   0.00000
     41820 MEOH     2550     MEOH     LP1B     LPD     -0.230000        0.0000           -1   0.00000   0.00000
     41821 MEOH     2551     MEOH     C1       CD33B    2.314100       11.6110           0   -1.00000   1.30000
     41822 MEOH     2551     MEOH     DC1      DRUD    -2.454100        0.4000           0   0.00000   0.00000
     41823 MEOH     2551     MEOH     O1       OD31H    2.488300       15.5990           0   -1.02800   1.30000
     41824 MEOH     2551     MEOH     DO1      DRUD    -2.488300        0.4000           0   0.00000   0.00000
     41825 MEOH     2551     MEOH     HO1      HDP1A    0.360000        1.0080           0   0.00000   0.00000
     41826 MEOH     2551     MEOH     HO2      DUMH     0.000000        1.0080           0   0.00000   0.00000
     41827 MEOH     2551     MEOH     H1A      HDA3B    0.080000        1.0080           0   0.00000   0.00000
     41828 MEOH     2551     MEOH     H1B      HDA3B    0.080000        1.0080           0   0.00000   0.00000
     41829 MEOH     2551     MEOH     H1C      HDA3B    0.080000        1.0080           0   0.00000   0.00000
     41830 MEOH     2551     MEOH     LP1A     LPD     -0.230000        0.0000           -1   0.00000   0.00000
     41831 MEOH     2551     MEOH     LP1B     LPD     -0.230000        0.0000           -1   0.00000   0.00000
     41832 MEOH     2552     MEOH     C1       CD33B    2.314100       11.6110           0   -1.00000   1.30000
     41833 MEOH     2552     MEOH     DC1      DRUD    -2.454100        0.4000           0   0.00000   0.00000
     41834 MEOH     2552     MEOH     O1       OD31H    2.488300       15.5990           0   -1.02800   1.30000
     41835 MEOH     2552     MEOH     DO1      DRUD    -2.488300        0.4000           0   0.00000   0.00000
     41836 MEOH     2552     MEOH     HO1      HDP1A    0.360000        1.0080           0   0.00000   0.00000
     41837 MEOH     2552     MEOH     HO2      DUMH     0.000000        1.0080           0   0.00000   0.00000
     41838 MEOH     2552     MEOH     H1A      HDA3B    0.080000        1.0080           0   0.00000   0.00000
     41839 MEOH     2552     MEOH     H1B      HDA3B    0.080000        1.0080           0   0.00000   0.00000
     41840 MEOH     2552     MEOH     H1C      HDA3B    0.080000        1.0080           0   0.00000   0.00000
     41841 MEOH     2552     MEOH     LP1A     LPD     -0.230000        0.0000           -1   0.00000   0.00000
     41842 MEOH     2552     MEOH     LP1B     LPD     -0.230000        0.0000           -1   0.00000   0.00000
     41843 MEOH     2553     MEOH     C1       CD33B    2.314100       11.6110           0   -1.00000   1.30000
     41844 MEOH     2553     MEOH     DC1      DRUD    -2.454100        0.4000           0   0.00000   0.00000
     41845 MEOH     2553     MEOH     O1       OD31H    2.488300       15.5990           0   -1.02800   1.30000
     41846 MEOH     2553     MEOH     DO1      DRUD    -2.488300        0.4000           0   0.00000   0.00000
     41847 MEOH     2553     MEOH     HO1      HDP1A    0.360000        1.0080           0   0.00000   0.00000
     41848 MEOH     2553     MEOH     HO2      DUMH     0.000000        1.0080           0   0.00000   0.00000
     41849 MEOH     2553     MEOH     H1A      HDA3B    0.080000        1.0080           0   0.00000   0.00000
     41850 MEOH     2553     MEOH     H1B      HDA3B    0.080000        1.0080           0   0.00000   0.00000
     41851 MEOH     2553     MEOH     H1C      HDA3B    0.080000        1.0080           0   0.00000   0.00000
     41852 MEOH     2553     MEOH     LP1A     LPD     -0.230000        0.0000           -1   0.00000   0.00000
     41853 MEOH     2553     MEOH     LP1B     LPD     -0.230000        0.0000           -1   0.00000   0.00000
     41854 MEOH     2554     MEOH     C1       CD33B    2.314100       11.6110           0   -1.00000   1.30000
     41855 MEOH     2554     MEOH     DC1      DRUD    -2.454100        0.4000           0   0.00000   0.00000
     41856 MEOH     2554     MEOH     O1       OD31H    2.488300       15.5990           0   -1.02800   1.30000
     41857 MEOH     2554     MEOH     DO1      DRUD    -2.488300        0.4000           0   0.00000   0.00000
     41858 MEOH     2554     MEOH     HO1      HDP1A    0.360000        1.0080           0   0.00000   0.00000
     41859 MEOH     2554     MEOH     HO2      DUMH     0.000000        1.0080           0   0.00000   0.00000
     41860 MEOH     2554     MEOH     H1A      HDA3B    0.080000        1.0080           0   0.00000   0.00000
     41861 MEOH     2554     MEOH     H1B      HDA3B    0.080000        1.0080           0   0.00000   0.00000
     41862 MEOH     2554     MEOH     H1C      HDA3B    0.080000        1.0080           0   0.00000   0.00000
     41863 MEOH     2554     MEOH     LP1A     LPD     -0.230000        0.0000           -1   0.00000   0.00000
     41864 MEOH     2554     MEOH     LP1B     LPD     -0.230000        0.0000           -1   0.00000   0.00000
     41865 MEOH     2555     MEOH     C1       CD33B    2.314100       11.6110           0   -1.00000   1.30000
     41866 MEOH     2555     MEOH     DC1      DRUD    -2.454100        0.4000           0   0.00000   0.00000
     41867 MEOH     2555     MEOH     O1       OD31H    2.488300       15.5990           0   -1.02800   1.30000
     41868 MEOH     2555     MEOH     DO1      DRUD    -2.488300        0.4000           0   0.00000   0.00000
     41869 MEOH     2555     MEOH     HO1      HDP1A    0.360000        1.0080           0   0.00000   0.00000
     41870 MEOH     2555     MEOH     HO2      DUMH     0.000000        1.0080           0   0.00000   0.00000
     41871 MEOH     2555     MEOH     H1A      HDA3B    0.080000        1.0080           0   0.00000   0.00000
     41872 MEOH     2555     MEOH     H1B      HDA3B    0.080000        1.0080           0   0.00000   0.00000
     41873 MEOH     2555     MEOH     H1C      HDA3B    0.080000        1.0080           0   0.00000   0.00000
     41874 MEOH     2555     MEOH     LP1A     LPD     -0.230000        0.0000           -1   0.00000   0.00000
     41875 MEOH     2555     MEOH     LP1B     LPD     -0.230000        0.0000           -1   0.00000   0.00000
     41876 MEOH     2556     MEOH     C1       CD33B    2.314100       11.6110           0   -1.00000   1.30000
     41877 MEOH     2556     MEOH     DC1      DRUD    -2.454100        0.4000           0   0.00000   0.00000
     41878 MEOH     2556     MEOH     O1       OD31H    2.488300       15.5990           0   -1.02800   1.30000
     41879 MEOH     2556     MEOH     DO1      DRUD    -2.488300        0.4000           0   0.00000   0.00000
     41880 MEOH     2556     MEOH     HO1      HDP1A    0.360000        1.0080           0   0.00000   0.00000
     41881 MEOH     2556     MEOH     HO2      DUMH     0.000000        1.0080           0   0.00000   0.00000
     41882 MEOH     2556     MEOH     H1A      HDA3B    0.080000        1.0080           0   0.00000   0.00000
     41883 MEOH     2556     MEOH     H1B      HDA3B    0.080000        1.0080           0   0.00000   0.00000
     41884 MEOH     2556     MEOH     H1C      HDA3B    0.080000        1.0080           0   0.00000   0.00000
     41885 MEOH     2556     MEOH     LP1A     LPD     -0.230000        0.0000           -1   0.00000   0.00000
     41886 MEOH     2556     MEOH     LP1B     LPD     -0.230000        0.0000           -1   0.00000   0.00000
     41887 MEOH     2557     MEOH     C1       CD33B    2.314100       11.6110           0   -1.00000   1.30000
     41888 MEOH     2557     MEOH     DC1      DRUD    -2.454100        0.4000           0   0.00000   0.00000
     41889 MEOH     2557     MEOH     O1       OD31H    2.488300       15.5990           0   -1.02800   1.30000
     41890 MEOH     2557     MEOH     DO1      DRUD    -2.488300        0.4000           0   0.00000   0.00000
     41891 MEOH     2557     MEOH     HO1      HDP1A    0.360000        1.0080           0   0.00000   0.00000
     41892 MEOH     2557     MEOH     HO2      DUMH     0.000000        1.0080           0   0.00000   0.00000
     41893 MEOH     2557     MEOH     H1A      HDA3B    0.080000        1.0080           0   0.00000   0.00000
     41894 MEOH     2557     MEOH     H1B      HDA3B    0.080000        1.0080           0   0.00000   0.00000
     41895 MEOH     2557     MEOH     H1C      HDA3B    0.080000        1.0080           0   0.00000   0.00000
     41896 MEOH     2557     MEOH     LP1A     LPD     -0.230000        0.0000           -1   0.00000   0.00000
     41897 MEOH     2557     MEOH     LP1B     LPD     -0.230000        0.0000           -1   0.00000   0.00000
     41898 MEOH     2558     MEOH     C1       CD33B    2.314100       11.6110           0   -1.00000   1.30000
     41899 MEOH     2558     MEOH     DC1      DRUD    -2.454100        0.4000           0   0.00000   0.00000
     41900 MEOH     2558     MEOH     O1       OD31H    2.488300       15.5990           0   -1.02800   1.30000
     41901 MEOH     2558     MEOH     DO1      DRUD    -2.488300        0.4000           0   0.00000   0.00000
     41902 MEOH     2558     MEOH     HO1      HDP1A    0.360000        1.0080           0   0.00000   0.00000
     41903 MEOH     2558     MEOH     HO2      DUMH     0.000000        1.0080           0   0.00000   0.00000
     41904 MEOH     2558     MEOH     H1A      HDA3B    0.080000        1.0080           0   0.00000   0.00000
     41905 MEOH     2558     MEOH     H1B      HDA3B    0.080000        1.0080           0   0.00000   0.00000
     41906 MEOH     2558     MEOH     H1C      HDA3B    0.080000        1.0080           0   0.00000   0.00000
     41907 MEOH     2558     MEOH     LP1A     LPD     -0.230000        0.0000           -1   0.00000   0.00000
     41908 MEOH     2558     MEOH     LP1B     LPD     -0.230000        0.0000           -1   0.00000   0.00000
     41909 MEOH     2559     MEOH     C1       CD33B    2.314100       11.6110           0   -1.00000   1.30000
     41910 MEOH     2559     MEOH     DC1      DRUD    -2.454100        0.4000           0   0.00000   0.00000
     41911 MEOH     2559     MEOH     O1       OD31H    2.488300       15.5990           0   -1.02800   1.30000
     41912 MEOH     2559     MEOH     DO1      DRUD    -2.488300        0.4000           0   0.00000   0.00000
     41913 MEOH     2559     MEOH     HO1      HDP1A    0.360000        1.0080           0   0.00000   0.00000
     41914 MEOH     2559     MEOH     HO2      DUMH     0.000000        1.0080           0   0.00000   0.00000
     41915 MEOH     2559     MEOH     H1A      HDA3B    0.080000        1.0080           0   0.00000   0.00000
     41916 MEOH     2559     MEOH     H1B      HDA3B    0.080000        1.0080           0   0.00000   0.00000
     41917 MEOH     2559     MEOH     H1C      HDA3B    0.080000        1.0080           0   0.00000   0.00000
     41918 MEOH     2559     MEOH     LP1A     LPD     -0.230000        0.0000           -1   0.00000   0.00000
     41919 MEOH     2559     MEOH     LP1B     LPD     -0.230000        0.0000           -1   0.00000   0.00000
     41920 MEOH     2560     MEOH     C1       CD33B    2.314100       11.6110           0   -1.00000   1.30000
     41921 MEOH     2560     MEOH     DC1      DRUD    -2.454100        0.4000           0   0.00000   0.00000
     41922 MEOH     2560     MEOH     O1       OD31H    2.488300       15.5990           0   -1.02800   1.30000
     41923 MEOH     2560     MEOH     DO1      DRUD    -2.488300        0.4000           0   0.00000   0.00000
     41924 MEOH     2560     MEOH     HO1      HDP1A    0.360000        1.0080           0   0.00000   0.00000
     41925 MEOH     2560     MEOH     HO2      DUMH     0.000000        1.0080           0   0.00000   0.00000
     41926 MEOH     2560     MEOH     H1A      HDA3B    0.080000        1.0080           0   0.00000   0.00000
     41927 MEOH     2560     MEOH     H1B      HDA3B    0.080000        1.0080           0   0.00000   0.00000
     41928 MEOH     2560     MEOH     H1C      HDA3B    0.080000        1.0080           0   0.00000   0.00000
     41929 MEOH     2560     MEOH     LP1A     LPD     -0.230000        0.0000           -1   0.00000   0.00000
     41930 MEOH     2560     MEOH     LP1B     LPD     -0.230000        0.0000           -1   0.00000   0.00000
     41931 MEOH     2561     MEOH     C1       CD33B    2.314100       11.6110           0   -1.00000   1.30000
     41932 MEOH     2561     MEOH     DC1      DRUD    -2.454100        0.4000           0   0.00000   0.00000
     41933 MEOH     2561     MEOH     O1       OD31H    2.488300       15.5990           0   -1.02800   1.30000
     41934 MEOH     2561     MEOH     DO1      DRUD    -2.488300        0.4000           0   0.00000   0.00000
     41935 MEOH     2561     MEOH     HO1      HDP1A    0.360000        1.0080           0   0.00000   0.00000
     41936 MEOH     2561     MEOH     HO2      DUMH     0.000000        1.0080           0   0.00000   0.00000
     41937 MEOH     2561     MEOH     H1A      HDA3B    0.080000        1.0080           0   0.00000   0.00000
     41938 MEOH     2561     MEOH     H1B      HDA3B    0.080000        1.0080           0   0.00000   0.00000
     41939 MEOH     2561     MEOH     H1C      HDA3B    0.080000        1.0080           0   0.00000   0.00000
     41940 MEOH     2561     MEOH     LP1A     LPD     -0.230000        0.0000           -1   0.00000   0.00000
     41941 MEOH     2561     MEOH     LP1B     LPD     -0.230000        0.0000           -1   0.00000   0.00000
     41942 MEOH     2562     MEOH     C1       CD33B    2.314100       11.6110           0   -1.00000   1.30000
     41943 MEOH     2562     MEOH     DC1      DRUD    -2.454100        0.4000           0   0.00000   0.00000
     41944 MEOH     2562     MEOH     O1       OD31H    2.488300       15.5990           0   -1.02800   1.30000
     41945 MEOH     2562     MEOH     DO1      DRUD    -2.488300        0.4000           0   0.00000   0.00000
     41946 MEOH     2562     MEOH     HO1      HDP1A    0.360000        1.0080           0   0.00000   0.00000
     41947 MEOH     2562     MEOH     HO2      DUMH     0.000000        1.0080           0   0.00000   0.00000
     41948 MEOH     2562     MEOH     H1A      HDA3B    0.080000        1.0080           0   0.00000   0.00000
     41949 MEOH     2562     MEOH     H1B      HDA3B    0.080000        1.0080           0   0.00000   0.00000
     41950 MEOH     2562     MEOH     H1C      HDA3B    0.080000        1.0080           0   0.00000   0.00000
     41951 MEOH     2562     MEOH     LP1A     LPD     -0.230000        0.0000           -1   0.00000   0.00000
     41952 MEOH     2562     MEOH     LP1B     LPD     -0.230000        0.0000           -1   0.00000   0.00000
     41953 MEOH     2563     MEOH     C1       CD33B    2.314100       11.6110           0   -1.00000   1.30000
     41954 MEOH     2563     MEOH     DC1      DRUD    -2.454100        0.4000           0   0.00000   0.00000
     41955 MEOH     2563     MEOH     O1       OD31H    2.488300       15.5990           0   -1.02800   1.30000
     41956 MEOH     2563     MEOH     DO1      DRUD    -2.488300        0.4000           0   0.00000   0.00000
     41957 MEOH     2563     MEOH     HO1      HDP1A    0.360000        1.0080           0   0.00000   0.00000
     41958 MEOH     2563     MEOH     HO2      DUMH     0.000000        1.0080           0   0.00000   0.00000
     41959 MEOH     2563     MEOH     H1A      HDA3B    0.080000        1.0080           0   0.00000   0.00000
     41960 MEOH     2563     MEOH     H1B      HDA3B    0.080000        1.0080           0   0.00000   0.00000
     41961 MEOH     2563     MEOH     H1C      HDA3B    0.080000        1.0080           0   0.00000   0.00000
     41962 MEOH     2563     MEOH     LP1A     LPD     -0.230000        0.0000           -1   0.00000   0.00000
     41963 MEOH     2563     MEOH     LP1B     LPD     -0.230000        0.0000           -1   0.00000   0.00000
     41964 MEOH     2564     MEOH     C1       CD33B    2.314100       11.6110           0   -1.00000   1.30000
     41965 MEOH     2564     MEOH     DC1      DRUD    -2.454100        0.4000           0   0.00000   0.00000
     41966 MEOH     2564     MEOH     O1       OD31H    2.488300       15.5990           0   -1.02800   1.30000
     41967 MEOH     2564     MEOH     DO1      DRUD    -2.488300        0.4000           0   0.00000   0.00000
     41968 MEOH     2564     MEOH     HO1      HDP1A    0.360000        1.0080           0   0.00000   0.00000
     41969 MEOH     2564     MEOH     HO2      DUMH     0.000000        1.0080           0   0.00000   0.00000
     41970 MEOH     2564     MEOH     H1A      HDA3B    0.080000        1.0080           0   0.00000   0.00000
     41971 MEOH     2564     MEOH     H1B      HDA3B    0.080000        1.0080           0   0.00000   0.00000
     41972 MEOH     2564     MEOH     H1C      HDA3B    0.080000        1.0080           0   0.00000   0.00000
     41973 MEOH     2564     MEOH     LP1A     LPD     -0.230000        0.0000           -1   0.00000   0.00000
     41974 MEOH     2564     MEOH     LP1B     LPD     -0.230000        0.0000           -1   0.00000   0.00000
     41975 MEOH     2565     MEOH     C1       CD33B    2.314100       11.6110           0   -1.00000   1.30000
     41976 MEOH     2565     MEOH     DC1      DRUD    -2.454100        0.4000           0   0.00000   0.00000
     41977 MEOH     2565     MEOH     O1       OD31H    2.488300       15.5990           0   -1.02800   1.30000
     41978 MEOH     2565     MEOH     DO1      DRUD    -2.488300        0.4000           0   0.00000   0.00000
     41979 MEOH     2565     MEOH     HO1      HDP1A    0.360000        1.0080           0   0.00000   0.00000
     41980 MEOH     2565     MEOH     HO2      DUMH     0.000000        1.0080           0   0.00000   0.00000
     41981 MEOH     2565     MEOH     H1A      HDA3B    0.080000        1.0080           0   0.00000   0.00000
     41982 MEOH     2565     MEOH     H1B      HDA3B    0.080000        1.0080           0   0.00000   0.00000
     41983 MEOH     2565     MEOH     H1C      HDA3B    0.080000        1.0080           0   0.00000   0.00000
     41984 MEOH     2565     MEOH     LP1A     LPD     -0.230000        0.0000           -1   0.00000   0.00000
     41985 MEOH     2565     MEOH     LP1B     LPD     -0.230000        0.0000           -1   0.00000   0.00000
     41986 MEOH     2566     MEOH     C1       CD33B    2.314100       11.6110           0   -1.00000   1.30000
     41987 MEOH     2566     MEOH     DC1      DRUD    -2.454100        0.4000           0   0.00000   0.00000
     41988 MEOH     2566     MEOH     O1       OD31H    2.488300       15.5990           0   -1.02800   1.30000
     41989 MEOH     2566     MEOH     DO1      DRUD    -2.488300        0.4000           0   0.00000   0.00000
     41990 MEOH     2566     MEOH     HO1      HDP1A    0.360000        1.0080           0   0.00000   0.00000
     41991 MEOH     2566     MEOH     HO2      DUMH     0.000000        1.0080           0   0.00000   0.00000
     41992 MEOH     2566     MEOH     H1A      HDA3B    0.080000        1.0080           0   0.00000   0.00000
     41993 MEOH     2566     MEOH     H1B      HDA3B    0.080000        1.0080           0   0.00000   0.00000
     41994 MEOH     2566     MEOH     H1C      HDA3B    0.080000        1.0080           0   0.00000   0.00000
     41995 MEOH     2566     MEOH     LP1A     LPD     -0.230000        0.0000           -1   0.00000   0.00000
     41996 MEOH     2566     MEOH     LP1B     LPD     -0.230000        0.0000           -1   0.00000   0.00000
     41997 MEOH     2567     MEOH     C1       CD33B    2.314100       11.6110           0   -1.00000   1.30000
     41998 MEOH     2567     MEOH     DC1      DRUD    -2.454100        0.4000           0   0.00000   0.00000
     41999 MEOH     2567     MEOH     O1       OD31H    2.488300       15.5990           0   -1.02800   1.30000
     42000 MEOH     2567     MEOH     DO1      DRUD    -2.488300        0.4000           0   0.00000   0.00000
     42001 MEOH     2567     MEOH     HO1      HDP1A    0.360000        1.0080           0   0.00000   0.00000
     42002 MEOH     2567     MEOH     HO2      DUMH     0.000000        1.0080           0   0.00000   0.00000
     42003 MEOH     2567     MEOH     H1A      HDA3B    0.080000        1.0080           0   0.00000   0.00000
     42004 MEOH     2567     MEOH     H1B      HDA3B    0.080000        1.0080           0   0.00000   0.00000
     42005 MEOH     2567     MEOH     H1C      HDA3B    0.080000        1.0080           0   0.00000   0.00000
     42006 MEOH     2567     MEOH     LP1A     LPD     -0.230000        0.0000           -1   0.00000   0.00000
     42007 MEOH     2567     MEOH     LP1B     LPD     -0.230000        0.0000           -1   0.00000   0.00000
     42008 MEOH     2568     MEOH     C1       CD33B    2.314100       11.6110           0   -1.00000   1.30000
     42009 MEOH     2568     MEOH     DC1      DRUD    -2.454100        0.4000           0   0.00000   0.00000
     42010 MEOH     2568     MEOH     O1       OD31H    2.488300       15.5990           0   -1.02800   1.30000
     42011 MEOH     2568     MEOH     DO1      DRUD    -2.488300        0.4000           0   0.00000   0.00000
     42012 MEOH     2568     MEOH     HO1      HDP1A    0.360000        1.0080           0   0.00000   0.00000
     42013 MEOH     2568     MEOH     HO2      DUMH     0.000000        1.0080           0   0.00000   0.00000
     42014 MEOH     2568     MEOH     H1A      HDA3B    0.080000        1.0080           0   0.00000   0.00000
     42015 MEOH     2568     MEOH     H1B      HDA3B    0.080000        1.0080           0   0.00000   0.00000
     42016 MEOH     2568     MEOH     H1C      HDA3B    0.080000        1.0080           0   0.00000   0.00000
     42017 MEOH     2568     MEOH     LP1A     LPD     -0.230000        0.0000           -1   0.00000   0.00000
     42018 MEOH     2568     MEOH     LP1B     LPD     -0.230000        0.0000           -1   0.00000   0.00000
     42019 MEOH     2569     MEOH     C1       CD33B    2.314100       11.6110           0   -1.00000   1.30000
     42020 MEOH     2569     MEOH     DC1      DRUD    -2.454100        0.4000           0   0.00000   0.00000
     42021 MEOH     2569     MEOH     O1       OD31H    2.488300       15.5990           0   -1.02800   1.30000
     42022 MEOH     2569     MEOH     DO1      DRUD    -2.488300        0.4000           0   0.00000   0.00000
     42023 MEOH     2569     MEOH     HO1      HDP1A    0.360000        1.0080           0   0.00000   0.00000
     42024 MEOH     2569     MEOH     HO2      DUMH     0.000000        1.0080           0   0.00000   0.00000
     42025 MEOH     2569     MEOH     H1A      HDA3B    0.080000        1.0080           0   0.00000   0.00000
     42026 MEOH     2569     MEOH     H1B      HDA3B    0.080000        1.0080           0   0.00000   0.00000
     42027 MEOH     2569     MEOH     H1C      HDA3B    0.080000        1.0080           0   0.00000   0.00000
     42028 MEOH     2569     MEOH     LP1A     LPD     -0.230000        0.0000           -1   0.00000   0.00000
     42029 MEOH     2569     MEOH     LP1B     LPD     -0.230000        0.0000           -1   0.00000   0.00000
     42030 MEOH     2570     MEOH     C1       CD33B    2.314100       11.6110           0   -1.00000   1.30000
     42031 MEOH     2570     MEOH     DC1      DRUD    -2.454100        0.4000           0   0.00000   0.00000
     42032 MEOH     2570     MEOH     O1       OD31H    2.488300       15.5990           0   -1.02800   1.30000
     42033 MEOH     2570     MEOH     DO1      DRUD    -2.488300        0.4000           0   0.00000   0.00000
     42034 MEOH     2570     MEOH     HO1      HDP1A    0.360000        1.0080           0   0.00000   0.00000
     42035 MEOH     2570     MEOH     HO2      DUMH     0.000000        1.0080           0   0.00000   0.00000
     42036 MEOH     2570     MEOH     H1A      HDA3B    0.080000        1.0080           0   0.00000   0.00000
     42037 MEOH     2570     MEOH     H1B      HDA3B    0.080000        1.0080           0   0.00000   0.00000
     42038 MEOH     2570     MEOH     H1C      HDA3B    0.080000        1.0080           0   0.00000   0.00000
     42039 MEOH     2570     MEOH     LP1A     LPD     -0.230000        0.0000           -1   0.00000   0.00000
     42040 MEOH     2570     MEOH     LP1B     LPD     -0.230000        0.0000           -1   0.00000   0.00000
     42041 MEOH     2571     MEOH     C1       CD33B    2.314100       11.6110           0   -1.00000   1.30000
     42042 MEOH     2571     MEOH     DC1      DRUD    -2.454100        0.4000           0   0.00000   0.00000
     42043 MEOH     2571     MEOH     O1       OD31H    2.488300       15.5990           0   -1.02800   1.30000
     42044 MEOH     2571     MEOH     DO1      DRUD    -2.488300        0.4000           0   0.00000   0.00000
     42045 MEOH     2571     MEOH     HO1      HDP1A    0.360000        1.0080           0   0.00000   0.00000
     42046 MEOH     2571     MEOH     HO2      DUMH     0.000000        1.0080           0   0.00000   0.00000
     42047 MEOH     2571     MEOH     H1A      HDA3B    0.080000        1.0080           0   0.00000   0.00000
     42048 MEOH     2571     MEOH     H1B      HDA3B    0.080000        1.0080           0   0.00000   0.00000
     42049 MEOH     2571     MEOH     H1C      HDA3B    0.080000        1.0080           0   0.00000   0.00000
     42050 MEOH     2571     MEOH     LP1A     LPD     -0.230000        0.0000           -1   0.00000   0.00000
     42051 MEOH     2571     MEOH     LP1B     LPD     -0.230000        0.0000           -1   0.00000   0.00000
     42052 MEOH     2572     MEOH     C1       CD33B    2.314100       11.6110           0   -1.00000   1.30000
     42053 MEOH     2572     MEOH     DC1      DRUD    -2.454100        0.4000           0   0.00000   0.00000
     42054 MEOH     2572     MEOH     O1       OD31H    2.488300       15.5990           0   -1.02800   1.30000
     42055 MEOH     2572     MEOH     DO1      DRUD    -2.488300        0.4000           0   0.00000   0.00000
     42056 MEOH     2572     MEOH     HO1      HDP1A    0.360000        1.0080           0   0.00000   0.00000
     42057 MEOH     2572     MEOH     HO2      DUMH     0.000000        1.0080           0   0.00000   0.00000
     42058 MEOH     2572     MEOH     H1A      HDA3B    0.080000        1.0080           0   0.00000   0.00000
     42059 MEOH     2572     MEOH     H1B      HDA3B    0.080000        1.0080           0   0.00000   0.00000
     42060 MEOH     2572     MEOH     H1C      HDA3B    0.080000        1.0080           0   0.00000   0.00000
     42061 MEOH     2572     MEOH     LP1A     LPD     -0.230000        0.0000           -1   0.00000   0.00000
     42062 MEOH     2572     MEOH     LP1B     LPD     -0.230000        0.0000           -1   0.00000   0.00000
     42063 MEOH     2573     MEOH     C1       CD33B    2.314100       11.6110           0   -1.00000   1.30000
     42064 MEOH     2573     MEOH     DC1      DRUD    -2.454100        0.4000           0   0.00000   0.00000
     42065 MEOH     2573     MEOH     O1       OD31H    2.488300       15.5990           0   -1.02800   1.30000
     42066 MEOH     2573     MEOH     DO1      DRUD    -2.488300        0.4000           0   0.00000   0.00000
     42067 MEOH     2573     MEOH     HO1      HDP1A    0.360000        1.0080           0   0.00000   0.00000
     42068 MEOH     2573     MEOH     HO2      DUMH     0.000000        1.0080           0   0.00000   0.00000
     42069 MEOH     2573     MEOH     H1A      HDA3B    0.080000        1.0080           0   0.00000   0.00000
     42070 MEOH     2573     MEOH     H1B      HDA3B    0.080000        1.0080           0   0.00000   0.00000
     42071 MEOH     2573     MEOH     H1C      HDA3B    0.080000        1.0080           0   0.00000   0.00000
     42072 MEOH     2573     MEOH     LP1A     LPD     -0.230000        0.0000           -1   0.00000   0.00000
     42073 MEOH     2573     MEOH     LP1B     LPD     -0.230000        0.0000           -1   0.00000   0.00000
     42074 MEOH     2574     MEOH     C1       CD33B    2.314100       11.6110           0   -1.00000   1.30000
     42075 MEOH     2574     MEOH     DC1      DRUD    -2.454100        0.4000           0   0.00000   0.00000
     42076 MEOH     2574     MEOH     O1       OD31H    2.488300       15.5990           0   -1.02800   1.30000
     42077 MEOH     2574     MEOH     DO1      DRUD    -2.488300        0.4000           0   0.00000   0.00000
     42078 MEOH     2574     MEOH     HO1      HDP1A    0.360000        1.0080           0   0.00000   0.00000
     42079 MEOH     2574     MEOH     HO2      DUMH     0.000000        1.0080           0   0.00000   0.00000
     42080 MEOH     2574     MEOH     H1A      HDA3B    0.080000        1.0080           0   0.00000   0.00000
     42081 MEOH     2574     MEOH     H1B      HDA3B    0.080000        1.0080           0   0.00000   0.00000
     42082 MEOH     2574     MEOH     H1C      HDA3B    0.080000        1.0080           0   0.00000   0.00000
     42083 MEOH     2574     MEOH     LP1A     LPD     -0.230000        0.0000           -1   0.00000   0.00000
     42084 MEOH     2574     MEOH     LP1B     LPD     -0.230000        0.0000           -1   0.00000   0.00000
     42085 MEOH     2575     MEOH     C1       CD33B    2.314100       11.6110           0   -1.00000   1.30000
     42086 MEOH     2575     MEOH     DC1      DRUD    -2.454100        0.4000           0   0.00000   0.00000
     42087 MEOH     2575     MEOH     O1       OD31H    2.488300       15.5990           0   -1.02800   1.30000
     42088 MEOH     2575     MEOH     DO1      DRUD    -2.488300        0.4000           0   0.00000   0.00000
     42089 MEOH     2575     MEOH     HO1      HDP1A    0.360000        1.0080           0   0.00000   0.00000
     42090 MEOH     2575     MEOH     HO2      DUMH     0.000000        1.0080           0   0.00000   0.00000
     42091 MEOH     2575     MEOH     H1A      HDA3B    0.080000        1.0080           0   0.00000   0.00000
     42092 MEOH     2575     MEOH     H1B      HDA3B    0.080000        1.0080           0   0.00000   0.00000
     42093 MEOH     2575     MEOH     H1C      HDA3B    0.080000        1.0080           0   0.00000   0.00000
     42094 MEOH     2575     MEOH     LP1A     LPD     -0.230000        0.0000           -1   0.00000   0.00000
     42095 MEOH     2575     MEOH     LP1B     LPD     -0.230000        0.0000           -1   0.00000   0.00000
     42096 MEOH     2576     MEOH     C1       CD33B    2.314100       11.6110           0   -1.00000   1.30000
     42097 MEOH     2576     MEOH     DC1      DRUD    -2.454100        0.4000           0   0.00000   0.00000
     42098 MEOH     2576     MEOH     O1       OD31H    2.488300       15.5990           0   -1.02800   1.30000
     42099 MEOH     2576     MEOH     DO1      DRUD    -2.488300        0.4000           0   0.00000   0.00000
     42100 MEOH     2576     MEOH     HO1      HDP1A    0.360000        1.0080           0   0.00000   0.00000
     42101 MEOH     2576     MEOH     HO2      DUMH     0.000000        1.0080           0   0.00000   0.00000
     42102 MEOH     2576     MEOH     H1A      HDA3B    0.080000        1.0080           0   0.00000   0.00000
     42103 MEOH     2576     MEOH     H1B      HDA3B    0.080000        1.0080           0   0.00000   0.00000
     42104 MEOH     2576     MEOH     H1C      HDA3B    0.080000        1.0080           0   0.00000   0.00000
     42105 MEOH     2576     MEOH     LP1A     LPD     -0.230000        0.0000           -1   0.00000   0.00000
     42106 MEOH     2576     MEOH     LP1B     LPD     -0.230000        0.0000           -1   0.00000   0.00000
     42107 MEOH     2577     MEOH     C1       CD33B    2.314100       11.6110           0   -1.00000   1.30000
     42108 MEOH     2577     MEOH     DC1      DRUD    -2.454100        0.4000           0   0.00000   0.00000
     42109 MEOH     2577     MEOH     O1       OD31H    2.488300       15.5990           0   -1.02800   1.30000
     42110 MEOH     2577     MEOH     DO1      DRUD    -2.488300        0.4000           0   0.00000   0.00000
     42111 MEOH     2577     MEOH     HO1      HDP1A    0.360000        1.0080           0   0.00000   0.00000
     42112 MEOH     2577     MEOH     HO2      DUMH     0.000000        1.0080           0   0.00000   0.00000
     42113 MEOH     2577     MEOH     H1A      HDA3B    0.080000        1.0080           0   0.00000   0.00000
     42114 MEOH     2577     MEOH     H1B      HDA3B    0.080000        1.0080           0   0.00000   0.00000
     42115 MEOH     2577     MEOH     H1C      HDA3B    0.080000        1.0080           0   0.00000   0.00000
     42116 MEOH     2577     MEOH     LP1A     LPD     -0.230000        0.0000           -1   0.00000   0.00000
     42117 MEOH     2577     MEOH     LP1B     LPD     -0.230000        0.0000           -1   0.00000   0.00000
     42118 MEOH     2578     MEOH     C1       CD33B    2.314100       11.6110           0   -1.00000   1.30000
     42119 MEOH     2578     MEOH     DC1      DRUD    -2.454100        0.4000           0   0.00000   0.00000
     42120 MEOH     2578     MEOH     O1       OD31H    2.488300       15.5990           0   -1.02800   1.30000
     42121 MEOH     2578     MEOH     DO1      DRUD    -2.488300        0.4000           0   0.00000   0.00000
     42122 MEOH     2578     MEOH     HO1      HDP1A    0.360000        1.0080           0   0.00000   0.00000
     42123 MEOH     2578     MEOH     HO2      DUMH     0.000000        1.0080           0   0.00000   0.00000
     42124 MEOH     2578     MEOH     H1A      HDA3B    0.080000        1.0080           0   0.00000   0.00000
     42125 MEOH     2578     MEOH     H1B      HDA3B    0.080000        1.0080           0   0.00000   0.00000
     42126 MEOH     2578     MEOH     H1C      HDA3B    0.080000        1.0080           0   0.00000   0.00000
     42127 MEOH     2578     MEOH     LP1A     LPD     -0.230000        0.0000           -1   0.00000   0.00000
     42128 MEOH     2578     MEOH     LP1B     LPD     -0.230000        0.0000           -1   0.00000   0.00000
     42129 MEOH     2579     MEOH     C1       CD33B    2.314100       11.6110           0   -1.00000   1.30000
     42130 MEOH     2579     MEOH     DC1      DRUD    -2.454100        0.4000           0   0.00000   0.00000
     42131 MEOH     2579     MEOH     O1       OD31H    2.488300       15.5990           0   -1.02800   1.30000
     42132 MEOH     2579     MEOH     DO1      DRUD    -2.488300        0.4000           0   0.00000   0.00000
     42133 MEOH     2579     MEOH     HO1      HDP1A    0.360000        1.0080           0   0.00000   0.00000
     42134 MEOH     2579     MEOH     HO2      DUMH     0.000000        1.0080           0   0.00000   0.00000
     42135 MEOH     2579     MEOH     H1A      HDA3B    0.080000        1.0080           0   0.00000   0.00000
     42136 MEOH     2579     MEOH     H1B      HDA3B    0.080000        1.0080           0   0.00000   0.00000
     42137 MEOH     2579     MEOH     H1C      HDA3B    0.080000        1.0080           0   0.00000   0.00000
     42138 MEOH     2579     MEOH     LP1A     LPD     -0.230000        0.0000           -1   0.00000   0.00000
     42139 MEOH     2579     MEOH     LP1B     LPD     -0.230000        0.0000           -1   0.00000   0.00000
     42140 MEOH     2580     MEOH     C1       CD33B    2.314100       11.6110           0   -1.00000   1.30000
     42141 MEOH     2580     MEOH     DC1      DRUD    -2.454100        0.4000           0   0.00000   0.00000
     42142 MEOH     2580     MEOH     O1       OD31H    2.488300       15.5990           0   -1.02800   1.30000
     42143 MEOH     2580     MEOH     DO1      DRUD    -2.488300        0.4000           0   0.00000   0.00000
     42144 MEOH     2580     MEOH     HO1      HDP1A    0.360000        1.0080           0   0.00000   0.00000
     42145 MEOH     2580     MEOH     HO2      DUMH     0.000000        1.0080           0   0.00000   0.00000
     42146 MEOH     2580     MEOH     H1A      HDA3B    0.080000        1.0080           0   0.00000   0.00000
     42147 MEOH     2580     MEOH     H1B      HDA3B    0.080000        1.0080           0   0.00000   0.00000
     42148 MEOH     2580     MEOH     H1C      HDA3B    0.080000        1.0080           0   0.00000   0.00000
     42149 MEOH     2580     MEOH     LP1A     LPD     -0.230000        0.0000           -1   0.00000   0.00000
     42150 MEOH     2580     MEOH     LP1B     LPD     -0.230000        0.0000           -1   0.00000   0.00000
     42151 MEOH     2581     MEOH     C1       CD33B    2.314100       11.6110           0   -1.00000   1.30000
     42152 MEOH     2581     MEOH     DC1      DRUD    -2.454100        0.4000           0   0.00000   0.00000
     42153 MEOH     2581     MEOH     O1       OD31H    2.488300       15.5990           0   -1.02800   1.30000
     42154 MEOH     2581     MEOH     DO1      DRUD    -2.488300        0.4000           0   0.00000   0.00000
     42155 MEOH     2581     MEOH     HO1      HDP1A    0.360000        1.0080           0   0.00000   0.00000
     42156 MEOH     2581     MEOH     HO2      DUMH     0.000000        1.0080           0   0.00000   0.00000
     42157 MEOH     2581     MEOH     H1A      HDA3B    0.080000        1.0080           0   0.00000   0.00000
     42158 MEOH     2581     MEOH     H1B      HDA3B    0.080000        1.0080           0   0.00000   0.00000
     42159 MEOH     2581     MEOH     H1C      HDA3B    0.080000        1.0080           0   0.00000   0.00000
     42160 MEOH     2581     MEOH     LP1A     LPD     -0.230000        0.0000           -1   0.00000   0.00000
     42161 MEOH     2581     MEOH     LP1B     LPD     -0.230000        0.0000           -1   0.00000   0.00000
     42162 MEOH     2582     MEOH     C1       CD33B    2.314100       11.6110           0   -1.00000   1.30000
     42163 MEOH     2582     MEOH     DC1      DRUD    -2.454100        0.4000           0   0.00000   0.00000
     42164 MEOH     2582     MEOH     O1       OD31H    2.488300       15.5990           0   -1.02800   1.30000
     42165 MEOH     2582     MEOH     DO1      DRUD    -2.488300        0.4000           0   0.00000   0.00000
     42166 MEOH     2582     MEOH     HO1      HDP1A    0.360000        1.0080           0   0.00000   0.00000
     42167 MEOH     2582     MEOH     HO2      DUMH     0.000000        1.0080           0   0.00000   0.00000
     42168 MEOH     2582     MEOH     H1A      HDA3B    0.080000        1.0080           0   0.00000   0.00000
     42169 MEOH     2582     MEOH     H1B      HDA3B    0.080000        1.0080           0   0.00000   0.00000
     42170 MEOH     2582     MEOH     H1C      HDA3B    0.080000        1.0080           0   0.00000   0.00000
     42171 MEOH     2582     MEOH     LP1A     LPD     -0.230000        0.0000           -1   0.00000   0.00000
     42172 MEOH     2582     MEOH     LP1B     LPD     -0.230000        0.0000           -1   0.00000   0.00000
     42173 MEOH     2583     MEOH     C1       CD33B    2.314100       11.6110           0   -1.00000   1.30000
     42174 MEOH     2583     MEOH     DC1      DRUD    -2.454100        0.4000           0   0.00000   0.00000
     42175 MEOH     2583     MEOH     O1       OD31H    2.488300       15.5990           0   -1.02800   1.30000
     42176 MEOH     2583     MEOH     DO1      DRUD    -2.488300        0.4000           0   0.00000   0.00000
     42177 MEOH     2583     MEOH     HO1      HDP1A    0.360000        1.0080           0   0.00000   0.00000
     42178 MEOH     2583     MEOH     HO2      DUMH     0.000000        1.0080           0   0.00000   0.00000
     42179 MEOH     2583     MEOH     H1A      HDA3B    0.080000        1.0080           0   0.00000   0.00000
     42180 MEOH     2583     MEOH     H1B      HDA3B    0.080000        1.0080           0   0.00000   0.00000
     42181 MEOH     2583     MEOH     H1C      HDA3B    0.080000        1.0080           0   0.00000   0.00000
     42182 MEOH     2583     MEOH     LP1A     LPD     -0.230000        0.0000           -1   0.00000   0.00000
     42183 MEOH     2583     MEOH     LP1B     LPD     -0.230000        0.0000           -1   0.00000   0.00000
     42184 MEOH     2584     MEOH     C1       CD33B    2.314100       11.6110           0   -1.00000   1.30000
     42185 MEOH     2584     MEOH     DC1      DRUD    -2.454100        0.4000           0   0.00000   0.00000
     42186 MEOH     2584     MEOH     O1       OD31H    2.488300       15.5990           0   -1.02800   1.30000
     42187 MEOH     2584     MEOH     DO1      DRUD    -2.488300        0.4000           0   0.00000   0.00000
     42188 MEOH     2584     MEOH     HO1      HDP1A    0.360000        1.0080           0   0.00000   0.00000
     42189 MEOH     2584     MEOH     HO2      DUMH     0.000000        1.0080           0   0.00000   0.00000
     42190 MEOH     2584     MEOH     H1A      HDA3B    0.080000        1.0080           0   0.00000   0.00000
     42191 MEOH     2584     MEOH     H1B      HDA3B    0.080000        1.0080           0   0.00000   0.00000
     42192 MEOH     2584     MEOH     H1C      HDA3B    0.080000        1.0080           0   0.00000   0.00000
     42193 MEOH     2584     MEOH     LP1A     LPD     -0.230000        0.0000           -1   0.00000   0.00000
     42194 MEOH     2584     MEOH     LP1B     LPD     -0.230000        0.0000           -1   0.00000   0.00000
     42195 MEOH     2585     MEOH     C1       CD33B    2.314100       11.6110           0   -1.00000   1.30000
     42196 MEOH     2585     MEOH     DC1      DRUD    -2.454100        0.4000           0   0.00000   0.00000
     42197 MEOH     2585     MEOH     O1       OD31H    2.488300       15.5990           0   -1.02800   1.30000
     42198 MEOH     2585     MEOH     DO1      DRUD    -2.488300        0.4000           0   0.00000   0.00000
     42199 MEOH     2585     MEOH     HO1      HDP1A    0.360000        1.0080           0   0.00000   0.00000
     42200 MEOH     2585     MEOH     HO2      DUMH     0.000000        1.0080           0   0.00000   0.00000
     42201 MEOH     2585     MEOH     H1A      HDA3B    0.080000        1.0080           0   0.00000   0.00000
     42202 MEOH     2585     MEOH     H1B      HDA3B    0.080000        1.0080           0   0.00000   0.00000
     42203 MEOH     2585     MEOH     H1C      HDA3B    0.080000        1.0080           0   0.00000   0.00000
     42204 MEOH     2585     MEOH     LP1A     LPD     -0.230000        0.0000           -1   0.00000   0.00000
     42205 MEOH     2585     MEOH     LP1B     LPD     -0.230000        0.0000           -1   0.00000   0.00000
     42206 MEOH     2586     MEOH     C1       CD33B    2.314100       11.6110           0   -1.00000   1.30000
     42207 MEOH     2586     MEOH     DC1      DRUD    -2.454100        0.4000           0   0.00000   0.00000
     42208 MEOH     2586     MEOH     O1       OD31H    2.488300       15.5990           0   -1.02800   1.30000
     42209 MEOH     2586     MEOH     DO1      DRUD    -2.488300        0.4000           0   0.00000   0.00000
     42210 MEOH     2586     MEOH     HO1      HDP1A    0.360000        1.0080           0   0.00000   0.00000
     42211 MEOH     2586     MEOH     HO2      DUMH     0.000000        1.0080           0   0.00000   0.00000
     42212 MEOH     2586     MEOH     H1A      HDA3B    0.080000        1.0080           0   0.00000   0.00000
     42213 MEOH     2586     MEOH     H1B      HDA3B    0.080000        1.0080           0   0.00000   0.00000
     42214 MEOH     2586     MEOH     H1C      HDA3B    0.080000        1.0080           0   0.00000   0.00000
     42215 MEOH     2586     MEOH     LP1A     LPD     -0.230000        0.0000           -1   0.00000   0.00000
     42216 MEOH     2586     MEOH     LP1B     LPD     -0.230000        0.0000           -1   0.00000   0.00000
     42217 MEOH     2587     MEOH     C1       CD33B    2.314100       11.6110           0   -1.00000   1.30000
     42218 MEOH     2587     MEOH     DC1      DRUD    -2.454100        0.4000           0   0.00000   0.00000
     42219 MEOH     2587     MEOH     O1       OD31H    2.488300       15.5990           0   -1.02800   1.30000
     42220 MEOH     2587     MEOH     DO1      DRUD    -2.488300        0.4000           0   0.00000   0.00000
     42221 MEOH     2587     MEOH     HO1      HDP1A    0.360000        1.0080           0   0.00000   0.00000
     42222 MEOH     2587     MEOH     HO2      DUMH     0.000000        1.0080           0   0.00000   0.00000
     42223 MEOH     2587     MEOH     H1A      HDA3B    0.080000        1.0080           0   0.00000   0.00000
     42224 MEOH     2587     MEOH     H1B      HDA3B    0.080000        1.0080           0   0.00000   0.00000
     42225 MEOH     2587     MEOH     H1C      HDA3B    0.080000        1.0080           0   0.00000   0.00000
     42226 MEOH     2587     MEOH     LP1A     LPD     -0.230000        0.0000           -1   0.00000   0.00000
     42227 MEOH     2587     MEOH     LP1B     LPD     -0.230000        0.0000           -1   0.00000   0.00000
     42228 MEOH     2588     MEOH     C1       CD33B    2.314100       11.6110           0   -1.00000   1.30000
     42229 MEOH     2588     MEOH     DC1      DRUD    -2.454100        0.4000           0   0.00000   0.00000
     42230 MEOH     2588     MEOH     O1       OD31H    2.488300       15.5990           0   -1.02800   1.30000
     42231 MEOH     2588     MEOH     DO1      DRUD    -2.488300        0.4000           0   0.00000   0.00000
     42232 MEOH     2588     MEOH     HO1      HDP1A    0.360000        1.0080           0   0.00000   0.00000
     42233 MEOH     2588     MEOH     HO2      DUMH     0.000000        1.0080           0   0.00000   0.00000
     42234 MEOH     2588     MEOH     H1A      HDA3B    0.080000        1.0080           0   0.00000   0.00000
     42235 MEOH     2588     MEOH     H1B      HDA3B    0.080000        1.0080           0   0.00000   0.00000
     42236 MEOH     2588     MEOH     H1C      HDA3B    0.080000        1.0080           0   0.00000   0.00000
     42237 MEOH     2588     MEOH     LP1A     LPD     -0.230000        0.0000           -1   0.00000   0.00000
     42238 MEOH     2588     MEOH     LP1B     LPD     -0.230000        0.0000           -1   0.00000   0.00000
     42239 MEOH     2589     MEOH     C1       CD33B    2.314100       11.6110           0   -1.00000   1.30000
     42240 MEOH     2589     MEOH     DC1      DRUD    -2.454100        0.4000           0   0.00000   0.00000
     42241 MEOH     2589     MEOH     O1       OD31H    2.488300       15.5990           0   -1.02800   1.30000
     42242 MEOH     2589     MEOH     DO1      DRUD    -2.488300        0.4000           0   0.00000   0.00000
     42243 MEOH     2589     MEOH     HO1      HDP1A    0.360000        1.0080           0   0.00000   0.00000
     42244 MEOH     2589     MEOH     HO2      DUMH     0.000000        1.0080           0   0.00000   0.00000
     42245 MEOH     2589     MEOH     H1A      HDA3B    0.080000        1.0080           0   0.00000   0.00000
     42246 MEOH     2589     MEOH     H1B      HDA3B    0.080000        1.0080           0   0.00000   0.00000
     42247 MEOH     2589     MEOH     H1C      HDA3B    0.080000        1.0080           0   0.00000   0.00000
     42248 MEOH     2589     MEOH     LP1A     LPD     -0.230000        0.0000           -1   0.00000   0.00000
     42249 MEOH     2589     MEOH     LP1B     LPD     -0.230000        0.0000           -1   0.00000   0.00000
     42250 MEOH     2590     MEOH     C1       CD33B    2.314100       11.6110           0   -1.00000   1.30000
     42251 MEOH     2590     MEOH     DC1      DRUD    -2.454100        0.4000           0   0.00000   0.00000
     42252 MEOH     2590     MEOH     O1       OD31H    2.488300       15.5990           0   -1.02800   1.30000
     42253 MEOH     2590     MEOH     DO1      DRUD    -2.488300        0.4000           0   0.00000   0.00000
     42254 MEOH     2590     MEOH     HO1      HDP1A    0.360000        1.0080           0   0.00000   0.00000
     42255 MEOH     2590     MEOH     HO2      DUMH     0.000000        1.0080           0   0.00000   0.00000
     42256 MEOH     2590     MEOH     H1A      HDA3B    0.080000        1.0080           0   0.00000   0.00000
     42257 MEOH     2590     MEOH     H1B      HDA3B    0.080000        1.0080           0   0.00000   0.00000
     42258 MEOH     2590     MEOH     H1C      HDA3B    0.080000        1.0080           0   0.00000   0.00000
     42259 MEOH     2590     MEOH     LP1A     LPD     -0.230000        0.0000           -1   0.00000   0.00000
     42260 MEOH     2590     MEOH     LP1B     LPD     -0.230000        0.0000           -1   0.00000   0.00000
     42261 MEOH     2591     MEOH     C1       CD33B    2.314100       11.6110           0   -1.00000   1.30000
     42262 MEOH     2591     MEOH     DC1      DRUD    -2.454100        0.4000           0   0.00000   0.00000
     42263 MEOH     2591     MEOH     O1       OD31H    2.488300       15.5990           0   -1.02800   1.30000
     42264 MEOH     2591     MEOH     DO1      DRUD    -2.488300        0.4000           0   0.00000   0.00000
     42265 MEOH     2591     MEOH     HO1      HDP1A    0.360000        1.0080           0   0.00000   0.00000
     42266 MEOH     2591     MEOH     HO2      DUMH     0.000000        1.0080           0   0.00000   0.00000
     42267 MEOH     2591     MEOH     H1A      HDA3B    0.080000        1.0080           0   0.00000   0.00000
     42268 MEOH     2591     MEOH     H1B      HDA3B    0.080000        1.0080           0   0.00000   0.00000
     42269 MEOH     2591     MEOH     H1C      HDA3B    0.080000        1.0080           0   0.00000   0.00000
     42270 MEOH     2591     MEOH     LP1A     LPD     -0.230000        0.0000           -1   0.00000   0.00000
     42271 MEOH     2591     MEOH     LP1B     LPD     -0.230000        0.0000           -1   0.00000   0.00000
     42272 MEOH     2592     MEOH     C1       CD33B    2.314100       11.6110           0   -1.00000   1.30000
     42273 MEOH     2592     MEOH     DC1      DRUD    -2.454100        0.4000           0   0.00000   0.00000
     42274 MEOH     2592     MEOH     O1       OD31H    2.488300       15.5990           0   -1.02800   1.30000
     42275 MEOH     2592     MEOH     DO1      DRUD    -2.488300        0.4000           0   0.00000   0.00000
     42276 MEOH     2592     MEOH     HO1      HDP1A    0.360000        1.0080           0   0.00000   0.00000
     42277 MEOH     2592     MEOH     HO2      DUMH     0.000000        1.0080           0   0.00000   0.00000
     42278 MEOH     2592     MEOH     H1A      HDA3B    0.080000        1.0080           0   0.00000   0.00000
     42279 MEOH     2592     MEOH     H1B      HDA3B    0.080000        1.0080           0   0.00000   0.00000
     42280 MEOH     2592     MEOH     H1C      HDA3B    0.080000        1.0080           0   0.00000   0.00000
     42281 MEOH     2592     MEOH     LP1A     LPD     -0.230000        0.0000           -1   0.00000   0.00000
     42282 MEOH     2592     MEOH     LP1B     LPD     -0.230000        0.0000           -1   0.00000   0.00000
     42283 MEOH     2593     MEOH     C1       CD33B    2.314100       11.6110           0   -1.00000   1.30000
     42284 MEOH     2593     MEOH     DC1      DRUD    -2.454100        0.4000           0   0.00000   0.00000
     42285 MEOH     2593     MEOH     O1       OD31H    2.488300       15.5990           0   -1.02800   1.30000
     42286 MEOH     2593     MEOH     DO1      DRUD    -2.488300        0.4000           0   0.00000   0.00000
     42287 MEOH     2593     MEOH     HO1      HDP1A    0.360000        1.0080           0   0.00000   0.00000
     42288 MEOH     2593     MEOH     HO2      DUMH     0.000000        1.0080           0   0.00000   0.00000
     42289 MEOH     2593     MEOH     H1A      HDA3B    0.080000        1.0080           0   0.00000   0.00000
     42290 MEOH     2593     MEOH     H1B      HDA3B    0.080000        1.0080           0   0.00000   0.00000
     42291 MEOH     2593     MEOH     H1C      HDA3B    0.080000        1.0080           0   0.00000   0.00000
     42292 MEOH     2593     MEOH     LP1A     LPD     -0.230000        0.0000           -1   0.00000   0.00000
     42293 MEOH     2593     MEOH     LP1B     LPD     -0.230000        0.0000           -1   0.00000   0.00000
     42294 MEOH     2594     MEOH     C1       CD33B    2.314100       11.6110           0   -1.00000   1.30000
     42295 MEOH     2594     MEOH     DC1      DRUD    -2.454100        0.4000           0   0.00000   0.00000
     42296 MEOH     2594     MEOH     O1       OD31H    2.488300       15.5990           0   -1.02800   1.30000
     42297 MEOH     2594     MEOH     DO1      DRUD    -2.488300        0.4000           0   0.00000   0.00000
     42298 MEOH     2594     MEOH     HO1      HDP1A    0.360000        1.0080           0   0.00000   0.00000
     42299 MEOH     2594     MEOH     HO2      DUMH     0.000000        1.0080           0   0.00000   0.00000
     42300 MEOH     2594     MEOH     H1A      HDA3B    0.080000        1.0080           0   0.00000   0.00000
     42301 MEOH     2594     MEOH     H1B      HDA3B    0.080000        1.0080           0   0.00000   0.00000
     42302 MEOH     2594     MEOH     H1C      HDA3B    0.080000        1.0080           0   0.00000   0.00000
     42303 MEOH     2594     MEOH     LP1A     LPD     -0.230000        0.0000           -1   0.00000   0.00000
     42304 MEOH     2594     MEOH     LP1B     LPD     -0.230000        0.0000           -1   0.00000   0.00000
     42305 MEOH     2595     MEOH     C1       CD33B    2.314100       11.6110           0   -1.00000   1.30000
     42306 MEOH     2595     MEOH     DC1      DRUD    -2.454100        0.4000           0   0.00000   0.00000
     42307 MEOH     2595     MEOH     O1       OD31H    2.488300       15.5990           0   -1.02800   1.30000
     42308 MEOH     2595     MEOH     DO1      DRUD    -2.488300        0.4000           0   0.00000   0.00000
     42309 MEOH     2595     MEOH     HO1      HDP1A    0.360000        1.0080           0   0.00000   0.00000
     42310 MEOH     2595     MEOH     HO2      DUMH     0.000000        1.0080           0   0.00000   0.00000
     42311 MEOH     2595     MEOH     H1A      HDA3B    0.080000        1.0080           0   0.00000   0.00000
     42312 MEOH     2595     MEOH     H1B      HDA3B    0.080000        1.0080           0   0.00000   0.00000
     42313 MEOH     2595     MEOH     H1C      HDA3B    0.080000        1.0080           0   0.00000   0.00000
     42314 MEOH     2595     MEOH     LP1A     LPD     -0.230000        0.0000           -1   0.00000   0.00000
     42315 MEOH     2595     MEOH     LP1B     LPD     -0.230000        0.0000           -1   0.00000   0.00000
     42316 MEOH     2596     MEOH     C1       CD33B    2.314100       11.6110           0   -1.00000   1.30000
     42317 MEOH     2596     MEOH     DC1      DRUD    -2.454100        0.4000           0   0.00000   0.00000
     42318 MEOH     2596     MEOH     O1       OD31H    2.488300       15.5990           0   -1.02800   1.30000
     42319 MEOH     2596     MEOH     DO1      DRUD    -2.488300        0.4000           0   0.00000   0.00000
     42320 MEOH     2596     MEOH     HO1      HDP1A    0.360000        1.0080           0   0.00000   0.00000
     42321 MEOH     2596     MEOH     HO2      DUMH     0.000000        1.0080           0   0.00000   0.00000
     42322 MEOH     2596     MEOH     H1A      HDA3B    0.080000        1.0080           0   0.00000   0.00000
     42323 MEOH     2596     MEOH     H1B      HDA3B    0.080000        1.0080           0   0.00000   0.00000
     42324 MEOH     2596     MEOH     H1C      HDA3B    0.080000        1.0080           0   0.00000   0.00000
     42325 MEOH     2596     MEOH     LP1A     LPD     -0.230000        0.0000           -1   0.00000   0.00000
     42326 MEOH     2596     MEOH     LP1B     LPD     -0.230000        0.0000           -1   0.00000   0.00000
     42327 MEOH     2597     MEOH     C1       CD33B    2.314100       11.6110           0   -1.00000   1.30000
     42328 MEOH     2597     MEOH     DC1      DRUD    -2.454100        0.4000           0   0.00000   0.00000
     42329 MEOH     2597     MEOH     O1       OD31H    2.488300       15.5990           0   -1.02800   1.30000
     42330 MEOH     2597     MEOH     DO1      DRUD    -2.488300        0.4000           0   0.00000   0.00000
     42331 MEOH     2597     MEOH     HO1      HDP1A    0.360000        1.0080           0   0.00000   0.00000
     42332 MEOH     2597     MEOH     HO2      DUMH     0.000000        1.0080           0   0.00000   0.00000
     42333 MEOH     2597     MEOH     H1A      HDA3B    0.080000        1.0080           0   0.00000   0.00000
     42334 MEOH     2597     MEOH     H1B      HDA3B    0.080000        1.0080           0   0.00000   0.00000
     42335 MEOH     2597     MEOH     H1C      HDA3B    0.080000        1.0080           0   0.00000   0.00000
     42336 MEOH     2597     MEOH     LP1A     LPD     -0.230000        0.0000           -1   0.00000   0.00000
     42337 MEOH     2597     MEOH     LP1B     LPD     -0.230000        0.0000           -1   0.00000   0.00000
     42338 MEOH     2598     MEOH     C1       CD33B    2.314100       11.6110           0   -1.00000   1.30000
     42339 MEOH     2598     MEOH     DC1      DRUD    -2.454100        0.4000           0   0.00000   0.00000
     42340 MEOH     2598     MEOH     O1       OD31H    2.488300       15.5990           0   -1.02800   1.30000
     42341 MEOH     2598     MEOH     DO1      DRUD    -2.488300        0.4000           0   0.00000   0.00000
     42342 MEOH     2598     MEOH     HO1      HDP1A    0.360000        1.0080           0   0.00000   0.00000
     42343 MEOH     2598     MEOH     HO2      DUMH     0.000000        1.0080           0   0.00000   0.00000
     42344 MEOH     2598     MEOH     H1A      HDA3B    0.080000        1.0080           0   0.00000   0.00000
     42345 MEOH     2598     MEOH     H1B      HDA3B    0.080000        1.0080           0   0.00000   0.00000
     42346 MEOH     2598     MEOH     H1C      HDA3B    0.080000        1.0080           0   0.00000   0.00000
     42347 MEOH     2598     MEOH     LP1A     LPD     -0.230000        0.0000           -1   0.00000   0.00000
     42348 MEOH     2598     MEOH     LP1B     LPD     -0.230000        0.0000           -1   0.00000   0.00000
     42349 MEOH     2599     MEOH     C1       CD33B    2.314100       11.6110           0   -1.00000   1.30000
     42350 MEOH     2599     MEOH     DC1      DRUD    -2.454100        0.4000           0   0.00000   0.00000
     42351 MEOH     2599     MEOH     O1       OD31H    2.488300       15.5990           0   -1.02800   1.30000
     42352 MEOH     2599     MEOH     DO1      DRUD    -2.488300        0.4000           0   0.00000   0.00000
     42353 MEOH     2599     MEOH     HO1      HDP1A    0.360000        1.0080           0   0.00000   0.00000
     42354 MEOH     2599     MEOH     HO2      DUMH     0.000000        1.0080           0   0.00000   0.00000
     42355 MEOH     2599     MEOH     H1A      HDA3B    0.080000        1.0080           0   0.00000   0.00000
     42356 MEOH     2599     MEOH     H1B      HDA3B    0.080000        1.0080           0   0.00000   0.00000
     42357 MEOH     2599     MEOH     H1C      HDA3B    0.080000        1.0080           0   0.00000   0.00000
     42358 MEOH     2599     MEOH     LP1A     LPD     -0.230000        0.0000           -1   0.00000   0.00000
     42359 MEOH     2599     MEOH     LP1B     LPD     -0.230000        0.0000           -1   0.00000   0.00000
     42360 MEOH     2600     MEOH     C1       CD33B    2.314100       11.6110           0   -1.00000   1.30000
     42361 MEOH     2600     MEOH     DC1      DRUD    -2.454100        0.4000           0   0.00000   0.00000
     42362 MEOH     2600     MEOH     O1       OD31H    2.488300       15.5990           0   -1.02800   1.30000
     42363 MEOH     2600     MEOH     DO1      DRUD    -2.488300        0.4000           0   0.00000   0.00000
     42364 MEOH     2600     MEOH     HO1      HDP1A    0.360000        1.0080           0   0.00000   0.00000
     42365 MEOH     2600     MEOH     HO2      DUMH     0.000000        1.0080           0   0.00000   0.00000
     42366 MEOH     2600     MEOH     H1A      HDA3B    0.080000        1.0080           0   0.00000   0.00000
     42367 MEOH     2600     MEOH     H1B      HDA3B    0.080000        1.0080           0   0.00000   0.00000
     42368 MEOH     2600     MEOH     H1C      HDA3B    0.080000        1.0080           0   0.00000   0.00000
     42369 MEOH     2600     MEOH     LP1A     LPD     -0.230000        0.0000           -1   0.00000   0.00000
     42370 MEOH     2600     MEOH     LP1B     LPD     -0.230000        0.0000           -1   0.00000   0.00000
     42371 MEOH     2601     MEOH     C1       CD33B    2.314100       11.6110           0   -1.00000   1.30000
     42372 MEOH     2601     MEOH     DC1      DRUD    -2.454100        0.4000           0   0.00000   0.00000
     42373 MEOH     2601     MEOH     O1       OD31H    2.488300       15.5990           0   -1.02800   1.30000
     42374 MEOH     2601     MEOH     DO1      DRUD    -2.488300        0.4000           0   0.00000   0.00000
     42375 MEOH     2601     MEOH     HO1      HDP1A    0.360000        1.0080           0   0.00000   0.00000
     42376 MEOH     2601     MEOH     HO2      DUMH     0.000000        1.0080           0   0.00000   0.00000
     42377 MEOH     2601     MEOH     H1A      HDA3B    0.080000        1.0080           0   0.00000   0.00000
     42378 MEOH     2601     MEOH     H1B      HDA3B    0.080000        1.0080           0   0.00000   0.00000
     42379 MEOH     2601     MEOH     H1C      HDA3B    0.080000        1.0080           0   0.00000   0.00000
     42380 MEOH     2601     MEOH     LP1A     LPD     -0.230000        0.0000           -1   0.00000   0.00000
     42381 MEOH     2601     MEOH     LP1B     LPD     -0.230000        0.0000           -1   0.00000   0.00000
     42382 MEOH     2602     MEOH     C1       CD33B    2.314100       11.6110           0   -1.00000   1.30000
     42383 MEOH     2602     MEOH     DC1      DRUD    -2.454100        0.4000           0   0.00000   0.00000
     42384 MEOH     2602     MEOH     O1       OD31H    2.488300       15.5990           0   -1.02800   1.30000
     42385 MEOH     2602     MEOH     DO1      DRUD    -2.488300        0.4000           0   0.00000   0.00000
     42386 MEOH     2602     MEOH     HO1      HDP1A    0.360000        1.0080           0   0.00000   0.00000
     42387 MEOH     2602     MEOH     HO2      DUMH     0.000000        1.0080           0   0.00000   0.00000
     42388 MEOH     2602     MEOH     H1A      HDA3B    0.080000        1.0080           0   0.00000   0.00000
     42389 MEOH     2602     MEOH     H1B      HDA3B    0.080000        1.0080           0   0.00000   0.00000
     42390 MEOH     2602     MEOH     H1C      HDA3B    0.080000        1.0080           0   0.00000   0.00000
     42391 MEOH     2602     MEOH     LP1A     LPD     -0.230000        0.0000           -1   0.00000   0.00000
     42392 MEOH     2602     MEOH     LP1B     LPD     -0.230000        0.0000           -1   0.00000   0.00000
     42393 MEOH     2603     MEOH     C1       CD33B    2.314100       11.6110           0   -1.00000   1.30000
     42394 MEOH     2603     MEOH     DC1      DRUD    -2.454100        0.4000           0   0.00000   0.00000
     42395 MEOH     2603     MEOH     O1       OD31H    2.488300       15.5990           0   -1.02800   1.30000
     42396 MEOH     2603     MEOH     DO1      DRUD    -2.488300        0.4000           0   0.00000   0.00000
     42397 MEOH     2603     MEOH     HO1      HDP1A    0.360000        1.0080           0   0.00000   0.00000
     42398 MEOH     2603     MEOH     HO2      DUMH     0.000000        1.0080           0   0.00000   0.00000
     42399 MEOH     2603     MEOH     H1A      HDA3B    0.080000        1.0080           0   0.00000   0.00000
     42400 MEOH     2603     MEOH     H1B      HDA3B    0.080000        1.0080           0   0.00000   0.00000
     42401 MEOH     2603     MEOH     H1C      HDA3B    0.080000        1.0080           0   0.00000   0.00000
     42402 MEOH     2603     MEOH     LP1A     LPD     -0.230000        0.0000           -1   0.00000   0.00000
     42403 MEOH     2603     MEOH     LP1B     LPD     -0.230000        0.0000           -1   0.00000   0.00000
     42404 MEOH     2604     MEOH     C1       CD33B    2.314100       11.6110           0   -1.00000   1.30000
     42405 MEOH     2604     MEOH     DC1      DRUD    -2.454100        0.4000           0   0.00000   0.00000
     42406 MEOH     2604     MEOH     O1       OD31H    2.488300       15.5990           0   -1.02800   1.30000
     42407 MEOH     2604     MEOH     DO1      DRUD    -2.488300        0.4000           0   0.00000   0.00000
     42408 MEOH     2604     MEOH     HO1      HDP1A    0.360000        1.0080           0   0.00000   0.00000
     42409 MEOH     2604     MEOH     HO2      DUMH     0.000000        1.0080           0   0.00000   0.00000
     42410 MEOH     2604     MEOH     H1A      HDA3B    0.080000        1.0080           0   0.00000   0.00000
     42411 MEOH     2604     MEOH     H1B      HDA3B    0.080000        1.0080           0   0.00000   0.00000
     42412 MEOH     2604     MEOH     H1C      HDA3B    0.080000        1.0080           0   0.00000   0.00000
     42413 MEOH     2604     MEOH     LP1A     LPD     -0.230000        0.0000           -1   0.00000   0.00000
     42414 MEOH     2604     MEOH     LP1B     LPD     -0.230000        0.0000           -1   0.00000   0.00000
     42415 MEOH     2605     MEOH     C1       CD33B    2.314100       11.6110           0   -1.00000   1.30000
     42416 MEOH     2605     MEOH     DC1      DRUD    -2.454100        0.4000           0   0.00000   0.00000
     42417 MEOH     2605     MEOH     O1       OD31H    2.488300       15.5990           0   -1.02800   1.30000
     42418 MEOH     2605     MEOH     DO1      DRUD    -2.488300        0.4000           0   0.00000   0.00000
     42419 MEOH     2605     MEOH     HO1      HDP1A    0.360000        1.0080           0   0.00000   0.00000
     42420 MEOH     2605     MEOH     HO2      DUMH     0.000000        1.0080           0   0.00000   0.00000
     42421 MEOH     2605     MEOH     H1A      HDA3B    0.080000        1.0080           0   0.00000   0.00000
     42422 MEOH     2605     MEOH     H1B      HDA3B    0.080000        1.0080           0   0.00000   0.00000
     42423 MEOH     2605     MEOH     H1C      HDA3B    0.080000        1.0080           0   0.00000   0.00000
     42424 MEOH     2605     MEOH     LP1A     LPD     -0.230000        0.0000           -1   0.00000   0.00000
     42425 MEOH     2605     MEOH     LP1B     LPD     -0.230000        0.0000           -1   0.00000   0.00000
     42426 MEOH     2606     MEOH     C1       CD33B    2.314100       11.6110           0   -1.00000   1.30000
     42427 MEOH     2606     MEOH     DC1      DRUD    -2.454100        0.4000           0   0.00000   0.00000
     42428 MEOH     2606     MEOH     O1       OD31H    2.488300       15.5990           0   -1.02800   1.30000
     42429 MEOH     2606     MEOH     DO1      DRUD    -2.488300        0.4000           0   0.00000   0.00000
     42430 MEOH     2606     MEOH     HO1      HDP1A    0.360000        1.0080           0   0.00000   0.00000
     42431 MEOH     2606     MEOH     HO2      DUMH     0.000000        1.0080           0   0.00000   0.00000
     42432 MEOH     2606     MEOH     H1A      HDA3B    0.080000        1.0080           0   0.00000   0.00000
     42433 MEOH     2606     MEOH     H1B      HDA3B    0.080000        1.0080           0   0.00000   0.00000
     42434 MEOH     2606     MEOH     H1C      HDA3B    0.080000        1.0080           0   0.00000   0.00000
     42435 MEOH     2606     MEOH     LP1A     LPD     -0.230000        0.0000           -1   0.00000   0.00000
     42436 MEOH     2606     MEOH     LP1B     LPD     -0.230000        0.0000           -1   0.00000   0.00000
     42437 MEOH     2607     MEOH     C1       CD33B    2.314100       11.6110           0   -1.00000   1.30000
     42438 MEOH     2607     MEOH     DC1      DRUD    -2.454100        0.4000           0   0.00000   0.00000
     42439 MEOH     2607     MEOH     O1       OD31H    2.488300       15.5990           0   -1.02800   1.30000
     42440 MEOH     2607     MEOH     DO1      DRUD    -2.488300        0.4000           0   0.00000   0.00000
     42441 MEOH     2607     MEOH     HO1      HDP1A    0.360000        1.0080           0   0.00000   0.00000
     42442 MEOH     2607     MEOH     HO2      DUMH     0.000000        1.0080           0   0.00000   0.00000
     42443 MEOH     2607     MEOH     H1A      HDA3B    0.080000        1.0080           0   0.00000   0.00000
     42444 MEOH     2607     MEOH     H1B      HDA3B    0.080000        1.0080           0   0.00000   0.00000
     42445 MEOH     2607     MEOH     H1C      HDA3B    0.080000        1.0080           0   0.00000   0.00000
     42446 MEOH     2607     MEOH     LP1A     LPD     -0.230000        0.0000           -1   0.00000   0.00000
     42447 MEOH     2607     MEOH     LP1B     LPD     -0.230000        0.0000           -1   0.00000   0.00000
     42448 MEOH     2608     MEOH     C1       CD33B    2.314100       11.6110           0   -1.00000   1.30000
     42449 MEOH     2608     MEOH     DC1      DRUD    -2.454100        0.4000           0   0.00000   0.00000
     42450 MEOH     2608     MEOH     O1       OD31H    2.488300       15.5990           0   -1.02800   1.30000
     42451 MEOH     2608     MEOH     DO1      DRUD    -2.488300        0.4000           0   0.00000   0.00000
     42452 MEOH     2608     MEOH     HO1      HDP1A    0.360000        1.0080           0   0.00000   0.00000
     42453 MEOH     2608     MEOH     HO2      DUMH     0.000000        1.0080           0   0.00000   0.00000
     42454 MEOH     2608     MEOH     H1A      HDA3B    0.080000        1.0080           0   0.00000   0.00000
     42455 MEOH     2608     MEOH     H1B      HDA3B    0.080000        1.0080           0   0.00000   0.00000
     42456 MEOH     2608     MEOH     H1C      HDA3B    0.080000        1.0080           0   0.00000   0.00000
     42457 MEOH     2608     MEOH     LP1A     LPD     -0.230000        0.0000           -1   0.00000   0.00000
     42458 MEOH     2608     MEOH     LP1B     LPD     -0.230000        0.0000           -1   0.00000   0.00000
     42459 MEOH     2609     MEOH     C1       CD33B    2.314100       11.6110           0   -1.00000   1.30000
     42460 MEOH     2609     MEOH     DC1      DRUD    -2.454100        0.4000           0   0.00000   0.00000
     42461 MEOH     2609     MEOH     O1       OD31H    2.488300       15.5990           0   -1.02800   1.30000
     42462 MEOH     2609     MEOH     DO1      DRUD    -2.488300        0.4000           0   0.00000   0.00000
     42463 MEOH     2609     MEOH     HO1      HDP1A    0.360000        1.0080           0   0.00000   0.00000
     42464 MEOH     2609     MEOH     HO2      DUMH     0.000000        1.0080           0   0.00000   0.00000
     42465 MEOH     2609     MEOH     H1A      HDA3B    0.080000        1.0080           0   0.00000   0.00000
     42466 MEOH     2609     MEOH     H1B      HDA3B    0.080000        1.0080           0   0.00000   0.00000
     42467 MEOH     2609     MEOH     H1C      HDA3B    0.080000        1.0080           0   0.00000   0.00000
     42468 MEOH     2609     MEOH     LP1A     LPD     -0.230000        0.0000           -1   0.00000   0.00000
     42469 MEOH     2609     MEOH     LP1B     LPD     -0.230000        0.0000           -1   0.00000   0.00000
     42470 MEOH     2610     MEOH     C1       CD33B    2.314100       11.6110           0   -1.00000   1.30000
     42471 MEOH     2610     MEOH     DC1      DRUD    -2.454100        0.4000           0   0.00000   0.00000
     42472 MEOH     2610     MEOH     O1       OD31H    2.488300       15.5990           0   -1.02800   1.30000
     42473 MEOH     2610     MEOH     DO1      DRUD    -2.488300        0.4000           0   0.00000   0.00000
     42474 MEOH     2610     MEOH     HO1      HDP1A    0.360000        1.0080           0   0.00000   0.00000
     42475 MEOH     2610     MEOH     HO2      DUMH     0.000000        1.0080           0   0.00000   0.00000
     42476 MEOH     2610     MEOH     H1A      HDA3B    0.080000        1.0080           0   0.00000   0.00000
     42477 MEOH     2610     MEOH     H1B      HDA3B    0.080000        1.0080           0   0.00000   0.00000
     42478 MEOH     2610     MEOH     H1C      HDA3B    0.080000        1.0080           0   0.00000   0.00000
     42479 MEOH     2610     MEOH     LP1A     LPD     -0.230000        0.0000           -1   0.00000   0.00000
     42480 MEOH     2610     MEOH     LP1B     LPD     -0.230000        0.0000           -1   0.00000   0.00000
     42481 MEOH     2611     MEOH     C1       CD33B    2.314100       11.6110           0   -1.00000   1.30000
     42482 MEOH     2611     MEOH     DC1      DRUD    -2.454100        0.4000           0   0.00000   0.00000
     42483 MEOH     2611     MEOH     O1       OD31H    2.488300       15.5990           0   -1.02800   1.30000
     42484 MEOH     2611     MEOH     DO1      DRUD    -2.488300        0.4000           0   0.00000   0.00000
     42485 MEOH     2611     MEOH     HO1      HDP1A    0.360000        1.0080           0   0.00000   0.00000
     42486 MEOH     2611     MEOH     HO2      DUMH     0.000000        1.0080           0   0.00000   0.00000
     42487 MEOH     2611     MEOH     H1A      HDA3B    0.080000        1.0080           0   0.00000   0.00000
     42488 MEOH     2611     MEOH     H1B      HDA3B    0.080000        1.0080           0   0.00000   0.00000
     42489 MEOH     2611     MEOH     H1C      HDA3B    0.080000        1.0080           0   0.00000   0.00000
     42490 MEOH     2611     MEOH     LP1A     LPD     -0.230000        0.0000           -1   0.00000   0.00000
     42491 MEOH     2611     MEOH     LP1B     LPD     -0.230000        0.0000           -1   0.00000   0.00000
     42492 MEOH     2612     MEOH     C1       CD33B    2.314100       11.6110           0   -1.00000   1.30000
     42493 MEOH     2612     MEOH     DC1      DRUD    -2.454100        0.4000           0   0.00000   0.00000
     42494 MEOH     2612     MEOH     O1       OD31H    2.488300       15.5990           0   -1.02800   1.30000
     42495 MEOH     2612     MEOH     DO1      DRUD    -2.488300        0.4000           0   0.00000   0.00000
     42496 MEOH     2612     MEOH     HO1      HDP1A    0.360000        1.0080           0   0.00000   0.00000
     42497 MEOH     2612     MEOH     HO2      DUMH     0.000000        1.0080           0   0.00000   0.00000
     42498 MEOH     2612     MEOH     H1A      HDA3B    0.080000        1.0080           0   0.00000   0.00000
     42499 MEOH     2612     MEOH     H1B      HDA3B    0.080000        1.0080           0   0.00000   0.00000
     42500 MEOH     2612     MEOH     H1C      HDA3B    0.080000        1.0080           0   0.00000   0.00000
     42501 MEOH     2612     MEOH     LP1A     LPD     -0.230000        0.0000           -1   0.00000   0.00000
     42502 MEOH     2612     MEOH     LP1B     LPD     -0.230000        0.0000           -1   0.00000   0.00000
     42503 MEOH     2613     MEOH     C1       CD33B    2.314100       11.6110           0   -1.00000   1.30000
     42504 MEOH     2613     MEOH     DC1      DRUD    -2.454100        0.4000           0   0.00000   0.00000
     42505 MEOH     2613     MEOH     O1       OD31H    2.488300       15.5990           0   -1.02800   1.30000
     42506 MEOH     2613     MEOH     DO1      DRUD    -2.488300        0.4000           0   0.00000   0.00000
     42507 MEOH     2613     MEOH     HO1      HDP1A    0.360000        1.0080           0   0.00000   0.00000
     42508 MEOH     2613     MEOH     HO2      DUMH     0.000000        1.0080           0   0.00000   0.00000
     42509 MEOH     2613     MEOH     H1A      HDA3B    0.080000        1.0080           0   0.00000   0.00000
     42510 MEOH     2613     MEOH     H1B      HDA3B    0.080000        1.0080           0   0.00000   0.00000
     42511 MEOH     2613     MEOH     H1C      HDA3B    0.080000        1.0080           0   0.00000   0.00000
     42512 MEOH     2613     MEOH     LP1A     LPD     -0.230000        0.0000           -1   0.00000   0.00000
     42513 MEOH     2613     MEOH     LP1B     LPD     -0.230000        0.0000           -1   0.00000   0.00000
     42514 MEOH     2614     MEOH     C1       CD33B    2.314100       11.6110           0   -1.00000   1.30000
     42515 MEOH     2614     MEOH     DC1      DRUD    -2.454100        0.4000           0   0.00000   0.00000
     42516 MEOH     2614     MEOH     O1       OD31H    2.488300       15.5990           0   -1.02800   1.30000
     42517 MEOH     2614     MEOH     DO1      DRUD    -2.488300        0.4000           0   0.00000   0.00000
     42518 MEOH     2614     MEOH     HO1      HDP1A    0.360000        1.0080           0   0.00000   0.00000
     42519 MEOH     2614     MEOH     HO2      DUMH     0.000000        1.0080           0   0.00000   0.00000
     42520 MEOH     2614     MEOH     H1A      HDA3B    0.080000        1.0080           0   0.00000   0.00000
     42521 MEOH     2614     MEOH     H1B      HDA3B    0.080000        1.0080           0   0.00000   0.00000
     42522 MEOH     2614     MEOH     H1C      HDA3B    0.080000        1.0080           0   0.00000   0.00000
     42523 MEOH     2614     MEOH     LP1A     LPD     -0.230000        0.0000           -1   0.00000   0.00000
     42524 MEOH     2614     MEOH     LP1B     LPD     -0.230000        0.0000           -1   0.00000   0.00000
     42525 MEOH     2615     MEOH     C1       CD33B    2.314100       11.6110           0   -1.00000   1.30000
     42526 MEOH     2615     MEOH     DC1      DRUD    -2.454100        0.4000           0   0.00000   0.00000
     42527 MEOH     2615     MEOH     O1       OD31H    2.488300       15.5990           0   -1.02800   1.30000
     42528 MEOH     2615     MEOH     DO1      DRUD    -2.488300        0.4000           0   0.00000   0.00000
     42529 MEOH     2615     MEOH     HO1      HDP1A    0.360000        1.0080           0   0.00000   0.00000
     42530 MEOH     2615     MEOH     HO2      DUMH     0.000000        1.0080           0   0.00000   0.00000
     42531 MEOH     2615     MEOH     H1A      HDA3B    0.080000        1.0080           0   0.00000   0.00000
     42532 MEOH     2615     MEOH     H1B      HDA3B    0.080000        1.0080           0   0.00000   0.00000
     42533 MEOH     2615     MEOH     H1C      HDA3B    0.080000        1.0080           0   0.00000   0.00000
     42534 MEOH     2615     MEOH     LP1A     LPD     -0.230000        0.0000           -1   0.00000   0.00000
     42535 MEOH     2615     MEOH     LP1B     LPD     -0.230000        0.0000           -1   0.00000   0.00000
     42536 MEOH     2616     MEOH     C1       CD33B    2.314100       11.6110           0   -1.00000   1.30000
     42537 MEOH     2616     MEOH     DC1      DRUD    -2.454100        0.4000           0   0.00000   0.00000
     42538 MEOH     2616     MEOH     O1       OD31H    2.488300       15.5990           0   -1.02800   1.30000
     42539 MEOH     2616     MEOH     DO1      DRUD    -2.488300        0.4000           0   0.00000   0.00000
     42540 MEOH     2616     MEOH     HO1      HDP1A    0.360000        1.0080           0   0.00000   0.00000
     42541 MEOH     2616     MEOH     HO2      DUMH     0.000000        1.0080           0   0.00000   0.00000
     42542 MEOH     2616     MEOH     H1A      HDA3B    0.080000        1.0080           0   0.00000   0.00000
     42543 MEOH     2616     MEOH     H1B      HDA3B    0.080000        1.0080           0   0.00000   0.00000
     42544 MEOH     2616     MEOH     H1C      HDA3B    0.080000        1.0080           0   0.00000   0.00000
     42545 MEOH     2616     MEOH     LP1A     LPD     -0.230000        0.0000           -1   0.00000   0.00000
     42546 MEOH     2616     MEOH     LP1B     LPD     -0.230000        0.0000           -1   0.00000   0.00000
     42547 MEOH     2617     MEOH     C1       CD33B    2.314100       11.6110           0   -1.00000   1.30000
     42548 MEOH     2617     MEOH     DC1      DRUD    -2.454100        0.4000           0   0.00000   0.00000
     42549 MEOH     2617     MEOH     O1       OD31H    2.488300       15.5990           0   -1.02800   1.30000
     42550 MEOH     2617     MEOH     DO1      DRUD    -2.488300        0.4000           0   0.00000   0.00000
     42551 MEOH     2617     MEOH     HO1      HDP1A    0.360000        1.0080           0   0.00000   0.00000
     42552 MEOH     2617     MEOH     HO2      DUMH     0.000000        1.0080           0   0.00000   0.00000
     42553 MEOH     2617     MEOH     H1A      HDA3B    0.080000        1.0080           0   0.00000   0.00000
     42554 MEOH     2617     MEOH     H1B      HDA3B    0.080000        1.0080           0   0.00000   0.00000
     42555 MEOH     2617     MEOH     H1C      HDA3B    0.080000        1.0080           0   0.00000   0.00000
     42556 MEOH     2617     MEOH     LP1A     LPD     -0.230000        0.0000           -1   0.00000   0.00000
     42557 MEOH     2617     MEOH     LP1B     LPD     -0.230000        0.0000           -1   0.00000   0.00000
     42558 MEOH     2618     MEOH     C1       CD33B    2.314100       11.6110           0   -1.00000   1.30000
     42559 MEOH     2618     MEOH     DC1      DRUD    -2.454100        0.4000           0   0.00000   0.00000
     42560 MEOH     2618     MEOH     O1       OD31H    2.488300       15.5990           0   -1.02800   1.30000
     42561 MEOH     2618     MEOH     DO1      DRUD    -2.488300        0.4000           0   0.00000   0.00000
     42562 MEOH     2618     MEOH     HO1      HDP1A    0.360000        1.0080           0   0.00000   0.00000
     42563 MEOH     2618     MEOH     HO2      DUMH     0.000000        1.0080           0   0.00000   0.00000
     42564 MEOH     2618     MEOH     H1A      HDA3B    0.080000        1.0080           0   0.00000   0.00000
     42565 MEOH     2618     MEOH     H1B      HDA3B    0.080000        1.0080           0   0.00000   0.00000
     42566 MEOH     2618     MEOH     H1C      HDA3B    0.080000        1.0080           0   0.00000   0.00000
     42567 MEOH     2618     MEOH     LP1A     LPD     -0.230000        0.0000           -1   0.00000   0.00000
     42568 MEOH     2618     MEOH     LP1B     LPD     -0.230000        0.0000           -1   0.00000   0.00000
     42569 MEOH     2619     MEOH     C1       CD33B    2.314100       11.6110           0   -1.00000   1.30000
     42570 MEOH     2619     MEOH     DC1      DRUD    -2.454100        0.4000           0   0.00000   0.00000
     42571 MEOH     2619     MEOH     O1       OD31H    2.488300       15.5990           0   -1.02800   1.30000
     42572 MEOH     2619     MEOH     DO1      DRUD    -2.488300        0.4000           0   0.00000   0.00000
     42573 MEOH     2619     MEOH     HO1      HDP1A    0.360000        1.0080           0   0.00000   0.00000
     42574 MEOH     2619     MEOH     HO2      DUMH     0.000000        1.0080           0   0.00000   0.00000
     42575 MEOH     2619     MEOH     H1A      HDA3B    0.080000        1.0080           0   0.00000   0.00000
     42576 MEOH     2619     MEOH     H1B      HDA3B    0.080000        1.0080           0   0.00000   0.00000
     42577 MEOH     2619     MEOH     H1C      HDA3B    0.080000        1.0080           0   0.00000   0.00000
     42578 MEOH     2619     MEOH     LP1A     LPD     -0.230000        0.0000           -1   0.00000   0.00000
     42579 MEOH     2619     MEOH     LP1B     LPD     -0.230000        0.0000           -1   0.00000   0.00000
     42580 MEOH     2620     MEOH     C1       CD33B    2.314100       11.6110           0   -1.00000   1.30000
     42581 MEOH     2620     MEOH     DC1      DRUD    -2.454100        0.4000           0   0.00000   0.00000
     42582 MEOH     2620     MEOH     O1       OD31H    2.488300       15.5990           0   -1.02800   1.30000
     42583 MEOH     2620     MEOH     DO1      DRUD    -2.488300        0.4000           0   0.00000   0.00000
     42584 MEOH     2620     MEOH     HO1      HDP1A    0.360000        1.0080           0   0.00000   0.00000
     42585 MEOH     2620     MEOH     HO2      DUMH     0.000000        1.0080           0   0.00000   0.00000
     42586 MEOH     2620     MEOH     H1A      HDA3B    0.080000        1.0080           0   0.00000   0.00000
     42587 MEOH     2620     MEOH     H1B      HDA3B    0.080000        1.0080           0   0.00000   0.00000
     42588 MEOH     2620     MEOH     H1C      HDA3B    0.080000        1.0080           0   0.00000   0.00000
     42589 MEOH     2620     MEOH     LP1A     LPD     -0.230000        0.0000           -1   0.00000   0.00000
     42590 MEOH     2620     MEOH     LP1B     LPD     -0.230000        0.0000           -1   0.00000   0.00000
     42591 MEOH     2621     MEOH     C1       CD33B    2.314100       11.6110           0   -1.00000   1.30000
     42592 MEOH     2621     MEOH     DC1      DRUD    -2.454100        0.4000           0   0.00000   0.00000
     42593 MEOH     2621     MEOH     O1       OD31H    2.488300       15.5990           0   -1.02800   1.30000
     42594 MEOH     2621     MEOH     DO1      DRUD    -2.488300        0.4000           0   0.00000   0.00000
     42595 MEOH     2621     MEOH     HO1      HDP1A    0.360000        1.0080           0   0.00000   0.00000
     42596 MEOH     2621     MEOH     HO2      DUMH     0.000000        1.0080           0   0.00000   0.00000
     42597 MEOH     2621     MEOH     H1A      HDA3B    0.080000        1.0080           0   0.00000   0.00000
     42598 MEOH     2621     MEOH     H1B      HDA3B    0.080000        1.0080           0   0.00000   0.00000
     42599 MEOH     2621     MEOH     H1C      HDA3B    0.080000        1.0080           0   0.00000   0.00000
     42600 MEOH     2621     MEOH     LP1A     LPD     -0.230000        0.0000           -1   0.00000   0.00000
     42601 MEOH     2621     MEOH     LP1B     LPD     -0.230000        0.0000           -1   0.00000   0.00000
     42602 MEOH     2622     MEOH     C1       CD33B    2.314100       11.6110           0   -1.00000   1.30000
     42603 MEOH     2622     MEOH     DC1      DRUD    -2.454100        0.4000           0   0.00000   0.00000
     42604 MEOH     2622     MEOH     O1       OD31H    2.488300       15.5990           0   -1.02800   1.30000
     42605 MEOH     2622     MEOH     DO1      DRUD    -2.488300        0.4000           0   0.00000   0.00000
     42606 MEOH     2622     MEOH     HO1      HDP1A    0.360000        1.0080           0   0.00000   0.00000
     42607 MEOH     2622     MEOH     HO2      DUMH     0.000000        1.0080           0   0.00000   0.00000
     42608 MEOH     2622     MEOH     H1A      HDA3B    0.080000        1.0080           0   0.00000   0.00000
     42609 MEOH     2622     MEOH     H1B      HDA3B    0.080000        1.0080           0   0.00000   0.00000
     42610 MEOH     2622     MEOH     H1C      HDA3B    0.080000        1.0080           0   0.00000   0.00000
     42611 MEOH     2622     MEOH     LP1A     LPD     -0.230000        0.0000           -1   0.00000   0.00000
     42612 MEOH     2622     MEOH     LP1B     LPD     -0.230000        0.0000           -1   0.00000   0.00000
     42613 MEOH     2623     MEOH     C1       CD33B    2.314100       11.6110           0   -1.00000   1.30000
     42614 MEOH     2623     MEOH     DC1      DRUD    -2.454100        0.4000           0   0.00000   0.00000
     42615 MEOH     2623     MEOH     O1       OD31H    2.488300       15.5990           0   -1.02800   1.30000
     42616 MEOH     2623     MEOH     DO1      DRUD    -2.488300        0.4000           0   0.00000   0.00000
     42617 MEOH     2623     MEOH     HO1      HDP1A    0.360000        1.0080           0   0.00000   0.00000
     42618 MEOH     2623     MEOH     HO2      DUMH     0.000000        1.0080           0   0.00000   0.00000
     42619 MEOH     2623     MEOH     H1A      HDA3B    0.080000        1.0080           0   0.00000   0.00000
     42620 MEOH     2623     MEOH     H1B      HDA3B    0.080000        1.0080           0   0.00000   0.00000
     42621 MEOH     2623     MEOH     H1C      HDA3B    0.080000        1.0080           0   0.00000   0.00000
     42622 MEOH     2623     MEOH     LP1A     LPD     -0.230000        0.0000           -1   0.00000   0.00000
     42623 MEOH     2623     MEOH     LP1B     LPD     -0.230000        0.0000           -1   0.00000   0.00000
     42624 MEOH     2624     MEOH     C1       CD33B    2.314100       11.6110           0   -1.00000   1.30000
     42625 MEOH     2624     MEOH     DC1      DRUD    -2.454100        0.4000           0   0.00000   0.00000
     42626 MEOH     2624     MEOH     O1       OD31H    2.488300       15.5990           0   -1.02800   1.30000
     42627 MEOH     2624     MEOH     DO1      DRUD    -2.488300        0.4000           0   0.00000   0.00000
     42628 MEOH     2624     MEOH     HO1      HDP1A    0.360000        1.0080           0   0.00000   0.00000
     42629 MEOH     2624     MEOH     HO2      DUMH     0.000000        1.0080           0   0.00000   0.00000
     42630 MEOH     2624     MEOH     H1A      HDA3B    0.080000        1.0080           0   0.00000   0.00000
     42631 MEOH     2624     MEOH     H1B      HDA3B    0.080000        1.0080           0   0.00000   0.00000
     42632 MEOH     2624     MEOH     H1C      HDA3B    0.080000        1.0080           0   0.00000   0.00000
     42633 MEOH     2624     MEOH     LP1A     LPD     -0.230000        0.0000           -1   0.00000   0.00000
     42634 MEOH     2624     MEOH     LP1B     LPD     -0.230000        0.0000           -1   0.00000   0.00000
     42635 MEOH     2625     MEOH     C1       CD33B    2.314100       11.6110           0   -1.00000   1.30000
     42636 MEOH     2625     MEOH     DC1      DRUD    -2.454100        0.4000           0   0.00000   0.00000
     42637 MEOH     2625     MEOH     O1       OD31H    2.488300       15.5990           0   -1.02800   1.30000
     42638 MEOH     2625     MEOH     DO1      DRUD    -2.488300        0.4000           0   0.00000   0.00000
     42639 MEOH     2625     MEOH     HO1      HDP1A    0.360000        1.0080           0   0.00000   0.00000
     42640 MEOH     2625     MEOH     HO2      DUMH     0.000000        1.0080           0   0.00000   0.00000
     42641 MEOH     2625     MEOH     H1A      HDA3B    0.080000        1.0080           0   0.00000   0.00000
     42642 MEOH     2625     MEOH     H1B      HDA3B    0.080000        1.0080           0   0.00000   0.00000
     42643 MEOH     2625     MEOH     H1C      HDA3B    0.080000        1.0080           0   0.00000   0.00000
     42644 MEOH     2625     MEOH     LP1A     LPD     -0.230000        0.0000           -1   0.00000   0.00000
     42645 MEOH     2625     MEOH     LP1B     LPD     -0.230000        0.0000           -1   0.00000   0.00000
     42646 MEOH     2626     MEOH     C1       CD33B    2.314100       11.6110           0   -1.00000   1.30000
     42647 MEOH     2626     MEOH     DC1      DRUD    -2.454100        0.4000           0   0.00000   0.00000
     42648 MEOH     2626     MEOH     O1       OD31H    2.488300       15.5990           0   -1.02800   1.30000
     42649 MEOH     2626     MEOH     DO1      DRUD    -2.488300        0.4000           0   0.00000   0.00000
     42650 MEOH     2626     MEOH     HO1      HDP1A    0.360000        1.0080           0   0.00000   0.00000
     42651 MEOH     2626     MEOH     HO2      DUMH     0.000000        1.0080           0   0.00000   0.00000
     42652 MEOH     2626     MEOH     H1A      HDA3B    0.080000        1.0080           0   0.00000   0.00000
     42653 MEOH     2626     MEOH     H1B      HDA3B    0.080000        1.0080           0   0.00000   0.00000
     42654 MEOH     2626     MEOH     H1C      HDA3B    0.080000        1.0080           0   0.00000   0.00000
     42655 MEOH     2626     MEOH     LP1A     LPD     -0.230000        0.0000           -1   0.00000   0.00000
     42656 MEOH     2626     MEOH     LP1B     LPD     -0.230000        0.0000           -1   0.00000   0.00000
     42657 MEOH     2627     MEOH     C1       CD33B    2.314100       11.6110           0   -1.00000   1.30000
     42658 MEOH     2627     MEOH     DC1      DRUD    -2.454100        0.4000           0   0.00000   0.00000
     42659 MEOH     2627     MEOH     O1       OD31H    2.488300       15.5990           0   -1.02800   1.30000
     42660 MEOH     2627     MEOH     DO1      DRUD    -2.488300        0.4000           0   0.00000   0.00000
     42661 MEOH     2627     MEOH     HO1      HDP1A    0.360000        1.0080           0   0.00000   0.00000
     42662 MEOH     2627     MEOH     HO2      DUMH     0.000000        1.0080           0   0.00000   0.00000
     42663 MEOH     2627     MEOH     H1A      HDA3B    0.080000        1.0080           0   0.00000   0.00000
     42664 MEOH     2627     MEOH     H1B      HDA3B    0.080000        1.0080           0   0.00000   0.00000
     42665 MEOH     2627     MEOH     H1C      HDA3B    0.080000        1.0080           0   0.00000   0.00000
     42666 MEOH     2627     MEOH     LP1A     LPD     -0.230000        0.0000           -1   0.00000   0.00000
     42667 MEOH     2627     MEOH     LP1B     LPD     -0.230000        0.0000           -1   0.00000   0.00000
     42668 MEOH     2628     MEOH     C1       CD33B    2.314100       11.6110           0   -1.00000   1.30000
     42669 MEOH     2628     MEOH     DC1      DRUD    -2.454100        0.4000           0   0.00000   0.00000
     42670 MEOH     2628     MEOH     O1       OD31H    2.488300       15.5990           0   -1.02800   1.30000
     42671 MEOH     2628     MEOH     DO1      DRUD    -2.488300        0.4000           0   0.00000   0.00000
     42672 MEOH     2628     MEOH     HO1      HDP1A    0.360000        1.0080           0   0.00000   0.00000
     42673 MEOH     2628     MEOH     HO2      DUMH     0.000000        1.0080           0   0.00000   0.00000
     42674 MEOH     2628     MEOH     H1A      HDA3B    0.080000        1.0080           0   0.00000   0.00000
     42675 MEOH     2628     MEOH     H1B      HDA3B    0.080000        1.0080           0   0.00000   0.00000
     42676 MEOH     2628     MEOH     H1C      HDA3B    0.080000        1.0080           0   0.00000   0.00000
     42677 MEOH     2628     MEOH     LP1A     LPD     -0.230000        0.0000           -1   0.00000   0.00000
     42678 MEOH     2628     MEOH     LP1B     LPD     -0.230000        0.0000           -1   0.00000   0.00000
     42679 MEOH     2629     MEOH     C1       CD33B    2.314100       11.6110           0   -1.00000   1.30000
     42680 MEOH     2629     MEOH     DC1      DRUD    -2.454100        0.4000           0   0.00000   0.00000
     42681 MEOH     2629     MEOH     O1       OD31H    2.488300       15.5990           0   -1.02800   1.30000
     42682 MEOH     2629     MEOH     DO1      DRUD    -2.488300        0.4000           0   0.00000   0.00000
     42683 MEOH     2629     MEOH     HO1      HDP1A    0.360000        1.0080           0   0.00000   0.00000
     42684 MEOH     2629     MEOH     HO2      DUMH     0.000000        1.0080           0   0.00000   0.00000
     42685 MEOH     2629     MEOH     H1A      HDA3B    0.080000        1.0080           0   0.00000   0.00000
     42686 MEOH     2629     MEOH     H1B      HDA3B    0.080000        1.0080           0   0.00000   0.00000
     42687 MEOH     2629     MEOH     H1C      HDA3B    0.080000        1.0080           0   0.00000   0.00000
     42688 MEOH     2629     MEOH     LP1A     LPD     -0.230000        0.0000           -1   0.00000   0.00000
     42689 MEOH     2629     MEOH     LP1B     LPD     -0.230000        0.0000           -1   0.00000   0.00000
     42690 MEOH     2630     MEOH     C1       CD33B    2.314100       11.6110           0   -1.00000   1.30000
     42691 MEOH     2630     MEOH     DC1      DRUD    -2.454100        0.4000           0   0.00000   0.00000
     42692 MEOH     2630     MEOH     O1       OD31H    2.488300       15.5990           0   -1.02800   1.30000
     42693 MEOH     2630     MEOH     DO1      DRUD    -2.488300        0.4000           0   0.00000   0.00000
     42694 MEOH     2630     MEOH     HO1      HDP1A    0.360000        1.0080           0   0.00000   0.00000
     42695 MEOH     2630     MEOH     HO2      DUMH     0.000000        1.0080           0   0.00000   0.00000
     42696 MEOH     2630     MEOH     H1A      HDA3B    0.080000        1.0080           0   0.00000   0.00000
     42697 MEOH     2630     MEOH     H1B      HDA3B    0.080000        1.0080           0   0.00000   0.00000
     42698 MEOH     2630     MEOH     H1C      HDA3B    0.080000        1.0080           0   0.00000   0.00000
     42699 MEOH     2630     MEOH     LP1A     LPD     -0.230000        0.0000           -1   0.00000   0.00000
     42700 MEOH     2630     MEOH     LP1B     LPD     -0.230000        0.0000           -1   0.00000   0.00000
     42701 MEOH     2631     MEOH     C1       CD33B    2.314100       11.6110           0   -1.00000   1.30000
     42702 MEOH     2631     MEOH     DC1      DRUD    -2.454100        0.4000           0   0.00000   0.00000
     42703 MEOH     2631     MEOH     O1       OD31H    2.488300       15.5990           0   -1.02800   1.30000
     42704 MEOH     2631     MEOH     DO1      DRUD    -2.488300        0.4000           0   0.00000   0.00000
     42705 MEOH     2631     MEOH     HO1      HDP1A    0.360000        1.0080           0   0.00000   0.00000
     42706 MEOH     2631     MEOH     HO2      DUMH     0.000000        1.0080           0   0.00000   0.00000
     42707 MEOH     2631     MEOH     H1A      HDA3B    0.080000        1.0080           0   0.00000   0.00000
     42708 MEOH     2631     MEOH     H1B      HDA3B    0.080000        1.0080           0   0.00000   0.00000
     42709 MEOH     2631     MEOH     H1C      HDA3B    0.080000        1.0080           0   0.00000   0.00000
     42710 MEOH     2631     MEOH     LP1A     LPD     -0.230000        0.0000           -1   0.00000   0.00000
     42711 MEOH     2631     MEOH     LP1B     LPD     -0.230000        0.0000           -1   0.00000   0.00000
     42712 MEOH     2632     MEOH     C1       CD33B    2.314100       11.6110           0   -1.00000   1.30000
     42713 MEOH     2632     MEOH     DC1      DRUD    -2.454100        0.4000           0   0.00000   0.00000
     42714 MEOH     2632     MEOH     O1       OD31H    2.488300       15.5990           0   -1.02800   1.30000
     42715 MEOH     2632     MEOH     DO1      DRUD    -2.488300        0.4000           0   0.00000   0.00000
     42716 MEOH     2632     MEOH     HO1      HDP1A    0.360000        1.0080           0   0.00000   0.00000
     42717 MEOH     2632     MEOH     HO2      DUMH     0.000000        1.0080           0   0.00000   0.00000
     42718 MEOH     2632     MEOH     H1A      HDA3B    0.080000        1.0080           0   0.00000   0.00000
     42719 MEOH     2632     MEOH     H1B      HDA3B    0.080000        1.0080           0   0.00000   0.00000
     42720 MEOH     2632     MEOH     H1C      HDA3B    0.080000        1.0080           0   0.00000   0.00000
     42721 MEOH     2632     MEOH     LP1A     LPD     -0.230000        0.0000           -1   0.00000   0.00000
     42722 MEOH     2632     MEOH     LP1B     LPD     -0.230000        0.0000           -1   0.00000   0.00000
     42723 MEOH     2633     MEOH     C1       CD33B    2.314100       11.6110           0   -1.00000   1.30000
     42724 MEOH     2633     MEOH     DC1      DRUD    -2.454100        0.4000           0   0.00000   0.00000
     42725 MEOH     2633     MEOH     O1       OD31H    2.488300       15.5990           0   -1.02800   1.30000
     42726 MEOH     2633     MEOH     DO1      DRUD    -2.488300        0.4000           0   0.00000   0.00000
     42727 MEOH     2633     MEOH     HO1      HDP1A    0.360000        1.0080           0   0.00000   0.00000
     42728 MEOH     2633     MEOH     HO2      DUMH     0.000000        1.0080           0   0.00000   0.00000
     42729 MEOH     2633     MEOH     H1A      HDA3B    0.080000        1.0080           0   0.00000   0.00000
     42730 MEOH     2633     MEOH     H1B      HDA3B    0.080000        1.0080           0   0.00000   0.00000
     42731 MEOH     2633     MEOH     H1C      HDA3B    0.080000        1.0080           0   0.00000   0.00000
     42732 MEOH     2633     MEOH     LP1A     LPD     -0.230000        0.0000           -1   0.00000   0.00000
     42733 MEOH     2633     MEOH     LP1B     LPD     -0.230000        0.0000           -1   0.00000   0.00000
     42734 MEOH     2634     MEOH     C1       CD33B    2.314100       11.6110           0   -1.00000   1.30000
     42735 MEOH     2634     MEOH     DC1      DRUD    -2.454100        0.4000           0   0.00000   0.00000
     42736 MEOH     2634     MEOH     O1       OD31H    2.488300       15.5990           0   -1.02800   1.30000
     42737 MEOH     2634     MEOH     DO1      DRUD    -2.488300        0.4000           0   0.00000   0.00000
     42738 MEOH     2634     MEOH     HO1      HDP1A    0.360000        1.0080           0   0.00000   0.00000
     42739 MEOH     2634     MEOH     HO2      DUMH     0.000000        1.0080           0   0.00000   0.00000
     42740 MEOH     2634     MEOH     H1A      HDA3B    0.080000        1.0080           0   0.00000   0.00000
     42741 MEOH     2634     MEOH     H1B      HDA3B    0.080000        1.0080           0   0.00000   0.00000
     42742 MEOH     2634     MEOH     H1C      HDA3B    0.080000        1.0080           0   0.00000   0.00000
     42743 MEOH     2634     MEOH     LP1A     LPD     -0.230000        0.0000           -1   0.00000   0.00000
     42744 MEOH     2634     MEOH     LP1B     LPD     -0.230000        0.0000           -1   0.00000   0.00000
     42745 MEOH     2635     MEOH     C1       CD33B    2.314100       11.6110           0   -1.00000   1.30000
     42746 MEOH     2635     MEOH     DC1      DRUD    -2.454100        0.4000           0   0.00000   0.00000
     42747 MEOH     2635     MEOH     O1       OD31H    2.488300       15.5990           0   -1.02800   1.30000
     42748 MEOH     2635     MEOH     DO1      DRUD    -2.488300        0.4000           0   0.00000   0.00000
     42749 MEOH     2635     MEOH     HO1      HDP1A    0.360000        1.0080           0   0.00000   0.00000
     42750 MEOH     2635     MEOH     HO2      DUMH     0.000000        1.0080           0   0.00000   0.00000
     42751 MEOH     2635     MEOH     H1A      HDA3B    0.080000        1.0080           0   0.00000   0.00000
     42752 MEOH     2635     MEOH     H1B      HDA3B    0.080000        1.0080           0   0.00000   0.00000
     42753 MEOH     2635     MEOH     H1C      HDA3B    0.080000        1.0080           0   0.00000   0.00000
     42754 MEOH     2635     MEOH     LP1A     LPD     -0.230000        0.0000           -1   0.00000   0.00000
     42755 MEOH     2635     MEOH     LP1B     LPD     -0.230000        0.0000           -1   0.00000   0.00000
     42756 MEOH     2636     MEOH     C1       CD33B    2.314100       11.6110           0   -1.00000   1.30000
     42757 MEOH     2636     MEOH     DC1      DRUD    -2.454100        0.4000           0   0.00000   0.00000
     42758 MEOH     2636     MEOH     O1       OD31H    2.488300       15.5990           0   -1.02800   1.30000
     42759 MEOH     2636     MEOH     DO1      DRUD    -2.488300        0.4000           0   0.00000   0.00000
     42760 MEOH     2636     MEOH     HO1      HDP1A    0.360000        1.0080           0   0.00000   0.00000
     42761 MEOH     2636     MEOH     HO2      DUMH     0.000000        1.0080           0   0.00000   0.00000
     42762 MEOH     2636     MEOH     H1A      HDA3B    0.080000        1.0080           0   0.00000   0.00000
     42763 MEOH     2636     MEOH     H1B      HDA3B    0.080000        1.0080           0   0.00000   0.00000
     42764 MEOH     2636     MEOH     H1C      HDA3B    0.080000        1.0080           0   0.00000   0.00000
     42765 MEOH     2636     MEOH     LP1A     LPD     -0.230000        0.0000           -1   0.00000   0.00000
     42766 MEOH     2636     MEOH     LP1B     LPD     -0.230000        0.0000           -1   0.00000   0.00000
     42767 MEOH     2637     MEOH     C1       CD33B    2.314100       11.6110           0   -1.00000   1.30000
     42768 MEOH     2637     MEOH     DC1      DRUD    -2.454100        0.4000           0   0.00000   0.00000
     42769 MEOH     2637     MEOH     O1       OD31H    2.488300       15.5990           0   -1.02800   1.30000
     42770 MEOH     2637     MEOH     DO1      DRUD    -2.488300        0.4000           0   0.00000   0.00000
     42771 MEOH     2637     MEOH     HO1      HDP1A    0.360000        1.0080           0   0.00000   0.00000
     42772 MEOH     2637     MEOH     HO2      DUMH     0.000000        1.0080           0   0.00000   0.00000
     42773 MEOH     2637     MEOH     H1A      HDA3B    0.080000        1.0080           0   0.00000   0.00000
     42774 MEOH     2637     MEOH     H1B      HDA3B    0.080000        1.0080           0   0.00000   0.00000
     42775 MEOH     2637     MEOH     H1C      HDA3B    0.080000        1.0080           0   0.00000   0.00000
     42776 MEOH     2637     MEOH     LP1A     LPD     -0.230000        0.0000           -1   0.00000   0.00000
     42777 MEOH     2637     MEOH     LP1B     LPD     -0.230000        0.0000           -1   0.00000   0.00000
     42778 MEOH     2638     MEOH     C1       CD33B    2.314100       11.6110           0   -1.00000   1.30000
     42779 MEOH     2638     MEOH     DC1      DRUD    -2.454100        0.4000           0   0.00000   0.00000
     42780 MEOH     2638     MEOH     O1       OD31H    2.488300       15.5990           0   -1.02800   1.30000
     42781 MEOH     2638     MEOH     DO1      DRUD    -2.488300        0.4000           0   0.00000   0.00000
     42782 MEOH     2638     MEOH     HO1      HDP1A    0.360000        1.0080           0   0.00000   0.00000
     42783 MEOH     2638     MEOH     HO2      DUMH     0.000000        1.0080           0   0.00000   0.00000
     42784 MEOH     2638     MEOH     H1A      HDA3B    0.080000        1.0080           0   0.00000   0.00000
     42785 MEOH     2638     MEOH     H1B      HDA3B    0.080000        1.0080           0   0.00000   0.00000
     42786 MEOH     2638     MEOH     H1C      HDA3B    0.080000        1.0080           0   0.00000   0.00000
     42787 MEOH     2638     MEOH     LP1A     LPD     -0.230000        0.0000           -1   0.00000   0.00000
     42788 MEOH     2638     MEOH     LP1B     LPD     -0.230000        0.0000           -1   0.00000   0.00000
     42789 MEOH     2639     MEOH     C1       CD33B    2.314100       11.6110           0   -1.00000   1.30000
     42790 MEOH     2639     MEOH     DC1      DRUD    -2.454100        0.4000           0   0.00000   0.00000
     42791 MEOH     2639     MEOH     O1       OD31H    2.488300       15.5990           0   -1.02800   1.30000
     42792 MEOH     2639     MEOH     DO1      DRUD    -2.488300        0.4000           0   0.00000   0.00000
     42793 MEOH     2639     MEOH     HO1      HDP1A    0.360000        1.0080           0   0.00000   0.00000
     42794 MEOH     2639     MEOH     HO2      DUMH     0.000000        1.0080           0   0.00000   0.00000
     42795 MEOH     2639     MEOH     H1A      HDA3B    0.080000        1.0080           0   0.00000   0.00000
     42796 MEOH     2639     MEOH     H1B      HDA3B    0.080000        1.0080           0   0.00000   0.00000
     42797 MEOH     2639     MEOH     H1C      HDA3B    0.080000        1.0080           0   0.00000   0.00000
     42798 MEOH     2639     MEOH     LP1A     LPD     -0.230000        0.0000           -1   0.00000   0.00000
     42799 MEOH     2639     MEOH     LP1B     LPD     -0.230000        0.0000           -1   0.00000   0.00000
     42800 MEOH     2640     MEOH     C1       CD33B    2.314100       11.6110           0   -1.00000   1.30000
     42801 MEOH     2640     MEOH     DC1      DRUD    -2.454100        0.4000           0   0.00000   0.00000
     42802 MEOH     2640     MEOH     O1       OD31H    2.488300       15.5990           0   -1.02800   1.30000
     42803 MEOH     2640     MEOH     DO1      DRUD    -2.488300        0.4000           0   0.00000   0.00000
     42804 MEOH     2640     MEOH     HO1      HDP1A    0.360000        1.0080           0   0.00000   0.00000
     42805 MEOH     2640     MEOH     HO2      DUMH     0.000000        1.0080           0   0.00000   0.00000
     42806 MEOH     2640     MEOH     H1A      HDA3B    0.080000        1.0080           0   0.00000   0.00000
     42807 MEOH     2640     MEOH     H1B      HDA3B    0.080000        1.0080           0   0.00000   0.00000
     42808 MEOH     2640     MEOH     H1C      HDA3B    0.080000        1.0080           0   0.00000   0.00000
     42809 MEOH     2640     MEOH     LP1A     LPD     -0.230000        0.0000           -1   0.00000   0.00000
     42810 MEOH     2640     MEOH     LP1B     LPD     -0.230000        0.0000           -1   0.00000   0.00000
     42811 MEOH     2641     MEOH     C1       CD33B    2.314100       11.6110           0   -1.00000   1.30000
     42812 MEOH     2641     MEOH     DC1      DRUD    -2.454100        0.4000           0   0.00000   0.00000
     42813 MEOH     2641     MEOH     O1       OD31H    2.488300       15.5990           0   -1.02800   1.30000
     42814 MEOH     2641     MEOH     DO1      DRUD    -2.488300        0.4000           0   0.00000   0.00000
     42815 MEOH     2641     MEOH     HO1      HDP1A    0.360000        1.0080           0   0.00000   0.00000
     42816 MEOH     2641     MEOH     HO2      DUMH     0.000000        1.0080           0   0.00000   0.00000
     42817 MEOH     2641     MEOH     H1A      HDA3B    0.080000        1.0080           0   0.00000   0.00000
     42818 MEOH     2641     MEOH     H1B      HDA3B    0.080000        1.0080           0   0.00000   0.00000
     42819 MEOH     2641     MEOH     H1C      HDA3B    0.080000        1.0080           0   0.00000   0.00000
     42820 MEOH     2641     MEOH     LP1A     LPD     -0.230000        0.0000           -1   0.00000   0.00000
     42821 MEOH     2641     MEOH     LP1B     LPD     -0.230000        0.0000           -1   0.00000   0.00000
     42822 MEOH     2642     MEOH     C1       CD33B    2.314100       11.6110           0   -1.00000   1.30000
     42823 MEOH     2642     MEOH     DC1      DRUD    -2.454100        0.4000           0   0.00000   0.00000
     42824 MEOH     2642     MEOH     O1       OD31H    2.488300       15.5990           0   -1.02800   1.30000
     42825 MEOH     2642     MEOH     DO1      DRUD    -2.488300        0.4000           0   0.00000   0.00000
     42826 MEOH     2642     MEOH     HO1      HDP1A    0.360000        1.0080           0   0.00000   0.00000
     42827 MEOH     2642     MEOH     HO2      DUMH     0.000000        1.0080           0   0.00000   0.00000
     42828 MEOH     2642     MEOH     H1A      HDA3B    0.080000        1.0080           0   0.00000   0.00000
     42829 MEOH     2642     MEOH     H1B      HDA3B    0.080000        1.0080           0   0.00000   0.00000
     42830 MEOH     2642     MEOH     H1C      HDA3B    0.080000        1.0080           0   0.00000   0.00000
     42831 MEOH     2642     MEOH     LP1A     LPD     -0.230000        0.0000           -1   0.00000   0.00000
     42832 MEOH     2642     MEOH     LP1B     LPD     -0.230000        0.0000           -1   0.00000   0.00000
     42833 MEOH     2643     MEOH     C1       CD33B    2.314100       11.6110           0   -1.00000   1.30000
     42834 MEOH     2643     MEOH     DC1      DRUD    -2.454100        0.4000           0   0.00000   0.00000
     42835 MEOH     2643     MEOH     O1       OD31H    2.488300       15.5990           0   -1.02800   1.30000
     42836 MEOH     2643     MEOH     DO1      DRUD    -2.488300        0.4000           0   0.00000   0.00000
     42837 MEOH     2643     MEOH     HO1      HDP1A    0.360000        1.0080           0   0.00000   0.00000
     42838 MEOH     2643     MEOH     HO2      DUMH     0.000000        1.0080           0   0.00000   0.00000
     42839 MEOH     2643     MEOH     H1A      HDA3B    0.080000        1.0080           0   0.00000   0.00000
     42840 MEOH     2643     MEOH     H1B      HDA3B    0.080000        1.0080           0   0.00000   0.00000
     42841 MEOH     2643     MEOH     H1C      HDA3B    0.080000        1.0080           0   0.00000   0.00000
     42842 MEOH     2643     MEOH     LP1A     LPD     -0.230000        0.0000           -1   0.00000   0.00000
     42843 MEOH     2643     MEOH     LP1B     LPD     -0.230000        0.0000           -1   0.00000   0.00000
     42844 MEOH     2644     MEOH     C1       CD33B    2.314100       11.6110           0   -1.00000   1.30000
     42845 MEOH     2644     MEOH     DC1      DRUD    -2.454100        0.4000           0   0.00000   0.00000
     42846 MEOH     2644     MEOH     O1       OD31H    2.488300       15.5990           0   -1.02800   1.30000
     42847 MEOH     2644     MEOH     DO1      DRUD    -2.488300        0.4000           0   0.00000   0.00000
     42848 MEOH     2644     MEOH     HO1      HDP1A    0.360000        1.0080           0   0.00000   0.00000
     42849 MEOH     2644     MEOH     HO2      DUMH     0.000000        1.0080           0   0.00000   0.00000
     42850 MEOH     2644     MEOH     H1A      HDA3B    0.080000        1.0080           0   0.00000   0.00000
     42851 MEOH     2644     MEOH     H1B      HDA3B    0.080000        1.0080           0   0.00000   0.00000
     42852 MEOH     2644     MEOH     H1C      HDA3B    0.080000        1.0080           0   0.00000   0.00000
     42853 MEOH     2644     MEOH     LP1A     LPD     -0.230000        0.0000           -1   0.00000   0.00000
     42854 MEOH     2644     MEOH     LP1B     LPD     -0.230000        0.0000           -1   0.00000   0.00000
     42855 MEOH     2645     MEOH     C1       CD33B    2.314100       11.6110           0   -1.00000   1.30000
     42856 MEOH     2645     MEOH     DC1      DRUD    -2.454100        0.4000           0   0.00000   0.00000
     42857 MEOH     2645     MEOH     O1       OD31H    2.488300       15.5990           0   -1.02800   1.30000
     42858 MEOH     2645     MEOH     DO1      DRUD    -2.488300        0.4000           0   0.00000   0.00000
     42859 MEOH     2645     MEOH     HO1      HDP1A    0.360000        1.0080           0   0.00000   0.00000
     42860 MEOH     2645     MEOH     HO2      DUMH     0.000000        1.0080           0   0.00000   0.00000
     42861 MEOH     2645     MEOH     H1A      HDA3B    0.080000        1.0080           0   0.00000   0.00000
     42862 MEOH     2645     MEOH     H1B      HDA3B    0.080000        1.0080           0   0.00000   0.00000
     42863 MEOH     2645     MEOH     H1C      HDA3B    0.080000        1.0080           0   0.00000   0.00000
     42864 MEOH     2645     MEOH     LP1A     LPD     -0.230000        0.0000           -1   0.00000   0.00000
     42865 MEOH     2645     MEOH     LP1B     LPD     -0.230000        0.0000           -1   0.00000   0.00000
     42866 MEOH     2646     MEOH     C1       CD33B    2.314100       11.6110           0   -1.00000   1.30000
     42867 MEOH     2646     MEOH     DC1      DRUD    -2.454100        0.4000           0   0.00000   0.00000
     42868 MEOH     2646     MEOH     O1       OD31H    2.488300       15.5990           0   -1.02800   1.30000
     42869 MEOH     2646     MEOH     DO1      DRUD    -2.488300        0.4000           0   0.00000   0.00000
     42870 MEOH     2646     MEOH     HO1      HDP1A    0.360000        1.0080           0   0.00000   0.00000
     42871 MEOH     2646     MEOH     HO2      DUMH     0.000000        1.0080           0   0.00000   0.00000
     42872 MEOH     2646     MEOH     H1A      HDA3B    0.080000        1.0080           0   0.00000   0.00000
     42873 MEOH     2646     MEOH     H1B      HDA3B    0.080000        1.0080           0   0.00000   0.00000
     42874 MEOH     2646     MEOH     H1C      HDA3B    0.080000        1.0080           0   0.00000   0.00000
     42875 MEOH     2646     MEOH     LP1A     LPD     -0.230000        0.0000           -1   0.00000   0.00000
     42876 MEOH     2646     MEOH     LP1B     LPD     -0.230000        0.0000           -1   0.00000   0.00000
     42877 MEOH     2647     MEOH     C1       CD33B    2.314100       11.6110           0   -1.00000   1.30000
     42878 MEOH     2647     MEOH     DC1      DRUD    -2.454100        0.4000           0   0.00000   0.00000
     42879 MEOH     2647     MEOH     O1       OD31H    2.488300       15.5990           0   -1.02800   1.30000
     42880 MEOH     2647     MEOH     DO1      DRUD    -2.488300        0.4000           0   0.00000   0.00000
     42881 MEOH     2647     MEOH     HO1      HDP1A    0.360000        1.0080           0   0.00000   0.00000
     42882 MEOH     2647     MEOH     HO2      DUMH     0.000000        1.0080           0   0.00000   0.00000
     42883 MEOH     2647     MEOH     H1A      HDA3B    0.080000        1.0080           0   0.00000   0.00000
     42884 MEOH     2647     MEOH     H1B      HDA3B    0.080000        1.0080           0   0.00000   0.00000
     42885 MEOH     2647     MEOH     H1C      HDA3B    0.080000        1.0080           0   0.00000   0.00000
     42886 MEOH     2647     MEOH     LP1A     LPD     -0.230000        0.0000           -1   0.00000   0.00000
     42887 MEOH     2647     MEOH     LP1B     LPD     -0.230000        0.0000           -1   0.00000   0.00000
     42888 MEOH     2648     MEOH     C1       CD33B    2.314100       11.6110           0   -1.00000   1.30000
     42889 MEOH     2648     MEOH     DC1      DRUD    -2.454100        0.4000           0   0.00000   0.00000
     42890 MEOH     2648     MEOH     O1       OD31H    2.488300       15.5990           0   -1.02800   1.30000
     42891 MEOH     2648     MEOH     DO1      DRUD    -2.488300        0.4000           0   0.00000   0.00000
     42892 MEOH     2648     MEOH     HO1      HDP1A    0.360000        1.0080           0   0.00000   0.00000
     42893 MEOH     2648     MEOH     HO2      DUMH     0.000000        1.0080           0   0.00000   0.00000
     42894 MEOH     2648     MEOH     H1A      HDA3B    0.080000        1.0080           0   0.00000   0.00000
     42895 MEOH     2648     MEOH     H1B      HDA3B    0.080000        1.0080           0   0.00000   0.00000
     42896 MEOH     2648     MEOH     H1C      HDA3B    0.080000        1.0080           0   0.00000   0.00000
     42897 MEOH     2648     MEOH     LP1A     LPD     -0.230000        0.0000           -1   0.00000   0.00000
     42898 MEOH     2648     MEOH     LP1B     LPD     -0.230000        0.0000           -1   0.00000   0.00000
     42899 MEOH     2649     MEOH     C1       CD33B    2.314100       11.6110           0   -1.00000   1.30000
     42900 MEOH     2649     MEOH     DC1      DRUD    -2.454100        0.4000           0   0.00000   0.00000
     42901 MEOH     2649     MEOH     O1       OD31H    2.488300       15.5990           0   -1.02800   1.30000
     42902 MEOH     2649     MEOH     DO1      DRUD    -2.488300        0.4000           0   0.00000   0.00000
     42903 MEOH     2649     MEOH     HO1      HDP1A    0.360000        1.0080           0   0.00000   0.00000
     42904 MEOH     2649     MEOH     HO2      DUMH     0.000000        1.0080           0   0.00000   0.00000
     42905 MEOH     2649     MEOH     H1A      HDA3B    0.080000        1.0080           0   0.00000   0.00000
     42906 MEOH     2649     MEOH     H1B      HDA3B    0.080000        1.0080           0   0.00000   0.00000
     42907 MEOH     2649     MEOH     H1C      HDA3B    0.080000        1.0080           0   0.00000   0.00000
     42908 MEOH     2649     MEOH     LP1A     LPD     -0.230000        0.0000           -1   0.00000   0.00000
     42909 MEOH     2649     MEOH     LP1B     LPD     -0.230000        0.0000           -1   0.00000   0.00000
     42910 MEOH     2650     MEOH     C1       CD33B    2.314100       11.6110           0   -1.00000   1.30000
     42911 MEOH     2650     MEOH     DC1      DRUD    -2.454100        0.4000           0   0.00000   0.00000
     42912 MEOH     2650     MEOH     O1       OD31H    2.488300       15.5990           0   -1.02800   1.30000
     42913 MEOH     2650     MEOH     DO1      DRUD    -2.488300        0.4000           0   0.00000   0.00000
     42914 MEOH     2650     MEOH     HO1      HDP1A    0.360000        1.0080           0   0.00000   0.00000
     42915 MEOH     2650     MEOH     HO2      DUMH     0.000000        1.0080           0   0.00000   0.00000
     42916 MEOH     2650     MEOH     H1A      HDA3B    0.080000        1.0080           0   0.00000   0.00000
     42917 MEOH     2650     MEOH     H1B      HDA3B    0.080000        1.0080           0   0.00000   0.00000
     42918 MEOH     2650     MEOH     H1C      HDA3B    0.080000        1.0080           0   0.00000   0.00000
     42919 MEOH     2650     MEOH     LP1A     LPD     -0.230000        0.0000           -1   0.00000   0.00000
     42920 MEOH     2650     MEOH     LP1B     LPD     -0.230000        0.0000           -1   0.00000   0.00000
     42921 MEOH     2651     MEOH     C1       CD33B    2.314100       11.6110           0   -1.00000   1.30000
     42922 MEOH     2651     MEOH     DC1      DRUD    -2.454100        0.4000           0   0.00000   0.00000
     42923 MEOH     2651     MEOH     O1       OD31H    2.488300       15.5990           0   -1.02800   1.30000
     42924 MEOH     2651     MEOH     DO1      DRUD    -2.488300        0.4000           0   0.00000   0.00000
     42925 MEOH     2651     MEOH     HO1      HDP1A    0.360000        1.0080           0   0.00000   0.00000
     42926 MEOH     2651     MEOH     HO2      DUMH     0.000000        1.0080           0   0.00000   0.00000
     42927 MEOH     2651     MEOH     H1A      HDA3B    0.080000        1.0080           0   0.00000   0.00000
     42928 MEOH     2651     MEOH     H1B      HDA3B    0.080000        1.0080           0   0.00000   0.00000
     42929 MEOH     2651     MEOH     H1C      HDA3B    0.080000        1.0080           0   0.00000   0.00000
     42930 MEOH     2651     MEOH     LP1A     LPD     -0.230000        0.0000           -1   0.00000   0.00000
     42931 MEOH     2651     MEOH     LP1B     LPD     -0.230000        0.0000           -1   0.00000   0.00000
     42932 MEOH     2652     MEOH     C1       CD33B    2.314100       11.6110           0   -1.00000   1.30000
     42933 MEOH     2652     MEOH     DC1      DRUD    -2.454100        0.4000           0   0.00000   0.00000
     42934 MEOH     2652     MEOH     O1       OD31H    2.488300       15.5990           0   -1.02800   1.30000
     42935 MEOH     2652     MEOH     DO1      DRUD    -2.488300        0.4000           0   0.00000   0.00000
     42936 MEOH     2652     MEOH     HO1      HDP1A    0.360000        1.0080           0   0.00000   0.00000
     42937 MEOH     2652     MEOH     HO2      DUMH     0.000000        1.0080           0   0.00000   0.00000
     42938 MEOH     2652     MEOH     H1A      HDA3B    0.080000        1.0080           0   0.00000   0.00000
     42939 MEOH     2652     MEOH     H1B      HDA3B    0.080000        1.0080           0   0.00000   0.00000
     42940 MEOH     2652     MEOH     H1C      HDA3B    0.080000        1.0080           0   0.00000   0.00000
     42941 MEOH     2652     MEOH     LP1A     LPD     -0.230000        0.0000           -1   0.00000   0.00000
     42942 MEOH     2652     MEOH     LP1B     LPD     -0.230000        0.0000           -1   0.00000   0.00000
     42943 MEOH     2653     MEOH     C1       CD33B    2.314100       11.6110           0   -1.00000   1.30000
     42944 MEOH     2653     MEOH     DC1      DRUD    -2.454100        0.4000           0   0.00000   0.00000
     42945 MEOH     2653     MEOH     O1       OD31H    2.488300       15.5990           0   -1.02800   1.30000
     42946 MEOH     2653     MEOH     DO1      DRUD    -2.488300        0.4000           0   0.00000   0.00000
     42947 MEOH     2653     MEOH     HO1      HDP1A    0.360000        1.0080           0   0.00000   0.00000
     42948 MEOH     2653     MEOH     HO2      DUMH     0.000000        1.0080           0   0.00000   0.00000
     42949 MEOH     2653     MEOH     H1A      HDA3B    0.080000        1.0080           0   0.00000   0.00000
     42950 MEOH     2653     MEOH     H1B      HDA3B    0.080000        1.0080           0   0.00000   0.00000
     42951 MEOH     2653     MEOH     H1C      HDA3B    0.080000        1.0080           0   0.00000   0.00000
     42952 MEOH     2653     MEOH     LP1A     LPD     -0.230000        0.0000           -1   0.00000   0.00000
     42953 MEOH     2653     MEOH     LP1B     LPD     -0.230000        0.0000           -1   0.00000   0.00000
     42954 MEOH     2654     MEOH     C1       CD33B    2.314100       11.6110           0   -1.00000   1.30000
     42955 MEOH     2654     MEOH     DC1      DRUD    -2.454100        0.4000           0   0.00000   0.00000
     42956 MEOH     2654     MEOH     O1       OD31H    2.488300       15.5990           0   -1.02800   1.30000
     42957 MEOH     2654     MEOH     DO1      DRUD    -2.488300        0.4000           0   0.00000   0.00000
     42958 MEOH     2654     MEOH     HO1      HDP1A    0.360000        1.0080           0   0.00000   0.00000
     42959 MEOH     2654     MEOH     HO2      DUMH     0.000000        1.0080           0   0.00000   0.00000
     42960 MEOH     2654     MEOH     H1A      HDA3B    0.080000        1.0080           0   0.00000   0.00000
     42961 MEOH     2654     MEOH     H1B      HDA3B    0.080000        1.0080           0   0.00000   0.00000
     42962 MEOH     2654     MEOH     H1C      HDA3B    0.080000        1.0080           0   0.00000   0.00000
     42963 MEOH     2654     MEOH     LP1A     LPD     -0.230000        0.0000           -1   0.00000   0.00000
     42964 MEOH     2654     MEOH     LP1B     LPD     -0.230000        0.0000           -1   0.00000   0.00000
     42965 MEOH     2655     MEOH     C1       CD33B    2.314100       11.6110           0   -1.00000   1.30000
     42966 MEOH     2655     MEOH     DC1      DRUD    -2.454100        0.4000           0   0.00000   0.00000
     42967 MEOH     2655     MEOH     O1       OD31H    2.488300       15.5990           0   -1.02800   1.30000
     42968 MEOH     2655     MEOH     DO1      DRUD    -2.488300        0.4000           0   0.00000   0.00000
     42969 MEOH     2655     MEOH     HO1      HDP1A    0.360000        1.0080           0   0.00000   0.00000
     42970 MEOH     2655     MEOH     HO2      DUMH     0.000000        1.0080           0   0.00000   0.00000
     42971 MEOH     2655     MEOH     H1A      HDA3B    0.080000        1.0080           0   0.00000   0.00000
     42972 MEOH     2655     MEOH     H1B      HDA3B    0.080000        1.0080           0   0.00000   0.00000
     42973 MEOH     2655     MEOH     H1C      HDA3B    0.080000        1.0080           0   0.00000   0.00000
     42974 MEOH     2655     MEOH     LP1A     LPD     -0.230000        0.0000           -1   0.00000   0.00000
     42975 MEOH     2655     MEOH     LP1B     LPD     -0.230000        0.0000           -1   0.00000   0.00000
     42976 MEOH     2656     MEOH     C1       CD33B    2.314100       11.6110           0   -1.00000   1.30000
     42977 MEOH     2656     MEOH     DC1      DRUD    -2.454100        0.4000           0   0.00000   0.00000
     42978 MEOH     2656     MEOH     O1       OD31H    2.488300       15.5990           0   -1.02800   1.30000
     42979 MEOH     2656     MEOH     DO1      DRUD    -2.488300        0.4000           0   0.00000   0.00000
     42980 MEOH     2656     MEOH     HO1      HDP1A    0.360000        1.0080           0   0.00000   0.00000
     42981 MEOH     2656     MEOH     HO2      DUMH     0.000000        1.0080           0   0.00000   0.00000
     42982 MEOH     2656     MEOH     H1A      HDA3B    0.080000        1.0080           0   0.00000   0.00000
     42983 MEOH     2656     MEOH     H1B      HDA3B    0.080000        1.0080           0   0.00000   0.00000
     42984 MEOH     2656     MEOH     H1C      HDA3B    0.080000        1.0080           0   0.00000   0.00000
     42985 MEOH     2656     MEOH     LP1A     LPD     -0.230000        0.0000           -1   0.00000   0.00000
     42986 MEOH     2656     MEOH     LP1B     LPD     -0.230000        0.0000           -1   0.00000   0.00000
     42987 MEOH     2657     MEOH     C1       CD33B    2.314100       11.6110           0   -1.00000   1.30000
     42988 MEOH     2657     MEOH     DC1      DRUD    -2.454100        0.4000           0   0.00000   0.00000
     42989 MEOH     2657     MEOH     O1       OD31H    2.488300       15.5990           0   -1.02800   1.30000
     42990 MEOH     2657     MEOH     DO1      DRUD    -2.488300        0.4000           0   0.00000   0.00000
     42991 MEOH     2657     MEOH     HO1      HDP1A    0.360000        1.0080           0   0.00000   0.00000
     42992 MEOH     2657     MEOH     HO2      DUMH     0.000000        1.0080           0   0.00000   0.00000
     42993 MEOH     2657     MEOH     H1A      HDA3B    0.080000        1.0080           0   0.00000   0.00000
     42994 MEOH     2657     MEOH     H1B      HDA3B    0.080000        1.0080           0   0.00000   0.00000
     42995 MEOH     2657     MEOH     H1C      HDA3B    0.080000        1.0080           0   0.00000   0.00000
     42996 MEOH     2657     MEOH     LP1A     LPD     -0.230000        0.0000           -1   0.00000   0.00000
     42997 MEOH     2657     MEOH     LP1B     LPD     -0.230000        0.0000           -1   0.00000   0.00000
     42998 MEOH     2658     MEOH     C1       CD33B    2.314100       11.6110           0   -1.00000   1.30000
     42999 MEOH     2658     MEOH     DC1      DRUD    -2.454100        0.4000           0   0.00000   0.00000
     43000 MEOH     2658     MEOH     O1       OD31H    2.488300       15.5990           0   -1.02800   1.30000
     43001 MEOH     2658     MEOH     DO1      DRUD    -2.488300        0.4000           0   0.00000   0.00000
     43002 MEOH     2658     MEOH     HO1      HDP1A    0.360000        1.0080           0   0.00000   0.00000
     43003 MEOH     2658     MEOH     HO2      DUMH     0.000000        1.0080           0   0.00000   0.00000
     43004 MEOH     2658     MEOH     H1A      HDA3B    0.080000        1.0080           0   0.00000   0.00000
     43005 MEOH     2658     MEOH     H1B      HDA3B    0.080000        1.0080           0   0.00000   0.00000
     43006 MEOH     2658     MEOH     H1C      HDA3B    0.080000        1.0080           0   0.00000   0.00000
     43007 MEOH     2658     MEOH     LP1A     LPD     -0.230000        0.0000           -1   0.00000   0.00000
     43008 MEOH     2658     MEOH     LP1B     LPD     -0.230000        0.0000           -1   0.00000   0.00000
     43009 MEOH     2659     MEOH     C1       CD33B    2.314100       11.6110           0   -1.00000   1.30000
     43010 MEOH     2659     MEOH     DC1      DRUD    -2.454100        0.4000           0   0.00000   0.00000
     43011 MEOH     2659     MEOH     O1       OD31H    2.488300       15.5990           0   -1.02800   1.30000
     43012 MEOH     2659     MEOH     DO1      DRUD    -2.488300        0.4000           0   0.00000   0.00000
     43013 MEOH     2659     MEOH     HO1      HDP1A    0.360000        1.0080           0   0.00000   0.00000
     43014 MEOH     2659     MEOH     HO2      DUMH     0.000000        1.0080           0   0.00000   0.00000
     43015 MEOH     2659     MEOH     H1A      HDA3B    0.080000        1.0080           0   0.00000   0.00000
     43016 MEOH     2659     MEOH     H1B      HDA3B    0.080000        1.0080           0   0.00000   0.00000
     43017 MEOH     2659     MEOH     H1C      HDA3B    0.080000        1.0080           0   0.00000   0.00000
     43018 MEOH     2659     MEOH     LP1A     LPD     -0.230000        0.0000           -1   0.00000   0.00000
     43019 MEOH     2659     MEOH     LP1B     LPD     -0.230000        0.0000           -1   0.00000   0.00000
     43020 MEOH     2660     MEOH     C1       CD33B    2.314100       11.6110           0   -1.00000   1.30000
     43021 MEOH     2660     MEOH     DC1      DRUD    -2.454100        0.4000           0   0.00000   0.00000
     43022 MEOH     2660     MEOH     O1       OD31H    2.488300       15.5990           0   -1.02800   1.30000
     43023 MEOH     2660     MEOH     DO1      DRUD    -2.488300        0.4000           0   0.00000   0.00000
     43024 MEOH     2660     MEOH     HO1      HDP1A    0.360000        1.0080           0   0.00000   0.00000
     43025 MEOH     2660     MEOH     HO2      DUMH     0.000000        1.0080           0   0.00000   0.00000
     43026 MEOH     2660     MEOH     H1A      HDA3B    0.080000        1.0080           0   0.00000   0.00000
     43027 MEOH     2660     MEOH     H1B      HDA3B    0.080000        1.0080           0   0.00000   0.00000
     43028 MEOH     2660     MEOH     H1C      HDA3B    0.080000        1.0080           0   0.00000   0.00000
     43029 MEOH     2660     MEOH     LP1A     LPD     -0.230000        0.0000           -1   0.00000   0.00000
     43030 MEOH     2660     MEOH     LP1B     LPD     -0.230000        0.0000           -1   0.00000   0.00000
     43031 MEOH     2661     MEOH     C1       CD33B    2.314100       11.6110           0   -1.00000   1.30000
     43032 MEOH     2661     MEOH     DC1      DRUD    -2.454100        0.4000           0   0.00000   0.00000
     43033 MEOH     2661     MEOH     O1       OD31H    2.488300       15.5990           0   -1.02800   1.30000
     43034 MEOH     2661     MEOH     DO1      DRUD    -2.488300        0.4000           0   0.00000   0.00000
     43035 MEOH     2661     MEOH     HO1      HDP1A    0.360000        1.0080           0   0.00000   0.00000
     43036 MEOH     2661     MEOH     HO2      DUMH     0.000000        1.0080           0   0.00000   0.00000
     43037 MEOH     2661     MEOH     H1A      HDA3B    0.080000        1.0080           0   0.00000   0.00000
     43038 MEOH     2661     MEOH     H1B      HDA3B    0.080000        1.0080           0   0.00000   0.00000
     43039 MEOH     2661     MEOH     H1C      HDA3B    0.080000        1.0080           0   0.00000   0.00000
     43040 MEOH     2661     MEOH     LP1A     LPD     -0.230000        0.0000           -1   0.00000   0.00000
     43041 MEOH     2661     MEOH     LP1B     LPD     -0.230000        0.0000           -1   0.00000   0.00000
     43042 MEOH     2662     MEOH     C1       CD33B    2.314100       11.6110           0   -1.00000   1.30000
     43043 MEOH     2662     MEOH     DC1      DRUD    -2.454100        0.4000           0   0.00000   0.00000
     43044 MEOH     2662     MEOH     O1       OD31H    2.488300       15.5990           0   -1.02800   1.30000
     43045 MEOH     2662     MEOH     DO1      DRUD    -2.488300        0.4000           0   0.00000   0.00000
     43046 MEOH     2662     MEOH     HO1      HDP1A    0.360000        1.0080           0   0.00000   0.00000
     43047 MEOH     2662     MEOH     HO2      DUMH     0.000000        1.0080           0   0.00000   0.00000
     43048 MEOH     2662     MEOH     H1A      HDA3B    0.080000        1.0080           0   0.00000   0.00000
     43049 MEOH     2662     MEOH     H1B      HDA3B    0.080000        1.0080           0   0.00000   0.00000
     43050 MEOH     2662     MEOH     H1C      HDA3B    0.080000        1.0080           0   0.00000   0.00000
     43051 MEOH     2662     MEOH     LP1A     LPD     -0.230000        0.0000           -1   0.00000   0.00000
     43052 MEOH     2662     MEOH     LP1B     LPD     -0.230000        0.0000           -1   0.00000   0.00000
     43053 MEOH     2663     MEOH     C1       CD33B    2.314100       11.6110           0   -1.00000   1.30000
     43054 MEOH     2663     MEOH     DC1      DRUD    -2.454100        0.4000           0   0.00000   0.00000
     43055 MEOH     2663     MEOH     O1       OD31H    2.488300       15.5990           0   -1.02800   1.30000
     43056 MEOH     2663     MEOH     DO1      DRUD    -2.488300        0.4000           0   0.00000   0.00000
     43057 MEOH     2663     MEOH     HO1      HDP1A    0.360000        1.0080           0   0.00000   0.00000
     43058 MEOH     2663     MEOH     HO2      DUMH     0.000000        1.0080           0   0.00000   0.00000
     43059 MEOH     2663     MEOH     H1A      HDA3B    0.080000        1.0080           0   0.00000   0.00000
     43060 MEOH     2663     MEOH     H1B      HDA3B    0.080000        1.0080           0   0.00000   0.00000
     43061 MEOH     2663     MEOH     H1C      HDA3B    0.080000        1.0080           0   0.00000   0.00000
     43062 MEOH     2663     MEOH     LP1A     LPD     -0.230000        0.0000           -1   0.00000   0.00000
     43063 MEOH     2663     MEOH     LP1B     LPD     -0.230000        0.0000           -1   0.00000   0.00000
     43064 MEOH     2664     MEOH     C1       CD33B    2.314100       11.6110           0   -1.00000   1.30000
     43065 MEOH     2664     MEOH     DC1      DRUD    -2.454100        0.4000           0   0.00000   0.00000
     43066 MEOH     2664     MEOH     O1       OD31H    2.488300       15.5990           0   -1.02800   1.30000
     43067 MEOH     2664     MEOH     DO1      DRUD    -2.488300        0.4000           0   0.00000   0.00000
     43068 MEOH     2664     MEOH     HO1      HDP1A    0.360000        1.0080           0   0.00000   0.00000
     43069 MEOH     2664     MEOH     HO2      DUMH     0.000000        1.0080           0   0.00000   0.00000
     43070 MEOH     2664     MEOH     H1A      HDA3B    0.080000        1.0080           0   0.00000   0.00000
     43071 MEOH     2664     MEOH     H1B      HDA3B    0.080000        1.0080           0   0.00000   0.00000
     43072 MEOH     2664     MEOH     H1C      HDA3B    0.080000        1.0080           0   0.00000   0.00000
     43073 MEOH     2664     MEOH     LP1A     LPD     -0.230000        0.0000           -1   0.00000   0.00000
     43074 MEOH     2664     MEOH     LP1B     LPD     -0.230000        0.0000           -1   0.00000   0.00000
     43075 MEOH     2665     MEOH     C1       CD33B    2.314100       11.6110           0   -1.00000   1.30000
     43076 MEOH     2665     MEOH     DC1      DRUD    -2.454100        0.4000           0   0.00000   0.00000
     43077 MEOH     2665     MEOH     O1       OD31H    2.488300       15.5990           0   -1.02800   1.30000
     43078 MEOH     2665     MEOH     DO1      DRUD    -2.488300        0.4000           0   0.00000   0.00000
     43079 MEOH     2665     MEOH     HO1      HDP1A    0.360000        1.0080           0   0.00000   0.00000
     43080 MEOH     2665     MEOH     HO2      DUMH     0.000000        1.0080           0   0.00000   0.00000
     43081 MEOH     2665     MEOH     H1A      HDA3B    0.080000        1.0080           0   0.00000   0.00000
     43082 MEOH     2665     MEOH     H1B      HDA3B    0.080000        1.0080           0   0.00000   0.00000
     43083 MEOH     2665     MEOH     H1C      HDA3B    0.080000        1.0080           0   0.00000   0.00000
     43084 MEOH     2665     MEOH     LP1A     LPD     -0.230000        0.0000           -1   0.00000   0.00000
     43085 MEOH     2665     MEOH     LP1B     LPD     -0.230000        0.0000           -1   0.00000   0.00000
     43086 MEOH     2666     MEOH     C1       CD33B    2.314100       11.6110           0   -1.00000   1.30000
     43087 MEOH     2666     MEOH     DC1      DRUD    -2.454100        0.4000           0   0.00000   0.00000
     43088 MEOH     2666     MEOH     O1       OD31H    2.488300       15.5990           0   -1.02800   1.30000
     43089 MEOH     2666     MEOH     DO1      DRUD    -2.488300        0.4000           0   0.00000   0.00000
     43090 MEOH     2666     MEOH     HO1      HDP1A    0.360000        1.0080           0   0.00000   0.00000
     43091 MEOH     2666     MEOH     HO2      DUMH     0.000000        1.0080           0   0.00000   0.00000
     43092 MEOH     2666     MEOH     H1A      HDA3B    0.080000        1.0080           0   0.00000   0.00000
     43093 MEOH     2666     MEOH     H1B      HDA3B    0.080000        1.0080           0   0.00000   0.00000
     43094 MEOH     2666     MEOH     H1C      HDA3B    0.080000        1.0080           0   0.00000   0.00000
     43095 MEOH     2666     MEOH     LP1A     LPD     -0.230000        0.0000           -1   0.00000   0.00000
     43096 MEOH     2666     MEOH     LP1B     LPD     -0.230000        0.0000           -1   0.00000   0.00000
     43097 MEOH     2667     MEOH     C1       CD33B    2.314100       11.6110           0   -1.00000   1.30000
     43098 MEOH     2667     MEOH     DC1      DRUD    -2.454100        0.4000           0   0.00000   0.00000
     43099 MEOH     2667     MEOH     O1       OD31H    2.488300       15.5990           0   -1.02800   1.30000
     43100 MEOH     2667     MEOH     DO1      DRUD    -2.488300        0.4000           0   0.00000   0.00000
     43101 MEOH     2667     MEOH     HO1      HDP1A    0.360000        1.0080           0   0.00000   0.00000
     43102 MEOH     2667     MEOH     HO2      DUMH     0.000000        1.0080           0   0.00000   0.00000
     43103 MEOH     2667     MEOH     H1A      HDA3B    0.080000        1.0080           0   0.00000   0.00000
     43104 MEOH     2667     MEOH     H1B      HDA3B    0.080000        1.0080           0   0.00000   0.00000
     43105 MEOH     2667     MEOH     H1C      HDA3B    0.080000        1.0080           0   0.00000   0.00000
     43106 MEOH     2667     MEOH     LP1A     LPD     -0.230000        0.0000           -1   0.00000   0.00000
     43107 MEOH     2667     MEOH     LP1B     LPD     -0.230000        0.0000           -1   0.00000   0.00000
     43108 MEOH     2668     MEOH     C1       CD33B    2.314100       11.6110           0   -1.00000   1.30000
     43109 MEOH     2668     MEOH     DC1      DRUD    -2.454100        0.4000           0   0.00000   0.00000
     43110 MEOH     2668     MEOH     O1       OD31H    2.488300       15.5990           0   -1.02800   1.30000
     43111 MEOH     2668     MEOH     DO1      DRUD    -2.488300        0.4000           0   0.00000   0.00000
     43112 MEOH     2668     MEOH     HO1      HDP1A    0.360000        1.0080           0   0.00000   0.00000
     43113 MEOH     2668     MEOH     HO2      DUMH     0.000000        1.0080           0   0.00000   0.00000
     43114 MEOH     2668     MEOH     H1A      HDA3B    0.080000        1.0080           0   0.00000   0.00000
     43115 MEOH     2668     MEOH     H1B      HDA3B    0.080000        1.0080           0   0.00000   0.00000
     43116 MEOH     2668     MEOH     H1C      HDA3B    0.080000        1.0080           0   0.00000   0.00000
     43117 MEOH     2668     MEOH     LP1A     LPD     -0.230000        0.0000           -1   0.00000   0.00000
     43118 MEOH     2668     MEOH     LP1B     LPD     -0.230000        0.0000           -1   0.00000   0.00000
     43119 MEOH     2669     MEOH     C1       CD33B    2.314100       11.6110           0   -1.00000   1.30000
     43120 MEOH     2669     MEOH     DC1      DRUD    -2.454100        0.4000           0   0.00000   0.00000
     43121 MEOH     2669     MEOH     O1       OD31H    2.488300       15.5990           0   -1.02800   1.30000
     43122 MEOH     2669     MEOH     DO1      DRUD    -2.488300        0.4000           0   0.00000   0.00000
     43123 MEOH     2669     MEOH     HO1      HDP1A    0.360000        1.0080           0   0.00000   0.00000
     43124 MEOH     2669     MEOH     HO2      DUMH     0.000000        1.0080           0   0.00000   0.00000
     43125 MEOH     2669     MEOH     H1A      HDA3B    0.080000        1.0080           0   0.00000   0.00000
     43126 MEOH     2669     MEOH     H1B      HDA3B    0.080000        1.0080           0   0.00000   0.00000
     43127 MEOH     2669     MEOH     H1C      HDA3B    0.080000        1.0080           0   0.00000   0.00000
     43128 MEOH     2669     MEOH     LP1A     LPD     -0.230000        0.0000           -1   0.00000   0.00000
     43129 MEOH     2669     MEOH     LP1B     LPD     -0.230000        0.0000           -1   0.00000   0.00000
     43130 MEOH     2670     MEOH     C1       CD33B    2.314100       11.6110           0   -1.00000   1.30000
     43131 MEOH     2670     MEOH     DC1      DRUD    -2.454100        0.4000           0   0.00000   0.00000
     43132 MEOH     2670     MEOH     O1       OD31H    2.488300       15.5990           0   -1.02800   1.30000
     43133 MEOH     2670     MEOH     DO1      DRUD    -2.488300        0.4000           0   0.00000   0.00000
     43134 MEOH     2670     MEOH     HO1      HDP1A    0.360000        1.0080           0   0.00000   0.00000
     43135 MEOH     2670     MEOH     HO2      DUMH     0.000000        1.0080           0   0.00000   0.00000
     43136 MEOH     2670     MEOH     H1A      HDA3B    0.080000        1.0080           0   0.00000   0.00000
     43137 MEOH     2670     MEOH     H1B      HDA3B    0.080000        1.0080           0   0.00000   0.00000
     43138 MEOH     2670     MEOH     H1C      HDA3B    0.080000        1.0080           0   0.00000   0.00000
     43139 MEOH     2670     MEOH     LP1A     LPD     -0.230000        0.0000           -1   0.00000   0.00000
     43140 MEOH     2670     MEOH     LP1B     LPD     -0.230000        0.0000           -1   0.00000   0.00000
     43141 MEOH     2671     MEOH     C1       CD33B    2.314100       11.6110           0   -1.00000   1.30000
     43142 MEOH     2671     MEOH     DC1      DRUD    -2.454100        0.4000           0   0.00000   0.00000
     43143 MEOH     2671     MEOH     O1       OD31H    2.488300       15.5990           0   -1.02800   1.30000
     43144 MEOH     2671     MEOH     DO1      DRUD    -2.488300        0.4000           0   0.00000   0.00000
     43145 MEOH     2671     MEOH     HO1      HDP1A    0.360000        1.0080           0   0.00000   0.00000
     43146 MEOH     2671     MEOH     HO2      DUMH     0.000000        1.0080           0   0.00000   0.00000
     43147 MEOH     2671     MEOH     H1A      HDA3B    0.080000        1.0080           0   0.00000   0.00000
     43148 MEOH     2671     MEOH     H1B      HDA3B    0.080000        1.0080           0   0.00000   0.00000
     43149 MEOH     2671     MEOH     H1C      HDA3B    0.080000        1.0080           0   0.00000   0.00000
     43150 MEOH     2671     MEOH     LP1A     LPD     -0.230000        0.0000           -1   0.00000   0.00000
     43151 MEOH     2671     MEOH     LP1B     LPD     -0.230000        0.0000           -1   0.00000   0.00000
     43152 MEOH     2672     MEOH     C1       CD33B    2.314100       11.6110           0   -1.00000   1.30000
     43153 MEOH     2672     MEOH     DC1      DRUD    -2.454100        0.4000           0   0.00000   0.00000
     43154 MEOH     2672     MEOH     O1       OD31H    2.488300       15.5990           0   -1.02800   1.30000
     43155 MEOH     2672     MEOH     DO1      DRUD    -2.488300        0.4000           0   0.00000   0.00000
     43156 MEOH     2672     MEOH     HO1      HDP1A    0.360000        1.0080           0   0.00000   0.00000
     43157 MEOH     2672     MEOH     HO2      DUMH     0.000000        1.0080           0   0.00000   0.00000
     43158 MEOH     2672     MEOH     H1A      HDA3B    0.080000        1.0080           0   0.00000   0.00000
     43159 MEOH     2672     MEOH     H1B      HDA3B    0.080000        1.0080           0   0.00000   0.00000
     43160 MEOH     2672     MEOH     H1C      HDA3B    0.080000        1.0080           0   0.00000   0.00000
     43161 MEOH     2672     MEOH     LP1A     LPD     -0.230000        0.0000           -1   0.00000   0.00000
     43162 MEOH     2672     MEOH     LP1B     LPD     -0.230000        0.0000           -1   0.00000   0.00000
     43163 MEOH     2673     MEOH     C1       CD33B    2.314100       11.6110           0   -1.00000   1.30000
     43164 MEOH     2673     MEOH     DC1      DRUD    -2.454100        0.4000           0   0.00000   0.00000
     43165 MEOH     2673     MEOH     O1       OD31H    2.488300       15.5990           0   -1.02800   1.30000
     43166 MEOH     2673     MEOH     DO1      DRUD    -2.488300        0.4000           0   0.00000   0.00000
     43167 MEOH     2673     MEOH     HO1      HDP1A    0.360000        1.0080           0   0.00000   0.00000
     43168 MEOH     2673     MEOH     HO2      DUMH     0.000000        1.0080           0   0.00000   0.00000
     43169 MEOH     2673     MEOH     H1A      HDA3B    0.080000        1.0080           0   0.00000   0.00000
     43170 MEOH     2673     MEOH     H1B      HDA3B    0.080000        1.0080           0   0.00000   0.00000
     43171 MEOH     2673     MEOH     H1C      HDA3B    0.080000        1.0080           0   0.00000   0.00000
     43172 MEOH     2673     MEOH     LP1A     LPD     -0.230000        0.0000           -1   0.00000   0.00000
     43173 MEOH     2673     MEOH     LP1B     LPD     -0.230000        0.0000           -1   0.00000   0.00000
     43174 MEOH     2674     MEOH     C1       CD33B    2.314100       11.6110           0   -1.00000   1.30000
     43175 MEOH     2674     MEOH     DC1      DRUD    -2.454100        0.4000           0   0.00000   0.00000
     43176 MEOH     2674     MEOH     O1       OD31H    2.488300       15.5990           0   -1.02800   1.30000
     43177 MEOH     2674     MEOH     DO1      DRUD    -2.488300        0.4000           0   0.00000   0.00000
     43178 MEOH     2674     MEOH     HO1      HDP1A    0.360000        1.0080           0   0.00000   0.00000
     43179 MEOH     2674     MEOH     HO2      DUMH     0.000000        1.0080           0   0.00000   0.00000
     43180 MEOH     2674     MEOH     H1A      HDA3B    0.080000        1.0080           0   0.00000   0.00000
     43181 MEOH     2674     MEOH     H1B      HDA3B    0.080000        1.0080           0   0.00000   0.00000
     43182 MEOH     2674     MEOH     H1C      HDA3B    0.080000        1.0080           0   0.00000   0.00000
     43183 MEOH     2674     MEOH     LP1A     LPD     -0.230000        0.0000           -1   0.00000   0.00000
     43184 MEOH     2674     MEOH     LP1B     LPD     -0.230000        0.0000           -1   0.00000   0.00000
     43185 MEOH     2675     MEOH     C1       CD33B    2.314100       11.6110           0   -1.00000   1.30000
     43186 MEOH     2675     MEOH     DC1      DRUD    -2.454100        0.4000           0   0.00000   0.00000
     43187 MEOH     2675     MEOH     O1       OD31H    2.488300       15.5990           0   -1.02800   1.30000
     43188 MEOH     2675     MEOH     DO1      DRUD    -2.488300        0.4000           0   0.00000   0.00000
     43189 MEOH     2675     MEOH     HO1      HDP1A    0.360000        1.0080           0   0.00000   0.00000
     43190 MEOH     2675     MEOH     HO2      DUMH     0.000000        1.0080           0   0.00000   0.00000
     43191 MEOH     2675     MEOH     H1A      HDA3B    0.080000        1.0080           0   0.00000   0.00000
     43192 MEOH     2675     MEOH     H1B      HDA3B    0.080000        1.0080           0   0.00000   0.00000
     43193 MEOH     2675     MEOH     H1C      HDA3B    0.080000        1.0080           0   0.00000   0.00000
     43194 MEOH     2675     MEOH     LP1A     LPD     -0.230000        0.0000           -1   0.00000   0.00000
     43195 MEOH     2675     MEOH     LP1B     LPD     -0.230000        0.0000           -1   0.00000   0.00000
     43196 MEOH     2676     MEOH     C1       CD33B    2.314100       11.6110           0   -1.00000   1.30000
     43197 MEOH     2676     MEOH     DC1      DRUD    -2.454100        0.4000           0   0.00000   0.00000
     43198 MEOH     2676     MEOH     O1       OD31H    2.488300       15.5990           0   -1.02800   1.30000
     43199 MEOH     2676     MEOH     DO1      DRUD    -2.488300        0.4000           0   0.00000   0.00000
     43200 MEOH     2676     MEOH     HO1      HDP1A    0.360000        1.0080           0   0.00000   0.00000
     43201 MEOH     2676     MEOH     HO2      DUMH     0.000000        1.0080           0   0.00000   0.00000
     43202 MEOH     2676     MEOH     H1A      HDA3B    0.080000        1.0080           0   0.00000   0.00000
     43203 MEOH     2676     MEOH     H1B      HDA3B    0.080000        1.0080           0   0.00000   0.00000
     43204 MEOH     2676     MEOH     H1C      HDA3B    0.080000        1.0080           0   0.00000   0.00000
     43205 MEOH     2676     MEOH     LP1A     LPD     -0.230000        0.0000           -1   0.00000   0.00000
     43206 MEOH     2676     MEOH     LP1B     LPD     -0.230000        0.0000           -1   0.00000   0.00000
     43207 MEOH     2677     MEOH     C1       CD33B    2.314100       11.6110           0   -1.00000   1.30000
     43208 MEOH     2677     MEOH     DC1      DRUD    -2.454100        0.4000           0   0.00000   0.00000
     43209 MEOH     2677     MEOH     O1       OD31H    2.488300       15.5990           0   -1.02800   1.30000
     43210 MEOH     2677     MEOH     DO1      DRUD    -2.488300        0.4000           0   0.00000   0.00000
     43211 MEOH     2677     MEOH     HO1      HDP1A    0.360000        1.0080           0   0.00000   0.00000
     43212 MEOH     2677     MEOH     HO2      DUMH     0.000000        1.0080           0   0.00000   0.00000
     43213 MEOH     2677     MEOH     H1A      HDA3B    0.080000        1.0080           0   0.00000   0.00000
     43214 MEOH     2677     MEOH     H1B      HDA3B    0.080000        1.0080           0   0.00000   0.00000
     43215 MEOH     2677     MEOH     H1C      HDA3B    0.080000        1.0080           0   0.00000   0.00000
     43216 MEOH     2677     MEOH     LP1A     LPD     -0.230000        0.0000           -1   0.00000   0.00000
     43217 MEOH     2677     MEOH     LP1B     LPD     -0.230000        0.0000           -1   0.00000   0.00000
     43218 MEOH     2678     MEOH     C1       CD33B    2.314100       11.6110           0   -1.00000   1.30000
     43219 MEOH     2678     MEOH     DC1      DRUD    -2.454100        0.4000           0   0.00000   0.00000
     43220 MEOH     2678     MEOH     O1       OD31H    2.488300       15.5990           0   -1.02800   1.30000
     43221 MEOH     2678     MEOH     DO1      DRUD    -2.488300        0.4000           0   0.00000   0.00000
     43222 MEOH     2678     MEOH     HO1      HDP1A    0.360000        1.0080           0   0.00000   0.00000
     43223 MEOH     2678     MEOH     HO2      DUMH     0.000000        1.0080           0   0.00000   0.00000
     43224 MEOH     2678     MEOH     H1A      HDA3B    0.080000        1.0080           0   0.00000   0.00000
     43225 MEOH     2678     MEOH     H1B      HDA3B    0.080000        1.0080           0   0.00000   0.00000
     43226 MEOH     2678     MEOH     H1C      HDA3B    0.080000        1.0080           0   0.00000   0.00000
     43227 MEOH     2678     MEOH     LP1A     LPD     -0.230000        0.0000           -1   0.00000   0.00000
     43228 MEOH     2678     MEOH     LP1B     LPD     -0.230000        0.0000           -1   0.00000   0.00000
     43229 MEOH     2679     MEOH     C1       CD33B    2.314100       11.6110           0   -1.00000   1.30000
     43230 MEOH     2679     MEOH     DC1      DRUD    -2.454100        0.4000           0   0.00000   0.00000
     43231 MEOH     2679     MEOH     O1       OD31H    2.488300       15.5990           0   -1.02800   1.30000
     43232 MEOH     2679     MEOH     DO1      DRUD    -2.488300        0.4000           0   0.00000   0.00000
     43233 MEOH     2679     MEOH     HO1      HDP1A    0.360000        1.0080           0   0.00000   0.00000
     43234 MEOH     2679     MEOH     HO2      DUMH     0.000000        1.0080           0   0.00000   0.00000
     43235 MEOH     2679     MEOH     H1A      HDA3B    0.080000        1.0080           0   0.00000   0.00000
     43236 MEOH     2679     MEOH     H1B      HDA3B    0.080000        1.0080           0   0.00000   0.00000
     43237 MEOH     2679     MEOH     H1C      HDA3B    0.080000        1.0080           0   0.00000   0.00000
     43238 MEOH     2679     MEOH     LP1A     LPD     -0.230000        0.0000           -1   0.00000   0.00000
     43239 MEOH     2679     MEOH     LP1B     LPD     -0.230000        0.0000           -1   0.00000   0.00000
     43240 MEOH     2680     MEOH     C1       CD33B    2.314100       11.6110           0   -1.00000   1.30000
     43241 MEOH     2680     MEOH     DC1      DRUD    -2.454100        0.4000           0   0.00000   0.00000
     43242 MEOH     2680     MEOH     O1       OD31H    2.488300       15.5990           0   -1.02800   1.30000
     43243 MEOH     2680     MEOH     DO1      DRUD    -2.488300        0.4000           0   0.00000   0.00000
     43244 MEOH     2680     MEOH     HO1      HDP1A    0.360000        1.0080           0   0.00000   0.00000
     43245 MEOH     2680     MEOH     HO2      DUMH     0.000000        1.0080           0   0.00000   0.00000
     43246 MEOH     2680     MEOH     H1A      HDA3B    0.080000        1.0080           0   0.00000   0.00000
     43247 MEOH     2680     MEOH     H1B      HDA3B    0.080000        1.0080           0   0.00000   0.00000
     43248 MEOH     2680     MEOH     H1C      HDA3B    0.080000        1.0080           0   0.00000   0.00000
     43249 MEOH     2680     MEOH     LP1A     LPD     -0.230000        0.0000           -1   0.00000   0.00000
     43250 MEOH     2680     MEOH     LP1B     LPD     -0.230000        0.0000           -1   0.00000   0.00000
     43251 MEOH     2681     MEOH     C1       CD33B    2.314100       11.6110           0   -1.00000   1.30000
     43252 MEOH     2681     MEOH     DC1      DRUD    -2.454100        0.4000           0   0.00000   0.00000
     43253 MEOH     2681     MEOH     O1       OD31H    2.488300       15.5990           0   -1.02800   1.30000
     43254 MEOH     2681     MEOH     DO1      DRUD    -2.488300        0.4000           0   0.00000   0.00000
     43255 MEOH     2681     MEOH     HO1      HDP1A    0.360000        1.0080           0   0.00000   0.00000
     43256 MEOH     2681     MEOH     HO2      DUMH     0.000000        1.0080           0   0.00000   0.00000
     43257 MEOH     2681     MEOH     H1A      HDA3B    0.080000        1.0080           0   0.00000   0.00000
     43258 MEOH     2681     MEOH     H1B      HDA3B    0.080000        1.0080           0   0.00000   0.00000
     43259 MEOH     2681     MEOH     H1C      HDA3B    0.080000        1.0080           0   0.00000   0.00000
     43260 MEOH     2681     MEOH     LP1A     LPD     -0.230000        0.0000           -1   0.00000   0.00000
     43261 MEOH     2681     MEOH     LP1B     LPD     -0.230000        0.0000           -1   0.00000   0.00000
     43262 MEOH     2682     MEOH     C1       CD33B    2.314100       11.6110           0   -1.00000   1.30000
     43263 MEOH     2682     MEOH     DC1      DRUD    -2.454100        0.4000           0   0.00000   0.00000
     43264 MEOH     2682     MEOH     O1       OD31H    2.488300       15.5990           0   -1.02800   1.30000
     43265 MEOH     2682     MEOH     DO1      DRUD    -2.488300        0.4000           0   0.00000   0.00000
     43266 MEOH     2682     MEOH     HO1      HDP1A    0.360000        1.0080           0   0.00000   0.00000
     43267 MEOH     2682     MEOH     HO2      DUMH     0.000000        1.0080           0   0.00000   0.00000
     43268 MEOH     2682     MEOH     H1A      HDA3B    0.080000        1.0080           0   0.00000   0.00000
     43269 MEOH     2682     MEOH     H1B      HDA3B    0.080000        1.0080           0   0.00000   0.00000
     43270 MEOH     2682     MEOH     H1C      HDA3B    0.080000        1.0080           0   0.00000   0.00000
     43271 MEOH     2682     MEOH     LP1A     LPD     -0.230000        0.0000           -1   0.00000   0.00000
     43272 MEOH     2682     MEOH     LP1B     LPD     -0.230000        0.0000           -1   0.00000   0.00000
     43273 MEOH     2683     MEOH     C1       CD33B    2.314100       11.6110           0   -1.00000   1.30000
     43274 MEOH     2683     MEOH     DC1      DRUD    -2.454100        0.4000           0   0.00000   0.00000
     43275 MEOH     2683     MEOH     O1       OD31H    2.488300       15.5990           0   -1.02800   1.30000
     43276 MEOH     2683     MEOH     DO1      DRUD    -2.488300        0.4000           0   0.00000   0.00000
     43277 MEOH     2683     MEOH     HO1      HDP1A    0.360000        1.0080           0   0.00000   0.00000
     43278 MEOH     2683     MEOH     HO2      DUMH     0.000000        1.0080           0   0.00000   0.00000
     43279 MEOH     2683     MEOH     H1A      HDA3B    0.080000        1.0080           0   0.00000   0.00000
     43280 MEOH     2683     MEOH     H1B      HDA3B    0.080000        1.0080           0   0.00000   0.00000
     43281 MEOH     2683     MEOH     H1C      HDA3B    0.080000        1.0080           0   0.00000   0.00000
     43282 MEOH     2683     MEOH     LP1A     LPD     -0.230000        0.0000           -1   0.00000   0.00000
     43283 MEOH     2683     MEOH     LP1B     LPD     -0.230000        0.0000           -1   0.00000   0.00000
     43284 MEOH     2684     MEOH     C1       CD33B    2.314100       11.6110           0   -1.00000   1.30000
     43285 MEOH     2684     MEOH     DC1      DRUD    -2.454100        0.4000           0   0.00000   0.00000
     43286 MEOH     2684     MEOH     O1       OD31H    2.488300       15.5990           0   -1.02800   1.30000
     43287 MEOH     2684     MEOH     DO1      DRUD    -2.488300        0.4000           0   0.00000   0.00000
     43288 MEOH     2684     MEOH     HO1      HDP1A    0.360000        1.0080           0   0.00000   0.00000
     43289 MEOH     2684     MEOH     HO2      DUMH     0.000000        1.0080           0   0.00000   0.00000
     43290 MEOH     2684     MEOH     H1A      HDA3B    0.080000        1.0080           0   0.00000   0.00000
     43291 MEOH     2684     MEOH     H1B      HDA3B    0.080000        1.0080           0   0.00000   0.00000
     43292 MEOH     2684     MEOH     H1C      HDA3B    0.080000        1.0080           0   0.00000   0.00000
     43293 MEOH     2684     MEOH     LP1A     LPD     -0.230000        0.0000           -1   0.00000   0.00000
     43294 MEOH     2684     MEOH     LP1B     LPD     -0.230000        0.0000           -1   0.00000   0.00000
     43295 MEOH     2685     MEOH     C1       CD33B    2.314100       11.6110           0   -1.00000   1.30000
     43296 MEOH     2685     MEOH     DC1      DRUD    -2.454100        0.4000           0   0.00000   0.00000
     43297 MEOH     2685     MEOH     O1       OD31H    2.488300       15.5990           0   -1.02800   1.30000
     43298 MEOH     2685     MEOH     DO1      DRUD    -2.488300        0.4000           0   0.00000   0.00000
     43299 MEOH     2685     MEOH     HO1      HDP1A    0.360000        1.0080           0   0.00000   0.00000
     43300 MEOH     2685     MEOH     HO2      DUMH     0.000000        1.0080           0   0.00000   0.00000
     43301 MEOH     2685     MEOH     H1A      HDA3B    0.080000        1.0080           0   0.00000   0.00000
     43302 MEOH     2685     MEOH     H1B      HDA3B    0.080000        1.0080           0   0.00000   0.00000
     43303 MEOH     2685     MEOH     H1C      HDA3B    0.080000        1.0080           0   0.00000   0.00000
     43304 MEOH     2685     MEOH     LP1A     LPD     -0.230000        0.0000           -1   0.00000   0.00000
     43305 MEOH     2685     MEOH     LP1B     LPD     -0.230000        0.0000           -1   0.00000   0.00000
     43306 MEOH     2686     MEOH     C1       CD33B    2.314100       11.6110           0   -1.00000   1.30000
     43307 MEOH     2686     MEOH     DC1      DRUD    -2.454100        0.4000           0   0.00000   0.00000
     43308 MEOH     2686     MEOH     O1       OD31H    2.488300       15.5990           0   -1.02800   1.30000
     43309 MEOH     2686     MEOH     DO1      DRUD    -2.488300        0.4000           0   0.00000   0.00000
     43310 MEOH     2686     MEOH     HO1      HDP1A    0.360000        1.0080           0   0.00000   0.00000
     43311 MEOH     2686     MEOH     HO2      DUMH     0.000000        1.0080           0   0.00000   0.00000
     43312 MEOH     2686     MEOH     H1A      HDA3B    0.080000        1.0080           0   0.00000   0.00000
     43313 MEOH     2686     MEOH     H1B      HDA3B    0.080000        1.0080           0   0.00000   0.00000
     43314 MEOH     2686     MEOH     H1C      HDA3B    0.080000        1.0080           0   0.00000   0.00000
     43315 MEOH     2686     MEOH     LP1A     LPD     -0.230000        0.0000           -1   0.00000   0.00000
     43316 MEOH     2686     MEOH     LP1B     LPD     -0.230000        0.0000           -1   0.00000   0.00000
     43317 MEOH     2687     MEOH     C1       CD33B    2.314100       11.6110           0   -1.00000   1.30000
     43318 MEOH     2687     MEOH     DC1      DRUD    -2.454100        0.4000           0   0.00000   0.00000
     43319 MEOH     2687     MEOH     O1       OD31H    2.488300       15.5990           0   -1.02800   1.30000
     43320 MEOH     2687     MEOH     DO1      DRUD    -2.488300        0.4000           0   0.00000   0.00000
     43321 MEOH     2687     MEOH     HO1      HDP1A    0.360000        1.0080           0   0.00000   0.00000
     43322 MEOH     2687     MEOH     HO2      DUMH     0.000000        1.0080           0   0.00000   0.00000
     43323 MEOH     2687     MEOH     H1A      HDA3B    0.080000        1.0080           0   0.00000   0.00000
     43324 MEOH     2687     MEOH     H1B      HDA3B    0.080000        1.0080           0   0.00000   0.00000
     43325 MEOH     2687     MEOH     H1C      HDA3B    0.080000        1.0080           0   0.00000   0.00000
     43326 MEOH     2687     MEOH     LP1A     LPD     -0.230000        0.0000           -1   0.00000   0.00000
     43327 MEOH     2687     MEOH     LP1B     LPD     -0.230000        0.0000           -1   0.00000   0.00000
     43328 MEOH     2688     MEOH     C1       CD33B    2.314100       11.6110           0   -1.00000   1.30000
     43329 MEOH     2688     MEOH     DC1      DRUD    -2.454100        0.4000           0   0.00000   0.00000
     43330 MEOH     2688     MEOH     O1       OD31H    2.488300       15.5990           0   -1.02800   1.30000
     43331 MEOH     2688     MEOH     DO1      DRUD    -2.488300        0.4000           0   0.00000   0.00000
     43332 MEOH     2688     MEOH     HO1      HDP1A    0.360000        1.0080           0   0.00000   0.00000
     43333 MEOH     2688     MEOH     HO2      DUMH     0.000000        1.0080           0   0.00000   0.00000
     43334 MEOH     2688     MEOH     H1A      HDA3B    0.080000        1.0080           0   0.00000   0.00000
     43335 MEOH     2688     MEOH     H1B      HDA3B    0.080000        1.0080           0   0.00000   0.00000
     43336 MEOH     2688     MEOH     H1C      HDA3B    0.080000        1.0080           0   0.00000   0.00000
     43337 MEOH     2688     MEOH     LP1A     LPD     -0.230000        0.0000           -1   0.00000   0.00000
     43338 MEOH     2688     MEOH     LP1B     LPD     -0.230000        0.0000           -1   0.00000   0.00000
     43339 MEOH     2689     MEOH     C1       CD33B    2.314100       11.6110           0   -1.00000   1.30000
     43340 MEOH     2689     MEOH     DC1      DRUD    -2.454100        0.4000           0   0.00000   0.00000
     43341 MEOH     2689     MEOH     O1       OD31H    2.488300       15.5990           0   -1.02800   1.30000
     43342 MEOH     2689     MEOH     DO1      DRUD    -2.488300        0.4000           0   0.00000   0.00000
     43343 MEOH     2689     MEOH     HO1      HDP1A    0.360000        1.0080           0   0.00000   0.00000
     43344 MEOH     2689     MEOH     HO2      DUMH     0.000000        1.0080           0   0.00000   0.00000
     43345 MEOH     2689     MEOH     H1A      HDA3B    0.080000        1.0080           0   0.00000   0.00000
     43346 MEOH     2689     MEOH     H1B      HDA3B    0.080000        1.0080           0   0.00000   0.00000
     43347 MEOH     2689     MEOH     H1C      HDA3B    0.080000        1.0080           0   0.00000   0.00000
     43348 MEOH     2689     MEOH     LP1A     LPD     -0.230000        0.0000           -1   0.00000   0.00000
     43349 MEOH     2689     MEOH     LP1B     LPD     -0.230000        0.0000           -1   0.00000   0.00000
     43350 MEOH     2690     MEOH     C1       CD33B    2.314100       11.6110           0   -1.00000   1.30000
     43351 MEOH     2690     MEOH     DC1      DRUD    -2.454100        0.4000           0   0.00000   0.00000
     43352 MEOH     2690     MEOH     O1       OD31H    2.488300       15.5990           0   -1.02800   1.30000
     43353 MEOH     2690     MEOH     DO1      DRUD    -2.488300        0.4000           0   0.00000   0.00000
     43354 MEOH     2690     MEOH     HO1      HDP1A    0.360000        1.0080           0   0.00000   0.00000
     43355 MEOH     2690     MEOH     HO2      DUMH     0.000000        1.0080           0   0.00000   0.00000
     43356 MEOH     2690     MEOH     H1A      HDA3B    0.080000        1.0080           0   0.00000   0.00000
     43357 MEOH     2690     MEOH     H1B      HDA3B    0.080000        1.0080           0   0.00000   0.00000
     43358 MEOH     2690     MEOH     H1C      HDA3B    0.080000        1.0080           0   0.00000   0.00000
     43359 MEOH     2690     MEOH     LP1A     LPD     -0.230000        0.0000           -1   0.00000   0.00000
     43360 MEOH     2690     MEOH     LP1B     LPD     -0.230000        0.0000           -1   0.00000   0.00000
     43361 MEOH     2691     MEOH     C1       CD33B    2.314100       11.6110           0   -1.00000   1.30000
     43362 MEOH     2691     MEOH     DC1      DRUD    -2.454100        0.4000           0   0.00000   0.00000
     43363 MEOH     2691     MEOH     O1       OD31H    2.488300       15.5990           0   -1.02800   1.30000
     43364 MEOH     2691     MEOH     DO1      DRUD    -2.488300        0.4000           0   0.00000   0.00000
     43365 MEOH     2691     MEOH     HO1      HDP1A    0.360000        1.0080           0   0.00000   0.00000
     43366 MEOH     2691     MEOH     HO2      DUMH     0.000000        1.0080           0   0.00000   0.00000
     43367 MEOH     2691     MEOH     H1A      HDA3B    0.080000        1.0080           0   0.00000   0.00000
     43368 MEOH     2691     MEOH     H1B      HDA3B    0.080000        1.0080           0   0.00000   0.00000
     43369 MEOH     2691     MEOH     H1C      HDA3B    0.080000        1.0080           0   0.00000   0.00000
     43370 MEOH     2691     MEOH     LP1A     LPD     -0.230000        0.0000           -1   0.00000   0.00000
     43371 MEOH     2691     MEOH     LP1B     LPD     -0.230000        0.0000           -1   0.00000   0.00000
     43372 MEOH     2692     MEOH     C1       CD33B    2.314100       11.6110           0   -1.00000   1.30000
     43373 MEOH     2692     MEOH     DC1      DRUD    -2.454100        0.4000           0   0.00000   0.00000
     43374 MEOH     2692     MEOH     O1       OD31H    2.488300       15.5990           0   -1.02800   1.30000
     43375 MEOH     2692     MEOH     DO1      DRUD    -2.488300        0.4000           0   0.00000   0.00000
     43376 MEOH     2692     MEOH     HO1      HDP1A    0.360000        1.0080           0   0.00000   0.00000
     43377 MEOH     2692     MEOH     HO2      DUMH     0.000000        1.0080           0   0.00000   0.00000
     43378 MEOH     2692     MEOH     H1A      HDA3B    0.080000        1.0080           0   0.00000   0.00000
     43379 MEOH     2692     MEOH     H1B      HDA3B    0.080000        1.0080           0   0.00000   0.00000
     43380 MEOH     2692     MEOH     H1C      HDA3B    0.080000        1.0080           0   0.00000   0.00000
     43381 MEOH     2692     MEOH     LP1A     LPD     -0.230000        0.0000           -1   0.00000   0.00000
     43382 MEOH     2692     MEOH     LP1B     LPD     -0.230000        0.0000           -1   0.00000   0.00000
     43383 MEOH     2693     MEOH     C1       CD33B    2.314100       11.6110           0   -1.00000   1.30000
     43384 MEOH     2693     MEOH     DC1      DRUD    -2.454100        0.4000           0   0.00000   0.00000
     43385 MEOH     2693     MEOH     O1       OD31H    2.488300       15.5990           0   -1.02800   1.30000
     43386 MEOH     2693     MEOH     DO1      DRUD    -2.488300        0.4000           0   0.00000   0.00000
     43387 MEOH     2693     MEOH     HO1      HDP1A    0.360000        1.0080           0   0.00000   0.00000
     43388 MEOH     2693     MEOH     HO2      DUMH     0.000000        1.0080           0   0.00000   0.00000
     43389 MEOH     2693     MEOH     H1A      HDA3B    0.080000        1.0080           0   0.00000   0.00000
     43390 MEOH     2693     MEOH     H1B      HDA3B    0.080000        1.0080           0   0.00000   0.00000
     43391 MEOH     2693     MEOH     H1C      HDA3B    0.080000        1.0080           0   0.00000   0.00000
     43392 MEOH     2693     MEOH     LP1A     LPD     -0.230000        0.0000           -1   0.00000   0.00000
     43393 MEOH     2693     MEOH     LP1B     LPD     -0.230000        0.0000           -1   0.00000   0.00000
     43394 MEOH     2694     MEOH     C1       CD33B    2.314100       11.6110           0   -1.00000   1.30000
     43395 MEOH     2694     MEOH     DC1      DRUD    -2.454100        0.4000           0   0.00000   0.00000
     43396 MEOH     2694     MEOH     O1       OD31H    2.488300       15.5990           0   -1.02800   1.30000
     43397 MEOH     2694     MEOH     DO1      DRUD    -2.488300        0.4000           0   0.00000   0.00000
     43398 MEOH     2694     MEOH     HO1      HDP1A    0.360000        1.0080           0   0.00000   0.00000
     43399 MEOH     2694     MEOH     HO2      DUMH     0.000000        1.0080           0   0.00000   0.00000
     43400 MEOH     2694     MEOH     H1A      HDA3B    0.080000        1.0080           0   0.00000   0.00000
     43401 MEOH     2694     MEOH     H1B      HDA3B    0.080000        1.0080           0   0.00000   0.00000
     43402 MEOH     2694     MEOH     H1C      HDA3B    0.080000        1.0080           0   0.00000   0.00000
     43403 MEOH     2694     MEOH     LP1A     LPD     -0.230000        0.0000           -1   0.00000   0.00000
     43404 MEOH     2694     MEOH     LP1B     LPD     -0.230000        0.0000           -1   0.00000   0.00000
     43405 MEOH     2695     MEOH     C1       CD33B    2.314100       11.6110           0   -1.00000   1.30000
     43406 MEOH     2695     MEOH     DC1      DRUD    -2.454100        0.4000           0   0.00000   0.00000
     43407 MEOH     2695     MEOH     O1       OD31H    2.488300       15.5990           0   -1.02800   1.30000
     43408 MEOH     2695     MEOH     DO1      DRUD    -2.488300        0.4000           0   0.00000   0.00000
     43409 MEOH     2695     MEOH     HO1      HDP1A    0.360000        1.0080           0   0.00000   0.00000
     43410 MEOH     2695     MEOH     HO2      DUMH     0.000000        1.0080           0   0.00000   0.00000
     43411 MEOH     2695     MEOH     H1A      HDA3B    0.080000        1.0080           0   0.00000   0.00000
     43412 MEOH     2695     MEOH     H1B      HDA3B    0.080000        1.0080           0   0.00000   0.00000
     43413 MEOH     2695     MEOH     H1C      HDA3B    0.080000        1.0080           0   0.00000   0.00000
     43414 MEOH     2695     MEOH     LP1A     LPD     -0.230000        0.0000           -1   0.00000   0.00000
     43415 MEOH     2695     MEOH     LP1B     LPD     -0.230000        0.0000           -1   0.00000   0.00000
     43416 MEOH     2696     MEOH     C1       CD33B    2.314100       11.6110           0   -1.00000   1.30000
     43417 MEOH     2696     MEOH     DC1      DRUD    -2.454100        0.4000           0   0.00000   0.00000
     43418 MEOH     2696     MEOH     O1       OD31H    2.488300       15.5990           0   -1.02800   1.30000
     43419 MEOH     2696     MEOH     DO1      DRUD    -2.488300        0.4000           0   0.00000   0.00000
     43420 MEOH     2696     MEOH     HO1      HDP1A    0.360000        1.0080           0   0.00000   0.00000
     43421 MEOH     2696     MEOH     HO2      DUMH     0.000000        1.0080           0   0.00000   0.00000
     43422 MEOH     2696     MEOH     H1A      HDA3B    0.080000        1.0080           0   0.00000   0.00000
     43423 MEOH     2696     MEOH     H1B      HDA3B    0.080000        1.0080           0   0.00000   0.00000
     43424 MEOH     2696     MEOH     H1C      HDA3B    0.080000        1.0080           0   0.00000   0.00000
     43425 MEOH     2696     MEOH     LP1A     LPD     -0.230000        0.0000           -1   0.00000   0.00000
     43426 MEOH     2696     MEOH     LP1B     LPD     -0.230000        0.0000           -1   0.00000   0.00000
     43427 MEOH     2697     MEOH     C1       CD33B    2.314100       11.6110           0   -1.00000   1.30000
     43428 MEOH     2697     MEOH     DC1      DRUD    -2.454100        0.4000           0   0.00000   0.00000
     43429 MEOH     2697     MEOH     O1       OD31H    2.488300       15.5990           0   -1.02800   1.30000
     43430 MEOH     2697     MEOH     DO1      DRUD    -2.488300        0.4000           0   0.00000   0.00000
     43431 MEOH     2697     MEOH     HO1      HDP1A    0.360000        1.0080           0   0.00000   0.00000
     43432 MEOH     2697     MEOH     HO2      DUMH     0.000000        1.0080           0   0.00000   0.00000
     43433 MEOH     2697     MEOH     H1A      HDA3B    0.080000        1.0080           0   0.00000   0.00000
     43434 MEOH     2697     MEOH     H1B      HDA3B    0.080000        1.0080           0   0.00000   0.00000
     43435 MEOH     2697     MEOH     H1C      HDA3B    0.080000        1.0080           0   0.00000   0.00000
     43436 MEOH     2697     MEOH     LP1A     LPD     -0.230000        0.0000           -1   0.00000   0.00000
     43437 MEOH     2697     MEOH     LP1B     LPD     -0.230000        0.0000           -1   0.00000   0.00000
     43438 MEOH     2698     MEOH     C1       CD33B    2.314100       11.6110           0   -1.00000   1.30000
     43439 MEOH     2698     MEOH     DC1      DRUD    -2.454100        0.4000           0   0.00000   0.00000
     43440 MEOH     2698     MEOH     O1       OD31H    2.488300       15.5990           0   -1.02800   1.30000
     43441 MEOH     2698     MEOH     DO1      DRUD    -2.488300        0.4000           0   0.00000   0.00000
     43442 MEOH     2698     MEOH     HO1      HDP1A    0.360000        1.0080           0   0.00000   0.00000
     43443 MEOH     2698     MEOH     HO2      DUMH     0.000000        1.0080           0   0.00000   0.00000
     43444 MEOH     2698     MEOH     H1A      HDA3B    0.080000        1.0080           0   0.00000   0.00000
     43445 MEOH     2698     MEOH     H1B      HDA3B    0.080000        1.0080           0   0.00000   0.00000
     43446 MEOH     2698     MEOH     H1C      HDA3B    0.080000        1.0080           0   0.00000   0.00000
     43447 MEOH     2698     MEOH     LP1A     LPD     -0.230000        0.0000           -1   0.00000   0.00000
     43448 MEOH     2698     MEOH     LP1B     LPD     -0.230000        0.0000           -1   0.00000   0.00000
     43449 MEOH     2699     MEOH     C1       CD33B    2.314100       11.6110           0   -1.00000   1.30000
     43450 MEOH     2699     MEOH     DC1      DRUD    -2.454100        0.4000           0   0.00000   0.00000
     43451 MEOH     2699     MEOH     O1       OD31H    2.488300       15.5990           0   -1.02800   1.30000
     43452 MEOH     2699     MEOH     DO1      DRUD    -2.488300        0.4000           0   0.00000   0.00000
     43453 MEOH     2699     MEOH     HO1      HDP1A    0.360000        1.0080           0   0.00000   0.00000
     43454 MEOH     2699     MEOH     HO2      DUMH     0.000000        1.0080           0   0.00000   0.00000
     43455 MEOH     2699     MEOH     H1A      HDA3B    0.080000        1.0080           0   0.00000   0.00000
     43456 MEOH     2699     MEOH     H1B      HDA3B    0.080000        1.0080           0   0.00000   0.00000
     43457 MEOH     2699     MEOH     H1C      HDA3B    0.080000        1.0080           0   0.00000   0.00000
     43458 MEOH     2699     MEOH     LP1A     LPD     -0.230000        0.0000           -1   0.00000   0.00000
     43459 MEOH     2699     MEOH     LP1B     LPD     -0.230000        0.0000           -1   0.00000   0.00000
     43460 MEOH     2700     MEOH     C1       CD33B    2.314100       11.6110           0   -1.00000   1.30000
     43461 MEOH     2700     MEOH     DC1      DRUD    -2.454100        0.4000           0   0.00000   0.00000
     43462 MEOH     2700     MEOH     O1       OD31H    2.488300       15.5990           0   -1.02800   1.30000
     43463 MEOH     2700     MEOH     DO1      DRUD    -2.488300        0.4000           0   0.00000   0.00000
     43464 MEOH     2700     MEOH     HO1      HDP1A    0.360000        1.0080           0   0.00000   0.00000
     43465 MEOH     2700     MEOH     HO2      DUMH     0.000000        1.0080           0   0.00000   0.00000
     43466 MEOH     2700     MEOH     H1A      HDA3B    0.080000        1.0080           0   0.00000   0.00000
     43467 MEOH     2700     MEOH     H1B      HDA3B    0.080000        1.0080           0   0.00000   0.00000
     43468 MEOH     2700     MEOH     H1C      HDA3B    0.080000        1.0080           0   0.00000   0.00000
     43469 MEOH     2700     MEOH     LP1A     LPD     -0.230000        0.0000           -1   0.00000   0.00000
     43470 MEOH     2700     MEOH     LP1B     LPD     -0.230000        0.0000           -1   0.00000   0.00000
     43471 MEOH     2701     MEOH     C1       CD33B    2.314100       11.6110           0   -1.00000   1.30000
     43472 MEOH     2701     MEOH     DC1      DRUD    -2.454100        0.4000           0   0.00000   0.00000
     43473 MEOH     2701     MEOH     O1       OD31H    2.488300       15.5990           0   -1.02800   1.30000
     43474 MEOH     2701     MEOH     DO1      DRUD    -2.488300        0.4000           0   0.00000   0.00000
     43475 MEOH     2701     MEOH     HO1      HDP1A    0.360000        1.0080           0   0.00000   0.00000
     43476 MEOH     2701     MEOH     HO2      DUMH     0.000000        1.0080           0   0.00000   0.00000
     43477 MEOH     2701     MEOH     H1A      HDA3B    0.080000        1.0080           0   0.00000   0.00000
     43478 MEOH     2701     MEOH     H1B      HDA3B    0.080000        1.0080           0   0.00000   0.00000
     43479 MEOH     2701     MEOH     H1C      HDA3B    0.080000        1.0080           0   0.00000   0.00000
     43480 MEOH     2701     MEOH     LP1A     LPD     -0.230000        0.0000           -1   0.00000   0.00000
     43481 MEOH     2701     MEOH     LP1B     LPD     -0.230000        0.0000           -1   0.00000   0.00000
     43482 MEOH     2702     MEOH     C1       CD33B    2.314100       11.6110           0   -1.00000   1.30000
     43483 MEOH     2702     MEOH     DC1      DRUD    -2.454100        0.4000           0   0.00000   0.00000
     43484 MEOH     2702     MEOH     O1       OD31H    2.488300       15.5990           0   -1.02800   1.30000
     43485 MEOH     2702     MEOH     DO1      DRUD    -2.488300        0.4000           0   0.00000   0.00000
     43486 MEOH     2702     MEOH     HO1      HDP1A    0.360000        1.0080           0   0.00000   0.00000
     43487 MEOH     2702     MEOH     HO2      DUMH     0.000000        1.0080           0   0.00000   0.00000
     43488 MEOH     2702     MEOH     H1A      HDA3B    0.080000        1.0080           0   0.00000   0.00000
     43489 MEOH     2702     MEOH     H1B      HDA3B    0.080000        1.0080           0   0.00000   0.00000
     43490 MEOH     2702     MEOH     H1C      HDA3B    0.080000        1.0080           0   0.00000   0.00000
     43491 MEOH     2702     MEOH     LP1A     LPD     -0.230000        0.0000           -1   0.00000   0.00000
     43492 MEOH     2702     MEOH     LP1B     LPD     -0.230000        0.0000           -1   0.00000   0.00000
     43493 MEOH     2703     MEOH     C1       CD33B    2.314100       11.6110           0   -1.00000   1.30000
     43494 MEOH     2703     MEOH     DC1      DRUD    -2.454100        0.4000           0   0.00000   0.00000
     43495 MEOH     2703     MEOH     O1       OD31H    2.488300       15.5990           0   -1.02800   1.30000
     43496 MEOH     2703     MEOH     DO1      DRUD    -2.488300        0.4000           0   0.00000   0.00000
     43497 MEOH     2703     MEOH     HO1      HDP1A    0.360000        1.0080           0   0.00000   0.00000
     43498 MEOH     2703     MEOH     HO2      DUMH     0.000000        1.0080           0   0.00000   0.00000
     43499 MEOH     2703     MEOH     H1A      HDA3B    0.080000        1.0080           0   0.00000   0.00000
     43500 MEOH     2703     MEOH     H1B      HDA3B    0.080000        1.0080           0   0.00000   0.00000
     43501 MEOH     2703     MEOH     H1C      HDA3B    0.080000        1.0080           0   0.00000   0.00000
     43502 MEOH     2703     MEOH     LP1A     LPD     -0.230000        0.0000           -1   0.00000   0.00000
     43503 MEOH     2703     MEOH     LP1B     LPD     -0.230000        0.0000           -1   0.00000   0.00000
     43504 MEOH     2704     MEOH     C1       CD33B    2.314100       11.6110           0   -1.00000   1.30000
     43505 MEOH     2704     MEOH     DC1      DRUD    -2.454100        0.4000           0   0.00000   0.00000
     43506 MEOH     2704     MEOH     O1       OD31H    2.488300       15.5990           0   -1.02800   1.30000
     43507 MEOH     2704     MEOH     DO1      DRUD    -2.488300        0.4000           0   0.00000   0.00000
     43508 MEOH     2704     MEOH     HO1      HDP1A    0.360000        1.0080           0   0.00000   0.00000
     43509 MEOH     2704     MEOH     HO2      DUMH     0.000000        1.0080           0   0.00000   0.00000
     43510 MEOH     2704     MEOH     H1A      HDA3B    0.080000        1.0080           0   0.00000   0.00000
     43511 MEOH     2704     MEOH     H1B      HDA3B    0.080000        1.0080           0   0.00000   0.00000
     43512 MEOH     2704     MEOH     H1C      HDA3B    0.080000        1.0080           0   0.00000   0.00000
     43513 MEOH     2704     MEOH     LP1A     LPD     -0.230000        0.0000           -1   0.00000   0.00000
     43514 MEOH     2704     MEOH     LP1B     LPD     -0.230000        0.0000           -1   0.00000   0.00000
     43515 MEOH     2705     MEOH     C1       CD33B    2.314100       11.6110           0   -1.00000   1.30000
     43516 MEOH     2705     MEOH     DC1      DRUD    -2.454100        0.4000           0   0.00000   0.00000
     43517 MEOH     2705     MEOH     O1       OD31H    2.488300       15.5990           0   -1.02800   1.30000
     43518 MEOH     2705     MEOH     DO1      DRUD    -2.488300        0.4000           0   0.00000   0.00000
     43519 MEOH     2705     MEOH     HO1      HDP1A    0.360000        1.0080           0   0.00000   0.00000
     43520 MEOH     2705     MEOH     HO2      DUMH     0.000000        1.0080           0   0.00000   0.00000
     43521 MEOH     2705     MEOH     H1A      HDA3B    0.080000        1.0080           0   0.00000   0.00000
     43522 MEOH     2705     MEOH     H1B      HDA3B    0.080000        1.0080           0   0.00000   0.00000
     43523 MEOH     2705     MEOH     H1C      HDA3B    0.080000        1.0080           0   0.00000   0.00000
     43524 MEOH     2705     MEOH     LP1A     LPD     -0.230000        0.0000           -1   0.00000   0.00000
     43525 MEOH     2705     MEOH     LP1B     LPD     -0.230000        0.0000           -1   0.00000   0.00000
     43526 MEOH     2706     MEOH     C1       CD33B    2.314100       11.6110           0   -1.00000   1.30000
     43527 MEOH     2706     MEOH     DC1      DRUD    -2.454100        0.4000           0   0.00000   0.00000
     43528 MEOH     2706     MEOH     O1       OD31H    2.488300       15.5990           0   -1.02800   1.30000
     43529 MEOH     2706     MEOH     DO1      DRUD    -2.488300        0.4000           0   0.00000   0.00000
     43530 MEOH     2706     MEOH     HO1      HDP1A    0.360000        1.0080           0   0.00000   0.00000
     43531 MEOH     2706     MEOH     HO2      DUMH     0.000000        1.0080           0   0.00000   0.00000
     43532 MEOH     2706     MEOH     H1A      HDA3B    0.080000        1.0080           0   0.00000   0.00000
     43533 MEOH     2706     MEOH     H1B      HDA3B    0.080000        1.0080           0   0.00000   0.00000
     43534 MEOH     2706     MEOH     H1C      HDA3B    0.080000        1.0080           0   0.00000   0.00000
     43535 MEOH     2706     MEOH     LP1A     LPD     -0.230000        0.0000           -1   0.00000   0.00000
     43536 MEOH     2706     MEOH     LP1B     LPD     -0.230000        0.0000           -1   0.00000   0.00000
     43537 MEOH     2707     MEOH     C1       CD33B    2.314100       11.6110           0   -1.00000   1.30000
     43538 MEOH     2707     MEOH     DC1      DRUD    -2.454100        0.4000           0   0.00000   0.00000
     43539 MEOH     2707     MEOH     O1       OD31H    2.488300       15.5990           0   -1.02800   1.30000
     43540 MEOH     2707     MEOH     DO1      DRUD    -2.488300        0.4000           0   0.00000   0.00000
     43541 MEOH     2707     MEOH     HO1      HDP1A    0.360000        1.0080           0   0.00000   0.00000
     43542 MEOH     2707     MEOH     HO2      DUMH     0.000000        1.0080           0   0.00000   0.00000
     43543 MEOH     2707     MEOH     H1A      HDA3B    0.080000        1.0080           0   0.00000   0.00000
     43544 MEOH     2707     MEOH     H1B      HDA3B    0.080000        1.0080           0   0.00000   0.00000
     43545 MEOH     2707     MEOH     H1C      HDA3B    0.080000        1.0080           0   0.00000   0.00000
     43546 MEOH     2707     MEOH     LP1A     LPD     -0.230000        0.0000           -1   0.00000   0.00000
     43547 MEOH     2707     MEOH     LP1B     LPD     -0.230000        0.0000           -1   0.00000   0.00000
     43548 MEOH     2708     MEOH     C1       CD33B    2.314100       11.6110           0   -1.00000   1.30000
     43549 MEOH     2708     MEOH     DC1      DRUD    -2.454100        0.4000           0   0.00000   0.00000
     43550 MEOH     2708     MEOH     O1       OD31H    2.488300       15.5990           0   -1.02800   1.30000
     43551 MEOH     2708     MEOH     DO1      DRUD    -2.488300        0.4000           0   0.00000   0.00000
     43552 MEOH     2708     MEOH     HO1      HDP1A    0.360000        1.0080           0   0.00000   0.00000
     43553 MEOH     2708     MEOH     HO2      DUMH     0.000000        1.0080           0   0.00000   0.00000
     43554 MEOH     2708     MEOH     H1A      HDA3B    0.080000        1.0080           0   0.00000   0.00000
     43555 MEOH     2708     MEOH     H1B      HDA3B    0.080000        1.0080           0   0.00000   0.00000
     43556 MEOH     2708     MEOH     H1C      HDA3B    0.080000        1.0080           0   0.00000   0.00000
     43557 MEOH     2708     MEOH     LP1A     LPD     -0.230000        0.0000           -1   0.00000   0.00000
     43558 MEOH     2708     MEOH     LP1B     LPD     -0.230000        0.0000           -1   0.00000   0.00000
     43559 MEOH     2709     MEOH     C1       CD33B    2.314100       11.6110           0   -1.00000   1.30000
     43560 MEOH     2709     MEOH     DC1      DRUD    -2.454100        0.4000           0   0.00000   0.00000
     43561 MEOH     2709     MEOH     O1       OD31H    2.488300       15.5990           0   -1.02800   1.30000
     43562 MEOH     2709     MEOH     DO1      DRUD    -2.488300        0.4000           0   0.00000   0.00000
     43563 MEOH     2709     MEOH     HO1      HDP1A    0.360000        1.0080           0   0.00000   0.00000
     43564 MEOH     2709     MEOH     HO2      DUMH     0.000000        1.0080           0   0.00000   0.00000
     43565 MEOH     2709     MEOH     H1A      HDA3B    0.080000        1.0080           0   0.00000   0.00000
     43566 MEOH     2709     MEOH     H1B      HDA3B    0.080000        1.0080           0   0.00000   0.00000
     43567 MEOH     2709     MEOH     H1C      HDA3B    0.080000        1.0080           0   0.00000   0.00000
     43568 MEOH     2709     MEOH     LP1A     LPD     -0.230000        0.0000           -1   0.00000   0.00000
     43569 MEOH     2709     MEOH     LP1B     LPD     -0.230000        0.0000           -1   0.00000   0.00000
     43570 MEOH     2710     MEOH     C1       CD33B    2.314100       11.6110           0   -1.00000   1.30000
     43571 MEOH     2710     MEOH     DC1      DRUD    -2.454100        0.4000           0   0.00000   0.00000
     43572 MEOH     2710     MEOH     O1       OD31H    2.488300       15.5990           0   -1.02800   1.30000
     43573 MEOH     2710     MEOH     DO1      DRUD    -2.488300        0.4000           0   0.00000   0.00000
     43574 MEOH     2710     MEOH     HO1      HDP1A    0.360000        1.0080           0   0.00000   0.00000
     43575 MEOH     2710     MEOH     HO2      DUMH     0.000000        1.0080           0   0.00000   0.00000
     43576 MEOH     2710     MEOH     H1A      HDA3B    0.080000        1.0080           0   0.00000   0.00000
     43577 MEOH     2710     MEOH     H1B      HDA3B    0.080000        1.0080           0   0.00000   0.00000
     43578 MEOH     2710     MEOH     H1C      HDA3B    0.080000        1.0080           0   0.00000   0.00000
     43579 MEOH     2710     MEOH     LP1A     LPD     -0.230000        0.0000           -1   0.00000   0.00000
     43580 MEOH     2710     MEOH     LP1B     LPD     -0.230000        0.0000           -1   0.00000   0.00000
     43581 MEOH     2711     MEOH     C1       CD33B    2.314100       11.6110           0   -1.00000   1.30000
     43582 MEOH     2711     MEOH     DC1      DRUD    -2.454100        0.4000           0   0.00000   0.00000
     43583 MEOH     2711     MEOH     O1       OD31H    2.488300       15.5990           0   -1.02800   1.30000
     43584 MEOH     2711     MEOH     DO1      DRUD    -2.488300        0.4000           0   0.00000   0.00000
     43585 MEOH     2711     MEOH     HO1      HDP1A    0.360000        1.0080           0   0.00000   0.00000
     43586 MEOH     2711     MEOH     HO2      DUMH     0.000000        1.0080           0   0.00000   0.00000
     43587 MEOH     2711     MEOH     H1A      HDA3B    0.080000        1.0080           0   0.00000   0.00000
     43588 MEOH     2711     MEOH     H1B      HDA3B    0.080000        1.0080           0   0.00000   0.00000
     43589 MEOH     2711     MEOH     H1C      HDA3B    0.080000        1.0080           0   0.00000   0.00000
     43590 MEOH     2711     MEOH     LP1A     LPD     -0.230000        0.0000           -1   0.00000   0.00000
     43591 MEOH     2711     MEOH     LP1B     LPD     -0.230000        0.0000           -1   0.00000   0.00000
     43592 MEOH     2712     MEOH     C1       CD33B    2.314100       11.6110           0   -1.00000   1.30000
     43593 MEOH     2712     MEOH     DC1      DRUD    -2.454100        0.4000           0   0.00000   0.00000
     43594 MEOH     2712     MEOH     O1       OD31H    2.488300       15.5990           0   -1.02800   1.30000
     43595 MEOH     2712     MEOH     DO1      DRUD    -2.488300        0.4000           0   0.00000   0.00000
     43596 MEOH     2712     MEOH     HO1      HDP1A    0.360000        1.0080           0   0.00000   0.00000
     43597 MEOH     2712     MEOH     HO2      DUMH     0.000000        1.0080           0   0.00000   0.00000
     43598 MEOH     2712     MEOH     H1A      HDA3B    0.080000        1.0080           0   0.00000   0.00000
     43599 MEOH     2712     MEOH     H1B      HDA3B    0.080000        1.0080           0   0.00000   0.00000
     43600 MEOH     2712     MEOH     H1C      HDA3B    0.080000        1.0080           0   0.00000   0.00000
     43601 MEOH     2712     MEOH     LP1A     LPD     -0.230000        0.0000           -1   0.00000   0.00000
     43602 MEOH     2712     MEOH     LP1B     LPD     -0.230000        0.0000           -1   0.00000   0.00000
     43603 MEOH     2713     MEOH     C1       CD33B    2.314100       11.6110           0   -1.00000   1.30000
     43604 MEOH     2713     MEOH     DC1      DRUD    -2.454100        0.4000           0   0.00000   0.00000
     43605 MEOH     2713     MEOH     O1       OD31H    2.488300       15.5990           0   -1.02800   1.30000
     43606 MEOH     2713     MEOH     DO1      DRUD    -2.488300        0.4000           0   0.00000   0.00000
     43607 MEOH     2713     MEOH     HO1      HDP1A    0.360000        1.0080           0   0.00000   0.00000
     43608 MEOH     2713     MEOH     HO2      DUMH     0.000000        1.0080           0   0.00000   0.00000
     43609 MEOH     2713     MEOH     H1A      HDA3B    0.080000        1.0080           0   0.00000   0.00000
     43610 MEOH     2713     MEOH     H1B      HDA3B    0.080000        1.0080           0   0.00000   0.00000
     43611 MEOH     2713     MEOH     H1C      HDA3B    0.080000        1.0080           0   0.00000   0.00000
     43612 MEOH     2713     MEOH     LP1A     LPD     -0.230000        0.0000           -1   0.00000   0.00000
     43613 MEOH     2713     MEOH     LP1B     LPD     -0.230000        0.0000           -1   0.00000   0.00000
     43614 MEOH     2714     MEOH     C1       CD33B    2.314100       11.6110           0   -1.00000   1.30000
     43615 MEOH     2714     MEOH     DC1      DRUD    -2.454100        0.4000           0   0.00000   0.00000
     43616 MEOH     2714     MEOH     O1       OD31H    2.488300       15.5990           0   -1.02800   1.30000
     43617 MEOH     2714     MEOH     DO1      DRUD    -2.488300        0.4000           0   0.00000   0.00000
     43618 MEOH     2714     MEOH     HO1      HDP1A    0.360000        1.0080           0   0.00000   0.00000
     43619 MEOH     2714     MEOH     HO2      DUMH     0.000000        1.0080           0   0.00000   0.00000
     43620 MEOH     2714     MEOH     H1A      HDA3B    0.080000        1.0080           0   0.00000   0.00000
     43621 MEOH     2714     MEOH     H1B      HDA3B    0.080000        1.0080           0   0.00000   0.00000
     43622 MEOH     2714     MEOH     H1C      HDA3B    0.080000        1.0080           0   0.00000   0.00000
     43623 MEOH     2714     MEOH     LP1A     LPD     -0.230000        0.0000           -1   0.00000   0.00000
     43624 MEOH     2714     MEOH     LP1B     LPD     -0.230000        0.0000           -1   0.00000   0.00000
     43625 MEOH     2715     MEOH     C1       CD33B    2.314100       11.6110           0   -1.00000   1.30000
     43626 MEOH     2715     MEOH     DC1      DRUD    -2.454100        0.4000           0   0.00000   0.00000
     43627 MEOH     2715     MEOH     O1       OD31H    2.488300       15.5990           0   -1.02800   1.30000
     43628 MEOH     2715     MEOH     DO1      DRUD    -2.488300        0.4000           0   0.00000   0.00000
     43629 MEOH     2715     MEOH     HO1      HDP1A    0.360000        1.0080           0   0.00000   0.00000
     43630 MEOH     2715     MEOH     HO2      DUMH     0.000000        1.0080           0   0.00000   0.00000
     43631 MEOH     2715     MEOH     H1A      HDA3B    0.080000        1.0080           0   0.00000   0.00000
     43632 MEOH     2715     MEOH     H1B      HDA3B    0.080000        1.0080           0   0.00000   0.00000
     43633 MEOH     2715     MEOH     H1C      HDA3B    0.080000        1.0080           0   0.00000   0.00000
     43634 MEOH     2715     MEOH     LP1A     LPD     -0.230000        0.0000           -1   0.00000   0.00000
     43635 MEOH     2715     MEOH     LP1B     LPD     -0.230000        0.0000           -1   0.00000   0.00000
     43636 MEOH     2716     MEOH     C1       CD33B    2.314100       11.6110           0   -1.00000   1.30000
     43637 MEOH     2716     MEOH     DC1      DRUD    -2.454100        0.4000           0   0.00000   0.00000
     43638 MEOH     2716     MEOH     O1       OD31H    2.488300       15.5990           0   -1.02800   1.30000
     43639 MEOH     2716     MEOH     DO1      DRUD    -2.488300        0.4000           0   0.00000   0.00000
     43640 MEOH     2716     MEOH     HO1      HDP1A    0.360000        1.0080           0   0.00000   0.00000
     43641 MEOH     2716     MEOH     HO2      DUMH     0.000000        1.0080           0   0.00000   0.00000
     43642 MEOH     2716     MEOH     H1A      HDA3B    0.080000        1.0080           0   0.00000   0.00000
     43643 MEOH     2716     MEOH     H1B      HDA3B    0.080000        1.0080           0   0.00000   0.00000
     43644 MEOH     2716     MEOH     H1C      HDA3B    0.080000        1.0080           0   0.00000   0.00000
     43645 MEOH     2716     MEOH     LP1A     LPD     -0.230000        0.0000           -1   0.00000   0.00000
     43646 MEOH     2716     MEOH     LP1B     LPD     -0.230000        0.0000           -1   0.00000   0.00000
     43647 MEOH     2717     MEOH     C1       CD33B    2.314100       11.6110           0   -1.00000   1.30000
     43648 MEOH     2717     MEOH     DC1      DRUD    -2.454100        0.4000           0   0.00000   0.00000
     43649 MEOH     2717     MEOH     O1       OD31H    2.488300       15.5990           0   -1.02800   1.30000
     43650 MEOH     2717     MEOH     DO1      DRUD    -2.488300        0.4000           0   0.00000   0.00000
     43651 MEOH     2717     MEOH     HO1      HDP1A    0.360000        1.0080           0   0.00000   0.00000
     43652 MEOH     2717     MEOH     HO2      DUMH     0.000000        1.0080           0   0.00000   0.00000
     43653 MEOH     2717     MEOH     H1A      HDA3B    0.080000        1.0080           0   0.00000   0.00000
     43654 MEOH     2717     MEOH     H1B      HDA3B    0.080000        1.0080           0   0.00000   0.00000
     43655 MEOH     2717     MEOH     H1C      HDA3B    0.080000        1.0080           0   0.00000   0.00000
     43656 MEOH     2717     MEOH     LP1A     LPD     -0.230000        0.0000           -1   0.00000   0.00000
     43657 MEOH     2717     MEOH     LP1B     LPD     -0.230000        0.0000           -1   0.00000   0.00000
     43658 MEOH     2718     MEOH     C1       CD33B    2.314100       11.6110           0   -1.00000   1.30000
     43659 MEOH     2718     MEOH     DC1      DRUD    -2.454100        0.4000           0   0.00000   0.00000
     43660 MEOH     2718     MEOH     O1       OD31H    2.488300       15.5990           0   -1.02800   1.30000
     43661 MEOH     2718     MEOH     DO1      DRUD    -2.488300        0.4000           0   0.00000   0.00000
     43662 MEOH     2718     MEOH     HO1      HDP1A    0.360000        1.0080           0   0.00000   0.00000
     43663 MEOH     2718     MEOH     HO2      DUMH     0.000000        1.0080           0   0.00000   0.00000
     43664 MEOH     2718     MEOH     H1A      HDA3B    0.080000        1.0080           0   0.00000   0.00000
     43665 MEOH     2718     MEOH     H1B      HDA3B    0.080000        1.0080           0   0.00000   0.00000
     43666 MEOH     2718     MEOH     H1C      HDA3B    0.080000        1.0080           0   0.00000   0.00000
     43667 MEOH     2718     MEOH     LP1A     LPD     -0.230000        0.0000           -1   0.00000   0.00000
     43668 MEOH     2718     MEOH     LP1B     LPD     -0.230000        0.0000           -1   0.00000   0.00000
     43669 MEOH     2719     MEOH     C1       CD33B    2.314100       11.6110           0   -1.00000   1.30000
     43670 MEOH     2719     MEOH     DC1      DRUD    -2.454100        0.4000           0   0.00000   0.00000
     43671 MEOH     2719     MEOH     O1       OD31H    2.488300       15.5990           0   -1.02800   1.30000
     43672 MEOH     2719     MEOH     DO1      DRUD    -2.488300        0.4000           0   0.00000   0.00000
     43673 MEOH     2719     MEOH     HO1      HDP1A    0.360000        1.0080           0   0.00000   0.00000
     43674 MEOH     2719     MEOH     HO2      DUMH     0.000000        1.0080           0   0.00000   0.00000
     43675 MEOH     2719     MEOH     H1A      HDA3B    0.080000        1.0080           0   0.00000   0.00000
     43676 MEOH     2719     MEOH     H1B      HDA3B    0.080000        1.0080           0   0.00000   0.00000
     43677 MEOH     2719     MEOH     H1C      HDA3B    0.080000        1.0080           0   0.00000   0.00000
     43678 MEOH     2719     MEOH     LP1A     LPD     -0.230000        0.0000           -1   0.00000   0.00000
     43679 MEOH     2719     MEOH     LP1B     LPD     -0.230000        0.0000           -1   0.00000   0.00000
     43680 MEOH     2720     MEOH     C1       CD33B    2.314100       11.6110           0   -1.00000   1.30000
     43681 MEOH     2720     MEOH     DC1      DRUD    -2.454100        0.4000           0   0.00000   0.00000
     43682 MEOH     2720     MEOH     O1       OD31H    2.488300       15.5990           0   -1.02800   1.30000
     43683 MEOH     2720     MEOH     DO1      DRUD    -2.488300        0.4000           0   0.00000   0.00000
     43684 MEOH     2720     MEOH     HO1      HDP1A    0.360000        1.0080           0   0.00000   0.00000
     43685 MEOH     2720     MEOH     HO2      DUMH     0.000000        1.0080           0   0.00000   0.00000
     43686 MEOH     2720     MEOH     H1A      HDA3B    0.080000        1.0080           0   0.00000   0.00000
     43687 MEOH     2720     MEOH     H1B      HDA3B    0.080000        1.0080           0   0.00000   0.00000
     43688 MEOH     2720     MEOH     H1C      HDA3B    0.080000        1.0080           0   0.00000   0.00000
     43689 MEOH     2720     MEOH     LP1A     LPD     -0.230000        0.0000           -1   0.00000   0.00000
     43690 MEOH     2720     MEOH     LP1B     LPD     -0.230000        0.0000           -1   0.00000   0.00000
     43691 MEOH     2721     MEOH     C1       CD33B    2.314100       11.6110           0   -1.00000   1.30000
     43692 MEOH     2721     MEOH     DC1      DRUD    -2.454100        0.4000           0   0.00000   0.00000
     43693 MEOH     2721     MEOH     O1       OD31H    2.488300       15.5990           0   -1.02800   1.30000
     43694 MEOH     2721     MEOH     DO1      DRUD    -2.488300        0.4000           0   0.00000   0.00000
     43695 MEOH     2721     MEOH     HO1      HDP1A    0.360000        1.0080           0   0.00000   0.00000
     43696 MEOH     2721     MEOH     HO2      DUMH     0.000000        1.0080           0   0.00000   0.00000
     43697 MEOH     2721     MEOH     H1A      HDA3B    0.080000        1.0080           0   0.00000   0.00000
     43698 MEOH     2721     MEOH     H1B      HDA3B    0.080000        1.0080           0   0.00000   0.00000
     43699 MEOH     2721     MEOH     H1C      HDA3B    0.080000        1.0080           0   0.00000   0.00000
     43700 MEOH     2721     MEOH     LP1A     LPD     -0.230000        0.0000           -1   0.00000   0.00000
     43701 MEOH     2721     MEOH     LP1B     LPD     -0.230000        0.0000           -1   0.00000   0.00000
     43702 MEOH     2722     MEOH     C1       CD33B    2.314100       11.6110           0   -1.00000   1.30000
     43703 MEOH     2722     MEOH     DC1      DRUD    -2.454100        0.4000           0   0.00000   0.00000
     43704 MEOH     2722     MEOH     O1       OD31H    2.488300       15.5990           0   -1.02800   1.30000
     43705 MEOH     2722     MEOH     DO1      DRUD    -2.488300        0.4000           0   0.00000   0.00000
     43706 MEOH     2722     MEOH     HO1      HDP1A    0.360000        1.0080           0   0.00000   0.00000
     43707 MEOH     2722     MEOH     HO2      DUMH     0.000000        1.0080           0   0.00000   0.00000
     43708 MEOH     2722     MEOH     H1A      HDA3B    0.080000        1.0080           0   0.00000   0.00000
     43709 MEOH     2722     MEOH     H1B      HDA3B    0.080000        1.0080           0   0.00000   0.00000
     43710 MEOH     2722     MEOH     H1C      HDA3B    0.080000        1.0080           0   0.00000   0.00000
     43711 MEOH     2722     MEOH     LP1A     LPD     -0.230000        0.0000           -1   0.00000   0.00000
     43712 MEOH     2722     MEOH     LP1B     LPD     -0.230000        0.0000           -1   0.00000   0.00000
     43713 MEOH     2723     MEOH     C1       CD33B    2.314100       11.6110           0   -1.00000   1.30000
     43714 MEOH     2723     MEOH     DC1      DRUD    -2.454100        0.4000           0   0.00000   0.00000
     43715 MEOH     2723     MEOH     O1       OD31H    2.488300       15.5990           0   -1.02800   1.30000
     43716 MEOH     2723     MEOH     DO1      DRUD    -2.488300        0.4000           0   0.00000   0.00000
     43717 MEOH     2723     MEOH     HO1      HDP1A    0.360000        1.0080           0   0.00000   0.00000
     43718 MEOH     2723     MEOH     HO2      DUMH     0.000000        1.0080           0   0.00000   0.00000
     43719 MEOH     2723     MEOH     H1A      HDA3B    0.080000        1.0080           0   0.00000   0.00000
     43720 MEOH     2723     MEOH     H1B      HDA3B    0.080000        1.0080           0   0.00000   0.00000
     43721 MEOH     2723     MEOH     H1C      HDA3B    0.080000        1.0080           0   0.00000   0.00000
     43722 MEOH     2723     MEOH     LP1A     LPD     -0.230000        0.0000           -1   0.00000   0.00000
     43723 MEOH     2723     MEOH     LP1B     LPD     -0.230000        0.0000           -1   0.00000   0.00000
     43724 MEOH     2724     MEOH     C1       CD33B    2.314100       11.6110           0   -1.00000   1.30000
     43725 MEOH     2724     MEOH     DC1      DRUD    -2.454100        0.4000           0   0.00000   0.00000
     43726 MEOH     2724     MEOH     O1       OD31H    2.488300       15.5990           0   -1.02800   1.30000
     43727 MEOH     2724     MEOH     DO1      DRUD    -2.488300        0.4000           0   0.00000   0.00000
     43728 MEOH     2724     MEOH     HO1      HDP1A    0.360000        1.0080           0   0.00000   0.00000
     43729 MEOH     2724     MEOH     HO2      DUMH     0.000000        1.0080           0   0.00000   0.00000
     43730 MEOH     2724     MEOH     H1A      HDA3B    0.080000        1.0080           0   0.00000   0.00000
     43731 MEOH     2724     MEOH     H1B      HDA3B    0.080000        1.0080           0   0.00000   0.00000
     43732 MEOH     2724     MEOH     H1C      HDA3B    0.080000        1.0080           0   0.00000   0.00000
     43733 MEOH     2724     MEOH     LP1A     LPD     -0.230000        0.0000           -1   0.00000   0.00000
     43734 MEOH     2724     MEOH     LP1B     LPD     -0.230000        0.0000           -1   0.00000   0.00000
     43735 MEOH     2725     MEOH     C1       CD33B    2.314100       11.6110           0   -1.00000   1.30000
     43736 MEOH     2725     MEOH     DC1      DRUD    -2.454100        0.4000           0   0.00000   0.00000
     43737 MEOH     2725     MEOH     O1       OD31H    2.488300       15.5990           0   -1.02800   1.30000
     43738 MEOH     2725     MEOH     DO1      DRUD    -2.488300        0.4000           0   0.00000   0.00000
     43739 MEOH     2725     MEOH     HO1      HDP1A    0.360000        1.0080           0   0.00000   0.00000
     43740 MEOH     2725     MEOH     HO2      DUMH     0.000000        1.0080           0   0.00000   0.00000
     43741 MEOH     2725     MEOH     H1A      HDA3B    0.080000        1.0080           0   0.00000   0.00000
     43742 MEOH     2725     MEOH     H1B      HDA3B    0.080000        1.0080           0   0.00000   0.00000
     43743 MEOH     2725     MEOH     H1C      HDA3B    0.080000        1.0080           0   0.00000   0.00000
     43744 MEOH     2725     MEOH     LP1A     LPD     -0.230000        0.0000           -1   0.00000   0.00000
     43745 MEOH     2725     MEOH     LP1B     LPD     -0.230000        0.0000           -1   0.00000   0.00000
     43746 MEOH     2726     MEOH     C1       CD33B    2.314100       11.6110           0   -1.00000   1.30000
     43747 MEOH     2726     MEOH     DC1      DRUD    -2.454100        0.4000           0   0.00000   0.00000
     43748 MEOH     2726     MEOH     O1       OD31H    2.488300       15.5990           0   -1.02800   1.30000
     43749 MEOH     2726     MEOH     DO1      DRUD    -2.488300        0.4000           0   0.00000   0.00000
     43750 MEOH     2726     MEOH     HO1      HDP1A    0.360000        1.0080           0   0.00000   0.00000
     43751 MEOH     2726     MEOH     HO2      DUMH     0.000000        1.0080           0   0.00000   0.00000
     43752 MEOH     2726     MEOH     H1A      HDA3B    0.080000        1.0080           0   0.00000   0.00000
     43753 MEOH     2726     MEOH     H1B      HDA3B    0.080000        1.0080           0   0.00000   0.00000
     43754 MEOH     2726     MEOH     H1C      HDA3B    0.080000        1.0080           0   0.00000   0.00000
     43755 MEOH     2726     MEOH     LP1A     LPD     -0.230000        0.0000           -1   0.00000   0.00000
     43756 MEOH     2726     MEOH     LP1B     LPD     -0.230000        0.0000           -1   0.00000   0.00000
     43757 MEOH     2727     MEOH     C1       CD33B    2.314100       11.6110           0   -1.00000   1.30000
     43758 MEOH     2727     MEOH     DC1      DRUD    -2.454100        0.4000           0   0.00000   0.00000
     43759 MEOH     2727     MEOH     O1       OD31H    2.488300       15.5990           0   -1.02800   1.30000
     43760 MEOH     2727     MEOH     DO1      DRUD    -2.488300        0.4000           0   0.00000   0.00000
     43761 MEOH     2727     MEOH     HO1      HDP1A    0.360000        1.0080           0   0.00000   0.00000
     43762 MEOH     2727     MEOH     HO2      DUMH     0.000000        1.0080           0   0.00000   0.00000
     43763 MEOH     2727     MEOH     H1A      HDA3B    0.080000        1.0080           0   0.00000   0.00000
     43764 MEOH     2727     MEOH     H1B      HDA3B    0.080000        1.0080           0   0.00000   0.00000
     43765 MEOH     2727     MEOH     H1C      HDA3B    0.080000        1.0080           0   0.00000   0.00000
     43766 MEOH     2727     MEOH     LP1A     LPD     -0.230000        0.0000           -1   0.00000   0.00000
     43767 MEOH     2727     MEOH     LP1B     LPD     -0.230000        0.0000           -1   0.00000   0.00000
     43768 MEOH     2728     MEOH     C1       CD33B    2.314100       11.6110           0   -1.00000   1.30000
     43769 MEOH     2728     MEOH     DC1      DRUD    -2.454100        0.4000           0   0.00000   0.00000
     43770 MEOH     2728     MEOH     O1       OD31H    2.488300       15.5990           0   -1.02800   1.30000
     43771 MEOH     2728     MEOH     DO1      DRUD    -2.488300        0.4000           0   0.00000   0.00000
     43772 MEOH     2728     MEOH     HO1      HDP1A    0.360000        1.0080           0   0.00000   0.00000
     43773 MEOH     2728     MEOH     HO2      DUMH     0.000000        1.0080           0   0.00000   0.00000
     43774 MEOH     2728     MEOH     H1A      HDA3B    0.080000        1.0080           0   0.00000   0.00000
     43775 MEOH     2728     MEOH     H1B      HDA3B    0.080000        1.0080           0   0.00000   0.00000
     43776 MEOH     2728     MEOH     H1C      HDA3B    0.080000        1.0080           0   0.00000   0.00000
     43777 MEOH     2728     MEOH     LP1A     LPD     -0.230000        0.0000           -1   0.00000   0.00000
     43778 MEOH     2728     MEOH     LP1B     LPD     -0.230000        0.0000           -1   0.00000   0.00000
     43779 MEOH     2729     MEOH     C1       CD33B    2.314100       11.6110           0   -1.00000   1.30000
     43780 MEOH     2729     MEOH     DC1      DRUD    -2.454100        0.4000           0   0.00000   0.00000
     43781 MEOH     2729     MEOH     O1       OD31H    2.488300       15.5990           0   -1.02800   1.30000
     43782 MEOH     2729     MEOH     DO1      DRUD    -2.488300        0.4000           0   0.00000   0.00000
     43783 MEOH     2729     MEOH     HO1      HDP1A    0.360000        1.0080           0   0.00000   0.00000
     43784 MEOH     2729     MEOH     HO2      DUMH     0.000000        1.0080           0   0.00000   0.00000
     43785 MEOH     2729     MEOH     H1A      HDA3B    0.080000        1.0080           0   0.00000   0.00000
     43786 MEOH     2729     MEOH     H1B      HDA3B    0.080000        1.0080           0   0.00000   0.00000
     43787 MEOH     2729     MEOH     H1C      HDA3B    0.080000        1.0080           0   0.00000   0.00000
     43788 MEOH     2729     MEOH     LP1A     LPD     -0.230000        0.0000           -1   0.00000   0.00000
     43789 MEOH     2729     MEOH     LP1B     LPD     -0.230000        0.0000           -1   0.00000   0.00000
     43790 MEOH     2730     MEOH     C1       CD33B    2.314100       11.6110           0   -1.00000   1.30000
     43791 MEOH     2730     MEOH     DC1      DRUD    -2.454100        0.4000           0   0.00000   0.00000
     43792 MEOH     2730     MEOH     O1       OD31H    2.488300       15.5990           0   -1.02800   1.30000
     43793 MEOH     2730     MEOH     DO1      DRUD    -2.488300        0.4000           0   0.00000   0.00000
     43794 MEOH     2730     MEOH     HO1      HDP1A    0.360000        1.0080           0   0.00000   0.00000
     43795 MEOH     2730     MEOH     HO2      DUMH     0.000000        1.0080           0   0.00000   0.00000
     43796 MEOH     2730     MEOH     H1A      HDA3B    0.080000        1.0080           0   0.00000   0.00000
     43797 MEOH     2730     MEOH     H1B      HDA3B    0.080000        1.0080           0   0.00000   0.00000
     43798 MEOH     2730     MEOH     H1C      HDA3B    0.080000        1.0080           0   0.00000   0.00000
     43799 MEOH     2730     MEOH     LP1A     LPD     -0.230000        0.0000           -1   0.00000   0.00000
     43800 MEOH     2730     MEOH     LP1B     LPD     -0.230000        0.0000           -1   0.00000   0.00000
     43801 MEOH     2731     MEOH     C1       CD33B    2.314100       11.6110           0   -1.00000   1.30000
     43802 MEOH     2731     MEOH     DC1      DRUD    -2.454100        0.4000           0   0.00000   0.00000
     43803 MEOH     2731     MEOH     O1       OD31H    2.488300       15.5990           0   -1.02800   1.30000
     43804 MEOH     2731     MEOH     DO1      DRUD    -2.488300        0.4000           0   0.00000   0.00000
     43805 MEOH     2731     MEOH     HO1      HDP1A    0.360000        1.0080           0   0.00000   0.00000
     43806 MEOH     2731     MEOH     HO2      DUMH     0.000000        1.0080           0   0.00000   0.00000
     43807 MEOH     2731     MEOH     H1A      HDA3B    0.080000        1.0080           0   0.00000   0.00000
     43808 MEOH     2731     MEOH     H1B      HDA3B    0.080000        1.0080           0   0.00000   0.00000
     43809 MEOH     2731     MEOH     H1C      HDA3B    0.080000        1.0080           0   0.00000   0.00000
     43810 MEOH     2731     MEOH     LP1A     LPD     -0.230000        0.0000           -1   0.00000   0.00000
     43811 MEOH     2731     MEOH     LP1B     LPD     -0.230000        0.0000           -1   0.00000   0.00000
     43812 MEOH     2732     MEOH     C1       CD33B    2.314100       11.6110           0   -1.00000   1.30000
     43813 MEOH     2732     MEOH     DC1      DRUD    -2.454100        0.4000           0   0.00000   0.00000
     43814 MEOH     2732     MEOH     O1       OD31H    2.488300       15.5990           0   -1.02800   1.30000
     43815 MEOH     2732     MEOH     DO1      DRUD    -2.488300        0.4000           0   0.00000   0.00000
     43816 MEOH     2732     MEOH     HO1      HDP1A    0.360000        1.0080           0   0.00000   0.00000
     43817 MEOH     2732     MEOH     HO2      DUMH     0.000000        1.0080           0   0.00000   0.00000
     43818 MEOH     2732     MEOH     H1A      HDA3B    0.080000        1.0080           0   0.00000   0.00000
     43819 MEOH     2732     MEOH     H1B      HDA3B    0.080000        1.0080           0   0.00000   0.00000
     43820 MEOH     2732     MEOH     H1C      HDA3B    0.080000        1.0080           0   0.00000   0.00000
     43821 MEOH     2732     MEOH     LP1A     LPD     -0.230000        0.0000           -1   0.00000   0.00000
     43822 MEOH     2732     MEOH     LP1B     LPD     -0.230000        0.0000           -1   0.00000   0.00000
     43823 MEOH     2733     MEOH     C1       CD33B    2.314100       11.6110           0   -1.00000   1.30000
     43824 MEOH     2733     MEOH     DC1      DRUD    -2.454100        0.4000           0   0.00000   0.00000
     43825 MEOH     2733     MEOH     O1       OD31H    2.488300       15.5990           0   -1.02800   1.30000
     43826 MEOH     2733     MEOH     DO1      DRUD    -2.488300        0.4000           0   0.00000   0.00000
     43827 MEOH     2733     MEOH     HO1      HDP1A    0.360000        1.0080           0   0.00000   0.00000
     43828 MEOH     2733     MEOH     HO2      DUMH     0.000000        1.0080           0   0.00000   0.00000
     43829 MEOH     2733     MEOH     H1A      HDA3B    0.080000        1.0080           0   0.00000   0.00000
     43830 MEOH     2733     MEOH     H1B      HDA3B    0.080000        1.0080           0   0.00000   0.00000
     43831 MEOH     2733     MEOH     H1C      HDA3B    0.080000        1.0080           0   0.00000   0.00000
     43832 MEOH     2733     MEOH     LP1A     LPD     -0.230000        0.0000           -1   0.00000   0.00000
     43833 MEOH     2733     MEOH     LP1B     LPD     -0.230000        0.0000           -1   0.00000   0.00000
     43834 MEOH     2734     MEOH     C1       CD33B    2.314100       11.6110           0   -1.00000   1.30000
     43835 MEOH     2734     MEOH     DC1      DRUD    -2.454100        0.4000           0   0.00000   0.00000
     43836 MEOH     2734     MEOH     O1       OD31H    2.488300       15.5990           0   -1.02800   1.30000
     43837 MEOH     2734     MEOH     DO1      DRUD    -2.488300        0.4000           0   0.00000   0.00000
     43838 MEOH     2734     MEOH     HO1      HDP1A    0.360000        1.0080           0   0.00000   0.00000
     43839 MEOH     2734     MEOH     HO2      DUMH     0.000000        1.0080           0   0.00000   0.00000
     43840 MEOH     2734     MEOH     H1A      HDA3B    0.080000        1.0080           0   0.00000   0.00000
     43841 MEOH     2734     MEOH     H1B      HDA3B    0.080000        1.0080           0   0.00000   0.00000
     43842 MEOH     2734     MEOH     H1C      HDA3B    0.080000        1.0080           0   0.00000   0.00000
     43843 MEOH     2734     MEOH     LP1A     LPD     -0.230000        0.0000           -1   0.00000   0.00000
     43844 MEOH     2734     MEOH     LP1B     LPD     -0.230000        0.0000           -1   0.00000   0.00000
     43845 MEOH     2735     MEOH     C1       CD33B    2.314100       11.6110           0   -1.00000   1.30000
     43846 MEOH     2735     MEOH     DC1      DRUD    -2.454100        0.4000           0   0.00000   0.00000
     43847 MEOH     2735     MEOH     O1       OD31H    2.488300       15.5990           0   -1.02800   1.30000
     43848 MEOH     2735     MEOH     DO1      DRUD    -2.488300        0.4000           0   0.00000   0.00000
     43849 MEOH     2735     MEOH     HO1      HDP1A    0.360000        1.0080           0   0.00000   0.00000
     43850 MEOH     2735     MEOH     HO2      DUMH     0.000000        1.0080           0   0.00000   0.00000
     43851 MEOH     2735     MEOH     H1A      HDA3B    0.080000        1.0080           0   0.00000   0.00000
     43852 MEOH     2735     MEOH     H1B      HDA3B    0.080000        1.0080           0   0.00000   0.00000
     43853 MEOH     2735     MEOH     H1C      HDA3B    0.080000        1.0080           0   0.00000   0.00000
     43854 MEOH     2735     MEOH     LP1A     LPD     -0.230000        0.0000           -1   0.00000   0.00000
     43855 MEOH     2735     MEOH     LP1B     LPD     -0.230000        0.0000           -1   0.00000   0.00000
     43856 MEOH     2736     MEOH     C1       CD33B    2.314100       11.6110           0   -1.00000   1.30000
     43857 MEOH     2736     MEOH     DC1      DRUD    -2.454100        0.4000           0   0.00000   0.00000
     43858 MEOH     2736     MEOH     O1       OD31H    2.488300       15.5990           0   -1.02800   1.30000
     43859 MEOH     2736     MEOH     DO1      DRUD    -2.488300        0.4000           0   0.00000   0.00000
     43860 MEOH     2736     MEOH     HO1      HDP1A    0.360000        1.0080           0   0.00000   0.00000
     43861 MEOH     2736     MEOH     HO2      DUMH     0.000000        1.0080           0   0.00000   0.00000
     43862 MEOH     2736     MEOH     H1A      HDA3B    0.080000        1.0080           0   0.00000   0.00000
     43863 MEOH     2736     MEOH     H1B      HDA3B    0.080000        1.0080           0   0.00000   0.00000
     43864 MEOH     2736     MEOH     H1C      HDA3B    0.080000        1.0080           0   0.00000   0.00000
     43865 MEOH     2736     MEOH     LP1A     LPD     -0.230000        0.0000           -1   0.00000   0.00000
     43866 MEOH     2736     MEOH     LP1B     LPD     -0.230000        0.0000           -1   0.00000   0.00000
     43867 MEOH     2737     MEOH     C1       CD33B    2.314100       11.6110           0   -1.00000   1.30000
     43868 MEOH     2737     MEOH     DC1      DRUD    -2.454100        0.4000           0   0.00000   0.00000
     43869 MEOH     2737     MEOH     O1       OD31H    2.488300       15.5990           0   -1.02800   1.30000
     43870 MEOH     2737     MEOH     DO1      DRUD    -2.488300        0.4000           0   0.00000   0.00000
     43871 MEOH     2737     MEOH     HO1      HDP1A    0.360000        1.0080           0   0.00000   0.00000
     43872 MEOH     2737     MEOH     HO2      DUMH     0.000000        1.0080           0   0.00000   0.00000
     43873 MEOH     2737     MEOH     H1A      HDA3B    0.080000        1.0080           0   0.00000   0.00000
     43874 MEOH     2737     MEOH     H1B      HDA3B    0.080000        1.0080           0   0.00000   0.00000
     43875 MEOH     2737     MEOH     H1C      HDA3B    0.080000        1.0080           0   0.00000   0.00000
     43876 MEOH     2737     MEOH     LP1A     LPD     -0.230000        0.0000           -1   0.00000   0.00000
     43877 MEOH     2737     MEOH     LP1B     LPD     -0.230000        0.0000           -1   0.00000   0.00000
     43878 MEOH     2738     MEOH     C1       CD33B    2.314100       11.6110           0   -1.00000   1.30000
     43879 MEOH     2738     MEOH     DC1      DRUD    -2.454100        0.4000           0   0.00000   0.00000
     43880 MEOH     2738     MEOH     O1       OD31H    2.488300       15.5990           0   -1.02800   1.30000
     43881 MEOH     2738     MEOH     DO1      DRUD    -2.488300        0.4000           0   0.00000   0.00000
     43882 MEOH     2738     MEOH     HO1      HDP1A    0.360000        1.0080           0   0.00000   0.00000
     43883 MEOH     2738     MEOH     HO2      DUMH     0.000000        1.0080           0   0.00000   0.00000
     43884 MEOH     2738     MEOH     H1A      HDA3B    0.080000        1.0080           0   0.00000   0.00000
     43885 MEOH     2738     MEOH     H1B      HDA3B    0.080000        1.0080           0   0.00000   0.00000
     43886 MEOH     2738     MEOH     H1C      HDA3B    0.080000        1.0080           0   0.00000   0.00000
     43887 MEOH     2738     MEOH     LP1A     LPD     -0.230000        0.0000           -1   0.00000   0.00000
     43888 MEOH     2738     MEOH     LP1B     LPD     -0.230000        0.0000           -1   0.00000   0.00000
     43889 MEOH     2739     MEOH     C1       CD33B    2.314100       11.6110           0   -1.00000   1.30000
     43890 MEOH     2739     MEOH     DC1      DRUD    -2.454100        0.4000           0   0.00000   0.00000
     43891 MEOH     2739     MEOH     O1       OD31H    2.488300       15.5990           0   -1.02800   1.30000
     43892 MEOH     2739     MEOH     DO1      DRUD    -2.488300        0.4000           0   0.00000   0.00000
     43893 MEOH     2739     MEOH     HO1      HDP1A    0.360000        1.0080           0   0.00000   0.00000
     43894 MEOH     2739     MEOH     HO2      DUMH     0.000000        1.0080           0   0.00000   0.00000
     43895 MEOH     2739     MEOH     H1A      HDA3B    0.080000        1.0080           0   0.00000   0.00000
     43896 MEOH     2739     MEOH     H1B      HDA3B    0.080000        1.0080           0   0.00000   0.00000
     43897 MEOH     2739     MEOH     H1C      HDA3B    0.080000        1.0080           0   0.00000   0.00000
     43898 MEOH     2739     MEOH     LP1A     LPD     -0.230000        0.0000           -1   0.00000   0.00000
     43899 MEOH     2739     MEOH     LP1B     LPD     -0.230000        0.0000           -1   0.00000   0.00000
     43900 MEOH     2740     MEOH     C1       CD33B    2.314100       11.6110           0   -1.00000   1.30000
     43901 MEOH     2740     MEOH     DC1      DRUD    -2.454100        0.4000           0   0.00000   0.00000
     43902 MEOH     2740     MEOH     O1       OD31H    2.488300       15.5990           0   -1.02800   1.30000
     43903 MEOH     2740     MEOH     DO1      DRUD    -2.488300        0.4000           0   0.00000   0.00000
     43904 MEOH     2740     MEOH     HO1      HDP1A    0.360000        1.0080           0   0.00000   0.00000
     43905 MEOH     2740     MEOH     HO2      DUMH     0.000000        1.0080           0   0.00000   0.00000
     43906 MEOH     2740     MEOH     H1A      HDA3B    0.080000        1.0080           0   0.00000   0.00000
     43907 MEOH     2740     MEOH     H1B      HDA3B    0.080000        1.0080           0   0.00000   0.00000
     43908 MEOH     2740     MEOH     H1C      HDA3B    0.080000        1.0080           0   0.00000   0.00000
     43909 MEOH     2740     MEOH     LP1A     LPD     -0.230000        0.0000           -1   0.00000   0.00000
     43910 MEOH     2740     MEOH     LP1B     LPD     -0.230000        0.0000           -1   0.00000   0.00000
     43911 MEOH     2741     MEOH     C1       CD33B    2.314100       11.6110           0   -1.00000   1.30000
     43912 MEOH     2741     MEOH     DC1      DRUD    -2.454100        0.4000           0   0.00000   0.00000
     43913 MEOH     2741     MEOH     O1       OD31H    2.488300       15.5990           0   -1.02800   1.30000
     43914 MEOH     2741     MEOH     DO1      DRUD    -2.488300        0.4000           0   0.00000   0.00000
     43915 MEOH     2741     MEOH     HO1      HDP1A    0.360000        1.0080           0   0.00000   0.00000
     43916 MEOH     2741     MEOH     HO2      DUMH     0.000000        1.0080           0   0.00000   0.00000
     43917 MEOH     2741     MEOH     H1A      HDA3B    0.080000        1.0080           0   0.00000   0.00000
     43918 MEOH     2741     MEOH     H1B      HDA3B    0.080000        1.0080           0   0.00000   0.00000
     43919 MEOH     2741     MEOH     H1C      HDA3B    0.080000        1.0080           0   0.00000   0.00000
     43920 MEOH     2741     MEOH     LP1A     LPD     -0.230000        0.0000           -1   0.00000   0.00000
     43921 MEOH     2741     MEOH     LP1B     LPD     -0.230000        0.0000           -1   0.00000   0.00000
     43922 MEOH     2742     MEOH     C1       CD33B    2.314100       11.6110           0   -1.00000   1.30000
     43923 MEOH     2742     MEOH     DC1      DRUD    -2.454100        0.4000           0   0.00000   0.00000
     43924 MEOH     2742     MEOH     O1       OD31H    2.488300       15.5990           0   -1.02800   1.30000
     43925 MEOH     2742     MEOH     DO1      DRUD    -2.488300        0.4000           0   0.00000   0.00000
     43926 MEOH     2742     MEOH     HO1      HDP1A    0.360000        1.0080           0   0.00000   0.00000
     43927 MEOH     2742     MEOH     HO2      DUMH     0.000000        1.0080           0   0.00000   0.00000
     43928 MEOH     2742     MEOH     H1A      HDA3B    0.080000        1.0080           0   0.00000   0.00000
     43929 MEOH     2742     MEOH     H1B      HDA3B    0.080000        1.0080           0   0.00000   0.00000
     43930 MEOH     2742     MEOH     H1C      HDA3B    0.080000        1.0080           0   0.00000   0.00000
     43931 MEOH     2742     MEOH     LP1A     LPD     -0.230000        0.0000           -1   0.00000   0.00000
     43932 MEOH     2742     MEOH     LP1B     LPD     -0.230000        0.0000           -1   0.00000   0.00000
     43933 MEOH     2743     MEOH     C1       CD33B    2.314100       11.6110           0   -1.00000   1.30000
     43934 MEOH     2743     MEOH     DC1      DRUD    -2.454100        0.4000           0   0.00000   0.00000
     43935 MEOH     2743     MEOH     O1       OD31H    2.488300       15.5990           0   -1.02800   1.30000
     43936 MEOH     2743     MEOH     DO1      DRUD    -2.488300        0.4000           0   0.00000   0.00000
     43937 MEOH     2743     MEOH     HO1      HDP1A    0.360000        1.0080           0   0.00000   0.00000
     43938 MEOH     2743     MEOH     HO2      DUMH     0.000000        1.0080           0   0.00000   0.00000
     43939 MEOH     2743     MEOH     H1A      HDA3B    0.080000        1.0080           0   0.00000   0.00000
     43940 MEOH     2743     MEOH     H1B      HDA3B    0.080000        1.0080           0   0.00000   0.00000
     43941 MEOH     2743     MEOH     H1C      HDA3B    0.080000        1.0080           0   0.00000   0.00000
     43942 MEOH     2743     MEOH     LP1A     LPD     -0.230000        0.0000           -1   0.00000   0.00000
     43943 MEOH     2743     MEOH     LP1B     LPD     -0.230000        0.0000           -1   0.00000   0.00000
     43944 MEOH     2744     MEOH     C1       CD33B    2.314100       11.6110           0   -1.00000   1.30000
     43945 MEOH     2744     MEOH     DC1      DRUD    -2.454100        0.4000           0   0.00000   0.00000
     43946 MEOH     2744     MEOH     O1       OD31H    2.488300       15.5990           0   -1.02800   1.30000
     43947 MEOH     2744     MEOH     DO1      DRUD    -2.488300        0.4000           0   0.00000   0.00000
     43948 MEOH     2744     MEOH     HO1      HDP1A    0.360000        1.0080           0   0.00000   0.00000
     43949 MEOH     2744     MEOH     HO2      DUMH     0.000000        1.0080           0   0.00000   0.00000
     43950 MEOH     2744     MEOH     H1A      HDA3B    0.080000        1.0080           0   0.00000   0.00000
     43951 MEOH     2744     MEOH     H1B      HDA3B    0.080000        1.0080           0   0.00000   0.00000
     43952 MEOH     2744     MEOH     H1C      HDA3B    0.080000        1.0080           0   0.00000   0.00000
     43953 MEOH     2744     MEOH     LP1A     LPD     -0.230000        0.0000           -1   0.00000   0.00000
     43954 MEOH     2744     MEOH     LP1B     LPD     -0.230000        0.0000           -1   0.00000   0.00000
     43955 MEOH     2745     MEOH     C1       CD33B    2.314100       11.6110           0   -1.00000   1.30000
     43956 MEOH     2745     MEOH     DC1      DRUD    -2.454100        0.4000           0   0.00000   0.00000
     43957 MEOH     2745     MEOH     O1       OD31H    2.488300       15.5990           0   -1.02800   1.30000
     43958 MEOH     2745     MEOH     DO1      DRUD    -2.488300        0.4000           0   0.00000   0.00000
     43959 MEOH     2745     MEOH     HO1      HDP1A    0.360000        1.0080           0   0.00000   0.00000
     43960 MEOH     2745     MEOH     HO2      DUMH     0.000000        1.0080           0   0.00000   0.00000
     43961 MEOH     2745     MEOH     H1A      HDA3B    0.080000        1.0080           0   0.00000   0.00000
     43962 MEOH     2745     MEOH     H1B      HDA3B    0.080000        1.0080           0   0.00000   0.00000
     43963 MEOH     2745     MEOH     H1C      HDA3B    0.080000        1.0080           0   0.00000   0.00000
     43964 MEOH     2745     MEOH     LP1A     LPD     -0.230000        0.0000           -1   0.00000   0.00000
     43965 MEOH     2745     MEOH     LP1B     LPD     -0.230000        0.0000           -1   0.00000   0.00000
     43966 MEOH     2746     MEOH     C1       CD33B    2.314100       11.6110           0   -1.00000   1.30000
     43967 MEOH     2746     MEOH     DC1      DRUD    -2.454100        0.4000           0   0.00000   0.00000
     43968 MEOH     2746     MEOH     O1       OD31H    2.488300       15.5990           0   -1.02800   1.30000
     43969 MEOH     2746     MEOH     DO1      DRUD    -2.488300        0.4000           0   0.00000   0.00000
     43970 MEOH     2746     MEOH     HO1      HDP1A    0.360000        1.0080           0   0.00000   0.00000
     43971 MEOH     2746     MEOH     HO2      DUMH     0.000000        1.0080           0   0.00000   0.00000
     43972 MEOH     2746     MEOH     H1A      HDA3B    0.080000        1.0080           0   0.00000   0.00000
     43973 MEOH     2746     MEOH     H1B      HDA3B    0.080000        1.0080           0   0.00000   0.00000
     43974 MEOH     2746     MEOH     H1C      HDA3B    0.080000        1.0080           0   0.00000   0.00000
     43975 MEOH     2746     MEOH     LP1A     LPD     -0.230000        0.0000           -1   0.00000   0.00000
     43976 MEOH     2746     MEOH     LP1B     LPD     -0.230000        0.0000           -1   0.00000   0.00000
     43977 MEOH     2747     MEOH     C1       CD33B    2.314100       11.6110           0   -1.00000   1.30000
     43978 MEOH     2747     MEOH     DC1      DRUD    -2.454100        0.4000           0   0.00000   0.00000
     43979 MEOH     2747     MEOH     O1       OD31H    2.488300       15.5990           0   -1.02800   1.30000
     43980 MEOH     2747     MEOH     DO1      DRUD    -2.488300        0.4000           0   0.00000   0.00000
     43981 MEOH     2747     MEOH     HO1      HDP1A    0.360000        1.0080           0   0.00000   0.00000
     43982 MEOH     2747     MEOH     HO2      DUMH     0.000000        1.0080           0   0.00000   0.00000
     43983 MEOH     2747     MEOH     H1A      HDA3B    0.080000        1.0080           0   0.00000   0.00000
     43984 MEOH     2747     MEOH     H1B      HDA3B    0.080000        1.0080           0   0.00000   0.00000
     43985 MEOH     2747     MEOH     H1C      HDA3B    0.080000        1.0080           0   0.00000   0.00000
     43986 MEOH     2747     MEOH     LP1A     LPD     -0.230000        0.0000           -1   0.00000   0.00000
     43987 MEOH     2747     MEOH     LP1B     LPD     -0.230000        0.0000           -1   0.00000   0.00000
     43988 MEOH     2748     MEOH     C1       CD33B    2.314100       11.6110           0   -1.00000   1.30000
     43989 MEOH     2748     MEOH     DC1      DRUD    -2.454100        0.4000           0   0.00000   0.00000
     43990 MEOH     2748     MEOH     O1       OD31H    2.488300       15.5990           0   -1.02800   1.30000
     43991 MEOH     2748     MEOH     DO1      DRUD    -2.488300        0.4000           0   0.00000   0.00000
     43992 MEOH     2748     MEOH     HO1      HDP1A    0.360000        1.0080           0   0.00000   0.00000
     43993 MEOH     2748     MEOH     HO2      DUMH     0.000000        1.0080           0   0.00000   0.00000
     43994 MEOH     2748     MEOH     H1A      HDA3B    0.080000        1.0080           0   0.00000   0.00000
     43995 MEOH     2748     MEOH     H1B      HDA3B    0.080000        1.0080           0   0.00000   0.00000
     43996 MEOH     2748     MEOH     H1C      HDA3B    0.080000        1.0080           0   0.00000   0.00000
     43997 MEOH     2748     MEOH     LP1A     LPD     -0.230000        0.0000           -1   0.00000   0.00000
     43998 MEOH     2748     MEOH     LP1B     LPD     -0.230000        0.0000           -1   0.00000   0.00000
     43999 MEOH     2749     MEOH     C1       CD33B    2.314100       11.6110           0   -1.00000   1.30000
     44000 MEOH     2749     MEOH     DC1      DRUD    -2.454100        0.4000           0   0.00000   0.00000
     44001 MEOH     2749     MEOH     O1       OD31H    2.488300       15.5990           0   -1.02800   1.30000
     44002 MEOH     2749     MEOH     DO1      DRUD    -2.488300        0.4000           0   0.00000   0.00000
     44003 MEOH     2749     MEOH     HO1      HDP1A    0.360000        1.0080           0   0.00000   0.00000
     44004 MEOH     2749     MEOH     HO2      DUMH     0.000000        1.0080           0   0.00000   0.00000
     44005 MEOH     2749     MEOH     H1A      HDA3B    0.080000        1.0080           0   0.00000   0.00000
     44006 MEOH     2749     MEOH     H1B      HDA3B    0.080000        1.0080           0   0.00000   0.00000
     44007 MEOH     2749     MEOH     H1C      HDA3B    0.080000        1.0080           0   0.00000   0.00000
     44008 MEOH     2749     MEOH     LP1A     LPD     -0.230000        0.0000           -1   0.00000   0.00000
     44009 MEOH     2749     MEOH     LP1B     LPD     -0.230000        0.0000           -1   0.00000   0.00000
     44010 MEOH     2750     MEOH     C1       CD33B    2.314100       11.6110           0   -1.00000   1.30000
     44011 MEOH     2750     MEOH     DC1      DRUD    -2.454100        0.4000           0   0.00000   0.00000
     44012 MEOH     2750     MEOH     O1       OD31H    2.488300       15.5990           0   -1.02800   1.30000
     44013 MEOH     2750     MEOH     DO1      DRUD    -2.488300        0.4000           0   0.00000   0.00000
     44014 MEOH     2750     MEOH     HO1      HDP1A    0.360000        1.0080           0   0.00000   0.00000
     44015 MEOH     2750     MEOH     HO2      DUMH     0.000000        1.0080           0   0.00000   0.00000
     44016 MEOH     2750     MEOH     H1A      HDA3B    0.080000        1.0080           0   0.00000   0.00000
     44017 MEOH     2750     MEOH     H1B      HDA3B    0.080000        1.0080           0   0.00000   0.00000
     44018 MEOH     2750     MEOH     H1C      HDA3B    0.080000        1.0080           0   0.00000   0.00000
     44019 MEOH     2750     MEOH     LP1A     LPD     -0.230000        0.0000           -1   0.00000   0.00000
     44020 MEOH     2750     MEOH     LP1B     LPD     -0.230000        0.0000           -1   0.00000   0.00000
     44021 MEOH     2751     MEOH     C1       CD33B    2.314100       11.6110           0   -1.00000   1.30000
     44022 MEOH     2751     MEOH     DC1      DRUD    -2.454100        0.4000           0   0.00000   0.00000
     44023 MEOH     2751     MEOH     O1       OD31H    2.488300       15.5990           0   -1.02800   1.30000
     44024 MEOH     2751     MEOH     DO1      DRUD    -2.488300        0.4000           0   0.00000   0.00000
     44025 MEOH     2751     MEOH     HO1      HDP1A    0.360000        1.0080           0   0.00000   0.00000
     44026 MEOH     2751     MEOH     HO2      DUMH     0.000000        1.0080           0   0.00000   0.00000
     44027 MEOH     2751     MEOH     H1A      HDA3B    0.080000        1.0080           0   0.00000   0.00000
     44028 MEOH     2751     MEOH     H1B      HDA3B    0.080000        1.0080           0   0.00000   0.00000
     44029 MEOH     2751     MEOH     H1C      HDA3B    0.080000        1.0080           0   0.00000   0.00000
     44030 MEOH     2751     MEOH     LP1A     LPD     -0.230000        0.0000           -1   0.00000   0.00000
     44031 MEOH     2751     MEOH     LP1B     LPD     -0.230000        0.0000           -1   0.00000   0.00000
     44032 MEOH     2752     MEOH     C1       CD33B    2.314100       11.6110           0   -1.00000   1.30000
     44033 MEOH     2752     MEOH     DC1      DRUD    -2.454100        0.4000           0   0.00000   0.00000
     44034 MEOH     2752     MEOH     O1       OD31H    2.488300       15.5990           0   -1.02800   1.30000
     44035 MEOH     2752     MEOH     DO1      DRUD    -2.488300        0.4000           0   0.00000   0.00000
     44036 MEOH     2752     MEOH     HO1      HDP1A    0.360000        1.0080           0   0.00000   0.00000
     44037 MEOH     2752     MEOH     HO2      DUMH     0.000000        1.0080           0   0.00000   0.00000
     44038 MEOH     2752     MEOH     H1A      HDA3B    0.080000        1.0080           0   0.00000   0.00000
     44039 MEOH     2752     MEOH     H1B      HDA3B    0.080000        1.0080           0   0.00000   0.00000
     44040 MEOH     2752     MEOH     H1C      HDA3B    0.080000        1.0080           0   0.00000   0.00000
     44041 MEOH     2752     MEOH     LP1A     LPD     -0.230000        0.0000           -1   0.00000   0.00000
     44042 MEOH     2752     MEOH     LP1B     LPD     -0.230000        0.0000           -1   0.00000   0.00000
     44043 MEOH     2753     MEOH     C1       CD33B    2.314100       11.6110           0   -1.00000   1.30000
     44044 MEOH     2753     MEOH     DC1      DRUD    -2.454100        0.4000           0   0.00000   0.00000
     44045 MEOH     2753     MEOH     O1       OD31H    2.488300       15.5990           0   -1.02800   1.30000
     44046 MEOH     2753     MEOH     DO1      DRUD    -2.488300        0.4000           0   0.00000   0.00000
     44047 MEOH     2753     MEOH     HO1      HDP1A    0.360000        1.0080           0   0.00000   0.00000
     44048 MEOH     2753     MEOH     HO2      DUMH     0.000000        1.0080           0   0.00000   0.00000
     44049 MEOH     2753     MEOH     H1A      HDA3B    0.080000        1.0080           0   0.00000   0.00000
     44050 MEOH     2753     MEOH     H1B      HDA3B    0.080000        1.0080           0   0.00000   0.00000
     44051 MEOH     2753     MEOH     H1C      HDA3B    0.080000        1.0080           0   0.00000   0.00000
     44052 MEOH     2753     MEOH     LP1A     LPD     -0.230000        0.0000           -1   0.00000   0.00000
     44053 MEOH     2753     MEOH     LP1B     LPD     -0.230000        0.0000           -1   0.00000   0.00000
     44054 MEOH     2754     MEOH     C1       CD33B    2.314100       11.6110           0   -1.00000   1.30000
     44055 MEOH     2754     MEOH     DC1      DRUD    -2.454100        0.4000           0   0.00000   0.00000
     44056 MEOH     2754     MEOH     O1       OD31H    2.488300       15.5990           0   -1.02800   1.30000
     44057 MEOH     2754     MEOH     DO1      DRUD    -2.488300        0.4000           0   0.00000   0.00000
     44058 MEOH     2754     MEOH     HO1      HDP1A    0.360000        1.0080           0   0.00000   0.00000
     44059 MEOH     2754     MEOH     HO2      DUMH     0.000000        1.0080           0   0.00000   0.00000
     44060 MEOH     2754     MEOH     H1A      HDA3B    0.080000        1.0080           0   0.00000   0.00000
     44061 MEOH     2754     MEOH     H1B      HDA3B    0.080000        1.0080           0   0.00000   0.00000
     44062 MEOH     2754     MEOH     H1C      HDA3B    0.080000        1.0080           0   0.00000   0.00000
     44063 MEOH     2754     MEOH     LP1A     LPD     -0.230000        0.0000           -1   0.00000   0.00000
     44064 MEOH     2754     MEOH     LP1B     LPD     -0.230000        0.0000           -1   0.00000   0.00000
     44065 MEOH     2755     MEOH     C1       CD33B    2.314100       11.6110           0   -1.00000   1.30000
     44066 MEOH     2755     MEOH     DC1      DRUD    -2.454100        0.4000           0   0.00000   0.00000
     44067 MEOH     2755     MEOH     O1       OD31H    2.488300       15.5990           0   -1.02800   1.30000
     44068 MEOH     2755     MEOH     DO1      DRUD    -2.488300        0.4000           0   0.00000   0.00000
     44069 MEOH     2755     MEOH     HO1      HDP1A    0.360000        1.0080           0   0.00000   0.00000
     44070 MEOH     2755     MEOH     HO2      DUMH     0.000000        1.0080           0   0.00000   0.00000
     44071 MEOH     2755     MEOH     H1A      HDA3B    0.080000        1.0080           0   0.00000   0.00000
     44072 MEOH     2755     MEOH     H1B      HDA3B    0.080000        1.0080           0   0.00000   0.00000
     44073 MEOH     2755     MEOH     H1C      HDA3B    0.080000        1.0080           0   0.00000   0.00000
     44074 MEOH     2755     MEOH     LP1A     LPD     -0.230000        0.0000           -1   0.00000   0.00000
     44075 MEOH     2755     MEOH     LP1B     LPD     -0.230000        0.0000           -1   0.00000   0.00000
     44076 MEOH     2756     MEOH     C1       CD33B    2.314100       11.6110           0   -1.00000   1.30000
     44077 MEOH     2756     MEOH     DC1      DRUD    -2.454100        0.4000           0   0.00000   0.00000
     44078 MEOH     2756     MEOH     O1       OD31H    2.488300       15.5990           0   -1.02800   1.30000
     44079 MEOH     2756     MEOH     DO1      DRUD    -2.488300        0.4000           0   0.00000   0.00000
     44080 MEOH     2756     MEOH     HO1      HDP1A    0.360000        1.0080           0   0.00000   0.00000
     44081 MEOH     2756     MEOH     HO2      DUMH     0.000000        1.0080           0   0.00000   0.00000
     44082 MEOH     2756     MEOH     H1A      HDA3B    0.080000        1.0080           0   0.00000   0.00000
     44083 MEOH     2756     MEOH     H1B      HDA3B    0.080000        1.0080           0   0.00000   0.00000
     44084 MEOH     2756     MEOH     H1C      HDA3B    0.080000        1.0080           0   0.00000   0.00000
     44085 MEOH     2756     MEOH     LP1A     LPD     -0.230000        0.0000           -1   0.00000   0.00000
     44086 MEOH     2756     MEOH     LP1B     LPD     -0.230000        0.0000           -1   0.00000   0.00000
     44087 MEOH     2757     MEOH     C1       CD33B    2.314100       11.6110           0   -1.00000   1.30000
     44088 MEOH     2757     MEOH     DC1      DRUD    -2.454100        0.4000           0   0.00000   0.00000
     44089 MEOH     2757     MEOH     O1       OD31H    2.488300       15.5990           0   -1.02800   1.30000
     44090 MEOH     2757     MEOH     DO1      DRUD    -2.488300        0.4000           0   0.00000   0.00000
     44091 MEOH     2757     MEOH     HO1      HDP1A    0.360000        1.0080           0   0.00000   0.00000
     44092 MEOH     2757     MEOH     HO2      DUMH     0.000000        1.0080           0   0.00000   0.00000
     44093 MEOH     2757     MEOH     H1A      HDA3B    0.080000        1.0080           0   0.00000   0.00000
     44094 MEOH     2757     MEOH     H1B      HDA3B    0.080000        1.0080           0   0.00000   0.00000
     44095 MEOH     2757     MEOH     H1C      HDA3B    0.080000        1.0080           0   0.00000   0.00000
     44096 MEOH     2757     MEOH     LP1A     LPD     -0.230000        0.0000           -1   0.00000   0.00000
     44097 MEOH     2757     MEOH     LP1B     LPD     -0.230000        0.0000           -1   0.00000   0.00000
     44098 MEOH     2758     MEOH     C1       CD33B    2.314100       11.6110           0   -1.00000   1.30000
     44099 MEOH     2758     MEOH     DC1      DRUD    -2.454100        0.4000           0   0.00000   0.00000
     44100 MEOH     2758     MEOH     O1       OD31H    2.488300       15.5990           0   -1.02800   1.30000
     44101 MEOH     2758     MEOH     DO1      DRUD    -2.488300        0.4000           0   0.00000   0.00000
     44102 MEOH     2758     MEOH     HO1      HDP1A    0.360000        1.0080           0   0.00000   0.00000
     44103 MEOH     2758     MEOH     HO2      DUMH     0.000000        1.0080           0   0.00000   0.00000
     44104 MEOH     2758     MEOH     H1A      HDA3B    0.080000        1.0080           0   0.00000   0.00000
     44105 MEOH     2758     MEOH     H1B      HDA3B    0.080000        1.0080           0   0.00000   0.00000
     44106 MEOH     2758     MEOH     H1C      HDA3B    0.080000        1.0080           0   0.00000   0.00000
     44107 MEOH     2758     MEOH     LP1A     LPD     -0.230000        0.0000           -1   0.00000   0.00000
     44108 MEOH     2758     MEOH     LP1B     LPD     -0.230000        0.0000           -1   0.00000   0.00000
     44109 MEOH     2759     MEOH     C1       CD33B    2.314100       11.6110           0   -1.00000   1.30000
     44110 MEOH     2759     MEOH     DC1      DRUD    -2.454100        0.4000           0   0.00000   0.00000
     44111 MEOH     2759     MEOH     O1       OD31H    2.488300       15.5990           0   -1.02800   1.30000
     44112 MEOH     2759     MEOH     DO1      DRUD    -2.488300        0.4000           0   0.00000   0.00000
     44113 MEOH     2759     MEOH     HO1      HDP1A    0.360000        1.0080           0   0.00000   0.00000
     44114 MEOH     2759     MEOH     HO2      DUMH     0.000000        1.0080           0   0.00000   0.00000
     44115 MEOH     2759     MEOH     H1A      HDA3B    0.080000        1.0080           0   0.00000   0.00000
     44116 MEOH     2759     MEOH     H1B      HDA3B    0.080000        1.0080           0   0.00000   0.00000
     44117 MEOH     2759     MEOH     H1C      HDA3B    0.080000        1.0080           0   0.00000   0.00000
     44118 MEOH     2759     MEOH     LP1A     LPD     -0.230000        0.0000           -1   0.00000   0.00000
     44119 MEOH     2759     MEOH     LP1B     LPD     -0.230000        0.0000           -1   0.00000   0.00000
     44120 MEOH     2760     MEOH     C1       CD33B    2.314100       11.6110           0   -1.00000   1.30000
     44121 MEOH     2760     MEOH     DC1      DRUD    -2.454100        0.4000           0   0.00000   0.00000
     44122 MEOH     2760     MEOH     O1       OD31H    2.488300       15.5990           0   -1.02800   1.30000
     44123 MEOH     2760     MEOH     DO1      DRUD    -2.488300        0.4000           0   0.00000   0.00000
     44124 MEOH     2760     MEOH     HO1      HDP1A    0.360000        1.0080           0   0.00000   0.00000
     44125 MEOH     2760     MEOH     HO2      DUMH     0.000000        1.0080           0   0.00000   0.00000
     44126 MEOH     2760     MEOH     H1A      HDA3B    0.080000        1.0080           0   0.00000   0.00000
     44127 MEOH     2760     MEOH     H1B      HDA3B    0.080000        1.0080           0   0.00000   0.00000
     44128 MEOH     2760     MEOH     H1C      HDA3B    0.080000        1.0080           0   0.00000   0.00000
     44129 MEOH     2760     MEOH     LP1A     LPD     -0.230000        0.0000           -1   0.00000   0.00000
     44130 MEOH     2760     MEOH     LP1B     LPD     -0.230000        0.0000           -1   0.00000   0.00000
     44131 MEOH     2761     MEOH     C1       CD33B    2.314100       11.6110           0   -1.00000   1.30000
     44132 MEOH     2761     MEOH     DC1      DRUD    -2.454100        0.4000           0   0.00000   0.00000
     44133 MEOH     2761     MEOH     O1       OD31H    2.488300       15.5990           0   -1.02800   1.30000
     44134 MEOH     2761     MEOH     DO1      DRUD    -2.488300        0.4000           0   0.00000   0.00000
     44135 MEOH     2761     MEOH     HO1      HDP1A    0.360000        1.0080           0   0.00000   0.00000
     44136 MEOH     2761     MEOH     HO2      DUMH     0.000000        1.0080           0   0.00000   0.00000
     44137 MEOH     2761     MEOH     H1A      HDA3B    0.080000        1.0080           0   0.00000   0.00000
     44138 MEOH     2761     MEOH     H1B      HDA3B    0.080000        1.0080           0   0.00000   0.00000
     44139 MEOH     2761     MEOH     H1C      HDA3B    0.080000        1.0080           0   0.00000   0.00000
     44140 MEOH     2761     MEOH     LP1A     LPD     -0.230000        0.0000           -1   0.00000   0.00000
     44141 MEOH     2761     MEOH     LP1B     LPD     -0.230000        0.0000           -1   0.00000   0.00000
     44142 MEOH     2762     MEOH     C1       CD33B    2.314100       11.6110           0   -1.00000   1.30000
     44143 MEOH     2762     MEOH     DC1      DRUD    -2.454100        0.4000           0   0.00000   0.00000
     44144 MEOH     2762     MEOH     O1       OD31H    2.488300       15.5990           0   -1.02800   1.30000
     44145 MEOH     2762     MEOH     DO1      DRUD    -2.488300        0.4000           0   0.00000   0.00000
     44146 MEOH     2762     MEOH     HO1      HDP1A    0.360000        1.0080           0   0.00000   0.00000
     44147 MEOH     2762     MEOH     HO2      DUMH     0.000000        1.0080           0   0.00000   0.00000
     44148 MEOH     2762     MEOH     H1A      HDA3B    0.080000        1.0080           0   0.00000   0.00000
     44149 MEOH     2762     MEOH     H1B      HDA3B    0.080000        1.0080           0   0.00000   0.00000
     44150 MEOH     2762     MEOH     H1C      HDA3B    0.080000        1.0080           0   0.00000   0.00000
     44151 MEOH     2762     MEOH     LP1A     LPD     -0.230000        0.0000           -1   0.00000   0.00000
     44152 MEOH     2762     MEOH     LP1B     LPD     -0.230000        0.0000           -1   0.00000   0.00000
     44153 MEOH     2763     MEOH     C1       CD33B    2.314100       11.6110           0   -1.00000   1.30000
     44154 MEOH     2763     MEOH     DC1      DRUD    -2.454100        0.4000           0   0.00000   0.00000
     44155 MEOH     2763     MEOH     O1       OD31H    2.488300       15.5990           0   -1.02800   1.30000
     44156 MEOH     2763     MEOH     DO1      DRUD    -2.488300        0.4000           0   0.00000   0.00000
     44157 MEOH     2763     MEOH     HO1      HDP1A    0.360000        1.0080           0   0.00000   0.00000
     44158 MEOH     2763     MEOH     HO2      DUMH     0.000000        1.0080           0   0.00000   0.00000
     44159 MEOH     2763     MEOH     H1A      HDA3B    0.080000        1.0080           0   0.00000   0.00000
     44160 MEOH     2763     MEOH     H1B      HDA3B    0.080000        1.0080           0   0.00000   0.00000
     44161 MEOH     2763     MEOH     H1C      HDA3B    0.080000        1.0080           0   0.00000   0.00000
     44162 MEOH     2763     MEOH     LP1A     LPD     -0.230000        0.0000           -1   0.00000   0.00000
     44163 MEOH     2763     MEOH     LP1B     LPD     -0.230000        0.0000           -1   0.00000   0.00000
     44164 MEOH     2764     MEOH     C1       CD33B    2.314100       11.6110           0   -1.00000   1.30000
     44165 MEOH     2764     MEOH     DC1      DRUD    -2.454100        0.4000           0   0.00000   0.00000
     44166 MEOH     2764     MEOH     O1       OD31H    2.488300       15.5990           0   -1.02800   1.30000
     44167 MEOH     2764     MEOH     DO1      DRUD    -2.488300        0.4000           0   0.00000   0.00000
     44168 MEOH     2764     MEOH     HO1      HDP1A    0.360000        1.0080           0   0.00000   0.00000
     44169 MEOH     2764     MEOH     HO2      DUMH     0.000000        1.0080           0   0.00000   0.00000
     44170 MEOH     2764     MEOH     H1A      HDA3B    0.080000        1.0080           0   0.00000   0.00000
     44171 MEOH     2764     MEOH     H1B      HDA3B    0.080000        1.0080           0   0.00000   0.00000
     44172 MEOH     2764     MEOH     H1C      HDA3B    0.080000        1.0080           0   0.00000   0.00000
     44173 MEOH     2764     MEOH     LP1A     LPD     -0.230000        0.0000           -1   0.00000   0.00000
     44174 MEOH     2764     MEOH     LP1B     LPD     -0.230000        0.0000           -1   0.00000   0.00000
     44175 MEOH     2765     MEOH     C1       CD33B    2.314100       11.6110           0   -1.00000   1.30000
     44176 MEOH     2765     MEOH     DC1      DRUD    -2.454100        0.4000           0   0.00000   0.00000
     44177 MEOH     2765     MEOH     O1       OD31H    2.488300       15.5990           0   -1.02800   1.30000
     44178 MEOH     2765     MEOH     DO1      DRUD    -2.488300        0.4000           0   0.00000   0.00000
     44179 MEOH     2765     MEOH     HO1      HDP1A    0.360000        1.0080           0   0.00000   0.00000
     44180 MEOH     2765     MEOH     HO2      DUMH     0.000000        1.0080           0   0.00000   0.00000
     44181 MEOH     2765     MEOH     H1A      HDA3B    0.080000        1.0080           0   0.00000   0.00000
     44182 MEOH     2765     MEOH     H1B      HDA3B    0.080000        1.0080           0   0.00000   0.00000
     44183 MEOH     2765     MEOH     H1C      HDA3B    0.080000        1.0080           0   0.00000   0.00000
     44184 MEOH     2765     MEOH     LP1A     LPD     -0.230000        0.0000           -1   0.00000   0.00000
     44185 MEOH     2765     MEOH     LP1B     LPD     -0.230000        0.0000           -1   0.00000   0.00000
     44186 MEOH     2766     MEOH     C1       CD33B    2.314100       11.6110           0   -1.00000   1.30000
     44187 MEOH     2766     MEOH     DC1      DRUD    -2.454100        0.4000           0   0.00000   0.00000
     44188 MEOH     2766     MEOH     O1       OD31H    2.488300       15.5990           0   -1.02800   1.30000
     44189 MEOH     2766     MEOH     DO1      DRUD    -2.488300        0.4000           0   0.00000   0.00000
     44190 MEOH     2766     MEOH     HO1      HDP1A    0.360000        1.0080           0   0.00000   0.00000
     44191 MEOH     2766     MEOH     HO2      DUMH     0.000000        1.0080           0   0.00000   0.00000
     44192 MEOH     2766     MEOH     H1A      HDA3B    0.080000        1.0080           0   0.00000   0.00000
     44193 MEOH     2766     MEOH     H1B      HDA3B    0.080000        1.0080           0   0.00000   0.00000
     44194 MEOH     2766     MEOH     H1C      HDA3B    0.080000        1.0080           0   0.00000   0.00000
     44195 MEOH     2766     MEOH     LP1A     LPD     -0.230000        0.0000           -1   0.00000   0.00000
     44196 MEOH     2766     MEOH     LP1B     LPD     -0.230000        0.0000           -1   0.00000   0.00000
     44197 MEOH     2767     MEOH     C1       CD33B    2.314100       11.6110           0   -1.00000   1.30000
     44198 MEOH     2767     MEOH     DC1      DRUD    -2.454100        0.4000           0   0.00000   0.00000
     44199 MEOH     2767     MEOH     O1       OD31H    2.488300       15.5990           0   -1.02800   1.30000
     44200 MEOH     2767     MEOH     DO1      DRUD    -2.488300        0.4000           0   0.00000   0.00000
     44201 MEOH     2767     MEOH     HO1      HDP1A    0.360000        1.0080           0   0.00000   0.00000
     44202 MEOH     2767     MEOH     HO2      DUMH     0.000000        1.0080           0   0.00000   0.00000
     44203 MEOH     2767     MEOH     H1A      HDA3B    0.080000        1.0080           0   0.00000   0.00000
     44204 MEOH     2767     MEOH     H1B      HDA3B    0.080000        1.0080           0   0.00000   0.00000
     44205 MEOH     2767     MEOH     H1C      HDA3B    0.080000        1.0080           0   0.00000   0.00000
     44206 MEOH     2767     MEOH     LP1A     LPD     -0.230000        0.0000           -1   0.00000   0.00000
     44207 MEOH     2767     MEOH     LP1B     LPD     -0.230000        0.0000           -1   0.00000   0.00000
     44208 MEOH     2768     MEOH     C1       CD33B    2.314100       11.6110           0   -1.00000   1.30000
     44209 MEOH     2768     MEOH     DC1      DRUD    -2.454100        0.4000           0   0.00000   0.00000
     44210 MEOH     2768     MEOH     O1       OD31H    2.488300       15.5990           0   -1.02800   1.30000
     44211 MEOH     2768     MEOH     DO1      DRUD    -2.488300        0.4000           0   0.00000   0.00000
     44212 MEOH     2768     MEOH     HO1      HDP1A    0.360000        1.0080           0   0.00000   0.00000
     44213 MEOH     2768     MEOH     HO2      DUMH     0.000000        1.0080           0   0.00000   0.00000
     44214 MEOH     2768     MEOH     H1A      HDA3B    0.080000        1.0080           0   0.00000   0.00000
     44215 MEOH     2768     MEOH     H1B      HDA3B    0.080000        1.0080           0   0.00000   0.00000
     44216 MEOH     2768     MEOH     H1C      HDA3B    0.080000        1.0080           0   0.00000   0.00000
     44217 MEOH     2768     MEOH     LP1A     LPD     -0.230000        0.0000           -1   0.00000   0.00000
     44218 MEOH     2768     MEOH     LP1B     LPD     -0.230000        0.0000           -1   0.00000   0.00000
     44219 MEOH     2769     MEOH     C1       CD33B    2.314100       11.6110           0   -1.00000   1.30000
     44220 MEOH     2769     MEOH     DC1      DRUD    -2.454100        0.4000           0   0.00000   0.00000
     44221 MEOH     2769     MEOH     O1       OD31H    2.488300       15.5990           0   -1.02800   1.30000
     44222 MEOH     2769     MEOH     DO1      DRUD    -2.488300        0.4000           0   0.00000   0.00000
     44223 MEOH     2769     MEOH     HO1      HDP1A    0.360000        1.0080           0   0.00000   0.00000
     44224 MEOH     2769     MEOH     HO2      DUMH     0.000000        1.0080           0   0.00000   0.00000
     44225 MEOH     2769     MEOH     H1A      HDA3B    0.080000        1.0080           0   0.00000   0.00000
     44226 MEOH     2769     MEOH     H1B      HDA3B    0.080000        1.0080           0   0.00000   0.00000
     44227 MEOH     2769     MEOH     H1C      HDA3B    0.080000        1.0080           0   0.00000   0.00000
     44228 MEOH     2769     MEOH     LP1A     LPD     -0.230000        0.0000           -1   0.00000   0.00000
     44229 MEOH     2769     MEOH     LP1B     LPD     -0.230000        0.0000           -1   0.00000   0.00000
     44230 MEOH     2770     MEOH     C1       CD33B    2.314100       11.6110           0   -1.00000   1.30000
     44231 MEOH     2770     MEOH     DC1      DRUD    -2.454100        0.4000           0   0.00000   0.00000
     44232 MEOH     2770     MEOH     O1       OD31H    2.488300       15.5990           0   -1.02800   1.30000
     44233 MEOH     2770     MEOH     DO1      DRUD    -2.488300        0.4000           0   0.00000   0.00000
     44234 MEOH     2770     MEOH     HO1      HDP1A    0.360000        1.0080           0   0.00000   0.00000
     44235 MEOH     2770     MEOH     HO2      DUMH     0.000000        1.0080           0   0.00000   0.00000
     44236 MEOH     2770     MEOH     H1A      HDA3B    0.080000        1.0080           0   0.00000   0.00000
     44237 MEOH     2770     MEOH     H1B      HDA3B    0.080000        1.0080           0   0.00000   0.00000
     44238 MEOH     2770     MEOH     H1C      HDA3B    0.080000        1.0080           0   0.00000   0.00000
     44239 MEOH     2770     MEOH     LP1A     LPD     -0.230000        0.0000           -1   0.00000   0.00000
     44240 MEOH     2770     MEOH     LP1B     LPD     -0.230000        0.0000           -1   0.00000   0.00000
     44241 MEOH     2771     MEOH     C1       CD33B    2.314100       11.6110           0   -1.00000   1.30000
     44242 MEOH     2771     MEOH     DC1      DRUD    -2.454100        0.4000           0   0.00000   0.00000
     44243 MEOH     2771     MEOH     O1       OD31H    2.488300       15.5990           0   -1.02800   1.30000
     44244 MEOH     2771     MEOH     DO1      DRUD    -2.488300        0.4000           0   0.00000   0.00000
     44245 MEOH     2771     MEOH     HO1      HDP1A    0.360000        1.0080           0   0.00000   0.00000
     44246 MEOH     2771     MEOH     HO2      DUMH     0.000000        1.0080           0   0.00000   0.00000
     44247 MEOH     2771     MEOH     H1A      HDA3B    0.080000        1.0080           0   0.00000   0.00000
     44248 MEOH     2771     MEOH     H1B      HDA3B    0.080000        1.0080           0   0.00000   0.00000
     44249 MEOH     2771     MEOH     H1C      HDA3B    0.080000        1.0080           0   0.00000   0.00000
     44250 MEOH     2771     MEOH     LP1A     LPD     -0.230000        0.0000           -1   0.00000   0.00000
     44251 MEOH     2771     MEOH     LP1B     LPD     -0.230000        0.0000           -1   0.00000   0.00000
     44252 MEOH     2772     MEOH     C1       CD33B    2.314100       11.6110           0   -1.00000   1.30000
     44253 MEOH     2772     MEOH     DC1      DRUD    -2.454100        0.4000           0   0.00000   0.00000
     44254 MEOH     2772     MEOH     O1       OD31H    2.488300       15.5990           0   -1.02800   1.30000
     44255 MEOH     2772     MEOH     DO1      DRUD    -2.488300        0.4000           0   0.00000   0.00000
     44256 MEOH     2772     MEOH     HO1      HDP1A    0.360000        1.0080           0   0.00000   0.00000
     44257 MEOH     2772     MEOH     HO2      DUMH     0.000000        1.0080           0   0.00000   0.00000
     44258 MEOH     2772     MEOH     H1A      HDA3B    0.080000        1.0080           0   0.00000   0.00000
     44259 MEOH     2772     MEOH     H1B      HDA3B    0.080000        1.0080           0   0.00000   0.00000
     44260 MEOH     2772     MEOH     H1C      HDA3B    0.080000        1.0080           0   0.00000   0.00000
     44261 MEOH     2772     MEOH     LP1A     LPD     -0.230000        0.0000           -1   0.00000   0.00000
     44262 MEOH     2772     MEOH     LP1B     LPD     -0.230000        0.0000           -1   0.00000   0.00000
     44263 MEOH     2773     MEOH     C1       CD33B    2.314100       11.6110           0   -1.00000   1.30000
     44264 MEOH     2773     MEOH     DC1      DRUD    -2.454100        0.4000           0   0.00000   0.00000
     44265 MEOH     2773     MEOH     O1       OD31H    2.488300       15.5990           0   -1.02800   1.30000
     44266 MEOH     2773     MEOH     DO1      DRUD    -2.488300        0.4000           0   0.00000   0.00000
     44267 MEOH     2773     MEOH     HO1      HDP1A    0.360000        1.0080           0   0.00000   0.00000
     44268 MEOH     2773     MEOH     HO2      DUMH     0.000000        1.0080           0   0.00000   0.00000
     44269 MEOH     2773     MEOH     H1A      HDA3B    0.080000        1.0080           0   0.00000   0.00000
     44270 MEOH     2773     MEOH     H1B      HDA3B    0.080000        1.0080           0   0.00000   0.00000
     44271 MEOH     2773     MEOH     H1C      HDA3B    0.080000        1.0080           0   0.00000   0.00000
     44272 MEOH     2773     MEOH     LP1A     LPD     -0.230000        0.0000           -1   0.00000   0.00000
     44273 MEOH     2773     MEOH     LP1B     LPD     -0.230000        0.0000           -1   0.00000   0.00000
     44274 MEOH     2774     MEOH     C1       CD33B    2.314100       11.6110           0   -1.00000   1.30000
     44275 MEOH     2774     MEOH     DC1      DRUD    -2.454100        0.4000           0   0.00000   0.00000
     44276 MEOH     2774     MEOH     O1       OD31H    2.488300       15.5990           0   -1.02800   1.30000
     44277 MEOH     2774     MEOH     DO1      DRUD    -2.488300        0.4000           0   0.00000   0.00000
     44278 MEOH     2774     MEOH     HO1      HDP1A    0.360000        1.0080           0   0.00000   0.00000
     44279 MEOH     2774     MEOH     HO2      DUMH     0.000000        1.0080           0   0.00000   0.00000
     44280 MEOH     2774     MEOH     H1A      HDA3B    0.080000        1.0080           0   0.00000   0.00000
     44281 MEOH     2774     MEOH     H1B      HDA3B    0.080000        1.0080           0   0.00000   0.00000
     44282 MEOH     2774     MEOH     H1C      HDA3B    0.080000        1.0080           0   0.00000   0.00000
     44283 MEOH     2774     MEOH     LP1A     LPD     -0.230000        0.0000           -1   0.00000   0.00000
     44284 MEOH     2774     MEOH     LP1B     LPD     -0.230000        0.0000           -1   0.00000   0.00000
     44285 MEOH     2775     MEOH     C1       CD33B    2.314100       11.6110           0   -1.00000   1.30000
     44286 MEOH     2775     MEOH     DC1      DRUD    -2.454100        0.4000           0   0.00000   0.00000
     44287 MEOH     2775     MEOH     O1       OD31H    2.488300       15.5990           0   -1.02800   1.30000
     44288 MEOH     2775     MEOH     DO1      DRUD    -2.488300        0.4000           0   0.00000   0.00000
     44289 MEOH     2775     MEOH     HO1      HDP1A    0.360000        1.0080           0   0.00000   0.00000
     44290 MEOH     2775     MEOH     HO2      DUMH     0.000000        1.0080           0   0.00000   0.00000
     44291 MEOH     2775     MEOH     H1A      HDA3B    0.080000        1.0080           0   0.00000   0.00000
     44292 MEOH     2775     MEOH     H1B      HDA3B    0.080000        1.0080           0   0.00000   0.00000
     44293 MEOH     2775     MEOH     H1C      HDA3B    0.080000        1.0080           0   0.00000   0.00000
     44294 MEOH     2775     MEOH     LP1A     LPD     -0.230000        0.0000           -1   0.00000   0.00000
     44295 MEOH     2775     MEOH     LP1B     LPD     -0.230000        0.0000           -1   0.00000   0.00000
     44296 MEOH     2776     MEOH     C1       CD33B    2.314100       11.6110           0   -1.00000   1.30000
     44297 MEOH     2776     MEOH     DC1      DRUD    -2.454100        0.4000           0   0.00000   0.00000
     44298 MEOH     2776     MEOH     O1       OD31H    2.488300       15.5990           0   -1.02800   1.30000
     44299 MEOH     2776     MEOH     DO1      DRUD    -2.488300        0.4000           0   0.00000   0.00000
     44300 MEOH     2776     MEOH     HO1      HDP1A    0.360000        1.0080           0   0.00000   0.00000
     44301 MEOH     2776     MEOH     HO2      DUMH     0.000000        1.0080           0   0.00000   0.00000
     44302 MEOH     2776     MEOH     H1A      HDA3B    0.080000        1.0080           0   0.00000   0.00000
     44303 MEOH     2776     MEOH     H1B      HDA3B    0.080000        1.0080           0   0.00000   0.00000
     44304 MEOH     2776     MEOH     H1C      HDA3B    0.080000        1.0080           0   0.00000   0.00000
     44305 MEOH     2776     MEOH     LP1A     LPD     -0.230000        0.0000           -1   0.00000   0.00000
     44306 MEOH     2776     MEOH     LP1B     LPD     -0.230000        0.0000           -1   0.00000   0.00000
     44307 MEOH     2777     MEOH     C1       CD33B    2.314100       11.6110           0   -1.00000   1.30000
     44308 MEOH     2777     MEOH     DC1      DRUD    -2.454100        0.4000           0   0.00000   0.00000
     44309 MEOH     2777     MEOH     O1       OD31H    2.488300       15.5990           0   -1.02800   1.30000
     44310 MEOH     2777     MEOH     DO1      DRUD    -2.488300        0.4000           0   0.00000   0.00000
     44311 MEOH     2777     MEOH     HO1      HDP1A    0.360000        1.0080           0   0.00000   0.00000
     44312 MEOH     2777     MEOH     HO2      DUMH     0.000000        1.0080           0   0.00000   0.00000
     44313 MEOH     2777     MEOH     H1A      HDA3B    0.080000        1.0080           0   0.00000   0.00000
     44314 MEOH     2777     MEOH     H1B      HDA3B    0.080000        1.0080           0   0.00000   0.00000
     44315 MEOH     2777     MEOH     H1C      HDA3B    0.080000        1.0080           0   0.00000   0.00000
     44316 MEOH     2777     MEOH     LP1A     LPD     -0.230000        0.0000           -1   0.00000   0.00000
     44317 MEOH     2777     MEOH     LP1B     LPD     -0.230000        0.0000           -1   0.00000   0.00000
     44318 MEOH     2778     MEOH     C1       CD33B    2.314100       11.6110           0   -1.00000   1.30000
     44319 MEOH     2778     MEOH     DC1      DRUD    -2.454100        0.4000           0   0.00000   0.00000
     44320 MEOH     2778     MEOH     O1       OD31H    2.488300       15.5990           0   -1.02800   1.30000
     44321 MEOH     2778     MEOH     DO1      DRUD    -2.488300        0.4000           0   0.00000   0.00000
     44322 MEOH     2778     MEOH     HO1      HDP1A    0.360000        1.0080           0   0.00000   0.00000
     44323 MEOH     2778     MEOH     HO2      DUMH     0.000000        1.0080           0   0.00000   0.00000
     44324 MEOH     2778     MEOH     H1A      HDA3B    0.080000        1.0080           0   0.00000   0.00000
     44325 MEOH     2778     MEOH     H1B      HDA3B    0.080000        1.0080           0   0.00000   0.00000
     44326 MEOH     2778     MEOH     H1C      HDA3B    0.080000        1.0080           0   0.00000   0.00000
     44327 MEOH     2778     MEOH     LP1A     LPD     -0.230000        0.0000           -1   0.00000   0.00000
     44328 MEOH     2778     MEOH     LP1B     LPD     -0.230000        0.0000           -1   0.00000   0.00000
     44329 MEOH     2779     MEOH     C1       CD33B    2.314100       11.6110           0   -1.00000   1.30000
     44330 MEOH     2779     MEOH     DC1      DRUD    -2.454100        0.4000           0   0.00000   0.00000
     44331 MEOH     2779     MEOH     O1       OD31H    2.488300       15.5990           0   -1.02800   1.30000
     44332 MEOH     2779     MEOH     DO1      DRUD    -2.488300        0.4000           0   0.00000   0.00000
     44333 MEOH     2779     MEOH     HO1      HDP1A    0.360000        1.0080           0   0.00000   0.00000
     44334 MEOH     2779     MEOH     HO2      DUMH     0.000000        1.0080           0   0.00000   0.00000
     44335 MEOH     2779     MEOH     H1A      HDA3B    0.080000        1.0080           0   0.00000   0.00000
     44336 MEOH     2779     MEOH     H1B      HDA3B    0.080000        1.0080           0   0.00000   0.00000
     44337 MEOH     2779     MEOH     H1C      HDA3B    0.080000        1.0080           0   0.00000   0.00000
     44338 MEOH     2779     MEOH     LP1A     LPD     -0.230000        0.0000           -1   0.00000   0.00000
     44339 MEOH     2779     MEOH     LP1B     LPD     -0.230000        0.0000           -1   0.00000   0.00000
     44340 MEOH     2780     MEOH     C1       CD33B    2.314100       11.6110           0   -1.00000   1.30000
     44341 MEOH     2780     MEOH     DC1      DRUD    -2.454100        0.4000           0   0.00000   0.00000
     44342 MEOH     2780     MEOH     O1       OD31H    2.488300       15.5990           0   -1.02800   1.30000
     44343 MEOH     2780     MEOH     DO1      DRUD    -2.488300        0.4000           0   0.00000   0.00000
     44344 MEOH     2780     MEOH     HO1      HDP1A    0.360000        1.0080           0   0.00000   0.00000
     44345 MEOH     2780     MEOH     HO2      DUMH     0.000000        1.0080           0   0.00000   0.00000
     44346 MEOH     2780     MEOH     H1A      HDA3B    0.080000        1.0080           0   0.00000   0.00000
     44347 MEOH     2780     MEOH     H1B      HDA3B    0.080000        1.0080           0   0.00000   0.00000
     44348 MEOH     2780     MEOH     H1C      HDA3B    0.080000        1.0080           0   0.00000   0.00000
     44349 MEOH     2780     MEOH     LP1A     LPD     -0.230000        0.0000           -1   0.00000   0.00000
     44350 MEOH     2780     MEOH     LP1B     LPD     -0.230000        0.0000           -1   0.00000   0.00000
     44351 MEOH     2781     MEOH     C1       CD33B    2.314100       11.6110           0   -1.00000   1.30000
     44352 MEOH     2781     MEOH     DC1      DRUD    -2.454100        0.4000           0   0.00000   0.00000
     44353 MEOH     2781     MEOH     O1       OD31H    2.488300       15.5990           0   -1.02800   1.30000
     44354 MEOH     2781     MEOH     DO1      DRUD    -2.488300        0.4000           0   0.00000   0.00000
     44355 MEOH     2781     MEOH     HO1      HDP1A    0.360000        1.0080           0   0.00000   0.00000
     44356 MEOH     2781     MEOH     HO2      DUMH     0.000000        1.0080           0   0.00000   0.00000
     44357 MEOH     2781     MEOH     H1A      HDA3B    0.080000        1.0080           0   0.00000   0.00000
     44358 MEOH     2781     MEOH     H1B      HDA3B    0.080000        1.0080           0   0.00000   0.00000
     44359 MEOH     2781     MEOH     H1C      HDA3B    0.080000        1.0080           0   0.00000   0.00000
     44360 MEOH     2781     MEOH     LP1A     LPD     -0.230000        0.0000           -1   0.00000   0.00000
     44361 MEOH     2781     MEOH     LP1B     LPD     -0.230000        0.0000           -1   0.00000   0.00000
     44362 MEOH     2782     MEOH     C1       CD33B    2.314100       11.6110           0   -1.00000   1.30000
     44363 MEOH     2782     MEOH     DC1      DRUD    -2.454100        0.4000           0   0.00000   0.00000
     44364 MEOH     2782     MEOH     O1       OD31H    2.488300       15.5990           0   -1.02800   1.30000
     44365 MEOH     2782     MEOH     DO1      DRUD    -2.488300        0.4000           0   0.00000   0.00000
     44366 MEOH     2782     MEOH     HO1      HDP1A    0.360000        1.0080           0   0.00000   0.00000
     44367 MEOH     2782     MEOH     HO2      DUMH     0.000000        1.0080           0   0.00000   0.00000
     44368 MEOH     2782     MEOH     H1A      HDA3B    0.080000        1.0080           0   0.00000   0.00000
     44369 MEOH     2782     MEOH     H1B      HDA3B    0.080000        1.0080           0   0.00000   0.00000
     44370 MEOH     2782     MEOH     H1C      HDA3B    0.080000        1.0080           0   0.00000   0.00000
     44371 MEOH     2782     MEOH     LP1A     LPD     -0.230000        0.0000           -1   0.00000   0.00000
     44372 MEOH     2782     MEOH     LP1B     LPD     -0.230000        0.0000           -1   0.00000   0.00000
     44373 MEOH     2783     MEOH     C1       CD33B    2.314100       11.6110           0   -1.00000   1.30000
     44374 MEOH     2783     MEOH     DC1      DRUD    -2.454100        0.4000           0   0.00000   0.00000
     44375 MEOH     2783     MEOH     O1       OD31H    2.488300       15.5990           0   -1.02800   1.30000
     44376 MEOH     2783     MEOH     DO1      DRUD    -2.488300        0.4000           0   0.00000   0.00000
     44377 MEOH     2783     MEOH     HO1      HDP1A    0.360000        1.0080           0   0.00000   0.00000
     44378 MEOH     2783     MEOH     HO2      DUMH     0.000000        1.0080           0   0.00000   0.00000
     44379 MEOH     2783     MEOH     H1A      HDA3B    0.080000        1.0080           0   0.00000   0.00000
     44380 MEOH     2783     MEOH     H1B      HDA3B    0.080000        1.0080           0   0.00000   0.00000
     44381 MEOH     2783     MEOH     H1C      HDA3B    0.080000        1.0080           0   0.00000   0.00000
     44382 MEOH     2783     MEOH     LP1A     LPD     -0.230000        0.0000           -1   0.00000   0.00000
     44383 MEOH     2783     MEOH     LP1B     LPD     -0.230000        0.0000           -1   0.00000   0.00000
     44384 MEOH     2784     MEOH     C1       CD33B    2.314100       11.6110           0   -1.00000   1.30000
     44385 MEOH     2784     MEOH     DC1      DRUD    -2.454100        0.4000           0   0.00000   0.00000
     44386 MEOH     2784     MEOH     O1       OD31H    2.488300       15.5990           0   -1.02800   1.30000
     44387 MEOH     2784     MEOH     DO1      DRUD    -2.488300        0.4000           0   0.00000   0.00000
     44388 MEOH     2784     MEOH     HO1      HDP1A    0.360000        1.0080           0   0.00000   0.00000
     44389 MEOH     2784     MEOH     HO2      DUMH     0.000000        1.0080           0   0.00000   0.00000
     44390 MEOH     2784     MEOH     H1A      HDA3B    0.080000        1.0080           0   0.00000   0.00000
     44391 MEOH     2784     MEOH     H1B      HDA3B    0.080000        1.0080           0   0.00000   0.00000
     44392 MEOH     2784     MEOH     H1C      HDA3B    0.080000        1.0080           0   0.00000   0.00000
     44393 MEOH     2784     MEOH     LP1A     LPD     -0.230000        0.0000           -1   0.00000   0.00000
     44394 MEOH     2784     MEOH     LP1B     LPD     -0.230000        0.0000           -1   0.00000   0.00000
     44395 MEOH     2785     MEOH     C1       CD33B    2.314100       11.6110           0   -1.00000   1.30000
     44396 MEOH     2785     MEOH     DC1      DRUD    -2.454100        0.4000           0   0.00000   0.00000
     44397 MEOH     2785     MEOH     O1       OD31H    2.488300       15.5990           0   -1.02800   1.30000
     44398 MEOH     2785     MEOH     DO1      DRUD    -2.488300        0.4000           0   0.00000   0.00000
     44399 MEOH     2785     MEOH     HO1      HDP1A    0.360000        1.0080           0   0.00000   0.00000
     44400 MEOH     2785     MEOH     HO2      DUMH     0.000000        1.0080           0   0.00000   0.00000
     44401 MEOH     2785     MEOH     H1A      HDA3B    0.080000        1.0080           0   0.00000   0.00000
     44402 MEOH     2785     MEOH     H1B      HDA3B    0.080000        1.0080           0   0.00000   0.00000
     44403 MEOH     2785     MEOH     H1C      HDA3B    0.080000        1.0080           0   0.00000   0.00000
     44404 MEOH     2785     MEOH     LP1A     LPD     -0.230000        0.0000           -1   0.00000   0.00000
     44405 MEOH     2785     MEOH     LP1B     LPD     -0.230000        0.0000           -1   0.00000   0.00000
     44406 MEOH     2786     MEOH     C1       CD33B    2.314100       11.6110           0   -1.00000   1.30000
     44407 MEOH     2786     MEOH     DC1      DRUD    -2.454100        0.4000           0   0.00000   0.00000
     44408 MEOH     2786     MEOH     O1       OD31H    2.488300       15.5990           0   -1.02800   1.30000
     44409 MEOH     2786     MEOH     DO1      DRUD    -2.488300        0.4000           0   0.00000   0.00000
     44410 MEOH     2786     MEOH     HO1      HDP1A    0.360000        1.0080           0   0.00000   0.00000
     44411 MEOH     2786     MEOH     HO2      DUMH     0.000000        1.0080           0   0.00000   0.00000
     44412 MEOH     2786     MEOH     H1A      HDA3B    0.080000        1.0080           0   0.00000   0.00000
     44413 MEOH     2786     MEOH     H1B      HDA3B    0.080000        1.0080           0   0.00000   0.00000
     44414 MEOH     2786     MEOH     H1C      HDA3B    0.080000        1.0080           0   0.00000   0.00000
     44415 MEOH     2786     MEOH     LP1A     LPD     -0.230000        0.0000           -1   0.00000   0.00000
     44416 MEOH     2786     MEOH     LP1B     LPD     -0.230000        0.0000           -1   0.00000   0.00000
     44417 MEOH     2787     MEOH     C1       CD33B    2.314100       11.6110           0   -1.00000   1.30000
     44418 MEOH     2787     MEOH     DC1      DRUD    -2.454100        0.4000           0   0.00000   0.00000
     44419 MEOH     2787     MEOH     O1       OD31H    2.488300       15.5990           0   -1.02800   1.30000
     44420 MEOH     2787     MEOH     DO1      DRUD    -2.488300        0.4000           0   0.00000   0.00000
     44421 MEOH     2787     MEOH     HO1      HDP1A    0.360000        1.0080           0   0.00000   0.00000
     44422 MEOH     2787     MEOH     HO2      DUMH     0.000000        1.0080           0   0.00000   0.00000
     44423 MEOH     2787     MEOH     H1A      HDA3B    0.080000        1.0080           0   0.00000   0.00000
     44424 MEOH     2787     MEOH     H1B      HDA3B    0.080000        1.0080           0   0.00000   0.00000
     44425 MEOH     2787     MEOH     H1C      HDA3B    0.080000        1.0080           0   0.00000   0.00000
     44426 MEOH     2787     MEOH     LP1A     LPD     -0.230000        0.0000           -1   0.00000   0.00000
     44427 MEOH     2787     MEOH     LP1B     LPD     -0.230000        0.0000           -1   0.00000   0.00000
     44428 MEOH     2788     MEOH     C1       CD33B    2.314100       11.6110           0   -1.00000   1.30000
     44429 MEOH     2788     MEOH     DC1      DRUD    -2.454100        0.4000           0   0.00000   0.00000
     44430 MEOH     2788     MEOH     O1       OD31H    2.488300       15.5990           0   -1.02800   1.30000
     44431 MEOH     2788     MEOH     DO1      DRUD    -2.488300        0.4000           0   0.00000   0.00000
     44432 MEOH     2788     MEOH     HO1      HDP1A    0.360000        1.0080           0   0.00000   0.00000
     44433 MEOH     2788     MEOH     HO2      DUMH     0.000000        1.0080           0   0.00000   0.00000
     44434 MEOH     2788     MEOH     H1A      HDA3B    0.080000        1.0080           0   0.00000   0.00000
     44435 MEOH     2788     MEOH     H1B      HDA3B    0.080000        1.0080           0   0.00000   0.00000
     44436 MEOH     2788     MEOH     H1C      HDA3B    0.080000        1.0080           0   0.00000   0.00000
     44437 MEOH     2788     MEOH     LP1A     LPD     -0.230000        0.0000           -1   0.00000   0.00000
     44438 MEOH     2788     MEOH     LP1B     LPD     -0.230000        0.0000           -1   0.00000   0.00000
     44439 MEOH     2789     MEOH     C1       CD33B    2.314100       11.6110           0   -1.00000   1.30000
     44440 MEOH     2789     MEOH     DC1      DRUD    -2.454100        0.4000           0   0.00000   0.00000
     44441 MEOH     2789     MEOH     O1       OD31H    2.488300       15.5990           0   -1.02800   1.30000
     44442 MEOH     2789     MEOH     DO1      DRUD    -2.488300        0.4000           0   0.00000   0.00000
     44443 MEOH     2789     MEOH     HO1      HDP1A    0.360000        1.0080           0   0.00000   0.00000
     44444 MEOH     2789     MEOH     HO2      DUMH     0.000000        1.0080           0   0.00000   0.00000
     44445 MEOH     2789     MEOH     H1A      HDA3B    0.080000        1.0080           0   0.00000   0.00000
     44446 MEOH     2789     MEOH     H1B      HDA3B    0.080000        1.0080           0   0.00000   0.00000
     44447 MEOH     2789     MEOH     H1C      HDA3B    0.080000        1.0080           0   0.00000   0.00000
     44448 MEOH     2789     MEOH     LP1A     LPD     -0.230000        0.0000           -1   0.00000   0.00000
     44449 MEOH     2789     MEOH     LP1B     LPD     -0.230000        0.0000           -1   0.00000   0.00000
     44450 MEOH     2790     MEOH     C1       CD33B    2.314100       11.6110           0   -1.00000   1.30000
     44451 MEOH     2790     MEOH     DC1      DRUD    -2.454100        0.4000           0   0.00000   0.00000
     44452 MEOH     2790     MEOH     O1       OD31H    2.488300       15.5990           0   -1.02800   1.30000
     44453 MEOH     2790     MEOH     DO1      DRUD    -2.488300        0.4000           0   0.00000   0.00000
     44454 MEOH     2790     MEOH     HO1      HDP1A    0.360000        1.0080           0   0.00000   0.00000
     44455 MEOH     2790     MEOH     HO2      DUMH     0.000000        1.0080           0   0.00000   0.00000
     44456 MEOH     2790     MEOH     H1A      HDA3B    0.080000        1.0080           0   0.00000   0.00000
     44457 MEOH     2790     MEOH     H1B      HDA3B    0.080000        1.0080           0   0.00000   0.00000
     44458 MEOH     2790     MEOH     H1C      HDA3B    0.080000        1.0080           0   0.00000   0.00000
     44459 MEOH     2790     MEOH     LP1A     LPD     -0.230000        0.0000           -1   0.00000   0.00000
     44460 MEOH     2790     MEOH     LP1B     LPD     -0.230000        0.0000           -1   0.00000   0.00000
     44461 MEOH     2791     MEOH     C1       CD33B    2.314100       11.6110           0   -1.00000   1.30000
     44462 MEOH     2791     MEOH     DC1      DRUD    -2.454100        0.4000           0   0.00000   0.00000
     44463 MEOH     2791     MEOH     O1       OD31H    2.488300       15.5990           0   -1.02800   1.30000
     44464 MEOH     2791     MEOH     DO1      DRUD    -2.488300        0.4000           0   0.00000   0.00000
     44465 MEOH     2791     MEOH     HO1      HDP1A    0.360000        1.0080           0   0.00000   0.00000
     44466 MEOH     2791     MEOH     HO2      DUMH     0.000000        1.0080           0   0.00000   0.00000
     44467 MEOH     2791     MEOH     H1A      HDA3B    0.080000        1.0080           0   0.00000   0.00000
     44468 MEOH     2791     MEOH     H1B      HDA3B    0.080000        1.0080           0   0.00000   0.00000
     44469 MEOH     2791     MEOH     H1C      HDA3B    0.080000        1.0080           0   0.00000   0.00000
     44470 MEOH     2791     MEOH     LP1A     LPD     -0.230000        0.0000           -1   0.00000   0.00000
     44471 MEOH     2791     MEOH     LP1B     LPD     -0.230000        0.0000           -1   0.00000   0.00000
     44472 MEOH     2792     MEOH     C1       CD33B    2.314100       11.6110           0   -1.00000   1.30000
     44473 MEOH     2792     MEOH     DC1      DRUD    -2.454100        0.4000           0   0.00000   0.00000
     44474 MEOH     2792     MEOH     O1       OD31H    2.488300       15.5990           0   -1.02800   1.30000
     44475 MEOH     2792     MEOH     DO1      DRUD    -2.488300        0.4000           0   0.00000   0.00000
     44476 MEOH     2792     MEOH     HO1      HDP1A    0.360000        1.0080           0   0.00000   0.00000
     44477 MEOH     2792     MEOH     HO2      DUMH     0.000000        1.0080           0   0.00000   0.00000
     44478 MEOH     2792     MEOH     H1A      HDA3B    0.080000        1.0080           0   0.00000   0.00000
     44479 MEOH     2792     MEOH     H1B      HDA3B    0.080000        1.0080           0   0.00000   0.00000
     44480 MEOH     2792     MEOH     H1C      HDA3B    0.080000        1.0080           0   0.00000   0.00000
     44481 MEOH     2792     MEOH     LP1A     LPD     -0.230000        0.0000           -1   0.00000   0.00000
     44482 MEOH     2792     MEOH     LP1B     LPD     -0.230000        0.0000           -1   0.00000   0.00000
     44483 MEOH     2793     MEOH     C1       CD33B    2.314100       11.6110           0   -1.00000   1.30000
     44484 MEOH     2793     MEOH     DC1      DRUD    -2.454100        0.4000           0   0.00000   0.00000
     44485 MEOH     2793     MEOH     O1       OD31H    2.488300       15.5990           0   -1.02800   1.30000
     44486 MEOH     2793     MEOH     DO1      DRUD    -2.488300        0.4000           0   0.00000   0.00000
     44487 MEOH     2793     MEOH     HO1      HDP1A    0.360000        1.0080           0   0.00000   0.00000
     44488 MEOH     2793     MEOH     HO2      DUMH     0.000000        1.0080           0   0.00000   0.00000
     44489 MEOH     2793     MEOH     H1A      HDA3B    0.080000        1.0080           0   0.00000   0.00000
     44490 MEOH     2793     MEOH     H1B      HDA3B    0.080000        1.0080           0   0.00000   0.00000
     44491 MEOH     2793     MEOH     H1C      HDA3B    0.080000        1.0080           0   0.00000   0.00000
     44492 MEOH     2793     MEOH     LP1A     LPD     -0.230000        0.0000           -1   0.00000   0.00000
     44493 MEOH     2793     MEOH     LP1B     LPD     -0.230000        0.0000           -1   0.00000   0.00000
     44494 MEOH     2794     MEOH     C1       CD33B    2.314100       11.6110           0   -1.00000   1.30000
     44495 MEOH     2794     MEOH     DC1      DRUD    -2.454100        0.4000           0   0.00000   0.00000
     44496 MEOH     2794     MEOH     O1       OD31H    2.488300       15.5990           0   -1.02800   1.30000
     44497 MEOH     2794     MEOH     DO1      DRUD    -2.488300        0.4000           0   0.00000   0.00000
     44498 MEOH     2794     MEOH     HO1      HDP1A    0.360000        1.0080           0   0.00000   0.00000
     44499 MEOH     2794     MEOH     HO2      DUMH     0.000000        1.0080           0   0.00000   0.00000
     44500 MEOH     2794     MEOH     H1A      HDA3B    0.080000        1.0080           0   0.00000   0.00000
     44501 MEOH     2794     MEOH     H1B      HDA3B    0.080000        1.0080           0   0.00000   0.00000
     44502 MEOH     2794     MEOH     H1C      HDA3B    0.080000        1.0080           0   0.00000   0.00000
     44503 MEOH     2794     MEOH     LP1A     LPD     -0.230000        0.0000           -1   0.00000   0.00000
     44504 MEOH     2794     MEOH     LP1B     LPD     -0.230000        0.0000           -1   0.00000   0.00000
     44505 MEOH     2795     MEOH     C1       CD33B    2.314100       11.6110           0   -1.00000   1.30000
     44506 MEOH     2795     MEOH     DC1      DRUD    -2.454100        0.4000           0   0.00000   0.00000
     44507 MEOH     2795     MEOH     O1       OD31H    2.488300       15.5990           0   -1.02800   1.30000
     44508 MEOH     2795     MEOH     DO1      DRUD    -2.488300        0.4000           0   0.00000   0.00000
     44509 MEOH     2795     MEOH     HO1      HDP1A    0.360000        1.0080           0   0.00000   0.00000
     44510 MEOH     2795     MEOH     HO2      DUMH     0.000000        1.0080           0   0.00000   0.00000
     44511 MEOH     2795     MEOH     H1A      HDA3B    0.080000        1.0080           0   0.00000   0.00000
     44512 MEOH     2795     MEOH     H1B      HDA3B    0.080000        1.0080           0   0.00000   0.00000
     44513 MEOH     2795     MEOH     H1C      HDA3B    0.080000        1.0080           0   0.00000   0.00000
     44514 MEOH     2795     MEOH     LP1A     LPD     -0.230000        0.0000           -1   0.00000   0.00000
     44515 MEOH     2795     MEOH     LP1B     LPD     -0.230000        0.0000           -1   0.00000   0.00000
     44516 MEOH     2796     MEOH     C1       CD33B    2.314100       11.6110           0   -1.00000   1.30000
     44517 MEOH     2796     MEOH     DC1      DRUD    -2.454100        0.4000           0   0.00000   0.00000
     44518 MEOH     2796     MEOH     O1       OD31H    2.488300       15.5990           0   -1.02800   1.30000
     44519 MEOH     2796     MEOH     DO1      DRUD    -2.488300        0.4000           0   0.00000   0.00000
     44520 MEOH     2796     MEOH     HO1      HDP1A    0.360000        1.0080           0   0.00000   0.00000
     44521 MEOH     2796     MEOH     HO2      DUMH     0.000000        1.0080           0   0.00000   0.00000
     44522 MEOH     2796     MEOH     H1A      HDA3B    0.080000        1.0080           0   0.00000   0.00000
     44523 MEOH     2796     MEOH     H1B      HDA3B    0.080000        1.0080           0   0.00000   0.00000
     44524 MEOH     2796     MEOH     H1C      HDA3B    0.080000        1.0080           0   0.00000   0.00000
     44525 MEOH     2796     MEOH     LP1A     LPD     -0.230000        0.0000           -1   0.00000   0.00000
     44526 MEOH     2796     MEOH     LP1B     LPD     -0.230000        0.0000           -1   0.00000   0.00000
     44527 MEOH     2797     MEOH     C1       CD33B    2.314100       11.6110           0   -1.00000   1.30000
     44528 MEOH     2797     MEOH     DC1      DRUD    -2.454100        0.4000           0   0.00000   0.00000
     44529 MEOH     2797     MEOH     O1       OD31H    2.488300       15.5990           0   -1.02800   1.30000
     44530 MEOH     2797     MEOH     DO1      DRUD    -2.488300        0.4000           0   0.00000   0.00000
     44531 MEOH     2797     MEOH     HO1      HDP1A    0.360000        1.0080           0   0.00000   0.00000
     44532 MEOH     2797     MEOH     HO2      DUMH     0.000000        1.0080           0   0.00000   0.00000
     44533 MEOH     2797     MEOH     H1A      HDA3B    0.080000        1.0080           0   0.00000   0.00000
     44534 MEOH     2797     MEOH     H1B      HDA3B    0.080000        1.0080           0   0.00000   0.00000
     44535 MEOH     2797     MEOH     H1C      HDA3B    0.080000        1.0080           0   0.00000   0.00000
     44536 MEOH     2797     MEOH     LP1A     LPD     -0.230000        0.0000           -1   0.00000   0.00000
     44537 MEOH     2797     MEOH     LP1B     LPD     -0.230000        0.0000           -1   0.00000   0.00000
     44538 MEOH     2798     MEOH     C1       CD33B    2.314100       11.6110           0   -1.00000   1.30000
     44539 MEOH     2798     MEOH     DC1      DRUD    -2.454100        0.4000           0   0.00000   0.00000
     44540 MEOH     2798     MEOH     O1       OD31H    2.488300       15.5990           0   -1.02800   1.30000
     44541 MEOH     2798     MEOH     DO1      DRUD    -2.488300        0.4000           0   0.00000   0.00000
     44542 MEOH     2798     MEOH     HO1      HDP1A    0.360000        1.0080           0   0.00000   0.00000
     44543 MEOH     2798     MEOH     HO2      DUMH     0.000000        1.0080           0   0.00000   0.00000
     44544 MEOH     2798     MEOH     H1A      HDA3B    0.080000        1.0080           0   0.00000   0.00000
     44545 MEOH     2798     MEOH     H1B      HDA3B    0.080000        1.0080           0   0.00000   0.00000
     44546 MEOH     2798     MEOH     H1C      HDA3B    0.080000        1.0080           0   0.00000   0.00000
     44547 MEOH     2798     MEOH     LP1A     LPD     -0.230000        0.0000           -1   0.00000   0.00000
     44548 MEOH     2798     MEOH     LP1B     LPD     -0.230000        0.0000           -1   0.00000   0.00000
     44549 MEOH     2799     MEOH     C1       CD33B    2.314100       11.6110           0   -1.00000   1.30000
     44550 MEOH     2799     MEOH     DC1      DRUD    -2.454100        0.4000           0   0.00000   0.00000
     44551 MEOH     2799     MEOH     O1       OD31H    2.488300       15.5990           0   -1.02800   1.30000
     44552 MEOH     2799     MEOH     DO1      DRUD    -2.488300        0.4000           0   0.00000   0.00000
     44553 MEOH     2799     MEOH     HO1      HDP1A    0.360000        1.0080           0   0.00000   0.00000
     44554 MEOH     2799     MEOH     HO2      DUMH     0.000000        1.0080           0   0.00000   0.00000
     44555 MEOH     2799     MEOH     H1A      HDA3B    0.080000        1.0080           0   0.00000   0.00000
     44556 MEOH     2799     MEOH     H1B      HDA3B    0.080000        1.0080           0   0.00000   0.00000
     44557 MEOH     2799     MEOH     H1C      HDA3B    0.080000        1.0080           0   0.00000   0.00000
     44558 MEOH     2799     MEOH     LP1A     LPD     -0.230000        0.0000           -1   0.00000   0.00000
     44559 MEOH     2799     MEOH     LP1B     LPD     -0.230000        0.0000           -1   0.00000   0.00000
     44560 MEOH     2800     MEOH     C1       CD33B    2.314100       11.6110           0   -1.00000   1.30000
     44561 MEOH     2800     MEOH     DC1      DRUD    -2.454100        0.4000           0   0.00000   0.00000
     44562 MEOH     2800     MEOH     O1       OD31H    2.488300       15.5990           0   -1.02800   1.30000
     44563 MEOH     2800     MEOH     DO1      DRUD    -2.488300        0.4000           0   0.00000   0.00000
     44564 MEOH     2800     MEOH     HO1      HDP1A    0.360000        1.0080           0   0.00000   0.00000
     44565 MEOH     2800     MEOH     HO2      DUMH     0.000000        1.0080           0   0.00000   0.00000
     44566 MEOH     2800     MEOH     H1A      HDA3B    0.080000        1.0080           0   0.00000   0.00000
     44567 MEOH     2800     MEOH     H1B      HDA3B    0.080000        1.0080           0   0.00000   0.00000
     44568 MEOH     2800     MEOH     H1C      HDA3B    0.080000        1.0080           0   0.00000   0.00000
     44569 MEOH     2800     MEOH     LP1A     LPD     -0.230000        0.0000           -1   0.00000   0.00000
     44570 MEOH     2800     MEOH     LP1B     LPD     -0.230000        0.0000           -1   0.00000   0.00000
     44571 MEOH     2801     MEOH     C1       CD33B    2.314100       11.6110           0   -1.00000   1.30000
     44572 MEOH     2801     MEOH     DC1      DRUD    -2.454100        0.4000           0   0.00000   0.00000
     44573 MEOH     2801     MEOH     O1       OD31H    2.488300       15.5990           0   -1.02800   1.30000
     44574 MEOH     2801     MEOH     DO1      DRUD    -2.488300        0.4000           0   0.00000   0.00000
     44575 MEOH     2801     MEOH     HO1      HDP1A    0.360000        1.0080           0   0.00000   0.00000
     44576 MEOH     2801     MEOH     HO2      DUMH     0.000000        1.0080           0   0.00000   0.00000
     44577 MEOH     2801     MEOH     H1A      HDA3B    0.080000        1.0080           0   0.00000   0.00000
     44578 MEOH     2801     MEOH     H1B      HDA3B    0.080000        1.0080           0   0.00000   0.00000
     44579 MEOH     2801     MEOH     H1C      HDA3B    0.080000        1.0080           0   0.00000   0.00000
     44580 MEOH     2801     MEOH     LP1A     LPD     -0.230000        0.0000           -1   0.00000   0.00000
     44581 MEOH     2801     MEOH     LP1B     LPD     -0.230000        0.0000           -1   0.00000   0.00000
     44582 MEOH     2802     MEOH     C1       CD33B    2.314100       11.6110           0   -1.00000   1.30000
     44583 MEOH     2802     MEOH     DC1      DRUD    -2.454100        0.4000           0   0.00000   0.00000
     44584 MEOH     2802     MEOH     O1       OD31H    2.488300       15.5990           0   -1.02800   1.30000
     44585 MEOH     2802     MEOH     DO1      DRUD    -2.488300        0.4000           0   0.00000   0.00000
     44586 MEOH     2802     MEOH     HO1      HDP1A    0.360000        1.0080           0   0.00000   0.00000
     44587 MEOH     2802     MEOH     HO2      DUMH     0.000000        1.0080           0   0.00000   0.00000
     44588 MEOH     2802     MEOH     H1A      HDA3B    0.080000        1.0080           0   0.00000   0.00000
     44589 MEOH     2802     MEOH     H1B      HDA3B    0.080000        1.0080           0   0.00000   0.00000
     44590 MEOH     2802     MEOH     H1C      HDA3B    0.080000        1.0080           0   0.00000   0.00000
     44591 MEOH     2802     MEOH     LP1A     LPD     -0.230000        0.0000           -1   0.00000   0.00000
     44592 MEOH     2802     MEOH     LP1B     LPD     -0.230000        0.0000           -1   0.00000   0.00000
     44593 MEOH     2803     MEOH     C1       CD33B    2.314100       11.6110           0   -1.00000   1.30000
     44594 MEOH     2803     MEOH     DC1      DRUD    -2.454100        0.4000           0   0.00000   0.00000
     44595 MEOH     2803     MEOH     O1       OD31H    2.488300       15.5990           0   -1.02800   1.30000
     44596 MEOH     2803     MEOH     DO1      DRUD    -2.488300        0.4000           0   0.00000   0.00000
     44597 MEOH     2803     MEOH     HO1      HDP1A    0.360000        1.0080           0   0.00000   0.00000
     44598 MEOH     2803     MEOH     HO2      DUMH     0.000000        1.0080           0   0.00000   0.00000
     44599 MEOH     2803     MEOH     H1A      HDA3B    0.080000        1.0080           0   0.00000   0.00000
     44600 MEOH     2803     MEOH     H1B      HDA3B    0.080000        1.0080           0   0.00000   0.00000
     44601 MEOH     2803     MEOH     H1C      HDA3B    0.080000        1.0080           0   0.00000   0.00000
     44602 MEOH     2803     MEOH     LP1A     LPD     -0.230000        0.0000           -1   0.00000   0.00000
     44603 MEOH     2803     MEOH     LP1B     LPD     -0.230000        0.0000           -1   0.00000   0.00000
     44604 MEOH     2804     MEOH     C1       CD33B    2.314100       11.6110           0   -1.00000   1.30000
     44605 MEOH     2804     MEOH     DC1      DRUD    -2.454100        0.4000           0   0.00000   0.00000
     44606 MEOH     2804     MEOH     O1       OD31H    2.488300       15.5990           0   -1.02800   1.30000
     44607 MEOH     2804     MEOH     DO1      DRUD    -2.488300        0.4000           0   0.00000   0.00000
     44608 MEOH     2804     MEOH     HO1      HDP1A    0.360000        1.0080           0   0.00000   0.00000
     44609 MEOH     2804     MEOH     HO2      DUMH     0.000000        1.0080           0   0.00000   0.00000
     44610 MEOH     2804     MEOH     H1A      HDA3B    0.080000        1.0080           0   0.00000   0.00000
     44611 MEOH     2804     MEOH     H1B      HDA3B    0.080000        1.0080           0   0.00000   0.00000
     44612 MEOH     2804     MEOH     H1C      HDA3B    0.080000        1.0080           0   0.00000   0.00000
     44613 MEOH     2804     MEOH     LP1A     LPD     -0.230000        0.0000           -1   0.00000   0.00000
     44614 MEOH     2804     MEOH     LP1B     LPD     -0.230000        0.0000           -1   0.00000   0.00000
     44615 MEOH     2805     MEOH     C1       CD33B    2.314100       11.6110           0   -1.00000   1.30000
     44616 MEOH     2805     MEOH     DC1      DRUD    -2.454100        0.4000           0   0.00000   0.00000
     44617 MEOH     2805     MEOH     O1       OD31H    2.488300       15.5990           0   -1.02800   1.30000
     44618 MEOH     2805     MEOH     DO1      DRUD    -2.488300        0.4000           0   0.00000   0.00000
     44619 MEOH     2805     MEOH     HO1      HDP1A    0.360000        1.0080           0   0.00000   0.00000
     44620 MEOH     2805     MEOH     HO2      DUMH     0.000000        1.0080           0   0.00000   0.00000
     44621 MEOH     2805     MEOH     H1A      HDA3B    0.080000        1.0080           0   0.00000   0.00000
     44622 MEOH     2805     MEOH     H1B      HDA3B    0.080000        1.0080           0   0.00000   0.00000
     44623 MEOH     2805     MEOH     H1C      HDA3B    0.080000        1.0080           0   0.00000   0.00000
     44624 MEOH     2805     MEOH     LP1A     LPD     -0.230000        0.0000           -1   0.00000   0.00000
     44625 MEOH     2805     MEOH     LP1B     LPD     -0.230000        0.0000           -1   0.00000   0.00000
     44626 MEOH     2806     MEOH     C1       CD33B    2.314100       11.6110           0   -1.00000   1.30000
     44627 MEOH     2806     MEOH     DC1      DRUD    -2.454100        0.4000           0   0.00000   0.00000
     44628 MEOH     2806     MEOH     O1       OD31H    2.488300       15.5990           0   -1.02800   1.30000
     44629 MEOH     2806     MEOH     DO1      DRUD    -2.488300        0.4000           0   0.00000   0.00000
     44630 MEOH     2806     MEOH     HO1      HDP1A    0.360000        1.0080           0   0.00000   0.00000
     44631 MEOH     2806     MEOH     HO2      DUMH     0.000000        1.0080           0   0.00000   0.00000
     44632 MEOH     2806     MEOH     H1A      HDA3B    0.080000        1.0080           0   0.00000   0.00000
     44633 MEOH     2806     MEOH     H1B      HDA3B    0.080000        1.0080           0   0.00000   0.00000
     44634 MEOH     2806     MEOH     H1C      HDA3B    0.080000        1.0080           0   0.00000   0.00000
     44635 MEOH     2806     MEOH     LP1A     LPD     -0.230000        0.0000           -1   0.00000   0.00000
     44636 MEOH     2806     MEOH     LP1B     LPD     -0.230000        0.0000           -1   0.00000   0.00000
     44637 MEOH     2807     MEOH     C1       CD33B    2.314100       11.6110           0   -1.00000   1.30000
     44638 MEOH     2807     MEOH     DC1      DRUD    -2.454100        0.4000           0   0.00000   0.00000
     44639 MEOH     2807     MEOH     O1       OD31H    2.488300       15.5990           0   -1.02800   1.30000
     44640 MEOH     2807     MEOH     DO1      DRUD    -2.488300        0.4000           0   0.00000   0.00000
     44641 MEOH     2807     MEOH     HO1      HDP1A    0.360000        1.0080           0   0.00000   0.00000
     44642 MEOH     2807     MEOH     HO2      DUMH     0.000000        1.0080           0   0.00000   0.00000
     44643 MEOH     2807     MEOH     H1A      HDA3B    0.080000        1.0080           0   0.00000   0.00000
     44644 MEOH     2807     MEOH     H1B      HDA3B    0.080000        1.0080           0   0.00000   0.00000
     44645 MEOH     2807     MEOH     H1C      HDA3B    0.080000        1.0080           0   0.00000   0.00000
     44646 MEOH     2807     MEOH     LP1A     LPD     -0.230000        0.0000           -1   0.00000   0.00000
     44647 MEOH     2807     MEOH     LP1B     LPD     -0.230000        0.0000           -1   0.00000   0.00000
     44648 MEOH     2808     MEOH     C1       CD33B    2.314100       11.6110           0   -1.00000   1.30000
     44649 MEOH     2808     MEOH     DC1      DRUD    -2.454100        0.4000           0   0.00000   0.00000
     44650 MEOH     2808     MEOH     O1       OD31H    2.488300       15.5990           0   -1.02800   1.30000
     44651 MEOH     2808     MEOH     DO1      DRUD    -2.488300        0.4000           0   0.00000   0.00000
     44652 MEOH     2808     MEOH     HO1      HDP1A    0.360000        1.0080           0   0.00000   0.00000
     44653 MEOH     2808     MEOH     HO2      DUMH     0.000000        1.0080           0   0.00000   0.00000
     44654 MEOH     2808     MEOH     H1A      HDA3B    0.080000        1.0080           0   0.00000   0.00000
     44655 MEOH     2808     MEOH     H1B      HDA3B    0.080000        1.0080           0   0.00000   0.00000
     44656 MEOH     2808     MEOH     H1C      HDA3B    0.080000        1.0080           0   0.00000   0.00000
     44657 MEOH     2808     MEOH     LP1A     LPD     -0.230000        0.0000           -1   0.00000   0.00000
     44658 MEOH     2808     MEOH     LP1B     LPD     -0.230000        0.0000           -1   0.00000   0.00000
     44659 MEOH     2809     MEOH     C1       CD33B    2.314100       11.6110           0   -1.00000   1.30000
     44660 MEOH     2809     MEOH     DC1      DRUD    -2.454100        0.4000           0   0.00000   0.00000
     44661 MEOH     2809     MEOH     O1       OD31H    2.488300       15.5990           0   -1.02800   1.30000
     44662 MEOH     2809     MEOH     DO1      DRUD    -2.488300        0.4000           0   0.00000   0.00000
     44663 MEOH     2809     MEOH     HO1      HDP1A    0.360000        1.0080           0   0.00000   0.00000
     44664 MEOH     2809     MEOH     HO2      DUMH     0.000000        1.0080           0   0.00000   0.00000
     44665 MEOH     2809     MEOH     H1A      HDA3B    0.080000        1.0080           0   0.00000   0.00000
     44666 MEOH     2809     MEOH     H1B      HDA3B    0.080000        1.0080           0   0.00000   0.00000
     44667 MEOH     2809     MEOH     H1C      HDA3B    0.080000        1.0080           0   0.00000   0.00000
     44668 MEOH     2809     MEOH     LP1A     LPD     -0.230000        0.0000           -1   0.00000   0.00000
     44669 MEOH     2809     MEOH     LP1B     LPD     -0.230000        0.0000           -1   0.00000   0.00000
     44670 MEOH     2810     MEOH     C1       CD33B    2.314100       11.6110           0   -1.00000   1.30000
     44671 MEOH     2810     MEOH     DC1      DRUD    -2.454100        0.4000           0   0.00000   0.00000
     44672 MEOH     2810     MEOH     O1       OD31H    2.488300       15.5990           0   -1.02800   1.30000
     44673 MEOH     2810     MEOH     DO1      DRUD    -2.488300        0.4000           0   0.00000   0.00000
     44674 MEOH     2810     MEOH     HO1      HDP1A    0.360000        1.0080           0   0.00000   0.00000
     44675 MEOH     2810     MEOH     HO2      DUMH     0.000000        1.0080           0   0.00000   0.00000
     44676 MEOH     2810     MEOH     H1A      HDA3B    0.080000        1.0080           0   0.00000   0.00000
     44677 MEOH     2810     MEOH     H1B      HDA3B    0.080000        1.0080           0   0.00000   0.00000
     44678 MEOH     2810     MEOH     H1C      HDA3B    0.080000        1.0080           0   0.00000   0.00000
     44679 MEOH     2810     MEOH     LP1A     LPD     -0.230000        0.0000           -1   0.00000   0.00000
     44680 MEOH     2810     MEOH     LP1B     LPD     -0.230000        0.0000           -1   0.00000   0.00000
     44681 MEOH     2811     MEOH     C1       CD33B    2.314100       11.6110           0   -1.00000   1.30000
     44682 MEOH     2811     MEOH     DC1      DRUD    -2.454100        0.4000           0   0.00000   0.00000
     44683 MEOH     2811     MEOH     O1       OD31H    2.488300       15.5990           0   -1.02800   1.30000
     44684 MEOH     2811     MEOH     DO1      DRUD    -2.488300        0.4000           0   0.00000   0.00000
     44685 MEOH     2811     MEOH     HO1      HDP1A    0.360000        1.0080           0   0.00000   0.00000
     44686 MEOH     2811     MEOH     HO2      DUMH     0.000000        1.0080           0   0.00000   0.00000
     44687 MEOH     2811     MEOH     H1A      HDA3B    0.080000        1.0080           0   0.00000   0.00000
     44688 MEOH     2811     MEOH     H1B      HDA3B    0.080000        1.0080           0   0.00000   0.00000
     44689 MEOH     2811     MEOH     H1C      HDA3B    0.080000        1.0080           0   0.00000   0.00000
     44690 MEOH     2811     MEOH     LP1A     LPD     -0.230000        0.0000           -1   0.00000   0.00000
     44691 MEOH     2811     MEOH     LP1B     LPD     -0.230000        0.0000           -1   0.00000   0.00000
     44692 MEOH     2812     MEOH     C1       CD33B    2.314100       11.6110           0   -1.00000   1.30000
     44693 MEOH     2812     MEOH     DC1      DRUD    -2.454100        0.4000           0   0.00000   0.00000
     44694 MEOH     2812     MEOH     O1       OD31H    2.488300       15.5990           0   -1.02800   1.30000
     44695 MEOH     2812     MEOH     DO1      DRUD    -2.488300        0.4000           0   0.00000   0.00000
     44696 MEOH     2812     MEOH     HO1      HDP1A    0.360000        1.0080           0   0.00000   0.00000
     44697 MEOH     2812     MEOH     HO2      DUMH     0.000000        1.0080           0   0.00000   0.00000
     44698 MEOH     2812     MEOH     H1A      HDA3B    0.080000        1.0080           0   0.00000   0.00000
     44699 MEOH     2812     MEOH     H1B      HDA3B    0.080000        1.0080           0   0.00000   0.00000
     44700 MEOH     2812     MEOH     H1C      HDA3B    0.080000        1.0080           0   0.00000   0.00000
     44701 MEOH     2812     MEOH     LP1A     LPD     -0.230000        0.0000           -1   0.00000   0.00000
     44702 MEOH     2812     MEOH     LP1B     LPD     -0.230000        0.0000           -1   0.00000   0.00000
     44703 MEOH     2813     MEOH     C1       CD33B    2.314100       11.6110           0   -1.00000   1.30000
     44704 MEOH     2813     MEOH     DC1      DRUD    -2.454100        0.4000           0   0.00000   0.00000
     44705 MEOH     2813     MEOH     O1       OD31H    2.488300       15.5990           0   -1.02800   1.30000
     44706 MEOH     2813     MEOH     DO1      DRUD    -2.488300        0.4000           0   0.00000   0.00000
     44707 MEOH     2813     MEOH     HO1      HDP1A    0.360000        1.0080           0   0.00000   0.00000
     44708 MEOH     2813     MEOH     HO2      DUMH     0.000000        1.0080           0   0.00000   0.00000
     44709 MEOH     2813     MEOH     H1A      HDA3B    0.080000        1.0080           0   0.00000   0.00000
     44710 MEOH     2813     MEOH     H1B      HDA3B    0.080000        1.0080           0   0.00000   0.00000
     44711 MEOH     2813     MEOH     H1C      HDA3B    0.080000        1.0080           0   0.00000   0.00000
     44712 MEOH     2813     MEOH     LP1A     LPD     -0.230000        0.0000           -1   0.00000   0.00000
     44713 MEOH     2813     MEOH     LP1B     LPD     -0.230000        0.0000           -1   0.00000   0.00000
     44714 MEOH     2814     MEOH     C1       CD33B    2.314100       11.6110           0   -1.00000   1.30000
     44715 MEOH     2814     MEOH     DC1      DRUD    -2.454100        0.4000           0   0.00000   0.00000
     44716 MEOH     2814     MEOH     O1       OD31H    2.488300       15.5990           0   -1.02800   1.30000
     44717 MEOH     2814     MEOH     DO1      DRUD    -2.488300        0.4000           0   0.00000   0.00000
     44718 MEOH     2814     MEOH     HO1      HDP1A    0.360000        1.0080           0   0.00000   0.00000
     44719 MEOH     2814     MEOH     HO2      DUMH     0.000000        1.0080           0   0.00000   0.00000
     44720 MEOH     2814     MEOH     H1A      HDA3B    0.080000        1.0080           0   0.00000   0.00000
     44721 MEOH     2814     MEOH     H1B      HDA3B    0.080000        1.0080           0   0.00000   0.00000
     44722 MEOH     2814     MEOH     H1C      HDA3B    0.080000        1.0080           0   0.00000   0.00000
     44723 MEOH     2814     MEOH     LP1A     LPD     -0.230000        0.0000           -1   0.00000   0.00000
     44724 MEOH     2814     MEOH     LP1B     LPD     -0.230000        0.0000           -1   0.00000   0.00000
     44725 MEOH     2815     MEOH     C1       CD33B    2.314100       11.6110           0   -1.00000   1.30000
     44726 MEOH     2815     MEOH     DC1      DRUD    -2.454100        0.4000           0   0.00000   0.00000
     44727 MEOH     2815     MEOH     O1       OD31H    2.488300       15.5990           0   -1.02800   1.30000
     44728 MEOH     2815     MEOH     DO1      DRUD    -2.488300        0.4000           0   0.00000   0.00000
     44729 MEOH     2815     MEOH     HO1      HDP1A    0.360000        1.0080           0   0.00000   0.00000
     44730 MEOH     2815     MEOH     HO2      DUMH     0.000000        1.0080           0   0.00000   0.00000
     44731 MEOH     2815     MEOH     H1A      HDA3B    0.080000        1.0080           0   0.00000   0.00000
     44732 MEOH     2815     MEOH     H1B      HDA3B    0.080000        1.0080           0   0.00000   0.00000
     44733 MEOH     2815     MEOH     H1C      HDA3B    0.080000        1.0080           0   0.00000   0.00000
     44734 MEOH     2815     MEOH     LP1A     LPD     -0.230000        0.0000           -1   0.00000   0.00000
     44735 MEOH     2815     MEOH     LP1B     LPD     -0.230000        0.0000           -1   0.00000   0.00000
     44736 MEOH     2816     MEOH     C1       CD33B    2.314100       11.6110           0   -1.00000   1.30000
     44737 MEOH     2816     MEOH     DC1      DRUD    -2.454100        0.4000           0   0.00000   0.00000
     44738 MEOH     2816     MEOH     O1       OD31H    2.488300       15.5990           0   -1.02800   1.30000
     44739 MEOH     2816     MEOH     DO1      DRUD    -2.488300        0.4000           0   0.00000   0.00000
     44740 MEOH     2816     MEOH     HO1      HDP1A    0.360000        1.0080           0   0.00000   0.00000
     44741 MEOH     2816     MEOH     HO2      DUMH     0.000000        1.0080           0   0.00000   0.00000
     44742 MEOH     2816     MEOH     H1A      HDA3B    0.080000        1.0080           0   0.00000   0.00000
     44743 MEOH     2816     MEOH     H1B      HDA3B    0.080000        1.0080           0   0.00000   0.00000
     44744 MEOH     2816     MEOH     H1C      HDA3B    0.080000        1.0080           0   0.00000   0.00000
     44745 MEOH     2816     MEOH     LP1A     LPD     -0.230000        0.0000           -1   0.00000   0.00000
     44746 MEOH     2816     MEOH     LP1B     LPD     -0.230000        0.0000           -1   0.00000   0.00000
     44747 MEOH     2817     MEOH     C1       CD33B    2.314100       11.6110           0   -1.00000   1.30000
     44748 MEOH     2817     MEOH     DC1      DRUD    -2.454100        0.4000           0   0.00000   0.00000
     44749 MEOH     2817     MEOH     O1       OD31H    2.488300       15.5990           0   -1.02800   1.30000
     44750 MEOH     2817     MEOH     DO1      DRUD    -2.488300        0.4000           0   0.00000   0.00000
     44751 MEOH     2817     MEOH     HO1      HDP1A    0.360000        1.0080           0   0.00000   0.00000
     44752 MEOH     2817     MEOH     HO2      DUMH     0.000000        1.0080           0   0.00000   0.00000
     44753 MEOH     2817     MEOH     H1A      HDA3B    0.080000        1.0080           0   0.00000   0.00000
     44754 MEOH     2817     MEOH     H1B      HDA3B    0.080000        1.0080           0   0.00000   0.00000
     44755 MEOH     2817     MEOH     H1C      HDA3B    0.080000        1.0080           0   0.00000   0.00000
     44756 MEOH     2817     MEOH     LP1A     LPD     -0.230000        0.0000           -1   0.00000   0.00000
     44757 MEOH     2817     MEOH     LP1B     LPD     -0.230000        0.0000           -1   0.00000   0.00000
     44758 MEOH     2818     MEOH     C1       CD33B    2.314100       11.6110           0   -1.00000   1.30000
     44759 MEOH     2818     MEOH     DC1      DRUD    -2.454100        0.4000           0   0.00000   0.00000
     44760 MEOH     2818     MEOH     O1       OD31H    2.488300       15.5990           0   -1.02800   1.30000
     44761 MEOH     2818     MEOH     DO1      DRUD    -2.488300        0.4000           0   0.00000   0.00000
     44762 MEOH     2818     MEOH     HO1      HDP1A    0.360000        1.0080           0   0.00000   0.00000
     44763 MEOH     2818     MEOH     HO2      DUMH     0.000000        1.0080           0   0.00000   0.00000
     44764 MEOH     2818     MEOH     H1A      HDA3B    0.080000        1.0080           0   0.00000   0.00000
     44765 MEOH     2818     MEOH     H1B      HDA3B    0.080000        1.0080           0   0.00000   0.00000
     44766 MEOH     2818     MEOH     H1C      HDA3B    0.080000        1.0080           0   0.00000   0.00000
     44767 MEOH     2818     MEOH     LP1A     LPD     -0.230000        0.0000           -1   0.00000   0.00000
     44768 MEOH     2818     MEOH     LP1B     LPD     -0.230000        0.0000           -1   0.00000   0.00000
     44769 MEOH     2819     MEOH     C1       CD33B    2.314100       11.6110           0   -1.00000   1.30000
     44770 MEOH     2819     MEOH     DC1      DRUD    -2.454100        0.4000           0   0.00000   0.00000
     44771 MEOH     2819     MEOH     O1       OD31H    2.488300       15.5990           0   -1.02800   1.30000
     44772 MEOH     2819     MEOH     DO1      DRUD    -2.488300        0.4000           0   0.00000   0.00000
     44773 MEOH     2819     MEOH     HO1      HDP1A    0.360000        1.0080           0   0.00000   0.00000
     44774 MEOH     2819     MEOH     HO2      DUMH     0.000000        1.0080           0   0.00000   0.00000
     44775 MEOH     2819     MEOH     H1A      HDA3B    0.080000        1.0080           0   0.00000   0.00000
     44776 MEOH     2819     MEOH     H1B      HDA3B    0.080000        1.0080           0   0.00000   0.00000
     44777 MEOH     2819     MEOH     H1C      HDA3B    0.080000        1.0080           0   0.00000   0.00000
     44778 MEOH     2819     MEOH     LP1A     LPD     -0.230000        0.0000           -1   0.00000   0.00000
     44779 MEOH     2819     MEOH     LP1B     LPD     -0.230000        0.0000           -1   0.00000   0.00000
     44780 MEOH     2820     MEOH     C1       CD33B    2.314100       11.6110           0   -1.00000   1.30000
     44781 MEOH     2820     MEOH     DC1      DRUD    -2.454100        0.4000           0   0.00000   0.00000
     44782 MEOH     2820     MEOH     O1       OD31H    2.488300       15.5990           0   -1.02800   1.30000
     44783 MEOH     2820     MEOH     DO1      DRUD    -2.488300        0.4000           0   0.00000   0.00000
     44784 MEOH     2820     MEOH     HO1      HDP1A    0.360000        1.0080           0   0.00000   0.00000
     44785 MEOH     2820     MEOH     HO2      DUMH     0.000000        1.0080           0   0.00000   0.00000
     44786 MEOH     2820     MEOH     H1A      HDA3B    0.080000        1.0080           0   0.00000   0.00000
     44787 MEOH     2820     MEOH     H1B      HDA3B    0.080000        1.0080           0   0.00000   0.00000
     44788 MEOH     2820     MEOH     H1C      HDA3B    0.080000        1.0080           0   0.00000   0.00000
     44789 MEOH     2820     MEOH     LP1A     LPD     -0.230000        0.0000           -1   0.00000   0.00000
     44790 MEOH     2820     MEOH     LP1B     LPD     -0.230000        0.0000           -1   0.00000   0.00000
     44791 MEOH     2821     MEOH     C1       CD33B    2.314100       11.6110           0   -1.00000   1.30000
     44792 MEOH     2821     MEOH     DC1      DRUD    -2.454100        0.4000           0   0.00000   0.00000
     44793 MEOH     2821     MEOH     O1       OD31H    2.488300       15.5990           0   -1.02800   1.30000
     44794 MEOH     2821     MEOH     DO1      DRUD    -2.488300        0.4000           0   0.00000   0.00000
     44795 MEOH     2821     MEOH     HO1      HDP1A    0.360000        1.0080           0   0.00000   0.00000
     44796 MEOH     2821     MEOH     HO2      DUMH     0.000000        1.0080           0   0.00000   0.00000
     44797 MEOH     2821     MEOH     H1A      HDA3B    0.080000        1.0080           0   0.00000   0.00000
     44798 MEOH     2821     MEOH     H1B      HDA3B    0.080000        1.0080           0   0.00000   0.00000
     44799 MEOH     2821     MEOH     H1C      HDA3B    0.080000        1.0080           0   0.00000   0.00000
     44800 MEOH     2821     MEOH     LP1A     LPD     -0.230000        0.0000           -1   0.00000   0.00000
     44801 MEOH     2821     MEOH     LP1B     LPD     -0.230000        0.0000           -1   0.00000   0.00000
     44802 MEOH     2822     MEOH     C1       CD33B    2.314100       11.6110           0   -1.00000   1.30000
     44803 MEOH     2822     MEOH     DC1      DRUD    -2.454100        0.4000           0   0.00000   0.00000
     44804 MEOH     2822     MEOH     O1       OD31H    2.488300       15.5990           0   -1.02800   1.30000
     44805 MEOH     2822     MEOH     DO1      DRUD    -2.488300        0.4000           0   0.00000   0.00000
     44806 MEOH     2822     MEOH     HO1      HDP1A    0.360000        1.0080           0   0.00000   0.00000
     44807 MEOH     2822     MEOH     HO2      DUMH     0.000000        1.0080           0   0.00000   0.00000
     44808 MEOH     2822     MEOH     H1A      HDA3B    0.080000        1.0080           0   0.00000   0.00000
     44809 MEOH     2822     MEOH     H1B      HDA3B    0.080000        1.0080           0   0.00000   0.00000
     44810 MEOH     2822     MEOH     H1C      HDA3B    0.080000        1.0080           0   0.00000   0.00000
     44811 MEOH     2822     MEOH     LP1A     LPD     -0.230000        0.0000           -1   0.00000   0.00000
     44812 MEOH     2822     MEOH     LP1B     LPD     -0.230000        0.0000           -1   0.00000   0.00000
     44813 MEOH     2823     MEOH     C1       CD33B    2.314100       11.6110           0   -1.00000   1.30000
     44814 MEOH     2823     MEOH     DC1      DRUD    -2.454100        0.4000           0   0.00000   0.00000
     44815 MEOH     2823     MEOH     O1       OD31H    2.488300       15.5990           0   -1.02800   1.30000
     44816 MEOH     2823     MEOH     DO1      DRUD    -2.488300        0.4000           0   0.00000   0.00000
     44817 MEOH     2823     MEOH     HO1      HDP1A    0.360000        1.0080           0   0.00000   0.00000
     44818 MEOH     2823     MEOH     HO2      DUMH     0.000000        1.0080           0   0.00000   0.00000
     44819 MEOH     2823     MEOH     H1A      HDA3B    0.080000        1.0080           0   0.00000   0.00000
     44820 MEOH     2823     MEOH     H1B      HDA3B    0.080000        1.0080           0   0.00000   0.00000
     44821 MEOH     2823     MEOH     H1C      HDA3B    0.080000        1.0080           0   0.00000   0.00000
     44822 MEOH     2823     MEOH     LP1A     LPD     -0.230000        0.0000           -1   0.00000   0.00000
     44823 MEOH     2823     MEOH     LP1B     LPD     -0.230000        0.0000           -1   0.00000   0.00000
     44824 MEOH     2824     MEOH     C1       CD33B    2.314100       11.6110           0   -1.00000   1.30000
     44825 MEOH     2824     MEOH     DC1      DRUD    -2.454100        0.4000           0   0.00000   0.00000
     44826 MEOH     2824     MEOH     O1       OD31H    2.488300       15.5990           0   -1.02800   1.30000
     44827 MEOH     2824     MEOH     DO1      DRUD    -2.488300        0.4000           0   0.00000   0.00000
     44828 MEOH     2824     MEOH     HO1      HDP1A    0.360000        1.0080           0   0.00000   0.00000
     44829 MEOH     2824     MEOH     HO2      DUMH     0.000000        1.0080           0   0.00000   0.00000
     44830 MEOH     2824     MEOH     H1A      HDA3B    0.080000        1.0080           0   0.00000   0.00000
     44831 MEOH     2824     MEOH     H1B      HDA3B    0.080000        1.0080           0   0.00000   0.00000
     44832 MEOH     2824     MEOH     H1C      HDA3B    0.080000        1.0080           0   0.00000   0.00000
     44833 MEOH     2824     MEOH     LP1A     LPD     -0.230000        0.0000           -1   0.00000   0.00000
     44834 MEOH     2824     MEOH     LP1B     LPD     -0.230000        0.0000           -1   0.00000   0.00000
     44835 MEOH     2825     MEOH     C1       CD33B    2.314100       11.6110           0   -1.00000   1.30000
     44836 MEOH     2825     MEOH     DC1      DRUD    -2.454100        0.4000           0   0.00000   0.00000
     44837 MEOH     2825     MEOH     O1       OD31H    2.488300       15.5990           0   -1.02800   1.30000
     44838 MEOH     2825     MEOH     DO1      DRUD    -2.488300        0.4000           0   0.00000   0.00000
     44839 MEOH     2825     MEOH     HO1      HDP1A    0.360000        1.0080           0   0.00000   0.00000
     44840 MEOH     2825     MEOH     HO2      DUMH     0.000000        1.0080           0   0.00000   0.00000
     44841 MEOH     2825     MEOH     H1A      HDA3B    0.080000        1.0080           0   0.00000   0.00000
     44842 MEOH     2825     MEOH     H1B      HDA3B    0.080000        1.0080           0   0.00000   0.00000
     44843 MEOH     2825     MEOH     H1C      HDA3B    0.080000        1.0080           0   0.00000   0.00000
     44844 MEOH     2825     MEOH     LP1A     LPD     -0.230000        0.0000           -1   0.00000   0.00000
     44845 MEOH     2825     MEOH     LP1B     LPD     -0.230000        0.0000           -1   0.00000   0.00000
     44846 MEOH     2826     MEOH     C1       CD33B    2.314100       11.6110           0   -1.00000   1.30000
     44847 MEOH     2826     MEOH     DC1      DRUD    -2.454100        0.4000           0   0.00000   0.00000
     44848 MEOH     2826     MEOH     O1       OD31H    2.488300       15.5990           0   -1.02800   1.30000
     44849 MEOH     2826     MEOH     DO1      DRUD    -2.488300        0.4000           0   0.00000   0.00000
     44850 MEOH     2826     MEOH     HO1      HDP1A    0.360000        1.0080           0   0.00000   0.00000
     44851 MEOH     2826     MEOH     HO2      DUMH     0.000000        1.0080           0   0.00000   0.00000
     44852 MEOH     2826     MEOH     H1A      HDA3B    0.080000        1.0080           0   0.00000   0.00000
     44853 MEOH     2826     MEOH     H1B      HDA3B    0.080000        1.0080           0   0.00000   0.00000
     44854 MEOH     2826     MEOH     H1C      HDA3B    0.080000        1.0080           0   0.00000   0.00000
     44855 MEOH     2826     MEOH     LP1A     LPD     -0.230000        0.0000           -1   0.00000   0.00000
     44856 MEOH     2826     MEOH     LP1B     LPD     -0.230000        0.0000           -1   0.00000   0.00000
     44857 MEOH     2827     MEOH     C1       CD33B    2.314100       11.6110           0   -1.00000   1.30000
     44858 MEOH     2827     MEOH     DC1      DRUD    -2.454100        0.4000           0   0.00000   0.00000
     44859 MEOH     2827     MEOH     O1       OD31H    2.488300       15.5990           0   -1.02800   1.30000
     44860 MEOH     2827     MEOH     DO1      DRUD    -2.488300        0.4000           0   0.00000   0.00000
     44861 MEOH     2827     MEOH     HO1      HDP1A    0.360000        1.0080           0   0.00000   0.00000
     44862 MEOH     2827     MEOH     HO2      DUMH     0.000000        1.0080           0   0.00000   0.00000
     44863 MEOH     2827     MEOH     H1A      HDA3B    0.080000        1.0080           0   0.00000   0.00000
     44864 MEOH     2827     MEOH     H1B      HDA3B    0.080000        1.0080           0   0.00000   0.00000
     44865 MEOH     2827     MEOH     H1C      HDA3B    0.080000        1.0080           0   0.00000   0.00000
     44866 MEOH     2827     MEOH     LP1A     LPD     -0.230000        0.0000           -1   0.00000   0.00000
     44867 MEOH     2827     MEOH     LP1B     LPD     -0.230000        0.0000           -1   0.00000   0.00000
     44868 MEOH     2828     MEOH     C1       CD33B    2.314100       11.6110           0   -1.00000   1.30000
     44869 MEOH     2828     MEOH     DC1      DRUD    -2.454100        0.4000           0   0.00000   0.00000
     44870 MEOH     2828     MEOH     O1       OD31H    2.488300       15.5990           0   -1.02800   1.30000
     44871 MEOH     2828     MEOH     DO1      DRUD    -2.488300        0.4000           0   0.00000   0.00000
     44872 MEOH     2828     MEOH     HO1      HDP1A    0.360000        1.0080           0   0.00000   0.00000
     44873 MEOH     2828     MEOH     HO2      DUMH     0.000000        1.0080           0   0.00000   0.00000
     44874 MEOH     2828     MEOH     H1A      HDA3B    0.080000        1.0080           0   0.00000   0.00000
     44875 MEOH     2828     MEOH     H1B      HDA3B    0.080000        1.0080           0   0.00000   0.00000
     44876 MEOH     2828     MEOH     H1C      HDA3B    0.080000        1.0080           0   0.00000   0.00000
     44877 MEOH     2828     MEOH     LP1A     LPD     -0.230000        0.0000           -1   0.00000   0.00000
     44878 MEOH     2828     MEOH     LP1B     LPD     -0.230000        0.0000           -1   0.00000   0.00000
     44879 MEOH     2829     MEOH     C1       CD33B    2.314100       11.6110           0   -1.00000   1.30000
     44880 MEOH     2829     MEOH     DC1      DRUD    -2.454100        0.4000           0   0.00000   0.00000
     44881 MEOH     2829     MEOH     O1       OD31H    2.488300       15.5990           0   -1.02800   1.30000
     44882 MEOH     2829     MEOH     DO1      DRUD    -2.488300        0.4000           0   0.00000   0.00000
     44883 MEOH     2829     MEOH     HO1      HDP1A    0.360000        1.0080           0   0.00000   0.00000
     44884 MEOH     2829     MEOH     HO2      DUMH     0.000000        1.0080           0   0.00000   0.00000
     44885 MEOH     2829     MEOH     H1A      HDA3B    0.080000        1.0080           0   0.00000   0.00000
     44886 MEOH     2829     MEOH     H1B      HDA3B    0.080000        1.0080           0   0.00000   0.00000
     44887 MEOH     2829     MEOH     H1C      HDA3B    0.080000        1.0080           0   0.00000   0.00000
     44888 MEOH     2829     MEOH     LP1A     LPD     -0.230000        0.0000           -1   0.00000   0.00000
     44889 MEOH     2829     MEOH     LP1B     LPD     -0.230000        0.0000           -1   0.00000   0.00000
     44890 MEOH     2830     MEOH     C1       CD33B    2.314100       11.6110           0   -1.00000   1.30000
     44891 MEOH     2830     MEOH     DC1      DRUD    -2.454100        0.4000           0   0.00000   0.00000
     44892 MEOH     2830     MEOH     O1       OD31H    2.488300       15.5990           0   -1.02800   1.30000
     44893 MEOH     2830     MEOH     DO1      DRUD    -2.488300        0.4000           0   0.00000   0.00000
     44894 MEOH     2830     MEOH     HO1      HDP1A    0.360000        1.0080           0   0.00000   0.00000
     44895 MEOH     2830     MEOH     HO2      DUMH     0.000000        1.0080           0   0.00000   0.00000
     44896 MEOH     2830     MEOH     H1A      HDA3B    0.080000        1.0080           0   0.00000   0.00000
     44897 MEOH     2830     MEOH     H1B      HDA3B    0.080000        1.0080           0   0.00000   0.00000
     44898 MEOH     2830     MEOH     H1C      HDA3B    0.080000        1.0080           0   0.00000   0.00000
     44899 MEOH     2830     MEOH     LP1A     LPD     -0.230000        0.0000           -1   0.00000   0.00000
     44900 MEOH     2830     MEOH     LP1B     LPD     -0.230000        0.0000           -1   0.00000   0.00000
     44901 MEOH     2831     MEOH     C1       CD33B    2.314100       11.6110           0   -1.00000   1.30000
     44902 MEOH     2831     MEOH     DC1      DRUD    -2.454100        0.4000           0   0.00000   0.00000
     44903 MEOH     2831     MEOH     O1       OD31H    2.488300       15.5990           0   -1.02800   1.30000
     44904 MEOH     2831     MEOH     DO1      DRUD    -2.488300        0.4000           0   0.00000   0.00000
     44905 MEOH     2831     MEOH     HO1      HDP1A    0.360000        1.0080           0   0.00000   0.00000
     44906 MEOH     2831     MEOH     HO2      DUMH     0.000000        1.0080           0   0.00000   0.00000
     44907 MEOH     2831     MEOH     H1A      HDA3B    0.080000        1.0080           0   0.00000   0.00000
     44908 MEOH     2831     MEOH     H1B      HDA3B    0.080000        1.0080           0   0.00000   0.00000
     44909 MEOH     2831     MEOH     H1C      HDA3B    0.080000        1.0080           0   0.00000   0.00000
     44910 MEOH     2831     MEOH     LP1A     LPD     -0.230000        0.0000           -1   0.00000   0.00000
     44911 MEOH     2831     MEOH     LP1B     LPD     -0.230000        0.0000           -1   0.00000   0.00000
     44912 MEOH     2832     MEOH     C1       CD33B    2.314100       11.6110           0   -1.00000   1.30000
     44913 MEOH     2832     MEOH     DC1      DRUD    -2.454100        0.4000           0   0.00000   0.00000
     44914 MEOH     2832     MEOH     O1       OD31H    2.488300       15.5990           0   -1.02800   1.30000
     44915 MEOH     2832     MEOH     DO1      DRUD    -2.488300        0.4000           0   0.00000   0.00000
     44916 MEOH     2832     MEOH     HO1      HDP1A    0.360000        1.0080           0   0.00000   0.00000
     44917 MEOH     2832     MEOH     HO2      DUMH     0.000000        1.0080           0   0.00000   0.00000
     44918 MEOH     2832     MEOH     H1A      HDA3B    0.080000        1.0080           0   0.00000   0.00000
     44919 MEOH     2832     MEOH     H1B      HDA3B    0.080000        1.0080           0   0.00000   0.00000
     44920 MEOH     2832     MEOH     H1C      HDA3B    0.080000        1.0080           0   0.00000   0.00000
     44921 MEOH     2832     MEOH     LP1A     LPD     -0.230000        0.0000           -1   0.00000   0.00000
     44922 MEOH     2832     MEOH     LP1B     LPD     -0.230000        0.0000           -1   0.00000   0.00000
     44923 MEOH     2833     MEOH     C1       CD33B    2.314100       11.6110           0   -1.00000   1.30000
     44924 MEOH     2833     MEOH     DC1      DRUD    -2.454100        0.4000           0   0.00000   0.00000
     44925 MEOH     2833     MEOH     O1       OD31H    2.488300       15.5990           0   -1.02800   1.30000
     44926 MEOH     2833     MEOH     DO1      DRUD    -2.488300        0.4000           0   0.00000   0.00000
     44927 MEOH     2833     MEOH     HO1      HDP1A    0.360000        1.0080           0   0.00000   0.00000
     44928 MEOH     2833     MEOH     HO2      DUMH     0.000000        1.0080           0   0.00000   0.00000
     44929 MEOH     2833     MEOH     H1A      HDA3B    0.080000        1.0080           0   0.00000   0.00000
     44930 MEOH     2833     MEOH     H1B      HDA3B    0.080000        1.0080           0   0.00000   0.00000
     44931 MEOH     2833     MEOH     H1C      HDA3B    0.080000        1.0080           0   0.00000   0.00000
     44932 MEOH     2833     MEOH     LP1A     LPD     -0.230000        0.0000           -1   0.00000   0.00000
     44933 MEOH     2833     MEOH     LP1B     LPD     -0.230000        0.0000           -1   0.00000   0.00000
     44934 MEOH     2834     MEOH     C1       CD33B    2.314100       11.6110           0   -1.00000   1.30000
     44935 MEOH     2834     MEOH     DC1      DRUD    -2.454100        0.4000           0   0.00000   0.00000
     44936 MEOH     2834     MEOH     O1       OD31H    2.488300       15.5990           0   -1.02800   1.30000
     44937 MEOH     2834     MEOH     DO1      DRUD    -2.488300        0.4000           0   0.00000   0.00000
     44938 MEOH     2834     MEOH     HO1      HDP1A    0.360000        1.0080           0   0.00000   0.00000
     44939 MEOH     2834     MEOH     HO2      DUMH     0.000000        1.0080           0   0.00000   0.00000
     44940 MEOH     2834     MEOH     H1A      HDA3B    0.080000        1.0080           0   0.00000   0.00000
     44941 MEOH     2834     MEOH     H1B      HDA3B    0.080000        1.0080           0   0.00000   0.00000
     44942 MEOH     2834     MEOH     H1C      HDA3B    0.080000        1.0080           0   0.00000   0.00000
     44943 MEOH     2834     MEOH     LP1A     LPD     -0.230000        0.0000           -1   0.00000   0.00000
     44944 MEOH     2834     MEOH     LP1B     LPD     -0.230000        0.0000           -1   0.00000   0.00000
     44945 MEOH     2835     MEOH     C1       CD33B    2.314100       11.6110           0   -1.00000   1.30000
     44946 MEOH     2835     MEOH     DC1      DRUD    -2.454100        0.4000           0   0.00000   0.00000
     44947 MEOH     2835     MEOH     O1       OD31H    2.488300       15.5990           0   -1.02800   1.30000
     44948 MEOH     2835     MEOH     DO1      DRUD    -2.488300        0.4000           0   0.00000   0.00000
     44949 MEOH     2835     MEOH     HO1      HDP1A    0.360000        1.0080           0   0.00000   0.00000
     44950 MEOH     2835     MEOH     HO2      DUMH     0.000000        1.0080           0   0.00000   0.00000
     44951 MEOH     2835     MEOH     H1A      HDA3B    0.080000        1.0080           0   0.00000   0.00000
     44952 MEOH     2835     MEOH     H1B      HDA3B    0.080000        1.0080           0   0.00000   0.00000
     44953 MEOH     2835     MEOH     H1C      HDA3B    0.080000        1.0080           0   0.00000   0.00000
     44954 MEOH     2835     MEOH     LP1A     LPD     -0.230000        0.0000           -1   0.00000   0.00000
     44955 MEOH     2835     MEOH     LP1B     LPD     -0.230000        0.0000           -1   0.00000   0.00000
     44956 MEOH     2836     MEOH     C1       CD33B    2.314100       11.6110           0   -1.00000   1.30000
     44957 MEOH     2836     MEOH     DC1      DRUD    -2.454100        0.4000           0   0.00000   0.00000
     44958 MEOH     2836     MEOH     O1       OD31H    2.488300       15.5990           0   -1.02800   1.30000
     44959 MEOH     2836     MEOH     DO1      DRUD    -2.488300        0.4000           0   0.00000   0.00000
     44960 MEOH     2836     MEOH     HO1      HDP1A    0.360000        1.0080           0   0.00000   0.00000
     44961 MEOH     2836     MEOH     HO2      DUMH     0.000000        1.0080           0   0.00000   0.00000
     44962 MEOH     2836     MEOH     H1A      HDA3B    0.080000        1.0080           0   0.00000   0.00000
     44963 MEOH     2836     MEOH     H1B      HDA3B    0.080000        1.0080           0   0.00000   0.00000
     44964 MEOH     2836     MEOH     H1C      HDA3B    0.080000        1.0080           0   0.00000   0.00000
     44965 MEOH     2836     MEOH     LP1A     LPD     -0.230000        0.0000           -1   0.00000   0.00000
     44966 MEOH     2836     MEOH     LP1B     LPD     -0.230000        0.0000           -1   0.00000   0.00000
     44967 MEOH     2837     MEOH     C1       CD33B    2.314100       11.6110           0   -1.00000   1.30000
     44968 MEOH     2837     MEOH     DC1      DRUD    -2.454100        0.4000           0   0.00000   0.00000
     44969 MEOH     2837     MEOH     O1       OD31H    2.488300       15.5990           0   -1.02800   1.30000
     44970 MEOH     2837     MEOH     DO1      DRUD    -2.488300        0.4000           0   0.00000   0.00000
     44971 MEOH     2837     MEOH     HO1      HDP1A    0.360000        1.0080           0   0.00000   0.00000
     44972 MEOH     2837     MEOH     HO2      DUMH     0.000000        1.0080           0   0.00000   0.00000
     44973 MEOH     2837     MEOH     H1A      HDA3B    0.080000        1.0080           0   0.00000   0.00000
     44974 MEOH     2837     MEOH     H1B      HDA3B    0.080000        1.0080           0   0.00000   0.00000
     44975 MEOH     2837     MEOH     H1C      HDA3B    0.080000        1.0080           0   0.00000   0.00000
     44976 MEOH     2837     MEOH     LP1A     LPD     -0.230000        0.0000           -1   0.00000   0.00000
     44977 MEOH     2837     MEOH     LP1B     LPD     -0.230000        0.0000           -1   0.00000   0.00000
     44978 MEOH     2838     MEOH     C1       CD33B    2.314100       11.6110           0   -1.00000   1.30000
     44979 MEOH     2838     MEOH     DC1      DRUD    -2.454100        0.4000           0   0.00000   0.00000
     44980 MEOH     2838     MEOH     O1       OD31H    2.488300       15.5990           0   -1.02800   1.30000
     44981 MEOH     2838     MEOH     DO1      DRUD    -2.488300        0.4000           0   0.00000   0.00000
     44982 MEOH     2838     MEOH     HO1      HDP1A    0.360000        1.0080           0   0.00000   0.00000
     44983 MEOH     2838     MEOH     HO2      DUMH     0.000000        1.0080           0   0.00000   0.00000
     44984 MEOH     2838     MEOH     H1A      HDA3B    0.080000        1.0080           0   0.00000   0.00000
     44985 MEOH     2838     MEOH     H1B      HDA3B    0.080000        1.0080           0   0.00000   0.00000
     44986 MEOH     2838     MEOH     H1C      HDA3B    0.080000        1.0080           0   0.00000   0.00000
     44987 MEOH     2838     MEOH     LP1A     LPD     -0.230000        0.0000           -1   0.00000   0.00000
     44988 MEOH     2838     MEOH     LP1B     LPD     -0.230000        0.0000           -1   0.00000   0.00000
     44989 MEOH     2839     MEOH     C1       CD33B    2.314100       11.6110           0   -1.00000   1.30000
     44990 MEOH     2839     MEOH     DC1      DRUD    -2.454100        0.4000           0   0.00000   0.00000
     44991 MEOH     2839     MEOH     O1       OD31H    2.488300       15.5990           0   -1.02800   1.30000
     44992 MEOH     2839     MEOH     DO1      DRUD    -2.488300        0.4000           0   0.00000   0.00000
     44993 MEOH     2839     MEOH     HO1      HDP1A    0.360000        1.0080           0   0.00000   0.00000
     44994 MEOH     2839     MEOH     HO2      DUMH     0.000000        1.0080           0   0.00000   0.00000
     44995 MEOH     2839     MEOH     H1A      HDA3B    0.080000        1.0080           0   0.00000   0.00000
     44996 MEOH     2839     MEOH     H1B      HDA3B    0.080000        1.0080           0   0.00000   0.00000
     44997 MEOH     2839     MEOH     H1C      HDA3B    0.080000        1.0080           0   0.00000   0.00000
     44998 MEOH     2839     MEOH     LP1A     LPD     -0.230000        0.0000           -1   0.00000   0.00000
     44999 MEOH     2839     MEOH     LP1B     LPD     -0.230000        0.0000           -1   0.00000   0.00000
     45000 MEOH     2840     MEOH     C1       CD33B    2.314100       11.6110           0   -1.00000   1.30000
     45001 MEOH     2840     MEOH     DC1      DRUD    -2.454100        0.4000           0   0.00000   0.00000
     45002 MEOH     2840     MEOH     O1       OD31H    2.488300       15.5990           0   -1.02800   1.30000
     45003 MEOH     2840     MEOH     DO1      DRUD    -2.488300        0.4000           0   0.00000   0.00000
     45004 MEOH     2840     MEOH     HO1      HDP1A    0.360000        1.0080           0   0.00000   0.00000
     45005 MEOH     2840     MEOH     HO2      DUMH     0.000000        1.0080           0   0.00000   0.00000
     45006 MEOH     2840     MEOH     H1A      HDA3B    0.080000        1.0080           0   0.00000   0.00000
     45007 MEOH     2840     MEOH     H1B      HDA3B    0.080000        1.0080           0   0.00000   0.00000
     45008 MEOH     2840     MEOH     H1C      HDA3B    0.080000        1.0080           0   0.00000   0.00000
     45009 MEOH     2840     MEOH     LP1A     LPD     -0.230000        0.0000           -1   0.00000   0.00000
     45010 MEOH     2840     MEOH     LP1B     LPD     -0.230000        0.0000           -1   0.00000   0.00000
     45011 MEOH     2841     MEOH     C1       CD33B    2.314100       11.6110           0   -1.00000   1.30000
     45012 MEOH     2841     MEOH     DC1      DRUD    -2.454100        0.4000           0   0.00000   0.00000
     45013 MEOH     2841     MEOH     O1       OD31H    2.488300       15.5990           0   -1.02800   1.30000
     45014 MEOH     2841     MEOH     DO1      DRUD    -2.488300        0.4000           0   0.00000   0.00000
     45015 MEOH     2841     MEOH     HO1      HDP1A    0.360000        1.0080           0   0.00000   0.00000
     45016 MEOH     2841     MEOH     HO2      DUMH     0.000000        1.0080           0   0.00000   0.00000
     45017 MEOH     2841     MEOH     H1A      HDA3B    0.080000        1.0080           0   0.00000   0.00000
     45018 MEOH     2841     MEOH     H1B      HDA3B    0.080000        1.0080           0   0.00000   0.00000
     45019 MEOH     2841     MEOH     H1C      HDA3B    0.080000        1.0080           0   0.00000   0.00000
     45020 MEOH     2841     MEOH     LP1A     LPD     -0.230000        0.0000           -1   0.00000   0.00000
     45021 MEOH     2841     MEOH     LP1B     LPD     -0.230000        0.0000           -1   0.00000   0.00000
     45022 MEOH     2842     MEOH     C1       CD33B    2.314100       11.6110           0   -1.00000   1.30000
     45023 MEOH     2842     MEOH     DC1      DRUD    -2.454100        0.4000           0   0.00000   0.00000
     45024 MEOH     2842     MEOH     O1       OD31H    2.488300       15.5990           0   -1.02800   1.30000
     45025 MEOH     2842     MEOH     DO1      DRUD    -2.488300        0.4000           0   0.00000   0.00000
     45026 MEOH     2842     MEOH     HO1      HDP1A    0.360000        1.0080           0   0.00000   0.00000
     45027 MEOH     2842     MEOH     HO2      DUMH     0.000000        1.0080           0   0.00000   0.00000
     45028 MEOH     2842     MEOH     H1A      HDA3B    0.080000        1.0080           0   0.00000   0.00000
     45029 MEOH     2842     MEOH     H1B      HDA3B    0.080000        1.0080           0   0.00000   0.00000
     45030 MEOH     2842     MEOH     H1C      HDA3B    0.080000        1.0080           0   0.00000   0.00000
     45031 MEOH     2842     MEOH     LP1A     LPD     -0.230000        0.0000           -1   0.00000   0.00000
     45032 MEOH     2842     MEOH     LP1B     LPD     -0.230000        0.0000           -1   0.00000   0.00000
     45033 MEOH     2843     MEOH     C1       CD33B    2.314100       11.6110           0   -1.00000   1.30000
     45034 MEOH     2843     MEOH     DC1      DRUD    -2.454100        0.4000           0   0.00000   0.00000
     45035 MEOH     2843     MEOH     O1       OD31H    2.488300       15.5990           0   -1.02800   1.30000
     45036 MEOH     2843     MEOH     DO1      DRUD    -2.488300        0.4000           0   0.00000   0.00000
     45037 MEOH     2843     MEOH     HO1      HDP1A    0.360000        1.0080           0   0.00000   0.00000
     45038 MEOH     2843     MEOH     HO2      DUMH     0.000000        1.0080           0   0.00000   0.00000
     45039 MEOH     2843     MEOH     H1A      HDA3B    0.080000        1.0080           0   0.00000   0.00000
     45040 MEOH     2843     MEOH     H1B      HDA3B    0.080000        1.0080           0   0.00000   0.00000
     45041 MEOH     2843     MEOH     H1C      HDA3B    0.080000        1.0080           0   0.00000   0.00000
     45042 MEOH     2843     MEOH     LP1A     LPD     -0.230000        0.0000           -1   0.00000   0.00000
     45043 MEOH     2843     MEOH     LP1B     LPD     -0.230000        0.0000           -1   0.00000   0.00000
     45044 MEOH     2844     MEOH     C1       CD33B    2.314100       11.6110           0   -1.00000   1.30000
     45045 MEOH     2844     MEOH     DC1      DRUD    -2.454100        0.4000           0   0.00000   0.00000
     45046 MEOH     2844     MEOH     O1       OD31H    2.488300       15.5990           0   -1.02800   1.30000
     45047 MEOH     2844     MEOH     DO1      DRUD    -2.488300        0.4000           0   0.00000   0.00000
     45048 MEOH     2844     MEOH     HO1      HDP1A    0.360000        1.0080           0   0.00000   0.00000
     45049 MEOH     2844     MEOH     HO2      DUMH     0.000000        1.0080           0   0.00000   0.00000
     45050 MEOH     2844     MEOH     H1A      HDA3B    0.080000        1.0080           0   0.00000   0.00000
     45051 MEOH     2844     MEOH     H1B      HDA3B    0.080000        1.0080           0   0.00000   0.00000
     45052 MEOH     2844     MEOH     H1C      HDA3B    0.080000        1.0080           0   0.00000   0.00000
     45053 MEOH     2844     MEOH     LP1A     LPD     -0.230000        0.0000           -1   0.00000   0.00000
     45054 MEOH     2844     MEOH     LP1B     LPD     -0.230000        0.0000           -1   0.00000   0.00000
     45055 MEOH     2845     MEOH     C1       CD33B    2.314100       11.6110           0   -1.00000   1.30000
     45056 MEOH     2845     MEOH     DC1      DRUD    -2.454100        0.4000           0   0.00000   0.00000
     45057 MEOH     2845     MEOH     O1       OD31H    2.488300       15.5990           0   -1.02800   1.30000
     45058 MEOH     2845     MEOH     DO1      DRUD    -2.488300        0.4000           0   0.00000   0.00000
     45059 MEOH     2845     MEOH     HO1      HDP1A    0.360000        1.0080           0   0.00000   0.00000
     45060 MEOH     2845     MEOH     HO2      DUMH     0.000000        1.0080           0   0.00000   0.00000
     45061 MEOH     2845     MEOH     H1A      HDA3B    0.080000        1.0080           0   0.00000   0.00000
     45062 MEOH     2845     MEOH     H1B      HDA3B    0.080000        1.0080           0   0.00000   0.00000
     45063 MEOH     2845     MEOH     H1C      HDA3B    0.080000        1.0080           0   0.00000   0.00000
     45064 MEOH     2845     MEOH     LP1A     LPD     -0.230000        0.0000           -1   0.00000   0.00000
     45065 MEOH     2845     MEOH     LP1B     LPD     -0.230000        0.0000           -1   0.00000   0.00000
     45066 MEOH     2846     MEOH     C1       CD33B    2.314100       11.6110           0   -1.00000   1.30000
     45067 MEOH     2846     MEOH     DC1      DRUD    -2.454100        0.4000           0   0.00000   0.00000
     45068 MEOH     2846     MEOH     O1       OD31H    2.488300       15.5990           0   -1.02800   1.30000
     45069 MEOH     2846     MEOH     DO1      DRUD    -2.488300        0.4000           0   0.00000   0.00000
     45070 MEOH     2846     MEOH     HO1      HDP1A    0.360000        1.0080           0   0.00000   0.00000
     45071 MEOH     2846     MEOH     HO2      DUMH     0.000000        1.0080           0   0.00000   0.00000
     45072 MEOH     2846     MEOH     H1A      HDA3B    0.080000        1.0080           0   0.00000   0.00000
     45073 MEOH     2846     MEOH     H1B      HDA3B    0.080000        1.0080           0   0.00000   0.00000
     45074 MEOH     2846     MEOH     H1C      HDA3B    0.080000        1.0080           0   0.00000   0.00000
     45075 MEOH     2846     MEOH     LP1A     LPD     -0.230000        0.0000           -1   0.00000   0.00000
     45076 MEOH     2846     MEOH     LP1B     LPD     -0.230000        0.0000           -1   0.00000   0.00000
     45077 MEOH     2847     MEOH     C1       CD33B    2.314100       11.6110           0   -1.00000   1.30000
     45078 MEOH     2847     MEOH     DC1      DRUD    -2.454100        0.4000           0   0.00000   0.00000
     45079 MEOH     2847     MEOH     O1       OD31H    2.488300       15.5990           0   -1.02800   1.30000
     45080 MEOH     2847     MEOH     DO1      DRUD    -2.488300        0.4000           0   0.00000   0.00000
     45081 MEOH     2847     MEOH     HO1      HDP1A    0.360000        1.0080           0   0.00000   0.00000
     45082 MEOH     2847     MEOH     HO2      DUMH     0.000000        1.0080           0   0.00000   0.00000
     45083 MEOH     2847     MEOH     H1A      HDA3B    0.080000        1.0080           0   0.00000   0.00000
     45084 MEOH     2847     MEOH     H1B      HDA3B    0.080000        1.0080           0   0.00000   0.00000
     45085 MEOH     2847     MEOH     H1C      HDA3B    0.080000        1.0080           0   0.00000   0.00000
     45086 MEOH     2847     MEOH     LP1A     LPD     -0.230000        0.0000           -1   0.00000   0.00000
     45087 MEOH     2847     MEOH     LP1B     LPD     -0.230000        0.0000           -1   0.00000   0.00000
     45088 MEOH     2848     MEOH     C1       CD33B    2.314100       11.6110           0   -1.00000   1.30000
     45089 MEOH     2848     MEOH     DC1      DRUD    -2.454100        0.4000           0   0.00000   0.00000
     45090 MEOH     2848     MEOH     O1       OD31H    2.488300       15.5990           0   -1.02800   1.30000
     45091 MEOH     2848     MEOH     DO1      DRUD    -2.488300        0.4000           0   0.00000   0.00000
     45092 MEOH     2848     MEOH     HO1      HDP1A    0.360000        1.0080           0   0.00000   0.00000
     45093 MEOH     2848     MEOH     HO2      DUMH     0.000000        1.0080           0   0.00000   0.00000
     45094 MEOH     2848     MEOH     H1A      HDA3B    0.080000        1.0080           0   0.00000   0.00000
     45095 MEOH     2848     MEOH     H1B      HDA3B    0.080000        1.0080           0   0.00000   0.00000
     45096 MEOH     2848     MEOH     H1C      HDA3B    0.080000        1.0080           0   0.00000   0.00000
     45097 MEOH     2848     MEOH     LP1A     LPD     -0.230000        0.0000           -1   0.00000   0.00000
     45098 MEOH     2848     MEOH     LP1B     LPD     -0.230000        0.0000           -1   0.00000   0.00000
     45099 MEOH     2849     MEOH     C1       CD33B    2.314100       11.6110           0   -1.00000   1.30000
     45100 MEOH     2849     MEOH     DC1      DRUD    -2.454100        0.4000           0   0.00000   0.00000
     45101 MEOH     2849     MEOH     O1       OD31H    2.488300       15.5990           0   -1.02800   1.30000
     45102 MEOH     2849     MEOH     DO1      DRUD    -2.488300        0.4000           0   0.00000   0.00000
     45103 MEOH     2849     MEOH     HO1      HDP1A    0.360000        1.0080           0   0.00000   0.00000
     45104 MEOH     2849     MEOH     HO2      DUMH     0.000000        1.0080           0   0.00000   0.00000
     45105 MEOH     2849     MEOH     H1A      HDA3B    0.080000        1.0080           0   0.00000   0.00000
     45106 MEOH     2849     MEOH     H1B      HDA3B    0.080000        1.0080           0   0.00000   0.00000
     45107 MEOH     2849     MEOH     H1C      HDA3B    0.080000        1.0080           0   0.00000   0.00000
     45108 MEOH     2849     MEOH     LP1A     LPD     -0.230000        0.0000           -1   0.00000   0.00000
     45109 MEOH     2849     MEOH     LP1B     LPD     -0.230000        0.0000           -1   0.00000   0.00000
     45110 MEOH     2850     MEOH     C1       CD33B    2.314100       11.6110           0   -1.00000   1.30000
     45111 MEOH     2850     MEOH     DC1      DRUD    -2.454100        0.4000           0   0.00000   0.00000
     45112 MEOH     2850     MEOH     O1       OD31H    2.488300       15.5990           0   -1.02800   1.30000
     45113 MEOH     2850     MEOH     DO1      DRUD    -2.488300        0.4000           0   0.00000   0.00000
     45114 MEOH     2850     MEOH     HO1      HDP1A    0.360000        1.0080           0   0.00000   0.00000
     45115 MEOH     2850     MEOH     HO2      DUMH     0.000000        1.0080           0   0.00000   0.00000
     45116 MEOH     2850     MEOH     H1A      HDA3B    0.080000        1.0080           0   0.00000   0.00000
     45117 MEOH     2850     MEOH     H1B      HDA3B    0.080000        1.0080           0   0.00000   0.00000
     45118 MEOH     2850     MEOH     H1C      HDA3B    0.080000        1.0080           0   0.00000   0.00000
     45119 MEOH     2850     MEOH     LP1A     LPD     -0.230000        0.0000           -1   0.00000   0.00000
     45120 MEOH     2850     MEOH     LP1B     LPD     -0.230000        0.0000           -1   0.00000   0.00000
     45121 MEOH     2851     MEOH     C1       CD33B    2.314100       11.6110           0   -1.00000   1.30000
     45122 MEOH     2851     MEOH     DC1      DRUD    -2.454100        0.4000           0   0.00000   0.00000
     45123 MEOH     2851     MEOH     O1       OD31H    2.488300       15.5990           0   -1.02800   1.30000
     45124 MEOH     2851     MEOH     DO1      DRUD    -2.488300        0.4000           0   0.00000   0.00000
     45125 MEOH     2851     MEOH     HO1      HDP1A    0.360000        1.0080           0   0.00000   0.00000
     45126 MEOH     2851     MEOH     HO2      DUMH     0.000000        1.0080           0   0.00000   0.00000
     45127 MEOH     2851     MEOH     H1A      HDA3B    0.080000        1.0080           0   0.00000   0.00000
     45128 MEOH     2851     MEOH     H1B      HDA3B    0.080000        1.0080           0   0.00000   0.00000
     45129 MEOH     2851     MEOH     H1C      HDA3B    0.080000        1.0080           0   0.00000   0.00000
     45130 MEOH     2851     MEOH     LP1A     LPD     -0.230000        0.0000           -1   0.00000   0.00000
     45131 MEOH     2851     MEOH     LP1B     LPD     -0.230000        0.0000           -1   0.00000   0.00000
     45132 MEOH     2852     MEOH     C1       CD33B    2.314100       11.6110           0   -1.00000   1.30000
     45133 MEOH     2852     MEOH     DC1      DRUD    -2.454100        0.4000           0   0.00000   0.00000
     45134 MEOH     2852     MEOH     O1       OD31H    2.488300       15.5990           0   -1.02800   1.30000
     45135 MEOH     2852     MEOH     DO1      DRUD    -2.488300        0.4000           0   0.00000   0.00000
     45136 MEOH     2852     MEOH     HO1      HDP1A    0.360000        1.0080           0   0.00000   0.00000
     45137 MEOH     2852     MEOH     HO2      DUMH     0.000000        1.0080           0   0.00000   0.00000
     45138 MEOH     2852     MEOH     H1A      HDA3B    0.080000        1.0080           0   0.00000   0.00000
     45139 MEOH     2852     MEOH     H1B      HDA3B    0.080000        1.0080           0   0.00000   0.00000
     45140 MEOH     2852     MEOH     H1C      HDA3B    0.080000        1.0080           0   0.00000   0.00000
     45141 MEOH     2852     MEOH     LP1A     LPD     -0.230000        0.0000           -1   0.00000   0.00000
     45142 MEOH     2852     MEOH     LP1B     LPD     -0.230000        0.0000           -1   0.00000   0.00000
     45143 MEOH     2853     MEOH     C1       CD33B    2.314100       11.6110           0   -1.00000   1.30000
     45144 MEOH     2853     MEOH     DC1      DRUD    -2.454100        0.4000           0   0.00000   0.00000
     45145 MEOH     2853     MEOH     O1       OD31H    2.488300       15.5990           0   -1.02800   1.30000
     45146 MEOH     2853     MEOH     DO1      DRUD    -2.488300        0.4000           0   0.00000   0.00000
     45147 MEOH     2853     MEOH     HO1      HDP1A    0.360000        1.0080           0   0.00000   0.00000
     45148 MEOH     2853     MEOH     HO2      DUMH     0.000000        1.0080           0   0.00000   0.00000
     45149 MEOH     2853     MEOH     H1A      HDA3B    0.080000        1.0080           0   0.00000   0.00000
     45150 MEOH     2853     MEOH     H1B      HDA3B    0.080000        1.0080           0   0.00000   0.00000
     45151 MEOH     2853     MEOH     H1C      HDA3B    0.080000        1.0080           0   0.00000   0.00000
     45152 MEOH     2853     MEOH     LP1A     LPD     -0.230000        0.0000           -1   0.00000   0.00000
     45153 MEOH     2853     MEOH     LP1B     LPD     -0.230000        0.0000           -1   0.00000   0.00000
     45154 MEOH     2854     MEOH     C1       CD33B    2.314100       11.6110           0   -1.00000   1.30000
     45155 MEOH     2854     MEOH     DC1      DRUD    -2.454100        0.4000           0   0.00000   0.00000
     45156 MEOH     2854     MEOH     O1       OD31H    2.488300       15.5990           0   -1.02800   1.30000
     45157 MEOH     2854     MEOH     DO1      DRUD    -2.488300        0.4000           0   0.00000   0.00000
     45158 MEOH     2854     MEOH     HO1      HDP1A    0.360000        1.0080           0   0.00000   0.00000
     45159 MEOH     2854     MEOH     HO2      DUMH     0.000000        1.0080           0   0.00000   0.00000
     45160 MEOH     2854     MEOH     H1A      HDA3B    0.080000        1.0080           0   0.00000   0.00000
     45161 MEOH     2854     MEOH     H1B      HDA3B    0.080000        1.0080           0   0.00000   0.00000
     45162 MEOH     2854     MEOH     H1C      HDA3B    0.080000        1.0080           0   0.00000   0.00000
     45163 MEOH     2854     MEOH     LP1A     LPD     -0.230000        0.0000           -1   0.00000   0.00000
     45164 MEOH     2854     MEOH     LP1B     LPD     -0.230000        0.0000           -1   0.00000   0.00000
     45165 MEOH     2855     MEOH     C1       CD33B    2.314100       11.6110           0   -1.00000   1.30000
     45166 MEOH     2855     MEOH     DC1      DRUD    -2.454100        0.4000           0   0.00000   0.00000
     45167 MEOH     2855     MEOH     O1       OD31H    2.488300       15.5990           0   -1.02800   1.30000
     45168 MEOH     2855     MEOH     DO1      DRUD    -2.488300        0.4000           0   0.00000   0.00000
     45169 MEOH     2855     MEOH     HO1      HDP1A    0.360000        1.0080           0   0.00000   0.00000
     45170 MEOH     2855     MEOH     HO2      DUMH     0.000000        1.0080           0   0.00000   0.00000
     45171 MEOH     2855     MEOH     H1A      HDA3B    0.080000        1.0080           0   0.00000   0.00000
     45172 MEOH     2855     MEOH     H1B      HDA3B    0.080000        1.0080           0   0.00000   0.00000
     45173 MEOH     2855     MEOH     H1C      HDA3B    0.080000        1.0080           0   0.00000   0.00000
     45174 MEOH     2855     MEOH     LP1A     LPD     -0.230000        0.0000           -1   0.00000   0.00000
     45175 MEOH     2855     MEOH     LP1B     LPD     -0.230000        0.0000           -1   0.00000   0.00000
     45176 MEOH     2856     MEOH     C1       CD33B    2.314100       11.6110           0   -1.00000   1.30000
     45177 MEOH     2856     MEOH     DC1      DRUD    -2.454100        0.4000           0   0.00000   0.00000
     45178 MEOH     2856     MEOH     O1       OD31H    2.488300       15.5990           0   -1.02800   1.30000
     45179 MEOH     2856     MEOH     DO1      DRUD    -2.488300        0.4000           0   0.00000   0.00000
     45180 MEOH     2856     MEOH     HO1      HDP1A    0.360000        1.0080           0   0.00000   0.00000
     45181 MEOH     2856     MEOH     HO2      DUMH     0.000000        1.0080           0   0.00000   0.00000
     45182 MEOH     2856     MEOH     H1A      HDA3B    0.080000        1.0080           0   0.00000   0.00000
     45183 MEOH     2856     MEOH     H1B      HDA3B    0.080000        1.0080           0   0.00000   0.00000
     45184 MEOH     2856     MEOH     H1C      HDA3B    0.080000        1.0080           0   0.00000   0.00000
     45185 MEOH     2856     MEOH     LP1A     LPD     -0.230000        0.0000           -1   0.00000   0.00000
     45186 MEOH     2856     MEOH     LP1B     LPD     -0.230000        0.0000           -1   0.00000   0.00000
     45187 MEOH     2857     MEOH     C1       CD33B    2.314100       11.6110           0   -1.00000   1.30000
     45188 MEOH     2857     MEOH     DC1      DRUD    -2.454100        0.4000           0   0.00000   0.00000
     45189 MEOH     2857     MEOH     O1       OD31H    2.488300       15.5990           0   -1.02800   1.30000
     45190 MEOH     2857     MEOH     DO1      DRUD    -2.488300        0.4000           0   0.00000   0.00000
     45191 MEOH     2857     MEOH     HO1      HDP1A    0.360000        1.0080           0   0.00000   0.00000
     45192 MEOH     2857     MEOH     HO2      DUMH     0.000000        1.0080           0   0.00000   0.00000
     45193 MEOH     2857     MEOH     H1A      HDA3B    0.080000        1.0080           0   0.00000   0.00000
     45194 MEOH     2857     MEOH     H1B      HDA3B    0.080000        1.0080           0   0.00000   0.00000
     45195 MEOH     2857     MEOH     H1C      HDA3B    0.080000        1.0080           0   0.00000   0.00000
     45196 MEOH     2857     MEOH     LP1A     LPD     -0.230000        0.0000           -1   0.00000   0.00000
     45197 MEOH     2857     MEOH     LP1B     LPD     -0.230000        0.0000           -1   0.00000   0.00000
     45198 MEOH     2858     MEOH     C1       CD33B    2.314100       11.6110           0   -1.00000   1.30000
     45199 MEOH     2858     MEOH     DC1      DRUD    -2.454100        0.4000           0   0.00000   0.00000
     45200 MEOH     2858     MEOH     O1       OD31H    2.488300       15.5990           0   -1.02800   1.30000
     45201 MEOH     2858     MEOH     DO1      DRUD    -2.488300        0.4000           0   0.00000   0.00000
     45202 MEOH     2858     MEOH     HO1      HDP1A    0.360000        1.0080           0   0.00000   0.00000
     45203 MEOH     2858     MEOH     HO2      DUMH     0.000000        1.0080           0   0.00000   0.00000
     45204 MEOH     2858     MEOH     H1A      HDA3B    0.080000        1.0080           0   0.00000   0.00000
     45205 MEOH     2858     MEOH     H1B      HDA3B    0.080000        1.0080           0   0.00000   0.00000
     45206 MEOH     2858     MEOH     H1C      HDA3B    0.080000        1.0080           0   0.00000   0.00000
     45207 MEOH     2858     MEOH     LP1A     LPD     -0.230000        0.0000           -1   0.00000   0.00000
     45208 MEOH     2858     MEOH     LP1B     LPD     -0.230000        0.0000           -1   0.00000   0.00000
     45209 MEOH     2859     MEOH     C1       CD33B    2.314100       11.6110           0   -1.00000   1.30000
     45210 MEOH     2859     MEOH     DC1      DRUD    -2.454100        0.4000           0   0.00000   0.00000
     45211 MEOH     2859     MEOH     O1       OD31H    2.488300       15.5990           0   -1.02800   1.30000
     45212 MEOH     2859     MEOH     DO1      DRUD    -2.488300        0.4000           0   0.00000   0.00000
     45213 MEOH     2859     MEOH     HO1      HDP1A    0.360000        1.0080           0   0.00000   0.00000
     45214 MEOH     2859     MEOH     HO2      DUMH     0.000000        1.0080           0   0.00000   0.00000
     45215 MEOH     2859     MEOH     H1A      HDA3B    0.080000        1.0080           0   0.00000   0.00000
     45216 MEOH     2859     MEOH     H1B      HDA3B    0.080000        1.0080           0   0.00000   0.00000
     45217 MEOH     2859     MEOH     H1C      HDA3B    0.080000        1.0080           0   0.00000   0.00000
     45218 MEOH     2859     MEOH     LP1A     LPD     -0.230000        0.0000           -1   0.00000   0.00000
     45219 MEOH     2859     MEOH     LP1B     LPD     -0.230000        0.0000           -1   0.00000   0.00000
     45220 MEOH     2860     MEOH     C1       CD33B    2.314100       11.6110           0   -1.00000   1.30000
     45221 MEOH     2860     MEOH     DC1      DRUD    -2.454100        0.4000           0   0.00000   0.00000
     45222 MEOH     2860     MEOH     O1       OD31H    2.488300       15.5990           0   -1.02800   1.30000
     45223 MEOH     2860     MEOH     DO1      DRUD    -2.488300        0.4000           0   0.00000   0.00000
     45224 MEOH     2860     MEOH     HO1      HDP1A    0.360000        1.0080           0   0.00000   0.00000
     45225 MEOH     2860     MEOH     HO2      DUMH     0.000000        1.0080           0   0.00000   0.00000
     45226 MEOH     2860     MEOH     H1A      HDA3B    0.080000        1.0080           0   0.00000   0.00000
     45227 MEOH     2860     MEOH     H1B      HDA3B    0.080000        1.0080           0   0.00000   0.00000
     45228 MEOH     2860     MEOH     H1C      HDA3B    0.080000        1.0080           0   0.00000   0.00000
     45229 MEOH     2860     MEOH     LP1A     LPD     -0.230000        0.0000           -1   0.00000   0.00000
     45230 MEOH     2860     MEOH     LP1B     LPD     -0.230000        0.0000           -1   0.00000   0.00000
     45231 MEOH     2861     MEOH     C1       CD33B    2.314100       11.6110           0   -1.00000   1.30000
     45232 MEOH     2861     MEOH     DC1      DRUD    -2.454100        0.4000           0   0.00000   0.00000
     45233 MEOH     2861     MEOH     O1       OD31H    2.488300       15.5990           0   -1.02800   1.30000
     45234 MEOH     2861     MEOH     DO1      DRUD    -2.488300        0.4000           0   0.00000   0.00000
     45235 MEOH     2861     MEOH     HO1      HDP1A    0.360000        1.0080           0   0.00000   0.00000
     45236 MEOH     2861     MEOH     HO2      DUMH     0.000000        1.0080           0   0.00000   0.00000
     45237 MEOH     2861     MEOH     H1A      HDA3B    0.080000        1.0080           0   0.00000   0.00000
     45238 MEOH     2861     MEOH     H1B      HDA3B    0.080000        1.0080           0   0.00000   0.00000
     45239 MEOH     2861     MEOH     H1C      HDA3B    0.080000        1.0080           0   0.00000   0.00000
     45240 MEOH     2861     MEOH     LP1A     LPD     -0.230000        0.0000           -1   0.00000   0.00000
     45241 MEOH     2861     MEOH     LP1B     LPD     -0.230000        0.0000           -1   0.00000   0.00000
     45242 MEOH     2862     MEOH     C1       CD33B    2.314100       11.6110           0   -1.00000   1.30000
     45243 MEOH     2862     MEOH     DC1      DRUD    -2.454100        0.4000           0   0.00000   0.00000
     45244 MEOH     2862     MEOH     O1       OD31H    2.488300       15.5990           0   -1.02800   1.30000
     45245 MEOH     2862     MEOH     DO1      DRUD    -2.488300        0.4000           0   0.00000   0.00000
     45246 MEOH     2862     MEOH     HO1      HDP1A    0.360000        1.0080           0   0.00000   0.00000
     45247 MEOH     2862     MEOH     HO2      DUMH     0.000000        1.0080           0   0.00000   0.00000
     45248 MEOH     2862     MEOH     H1A      HDA3B    0.080000        1.0080           0   0.00000   0.00000
     45249 MEOH     2862     MEOH     H1B      HDA3B    0.080000        1.0080           0   0.00000   0.00000
     45250 MEOH     2862     MEOH     H1C      HDA3B    0.080000        1.0080           0   0.00000   0.00000
     45251 MEOH     2862     MEOH     LP1A     LPD     -0.230000        0.0000           -1   0.00000   0.00000
     45252 MEOH     2862     MEOH     LP1B     LPD     -0.230000        0.0000           -1   0.00000   0.00000
     45253 MEOH     2863     MEOH     C1       CD33B    2.314100       11.6110           0   -1.00000   1.30000
     45254 MEOH     2863     MEOH     DC1      DRUD    -2.454100        0.4000           0   0.00000   0.00000
     45255 MEOH     2863     MEOH     O1       OD31H    2.488300       15.5990           0   -1.02800   1.30000
     45256 MEOH     2863     MEOH     DO1      DRUD    -2.488300        0.4000           0   0.00000   0.00000
     45257 MEOH     2863     MEOH     HO1      HDP1A    0.360000        1.0080           0   0.00000   0.00000
     45258 MEOH     2863     MEOH     HO2      DUMH     0.000000        1.0080           0   0.00000   0.00000
     45259 MEOH     2863     MEOH     H1A      HDA3B    0.080000        1.0080           0   0.00000   0.00000
     45260 MEOH     2863     MEOH     H1B      HDA3B    0.080000        1.0080           0   0.00000   0.00000
     45261 MEOH     2863     MEOH     H1C      HDA3B    0.080000        1.0080           0   0.00000   0.00000
     45262 MEOH     2863     MEOH     LP1A     LPD     -0.230000        0.0000           -1   0.00000   0.00000
     45263 MEOH     2863     MEOH     LP1B     LPD     -0.230000        0.0000           -1   0.00000   0.00000
     45264 MEOH     2864     MEOH     C1       CD33B    2.314100       11.6110           0   -1.00000   1.30000
     45265 MEOH     2864     MEOH     DC1      DRUD    -2.454100        0.4000           0   0.00000   0.00000
     45266 MEOH     2864     MEOH     O1       OD31H    2.488300       15.5990           0   -1.02800   1.30000
     45267 MEOH     2864     MEOH     DO1      DRUD    -2.488300        0.4000           0   0.00000   0.00000
     45268 MEOH     2864     MEOH     HO1      HDP1A    0.360000        1.0080           0   0.00000   0.00000
     45269 MEOH     2864     MEOH     HO2      DUMH     0.000000        1.0080           0   0.00000   0.00000
     45270 MEOH     2864     MEOH     H1A      HDA3B    0.080000        1.0080           0   0.00000   0.00000
     45271 MEOH     2864     MEOH     H1B      HDA3B    0.080000        1.0080           0   0.00000   0.00000
     45272 MEOH     2864     MEOH     H1C      HDA3B    0.080000        1.0080           0   0.00000   0.00000
     45273 MEOH     2864     MEOH     LP1A     LPD     -0.230000        0.0000           -1   0.00000   0.00000
     45274 MEOH     2864     MEOH     LP1B     LPD     -0.230000        0.0000           -1   0.00000   0.00000
     45275 MEOH     2865     MEOH     C1       CD33B    2.314100       11.6110           0   -1.00000   1.30000
     45276 MEOH     2865     MEOH     DC1      DRUD    -2.454100        0.4000           0   0.00000   0.00000
     45277 MEOH     2865     MEOH     O1       OD31H    2.488300       15.5990           0   -1.02800   1.30000
     45278 MEOH     2865     MEOH     DO1      DRUD    -2.488300        0.4000           0   0.00000   0.00000
     45279 MEOH     2865     MEOH     HO1      HDP1A    0.360000        1.0080           0   0.00000   0.00000
     45280 MEOH     2865     MEOH     HO2      DUMH     0.000000        1.0080           0   0.00000   0.00000
     45281 MEOH     2865     MEOH     H1A      HDA3B    0.080000        1.0080           0   0.00000   0.00000
     45282 MEOH     2865     MEOH     H1B      HDA3B    0.080000        1.0080           0   0.00000   0.00000
     45283 MEOH     2865     MEOH     H1C      HDA3B    0.080000        1.0080           0   0.00000   0.00000
     45284 MEOH     2865     MEOH     LP1A     LPD     -0.230000        0.0000           -1   0.00000   0.00000
     45285 MEOH     2865     MEOH     LP1B     LPD     -0.230000        0.0000           -1   0.00000   0.00000
     45286 MEOH     2866     MEOH     C1       CD33B    2.314100       11.6110           0   -1.00000   1.30000
     45287 MEOH     2866     MEOH     DC1      DRUD    -2.454100        0.4000           0   0.00000   0.00000
     45288 MEOH     2866     MEOH     O1       OD31H    2.488300       15.5990           0   -1.02800   1.30000
     45289 MEOH     2866     MEOH     DO1      DRUD    -2.488300        0.4000           0   0.00000   0.00000
     45290 MEOH     2866     MEOH     HO1      HDP1A    0.360000        1.0080           0   0.00000   0.00000
     45291 MEOH     2866     MEOH     HO2      DUMH     0.000000        1.0080           0   0.00000   0.00000
     45292 MEOH     2866     MEOH     H1A      HDA3B    0.080000        1.0080           0   0.00000   0.00000
     45293 MEOH     2866     MEOH     H1B      HDA3B    0.080000        1.0080           0   0.00000   0.00000
     45294 MEOH     2866     MEOH     H1C      HDA3B    0.080000        1.0080           0   0.00000   0.00000
     45295 MEOH     2866     MEOH     LP1A     LPD     -0.230000        0.0000           -1   0.00000   0.00000
     45296 MEOH     2866     MEOH     LP1B     LPD     -0.230000        0.0000           -1   0.00000   0.00000
     45297 MEOH     2867     MEOH     C1       CD33B    2.314100       11.6110           0   -1.00000   1.30000
     45298 MEOH     2867     MEOH     DC1      DRUD    -2.454100        0.4000           0   0.00000   0.00000
     45299 MEOH     2867     MEOH     O1       OD31H    2.488300       15.5990           0   -1.02800   1.30000
     45300 MEOH     2867     MEOH     DO1      DRUD    -2.488300        0.4000           0   0.00000   0.00000
     45301 MEOH     2867     MEOH     HO1      HDP1A    0.360000        1.0080           0   0.00000   0.00000
     45302 MEOH     2867     MEOH     HO2      DUMH     0.000000        1.0080           0   0.00000   0.00000
     45303 MEOH     2867     MEOH     H1A      HDA3B    0.080000        1.0080           0   0.00000   0.00000
     45304 MEOH     2867     MEOH     H1B      HDA3B    0.080000        1.0080           0   0.00000   0.00000
     45305 MEOH     2867     MEOH     H1C      HDA3B    0.080000        1.0080           0   0.00000   0.00000
     45306 MEOH     2867     MEOH     LP1A     LPD     -0.230000        0.0000           -1   0.00000   0.00000
     45307 MEOH     2867     MEOH     LP1B     LPD     -0.230000        0.0000           -1   0.00000   0.00000
     45308 MEOH     2868     MEOH     C1       CD33B    2.314100       11.6110           0   -1.00000   1.30000
     45309 MEOH     2868     MEOH     DC1      DRUD    -2.454100        0.4000           0   0.00000   0.00000
     45310 MEOH     2868     MEOH     O1       OD31H    2.488300       15.5990           0   -1.02800   1.30000
     45311 MEOH     2868     MEOH     DO1      DRUD    -2.488300        0.4000           0   0.00000   0.00000
     45312 MEOH     2868     MEOH     HO1      HDP1A    0.360000        1.0080           0   0.00000   0.00000
     45313 MEOH     2868     MEOH     HO2      DUMH     0.000000        1.0080           0   0.00000   0.00000
     45314 MEOH     2868     MEOH     H1A      HDA3B    0.080000        1.0080           0   0.00000   0.00000
     45315 MEOH     2868     MEOH     H1B      HDA3B    0.080000        1.0080           0   0.00000   0.00000
     45316 MEOH     2868     MEOH     H1C      HDA3B    0.080000        1.0080           0   0.00000   0.00000
     45317 MEOH     2868     MEOH     LP1A     LPD     -0.230000        0.0000           -1   0.00000   0.00000
     45318 MEOH     2868     MEOH     LP1B     LPD     -0.230000        0.0000           -1   0.00000   0.00000
     45319 MEOH     2869     MEOH     C1       CD33B    2.314100       11.6110           0   -1.00000   1.30000
     45320 MEOH     2869     MEOH     DC1      DRUD    -2.454100        0.4000           0   0.00000   0.00000
     45321 MEOH     2869     MEOH     O1       OD31H    2.488300       15.5990           0   -1.02800   1.30000
     45322 MEOH     2869     MEOH     DO1      DRUD    -2.488300        0.4000           0   0.00000   0.00000
     45323 MEOH     2869     MEOH     HO1      HDP1A    0.360000        1.0080           0   0.00000   0.00000
     45324 MEOH     2869     MEOH     HO2      DUMH     0.000000        1.0080           0   0.00000   0.00000
     45325 MEOH     2869     MEOH     H1A      HDA3B    0.080000        1.0080           0   0.00000   0.00000
     45326 MEOH     2869     MEOH     H1B      HDA3B    0.080000        1.0080           0   0.00000   0.00000
     45327 MEOH     2869     MEOH     H1C      HDA3B    0.080000        1.0080           0   0.00000   0.00000
     45328 MEOH     2869     MEOH     LP1A     LPD     -0.230000        0.0000           -1   0.00000   0.00000
     45329 MEOH     2869     MEOH     LP1B     LPD     -0.230000        0.0000           -1   0.00000   0.00000
     45330 MEOH     2870     MEOH     C1       CD33B    2.314100       11.6110           0   -1.00000   1.30000
     45331 MEOH     2870     MEOH     DC1      DRUD    -2.454100        0.4000           0   0.00000   0.00000
     45332 MEOH     2870     MEOH     O1       OD31H    2.488300       15.5990           0   -1.02800   1.30000
     45333 MEOH     2870     MEOH     DO1      DRUD    -2.488300        0.4000           0   0.00000   0.00000
     45334 MEOH     2870     MEOH     HO1      HDP1A    0.360000        1.0080           0   0.00000   0.00000
     45335 MEOH     2870     MEOH     HO2      DUMH     0.000000        1.0080           0   0.00000   0.00000
     45336 MEOH     2870     MEOH     H1A      HDA3B    0.080000        1.0080           0   0.00000   0.00000
     45337 MEOH     2870     MEOH     H1B      HDA3B    0.080000        1.0080           0   0.00000   0.00000
     45338 MEOH     2870     MEOH     H1C      HDA3B    0.080000        1.0080           0   0.00000   0.00000
     45339 MEOH     2870     MEOH     LP1A     LPD     -0.230000        0.0000           -1   0.00000   0.00000
     45340 MEOH     2870     MEOH     LP1B     LPD     -0.230000        0.0000           -1   0.00000   0.00000
     45341 MEOH     2871     MEOH     C1       CD33B    2.314100       11.6110           0   -1.00000   1.30000
     45342 MEOH     2871     MEOH     DC1      DRUD    -2.454100        0.4000           0   0.00000   0.00000
     45343 MEOH     2871     MEOH     O1       OD31H    2.488300       15.5990           0   -1.02800   1.30000
     45344 MEOH     2871     MEOH     DO1      DRUD    -2.488300        0.4000           0   0.00000   0.00000
     45345 MEOH     2871     MEOH     HO1      HDP1A    0.360000        1.0080           0   0.00000   0.00000
     45346 MEOH     2871     MEOH     HO2      DUMH     0.000000        1.0080           0   0.00000   0.00000
     45347 MEOH     2871     MEOH     H1A      HDA3B    0.080000        1.0080           0   0.00000   0.00000
     45348 MEOH     2871     MEOH     H1B      HDA3B    0.080000        1.0080           0   0.00000   0.00000
     45349 MEOH     2871     MEOH     H1C      HDA3B    0.080000        1.0080           0   0.00000   0.00000
     45350 MEOH     2871     MEOH     LP1A     LPD     -0.230000        0.0000           -1   0.00000   0.00000
     45351 MEOH     2871     MEOH     LP1B     LPD     -0.230000        0.0000           -1   0.00000   0.00000
     45352 MEOH     2872     MEOH     C1       CD33B    2.314100       11.6110           0   -1.00000   1.30000
     45353 MEOH     2872     MEOH     DC1      DRUD    -2.454100        0.4000           0   0.00000   0.00000
     45354 MEOH     2872     MEOH     O1       OD31H    2.488300       15.5990           0   -1.02800   1.30000
     45355 MEOH     2872     MEOH     DO1      DRUD    -2.488300        0.4000           0   0.00000   0.00000
     45356 MEOH     2872     MEOH     HO1      HDP1A    0.360000        1.0080           0   0.00000   0.00000
     45357 MEOH     2872     MEOH     HO2      DUMH     0.000000        1.0080           0   0.00000   0.00000
     45358 MEOH     2872     MEOH     H1A      HDA3B    0.080000        1.0080           0   0.00000   0.00000
     45359 MEOH     2872     MEOH     H1B      HDA3B    0.080000        1.0080           0   0.00000   0.00000
     45360 MEOH     2872     MEOH     H1C      HDA3B    0.080000        1.0080           0   0.00000   0.00000
     45361 MEOH     2872     MEOH     LP1A     LPD     -0.230000        0.0000           -1   0.00000   0.00000
     45362 MEOH     2872     MEOH     LP1B     LPD     -0.230000        0.0000           -1   0.00000   0.00000
     45363 MEOH     2873     MEOH     C1       CD33B    2.314100       11.6110           0   -1.00000   1.30000
     45364 MEOH     2873     MEOH     DC1      DRUD    -2.454100        0.4000           0   0.00000   0.00000
     45365 MEOH     2873     MEOH     O1       OD31H    2.488300       15.5990           0   -1.02800   1.30000
     45366 MEOH     2873     MEOH     DO1      DRUD    -2.488300        0.4000           0   0.00000   0.00000
     45367 MEOH     2873     MEOH     HO1      HDP1A    0.360000        1.0080           0   0.00000   0.00000
     45368 MEOH     2873     MEOH     HO2      DUMH     0.000000        1.0080           0   0.00000   0.00000
     45369 MEOH     2873     MEOH     H1A      HDA3B    0.080000        1.0080           0   0.00000   0.00000
     45370 MEOH     2873     MEOH     H1B      HDA3B    0.080000        1.0080           0   0.00000   0.00000
     45371 MEOH     2873     MEOH     H1C      HDA3B    0.080000        1.0080           0   0.00000   0.00000
     45372 MEOH     2873     MEOH     LP1A     LPD     -0.230000        0.0000           -1   0.00000   0.00000
     45373 MEOH     2873     MEOH     LP1B     LPD     -0.230000        0.0000           -1   0.00000   0.00000
     45374 MEOH     2874     MEOH     C1       CD33B    2.314100       11.6110           0   -1.00000   1.30000
     45375 MEOH     2874     MEOH     DC1      DRUD    -2.454100        0.4000           0   0.00000   0.00000
     45376 MEOH     2874     MEOH     O1       OD31H    2.488300       15.5990           0   -1.02800   1.30000
     45377 MEOH     2874     MEOH     DO1      DRUD    -2.488300        0.4000           0   0.00000   0.00000
     45378 MEOH     2874     MEOH     HO1      HDP1A    0.360000        1.0080           0   0.00000   0.00000
     45379 MEOH     2874     MEOH     HO2      DUMH     0.000000        1.0080           0   0.00000   0.00000
     45380 MEOH     2874     MEOH     H1A      HDA3B    0.080000        1.0080           0   0.00000   0.00000
     45381 MEOH     2874     MEOH     H1B      HDA3B    0.080000        1.0080           0   0.00000   0.00000
     45382 MEOH     2874     MEOH     H1C      HDA3B    0.080000        1.0080           0   0.00000   0.00000
     45383 MEOH     2874     MEOH     LP1A     LPD     -0.230000        0.0000           -1   0.00000   0.00000
     45384 MEOH     2874     MEOH     LP1B     LPD     -0.230000        0.0000           -1   0.00000   0.00000
     45385 MEOH     2875     MEOH     C1       CD33B    2.314100       11.6110           0   -1.00000   1.30000
     45386 MEOH     2875     MEOH     DC1      DRUD    -2.454100        0.4000           0   0.00000   0.00000
     45387 MEOH     2875     MEOH     O1       OD31H    2.488300       15.5990           0   -1.02800   1.30000
     45388 MEOH     2875     MEOH     DO1      DRUD    -2.488300        0.4000           0   0.00000   0.00000
     45389 MEOH     2875     MEOH     HO1      HDP1A    0.360000        1.0080           0   0.00000   0.00000
     45390 MEOH     2875     MEOH     HO2      DUMH     0.000000        1.0080           0   0.00000   0.00000
     45391 MEOH     2875     MEOH     H1A      HDA3B    0.080000        1.0080           0   0.00000   0.00000
     45392 MEOH     2875     MEOH     H1B      HDA3B    0.080000        1.0080           0   0.00000   0.00000
     45393 MEOH     2875     MEOH     H1C      HDA3B    0.080000        1.0080           0   0.00000   0.00000
     45394 MEOH     2875     MEOH     LP1A     LPD     -0.230000        0.0000           -1   0.00000   0.00000
     45395 MEOH     2875     MEOH     LP1B     LPD     -0.230000        0.0000           -1   0.00000   0.00000
     45396 MEOH     2876     MEOH     C1       CD33B    2.314100       11.6110           0   -1.00000   1.30000
     45397 MEOH     2876     MEOH     DC1      DRUD    -2.454100        0.4000           0   0.00000   0.00000
     45398 MEOH     2876     MEOH     O1       OD31H    2.488300       15.5990           0   -1.02800   1.30000
     45399 MEOH     2876     MEOH     DO1      DRUD    -2.488300        0.4000           0   0.00000   0.00000
     45400 MEOH     2876     MEOH     HO1      HDP1A    0.360000        1.0080           0   0.00000   0.00000
     45401 MEOH     2876     MEOH     HO2      DUMH     0.000000        1.0080           0   0.00000   0.00000
     45402 MEOH     2876     MEOH     H1A      HDA3B    0.080000        1.0080           0   0.00000   0.00000
     45403 MEOH     2876     MEOH     H1B      HDA3B    0.080000        1.0080           0   0.00000   0.00000
     45404 MEOH     2876     MEOH     H1C      HDA3B    0.080000        1.0080           0   0.00000   0.00000
     45405 MEOH     2876     MEOH     LP1A     LPD     -0.230000        0.0000           -1   0.00000   0.00000
     45406 MEOH     2876     MEOH     LP1B     LPD     -0.230000        0.0000           -1   0.00000   0.00000
     45407 MEOH     2877     MEOH     C1       CD33B    2.314100       11.6110           0   -1.00000   1.30000
     45408 MEOH     2877     MEOH     DC1      DRUD    -2.454100        0.4000           0   0.00000   0.00000
     45409 MEOH     2877     MEOH     O1       OD31H    2.488300       15.5990           0   -1.02800   1.30000
     45410 MEOH     2877     MEOH     DO1      DRUD    -2.488300        0.4000           0   0.00000   0.00000
     45411 MEOH     2877     MEOH     HO1      HDP1A    0.360000        1.0080           0   0.00000   0.00000
     45412 MEOH     2877     MEOH     HO2      DUMH     0.000000        1.0080           0   0.00000   0.00000
     45413 MEOH     2877     MEOH     H1A      HDA3B    0.080000        1.0080           0   0.00000   0.00000
     45414 MEOH     2877     MEOH     H1B      HDA3B    0.080000        1.0080           0   0.00000   0.00000
     45415 MEOH     2877     MEOH     H1C      HDA3B    0.080000        1.0080           0   0.00000   0.00000
     45416 MEOH     2877     MEOH     LP1A     LPD     -0.230000        0.0000           -1   0.00000   0.00000
     45417 MEOH     2877     MEOH     LP1B     LPD     -0.230000        0.0000           -1   0.00000   0.00000
     45418 MEOH     2878     MEOH     C1       CD33B    2.314100       11.6110           0   -1.00000   1.30000
     45419 MEOH     2878     MEOH     DC1      DRUD    -2.454100        0.4000           0   0.00000   0.00000
     45420 MEOH     2878     MEOH     O1       OD31H    2.488300       15.5990           0   -1.02800   1.30000
     45421 MEOH     2878     MEOH     DO1      DRUD    -2.488300        0.4000           0   0.00000   0.00000
     45422 MEOH     2878     MEOH     HO1      HDP1A    0.360000        1.0080           0   0.00000   0.00000
     45423 MEOH     2878     MEOH     HO2      DUMH     0.000000        1.0080           0   0.00000   0.00000
     45424 MEOH     2878     MEOH     H1A      HDA3B    0.080000        1.0080           0   0.00000   0.00000
     45425 MEOH     2878     MEOH     H1B      HDA3B    0.080000        1.0080           0   0.00000   0.00000
     45426 MEOH     2878     MEOH     H1C      HDA3B    0.080000        1.0080           0   0.00000   0.00000
     45427 MEOH     2878     MEOH     LP1A     LPD     -0.230000        0.0000           -1   0.00000   0.00000
     45428 MEOH     2878     MEOH     LP1B     LPD     -0.230000        0.0000           -1   0.00000   0.00000
     45429 MEOH     2879     MEOH     C1       CD33B    2.314100       11.6110           0   -1.00000   1.30000
     45430 MEOH     2879     MEOH     DC1      DRUD    -2.454100        0.4000           0   0.00000   0.00000
     45431 MEOH     2879     MEOH     O1       OD31H    2.488300       15.5990           0   -1.02800   1.30000
     45432 MEOH     2879     MEOH     DO1      DRUD    -2.488300        0.4000           0   0.00000   0.00000
     45433 MEOH     2879     MEOH     HO1      HDP1A    0.360000        1.0080           0   0.00000   0.00000
     45434 MEOH     2879     MEOH     HO2      DUMH     0.000000        1.0080           0   0.00000   0.00000
     45435 MEOH     2879     MEOH     H1A      HDA3B    0.080000        1.0080           0   0.00000   0.00000
     45436 MEOH     2879     MEOH     H1B      HDA3B    0.080000        1.0080           0   0.00000   0.00000
     45437 MEOH     2879     MEOH     H1C      HDA3B    0.080000        1.0080           0   0.00000   0.00000
     45438 MEOH     2879     MEOH     LP1A     LPD     -0.230000        0.0000           -1   0.00000   0.00000
     45439 MEOH     2879     MEOH     LP1B     LPD     -0.230000        0.0000           -1   0.00000   0.00000
     45440 MEOH     2880     MEOH     C1       CD33B    2.314100       11.6110           0   -1.00000   1.30000
     45441 MEOH     2880     MEOH     DC1      DRUD    -2.454100        0.4000           0   0.00000   0.00000
     45442 MEOH     2880     MEOH     O1       OD31H    2.488300       15.5990           0   -1.02800   1.30000
     45443 MEOH     2880     MEOH     DO1      DRUD    -2.488300        0.4000           0   0.00000   0.00000
     45444 MEOH     2880     MEOH     HO1      HDP1A    0.360000        1.0080           0   0.00000   0.00000
     45445 MEOH     2880     MEOH     HO2      DUMH     0.000000        1.0080           0   0.00000   0.00000
     45446 MEOH     2880     MEOH     H1A      HDA3B    0.080000        1.0080           0   0.00000   0.00000
     45447 MEOH     2880     MEOH     H1B      HDA3B    0.080000        1.0080           0   0.00000   0.00000
     45448 MEOH     2880     MEOH     H1C      HDA3B    0.080000        1.0080           0   0.00000   0.00000
     45449 MEOH     2880     MEOH     LP1A     LPD     -0.230000        0.0000           -1   0.00000   0.00000
     45450 MEOH     2880     MEOH     LP1B     LPD     -0.230000        0.0000           -1   0.00000   0.00000
     45451 MEOH     2881     MEOH     C1       CD33B    2.314100       11.6110           0   -1.00000   1.30000
     45452 MEOH     2881     MEOH     DC1      DRUD    -2.454100        0.4000           0   0.00000   0.00000
     45453 MEOH     2881     MEOH     O1       OD31H    2.488300       15.5990           0   -1.02800   1.30000
     45454 MEOH     2881     MEOH     DO1      DRUD    -2.488300        0.4000           0   0.00000   0.00000
     45455 MEOH     2881     MEOH     HO1      HDP1A    0.360000        1.0080           0   0.00000   0.00000
     45456 MEOH     2881     MEOH     HO2      DUMH     0.000000        1.0080           0   0.00000   0.00000
     45457 MEOH     2881     MEOH     H1A      HDA3B    0.080000        1.0080           0   0.00000   0.00000
     45458 MEOH     2881     MEOH     H1B      HDA3B    0.080000        1.0080           0   0.00000   0.00000
     45459 MEOH     2881     MEOH     H1C      HDA3B    0.080000        1.0080           0   0.00000   0.00000
     45460 MEOH     2881     MEOH     LP1A     LPD     -0.230000        0.0000           -1   0.00000   0.00000
     45461 MEOH     2881     MEOH     LP1B     LPD     -0.230000        0.0000           -1   0.00000   0.00000
     45462 MEOH     2882     MEOH     C1       CD33B    2.314100       11.6110           0   -1.00000   1.30000
     45463 MEOH     2882     MEOH     DC1      DRUD    -2.454100        0.4000           0   0.00000   0.00000
     45464 MEOH     2882     MEOH     O1       OD31H    2.488300       15.5990           0   -1.02800   1.30000
     45465 MEOH     2882     MEOH     DO1      DRUD    -2.488300        0.4000           0   0.00000   0.00000
     45466 MEOH     2882     MEOH     HO1      HDP1A    0.360000        1.0080           0   0.00000   0.00000
     45467 MEOH     2882     MEOH     HO2      DUMH     0.000000        1.0080           0   0.00000   0.00000
     45468 MEOH     2882     MEOH     H1A      HDA3B    0.080000        1.0080           0   0.00000   0.00000
     45469 MEOH     2882     MEOH     H1B      HDA3B    0.080000        1.0080           0   0.00000   0.00000
     45470 MEOH     2882     MEOH     H1C      HDA3B    0.080000        1.0080           0   0.00000   0.00000
     45471 MEOH     2882     MEOH     LP1A     LPD     -0.230000        0.0000           -1   0.00000   0.00000
     45472 MEOH     2882     MEOH     LP1B     LPD     -0.230000        0.0000           -1   0.00000   0.00000
     45473 MEOH     2883     MEOH     C1       CD33B    2.314100       11.6110           0   -1.00000   1.30000
     45474 MEOH     2883     MEOH     DC1      DRUD    -2.454100        0.4000           0   0.00000   0.00000
     45475 MEOH     2883     MEOH     O1       OD31H    2.488300       15.5990           0   -1.02800   1.30000
     45476 MEOH     2883     MEOH     DO1      DRUD    -2.488300        0.4000           0   0.00000   0.00000
     45477 MEOH     2883     MEOH     HO1      HDP1A    0.360000        1.0080           0   0.00000   0.00000
     45478 MEOH     2883     MEOH     HO2      DUMH     0.000000        1.0080           0   0.00000   0.00000
     45479 MEOH     2883     MEOH     H1A      HDA3B    0.080000        1.0080           0   0.00000   0.00000
     45480 MEOH     2883     MEOH     H1B      HDA3B    0.080000        1.0080           0   0.00000   0.00000
     45481 MEOH     2883     MEOH     H1C      HDA3B    0.080000        1.0080           0   0.00000   0.00000
     45482 MEOH     2883     MEOH     LP1A     LPD     -0.230000        0.0000           -1   0.00000   0.00000
     45483 MEOH     2883     MEOH     LP1B     LPD     -0.230000        0.0000           -1   0.00000   0.00000
     45484 MEOH     2884     MEOH     C1       CD33B    2.314100       11.6110           0   -1.00000   1.30000
     45485 MEOH     2884     MEOH     DC1      DRUD    -2.454100        0.4000           0   0.00000   0.00000
     45486 MEOH     2884     MEOH     O1       OD31H    2.488300       15.5990           0   -1.02800   1.30000
     45487 MEOH     2884     MEOH     DO1      DRUD    -2.488300        0.4000           0   0.00000   0.00000
     45488 MEOH     2884     MEOH     HO1      HDP1A    0.360000        1.0080           0   0.00000   0.00000
     45489 MEOH     2884     MEOH     HO2      DUMH     0.000000        1.0080           0   0.00000   0.00000
     45490 MEOH     2884     MEOH     H1A      HDA3B    0.080000        1.0080           0   0.00000   0.00000
     45491 MEOH     2884     MEOH     H1B      HDA3B    0.080000        1.0080           0   0.00000   0.00000
     45492 MEOH     2884     MEOH     H1C      HDA3B    0.080000        1.0080           0   0.00000   0.00000
     45493 MEOH     2884     MEOH     LP1A     LPD     -0.230000        0.0000           -1   0.00000   0.00000
     45494 MEOH     2884     MEOH     LP1B     LPD     -0.230000        0.0000           -1   0.00000   0.00000
     45495 MEOH     2885     MEOH     C1       CD33B    2.314100       11.6110           0   -1.00000   1.30000
     45496 MEOH     2885     MEOH     DC1      DRUD    -2.454100        0.4000           0   0.00000   0.00000
     45497 MEOH     2885     MEOH     O1       OD31H    2.488300       15.5990           0   -1.02800   1.30000
     45498 MEOH     2885     MEOH     DO1      DRUD    -2.488300        0.4000           0   0.00000   0.00000
     45499 MEOH     2885     MEOH     HO1      HDP1A    0.360000        1.0080           0   0.00000   0.00000
     45500 MEOH     2885     MEOH     HO2      DUMH     0.000000        1.0080           0   0.00000   0.00000
     45501 MEOH     2885     MEOH     H1A      HDA3B    0.080000        1.0080           0   0.00000   0.00000
     45502 MEOH     2885     MEOH     H1B      HDA3B    0.080000        1.0080           0   0.00000   0.00000
     45503 MEOH     2885     MEOH     H1C      HDA3B    0.080000        1.0080           0   0.00000   0.00000
     45504 MEOH     2885     MEOH     LP1A     LPD     -0.230000        0.0000           -1   0.00000   0.00000
     45505 MEOH     2885     MEOH     LP1B     LPD     -0.230000        0.0000           -1   0.00000   0.00000
     45506 MEOH     2886     MEOH     C1       CD33B    2.314100       11.6110           0   -1.00000   1.30000
     45507 MEOH     2886     MEOH     DC1      DRUD    -2.454100        0.4000           0   0.00000   0.00000
     45508 MEOH     2886     MEOH     O1       OD31H    2.488300       15.5990           0   -1.02800   1.30000
     45509 MEOH     2886     MEOH     DO1      DRUD    -2.488300        0.4000           0   0.00000   0.00000
     45510 MEOH     2886     MEOH     HO1      HDP1A    0.360000        1.0080           0   0.00000   0.00000
     45511 MEOH     2886     MEOH     HO2      DUMH     0.000000        1.0080           0   0.00000   0.00000
     45512 MEOH     2886     MEOH     H1A      HDA3B    0.080000        1.0080           0   0.00000   0.00000
     45513 MEOH     2886     MEOH     H1B      HDA3B    0.080000        1.0080           0   0.00000   0.00000
     45514 MEOH     2886     MEOH     H1C      HDA3B    0.080000        1.0080           0   0.00000   0.00000
     45515 MEOH     2886     MEOH     LP1A     LPD     -0.230000        0.0000           -1   0.00000   0.00000
     45516 MEOH     2886     MEOH     LP1B     LPD     -0.230000        0.0000           -1   0.00000   0.00000
     45517 MEOH     2887     MEOH     C1       CD33B    2.314100       11.6110           0   -1.00000   1.30000
     45518 MEOH     2887     MEOH     DC1      DRUD    -2.454100        0.4000           0   0.00000   0.00000
     45519 MEOH     2887     MEOH     O1       OD31H    2.488300       15.5990           0   -1.02800   1.30000
     45520 MEOH     2887     MEOH     DO1      DRUD    -2.488300        0.4000           0   0.00000   0.00000
     45521 MEOH     2887     MEOH     HO1      HDP1A    0.360000        1.0080           0   0.00000   0.00000
     45522 MEOH     2887     MEOH     HO2      DUMH     0.000000        1.0080           0   0.00000   0.00000
     45523 MEOH     2887     MEOH     H1A      HDA3B    0.080000        1.0080           0   0.00000   0.00000
     45524 MEOH     2887     MEOH     H1B      HDA3B    0.080000        1.0080           0   0.00000   0.00000
     45525 MEOH     2887     MEOH     H1C      HDA3B    0.080000        1.0080           0   0.00000   0.00000
     45526 MEOH     2887     MEOH     LP1A     LPD     -0.230000        0.0000           -1   0.00000   0.00000
     45527 MEOH     2887     MEOH     LP1B     LPD     -0.230000        0.0000           -1   0.00000   0.00000
     45528 MEOH     2888     MEOH     C1       CD33B    2.314100       11.6110           0   -1.00000   1.30000
     45529 MEOH     2888     MEOH     DC1      DRUD    -2.454100        0.4000           0   0.00000   0.00000
     45530 MEOH     2888     MEOH     O1       OD31H    2.488300       15.5990           0   -1.02800   1.30000
     45531 MEOH     2888     MEOH     DO1      DRUD    -2.488300        0.4000           0   0.00000   0.00000
     45532 MEOH     2888     MEOH     HO1      HDP1A    0.360000        1.0080           0   0.00000   0.00000
     45533 MEOH     2888     MEOH     HO2      DUMH     0.000000        1.0080           0   0.00000   0.00000
     45534 MEOH     2888     MEOH     H1A      HDA3B    0.080000        1.0080           0   0.00000   0.00000
     45535 MEOH     2888     MEOH     H1B      HDA3B    0.080000        1.0080           0   0.00000   0.00000
     45536 MEOH     2888     MEOH     H1C      HDA3B    0.080000        1.0080           0   0.00000   0.00000
     45537 MEOH     2888     MEOH     LP1A     LPD     -0.230000        0.0000           -1   0.00000   0.00000
     45538 MEOH     2888     MEOH     LP1B     LPD     -0.230000        0.0000           -1   0.00000   0.00000
     45539 MEOH     2889     MEOH     C1       CD33B    2.314100       11.6110           0   -1.00000   1.30000
     45540 MEOH     2889     MEOH     DC1      DRUD    -2.454100        0.4000           0   0.00000   0.00000
     45541 MEOH     2889     MEOH     O1       OD31H    2.488300       15.5990           0   -1.02800   1.30000
     45542 MEOH     2889     MEOH     DO1      DRUD    -2.488300        0.4000           0   0.00000   0.00000
     45543 MEOH     2889     MEOH     HO1      HDP1A    0.360000        1.0080           0   0.00000   0.00000
     45544 MEOH     2889     MEOH     HO2      DUMH     0.000000        1.0080           0   0.00000   0.00000
     45545 MEOH     2889     MEOH     H1A      HDA3B    0.080000        1.0080           0   0.00000   0.00000
     45546 MEOH     2889     MEOH     H1B      HDA3B    0.080000        1.0080           0   0.00000   0.00000
     45547 MEOH     2889     MEOH     H1C      HDA3B    0.080000        1.0080           0   0.00000   0.00000
     45548 MEOH     2889     MEOH     LP1A     LPD     -0.230000        0.0000           -1   0.00000   0.00000
     45549 MEOH     2889     MEOH     LP1B     LPD     -0.230000        0.0000           -1   0.00000   0.00000
     45550 MEOH     2890     MEOH     C1       CD33B    2.314100       11.6110           0   -1.00000   1.30000
     45551 MEOH     2890     MEOH     DC1      DRUD    -2.454100        0.4000           0   0.00000   0.00000
     45552 MEOH     2890     MEOH     O1       OD31H    2.488300       15.5990           0   -1.02800   1.30000
     45553 MEOH     2890     MEOH     DO1      DRUD    -2.488300        0.4000           0   0.00000   0.00000
     45554 MEOH     2890     MEOH     HO1      HDP1A    0.360000        1.0080           0   0.00000   0.00000
     45555 MEOH     2890     MEOH     HO2      DUMH     0.000000        1.0080           0   0.00000   0.00000
     45556 MEOH     2890     MEOH     H1A      HDA3B    0.080000        1.0080           0   0.00000   0.00000
     45557 MEOH     2890     MEOH     H1B      HDA3B    0.080000        1.0080           0   0.00000   0.00000
     45558 MEOH     2890     MEOH     H1C      HDA3B    0.080000        1.0080           0   0.00000   0.00000
     45559 MEOH     2890     MEOH     LP1A     LPD     -0.230000        0.0000           -1   0.00000   0.00000
     45560 MEOH     2890     MEOH     LP1B     LPD     -0.230000        0.0000           -1   0.00000   0.00000
     45561 MEOH     2891     MEOH     C1       CD33B    2.314100       11.6110           0   -1.00000   1.30000
     45562 MEOH     2891     MEOH     DC1      DRUD    -2.454100        0.4000           0   0.00000   0.00000
     45563 MEOH     2891     MEOH     O1       OD31H    2.488300       15.5990           0   -1.02800   1.30000
     45564 MEOH     2891     MEOH     DO1      DRUD    -2.488300        0.4000           0   0.00000   0.00000
     45565 MEOH     2891     MEOH     HO1      HDP1A    0.360000        1.0080           0   0.00000   0.00000
     45566 MEOH     2891     MEOH     HO2      DUMH     0.000000        1.0080           0   0.00000   0.00000
     45567 MEOH     2891     MEOH     H1A      HDA3B    0.080000        1.0080           0   0.00000   0.00000
     45568 MEOH     2891     MEOH     H1B      HDA3B    0.080000        1.0080           0   0.00000   0.00000
     45569 MEOH     2891     MEOH     H1C      HDA3B    0.080000        1.0080           0   0.00000   0.00000
     45570 MEOH     2891     MEOH     LP1A     LPD     -0.230000        0.0000           -1   0.00000   0.00000
     45571 MEOH     2891     MEOH     LP1B     LPD     -0.230000        0.0000           -1   0.00000   0.00000
     45572 MEOH     2892     MEOH     C1       CD33B    2.314100       11.6110           0   -1.00000   1.30000
     45573 MEOH     2892     MEOH     DC1      DRUD    -2.454100        0.4000           0   0.00000   0.00000
     45574 MEOH     2892     MEOH     O1       OD31H    2.488300       15.5990           0   -1.02800   1.30000
     45575 MEOH     2892     MEOH     DO1      DRUD    -2.488300        0.4000           0   0.00000   0.00000
     45576 MEOH     2892     MEOH     HO1      HDP1A    0.360000        1.0080           0   0.00000   0.00000
     45577 MEOH     2892     MEOH     HO2      DUMH     0.000000        1.0080           0   0.00000   0.00000
     45578 MEOH     2892     MEOH     H1A      HDA3B    0.080000        1.0080           0   0.00000   0.00000
     45579 MEOH     2892     MEOH     H1B      HDA3B    0.080000        1.0080           0   0.00000   0.00000
     45580 MEOH     2892     MEOH     H1C      HDA3B    0.080000        1.0080           0   0.00000   0.00000
     45581 MEOH     2892     MEOH     LP1A     LPD     -0.230000        0.0000           -1   0.00000   0.00000
     45582 MEOH     2892     MEOH     LP1B     LPD     -0.230000        0.0000           -1   0.00000   0.00000
     45583 MEOH     2893     MEOH     C1       CD33B    2.314100       11.6110           0   -1.00000   1.30000
     45584 MEOH     2893     MEOH     DC1      DRUD    -2.454100        0.4000           0   0.00000   0.00000
     45585 MEOH     2893     MEOH     O1       OD31H    2.488300       15.5990           0   -1.02800   1.30000
     45586 MEOH     2893     MEOH     DO1      DRUD    -2.488300        0.4000           0   0.00000   0.00000
     45587 MEOH     2893     MEOH     HO1      HDP1A    0.360000        1.0080           0   0.00000   0.00000
     45588 MEOH     2893     MEOH     HO2      DUMH     0.000000        1.0080           0   0.00000   0.00000
     45589 MEOH     2893     MEOH     H1A      HDA3B    0.080000        1.0080           0   0.00000   0.00000
     45590 MEOH     2893     MEOH     H1B      HDA3B    0.080000        1.0080           0   0.00000   0.00000
     45591 MEOH     2893     MEOH     H1C      HDA3B    0.080000        1.0080           0   0.00000   0.00000
     45592 MEOH     2893     MEOH     LP1A     LPD     -0.230000        0.0000           -1   0.00000   0.00000
     45593 MEOH     2893     MEOH     LP1B     LPD     -0.230000        0.0000           -1   0.00000   0.00000
     45594 MEOH     2894     MEOH     C1       CD33B    2.314100       11.6110           0   -1.00000   1.30000
     45595 MEOH     2894     MEOH     DC1      DRUD    -2.454100        0.4000           0   0.00000   0.00000
     45596 MEOH     2894     MEOH     O1       OD31H    2.488300       15.5990           0   -1.02800   1.30000
     45597 MEOH     2894     MEOH     DO1      DRUD    -2.488300        0.4000           0   0.00000   0.00000
     45598 MEOH     2894     MEOH     HO1      HDP1A    0.360000        1.0080           0   0.00000   0.00000
     45599 MEOH     2894     MEOH     HO2      DUMH     0.000000        1.0080           0   0.00000   0.00000
     45600 MEOH     2894     MEOH     H1A      HDA3B    0.080000        1.0080           0   0.00000   0.00000
     45601 MEOH     2894     MEOH     H1B      HDA3B    0.080000        1.0080           0   0.00000   0.00000
     45602 MEOH     2894     MEOH     H1C      HDA3B    0.080000        1.0080           0   0.00000   0.00000
     45603 MEOH     2894     MEOH     LP1A     LPD     -0.230000        0.0000           -1   0.00000   0.00000
     45604 MEOH     2894     MEOH     LP1B     LPD     -0.230000        0.0000           -1   0.00000   0.00000
     45605 MEOH     2895     MEOH     C1       CD33B    2.314100       11.6110           0   -1.00000   1.30000
     45606 MEOH     2895     MEOH     DC1      DRUD    -2.454100        0.4000           0   0.00000   0.00000
     45607 MEOH     2895     MEOH     O1       OD31H    2.488300       15.5990           0   -1.02800   1.30000
     45608 MEOH     2895     MEOH     DO1      DRUD    -2.488300        0.4000           0   0.00000   0.00000
     45609 MEOH     2895     MEOH     HO1      HDP1A    0.360000        1.0080           0   0.00000   0.00000
     45610 MEOH     2895     MEOH     HO2      DUMH     0.000000        1.0080           0   0.00000   0.00000
     45611 MEOH     2895     MEOH     H1A      HDA3B    0.080000        1.0080           0   0.00000   0.00000
     45612 MEOH     2895     MEOH     H1B      HDA3B    0.080000        1.0080           0   0.00000   0.00000
     45613 MEOH     2895     MEOH     H1C      HDA3B    0.080000        1.0080           0   0.00000   0.00000
     45614 MEOH     2895     MEOH     LP1A     LPD     -0.230000        0.0000           -1   0.00000   0.00000
     45615 MEOH     2895     MEOH     LP1B     LPD     -0.230000        0.0000           -1   0.00000   0.00000
     45616 MEOH     2896     MEOH     C1       CD33B    2.314100       11.6110           0   -1.00000   1.30000
     45617 MEOH     2896     MEOH     DC1      DRUD    -2.454100        0.4000           0   0.00000   0.00000
     45618 MEOH     2896     MEOH     O1       OD31H    2.488300       15.5990           0   -1.02800   1.30000
     45619 MEOH     2896     MEOH     DO1      DRUD    -2.488300        0.4000           0   0.00000   0.00000
     45620 MEOH     2896     MEOH     HO1      HDP1A    0.360000        1.0080           0   0.00000   0.00000
     45621 MEOH     2896     MEOH     HO2      DUMH     0.000000        1.0080           0   0.00000   0.00000
     45622 MEOH     2896     MEOH     H1A      HDA3B    0.080000        1.0080           0   0.00000   0.00000
     45623 MEOH     2896     MEOH     H1B      HDA3B    0.080000        1.0080           0   0.00000   0.00000
     45624 MEOH     2896     MEOH     H1C      HDA3B    0.080000        1.0080           0   0.00000   0.00000
     45625 MEOH     2896     MEOH     LP1A     LPD     -0.230000        0.0000           -1   0.00000   0.00000
     45626 MEOH     2896     MEOH     LP1B     LPD     -0.230000        0.0000           -1   0.00000   0.00000
     45627 MEOH     2897     MEOH     C1       CD33B    2.314100       11.6110           0   -1.00000   1.30000
     45628 MEOH     2897     MEOH     DC1      DRUD    -2.454100        0.4000           0   0.00000   0.00000
     45629 MEOH     2897     MEOH     O1       OD31H    2.488300       15.5990           0   -1.02800   1.30000
     45630 MEOH     2897     MEOH     DO1      DRUD    -2.488300        0.4000           0   0.00000   0.00000
     45631 MEOH     2897     MEOH     HO1      HDP1A    0.360000        1.0080           0   0.00000   0.00000
     45632 MEOH     2897     MEOH     HO2      DUMH     0.000000        1.0080           0   0.00000   0.00000
     45633 MEOH     2897     MEOH     H1A      HDA3B    0.080000        1.0080           0   0.00000   0.00000
     45634 MEOH     2897     MEOH     H1B      HDA3B    0.080000        1.0080           0   0.00000   0.00000
     45635 MEOH     2897     MEOH     H1C      HDA3B    0.080000        1.0080           0   0.00000   0.00000
     45636 MEOH     2897     MEOH     LP1A     LPD     -0.230000        0.0000           -1   0.00000   0.00000
     45637 MEOH     2897     MEOH     LP1B     LPD     -0.230000        0.0000           -1   0.00000   0.00000
     45638 MEOH     2898     MEOH     C1       CD33B    2.314100       11.6110           0   -1.00000   1.30000
     45639 MEOH     2898     MEOH     DC1      DRUD    -2.454100        0.4000           0   0.00000   0.00000
     45640 MEOH     2898     MEOH     O1       OD31H    2.488300       15.5990           0   -1.02800   1.30000
     45641 MEOH     2898     MEOH     DO1      DRUD    -2.488300        0.4000           0   0.00000   0.00000
     45642 MEOH     2898     MEOH     HO1      HDP1A    0.360000        1.0080           0   0.00000   0.00000
     45643 MEOH     2898     MEOH     HO2      DUMH     0.000000        1.0080           0   0.00000   0.00000
     45644 MEOH     2898     MEOH     H1A      HDA3B    0.080000        1.0080           0   0.00000   0.00000
     45645 MEOH     2898     MEOH     H1B      HDA3B    0.080000        1.0080           0   0.00000   0.00000
     45646 MEOH     2898     MEOH     H1C      HDA3B    0.080000        1.0080           0   0.00000   0.00000
     45647 MEOH     2898     MEOH     LP1A     LPD     -0.230000        0.0000           -1   0.00000   0.00000
     45648 MEOH     2898     MEOH     LP1B     LPD     -0.230000        0.0000           -1   0.00000   0.00000
     45649 MEOH     2899     MEOH     C1       CD33B    2.314100       11.6110           0   -1.00000   1.30000
     45650 MEOH     2899     MEOH     DC1      DRUD    -2.454100        0.4000           0   0.00000   0.00000
     45651 MEOH     2899     MEOH     O1       OD31H    2.488300       15.5990           0   -1.02800   1.30000
     45652 MEOH     2899     MEOH     DO1      DRUD    -2.488300        0.4000           0   0.00000   0.00000
     45653 MEOH     2899     MEOH     HO1      HDP1A    0.360000        1.0080           0   0.00000   0.00000
     45654 MEOH     2899     MEOH     HO2      DUMH     0.000000        1.0080           0   0.00000   0.00000
     45655 MEOH     2899     MEOH     H1A      HDA3B    0.080000        1.0080           0   0.00000   0.00000
     45656 MEOH     2899     MEOH     H1B      HDA3B    0.080000        1.0080           0   0.00000   0.00000
     45657 MEOH     2899     MEOH     H1C      HDA3B    0.080000        1.0080           0   0.00000   0.00000
     45658 MEOH     2899     MEOH     LP1A     LPD     -0.230000        0.0000           -1   0.00000   0.00000
     45659 MEOH     2899     MEOH     LP1B     LPD     -0.230000        0.0000           -1   0.00000   0.00000
     45660 MEOH     2900     MEOH     C1       CD33B    2.314100       11.6110           0   -1.00000   1.30000
     45661 MEOH     2900     MEOH     DC1      DRUD    -2.454100        0.4000           0   0.00000   0.00000
     45662 MEOH     2900     MEOH     O1       OD31H    2.488300       15.5990           0   -1.02800   1.30000
     45663 MEOH     2900     MEOH     DO1      DRUD    -2.488300        0.4000           0   0.00000   0.00000
     45664 MEOH     2900     MEOH     HO1      HDP1A    0.360000        1.0080           0   0.00000   0.00000
     45665 MEOH     2900     MEOH     HO2      DUMH     0.000000        1.0080           0   0.00000   0.00000
     45666 MEOH     2900     MEOH     H1A      HDA3B    0.080000        1.0080           0   0.00000   0.00000
     45667 MEOH     2900     MEOH     H1B      HDA3B    0.080000        1.0080           0   0.00000   0.00000
     45668 MEOH     2900     MEOH     H1C      HDA3B    0.080000        1.0080           0   0.00000   0.00000
     45669 MEOH     2900     MEOH     LP1A     LPD     -0.230000        0.0000           -1   0.00000   0.00000
     45670 MEOH     2900     MEOH     LP1B     LPD     -0.230000        0.0000           -1   0.00000   0.00000
     45671 MEOH     2901     MEOH     C1       CD33B    2.314100       11.6110           0   -1.00000   1.30000
     45672 MEOH     2901     MEOH     DC1      DRUD    -2.454100        0.4000           0   0.00000   0.00000
     45673 MEOH     2901     MEOH     O1       OD31H    2.488300       15.5990           0   -1.02800   1.30000
     45674 MEOH     2901     MEOH     DO1      DRUD    -2.488300        0.4000           0   0.00000   0.00000
     45675 MEOH     2901     MEOH     HO1      HDP1A    0.360000        1.0080           0   0.00000   0.00000
     45676 MEOH     2901     MEOH     HO2      DUMH     0.000000        1.0080           0   0.00000   0.00000
     45677 MEOH     2901     MEOH     H1A      HDA3B    0.080000        1.0080           0   0.00000   0.00000
     45678 MEOH     2901     MEOH     H1B      HDA3B    0.080000        1.0080           0   0.00000   0.00000
     45679 MEOH     2901     MEOH     H1C      HDA3B    0.080000        1.0080           0   0.00000   0.00000
     45680 MEOH     2901     MEOH     LP1A     LPD     -0.230000        0.0000           -1   0.00000   0.00000
     45681 MEOH     2901     MEOH     LP1B     LPD     -0.230000        0.0000           -1   0.00000   0.00000
     45682 MEOH     2902     MEOH     C1       CD33B    2.314100       11.6110           0   -1.00000   1.30000
     45683 MEOH     2902     MEOH     DC1      DRUD    -2.454100        0.4000           0   0.00000   0.00000
     45684 MEOH     2902     MEOH     O1       OD31H    2.488300       15.5990           0   -1.02800   1.30000
     45685 MEOH     2902     MEOH     DO1      DRUD    -2.488300        0.4000           0   0.00000   0.00000
     45686 MEOH     2902     MEOH     HO1      HDP1A    0.360000        1.0080           0   0.00000   0.00000
     45687 MEOH     2902     MEOH     HO2      DUMH     0.000000        1.0080           0   0.00000   0.00000
     45688 MEOH     2902     MEOH     H1A      HDA3B    0.080000        1.0080           0   0.00000   0.00000
     45689 MEOH     2902     MEOH     H1B      HDA3B    0.080000        1.0080           0   0.00000   0.00000
     45690 MEOH     2902     MEOH     H1C      HDA3B    0.080000        1.0080           0   0.00000   0.00000
     45691 MEOH     2902     MEOH     LP1A     LPD     -0.230000        0.0000           -1   0.00000   0.00000
     45692 MEOH     2902     MEOH     LP1B     LPD     -0.230000        0.0000           -1   0.00000   0.00000
     45693 MEOH     2903     MEOH     C1       CD33B    2.314100       11.6110           0   -1.00000   1.30000
     45694 MEOH     2903     MEOH     DC1      DRUD    -2.454100        0.4000           0   0.00000   0.00000
     45695 MEOH     2903     MEOH     O1       OD31H    2.488300       15.5990           0   -1.02800   1.30000
     45696 MEOH     2903     MEOH     DO1      DRUD    -2.488300        0.4000           0   0.00000   0.00000
     45697 MEOH     2903     MEOH     HO1      HDP1A    0.360000        1.0080           0   0.00000   0.00000
     45698 MEOH     2903     MEOH     HO2      DUMH     0.000000        1.0080           0   0.00000   0.00000
     45699 MEOH     2903     MEOH     H1A      HDA3B    0.080000        1.0080           0   0.00000   0.00000
     45700 MEOH     2903     MEOH     H1B      HDA3B    0.080000        1.0080           0   0.00000   0.00000
     45701 MEOH     2903     MEOH     H1C      HDA3B    0.080000        1.0080           0   0.00000   0.00000
     45702 MEOH     2903     MEOH     LP1A     LPD     -0.230000        0.0000           -1   0.00000   0.00000
     45703 MEOH     2903     MEOH     LP1B     LPD     -0.230000        0.0000           -1   0.00000   0.00000
     45704 MEOH     2904     MEOH     C1       CD33B    2.314100       11.6110           0   -1.00000   1.30000
     45705 MEOH     2904     MEOH     DC1      DRUD    -2.454100        0.4000           0   0.00000   0.00000
     45706 MEOH     2904     MEOH     O1       OD31H    2.488300       15.5990           0   -1.02800   1.30000
     45707 MEOH     2904     MEOH     DO1      DRUD    -2.488300        0.4000           0   0.00000   0.00000
     45708 MEOH     2904     MEOH     HO1      HDP1A    0.360000        1.0080           0   0.00000   0.00000
     45709 MEOH     2904     MEOH     HO2      DUMH     0.000000        1.0080           0   0.00000   0.00000
     45710 MEOH     2904     MEOH     H1A      HDA3B    0.080000        1.0080           0   0.00000   0.00000
     45711 MEOH     2904     MEOH     H1B      HDA3B    0.080000        1.0080           0   0.00000   0.00000
     45712 MEOH     2904     MEOH     H1C      HDA3B    0.080000        1.0080           0   0.00000   0.00000
     45713 MEOH     2904     MEOH     LP1A     LPD     -0.230000        0.0000           -1   0.00000   0.00000
     45714 MEOH     2904     MEOH     LP1B     LPD     -0.230000        0.0000           -1   0.00000   0.00000
     45715 MEOH     2905     MEOH     C1       CD33B    2.314100       11.6110           0   -1.00000   1.30000
     45716 MEOH     2905     MEOH     DC1      DRUD    -2.454100        0.4000           0   0.00000   0.00000
     45717 MEOH     2905     MEOH     O1       OD31H    2.488300       15.5990           0   -1.02800   1.30000
     45718 MEOH     2905     MEOH     DO1      DRUD    -2.488300        0.4000           0   0.00000   0.00000
     45719 MEOH     2905     MEOH     HO1      HDP1A    0.360000        1.0080           0   0.00000   0.00000
     45720 MEOH     2905     MEOH     HO2      DUMH     0.000000        1.0080           0   0.00000   0.00000
     45721 MEOH     2905     MEOH     H1A      HDA3B    0.080000        1.0080           0   0.00000   0.00000
     45722 MEOH     2905     MEOH     H1B      HDA3B    0.080000        1.0080           0   0.00000   0.00000
     45723 MEOH     2905     MEOH     H1C      HDA3B    0.080000        1.0080           0   0.00000   0.00000
     45724 MEOH     2905     MEOH     LP1A     LPD     -0.230000        0.0000           -1   0.00000   0.00000
     45725 MEOH     2905     MEOH     LP1B     LPD     -0.230000        0.0000           -1   0.00000   0.00000
     45726 MEOH     2906     MEOH     C1       CD33B    2.314100       11.6110           0   -1.00000   1.30000
     45727 MEOH     2906     MEOH     DC1      DRUD    -2.454100        0.4000           0   0.00000   0.00000
     45728 MEOH     2906     MEOH     O1       OD31H    2.488300       15.5990           0   -1.02800   1.30000
     45729 MEOH     2906     MEOH     DO1      DRUD    -2.488300        0.4000           0   0.00000   0.00000
     45730 MEOH     2906     MEOH     HO1      HDP1A    0.360000        1.0080           0   0.00000   0.00000
     45731 MEOH     2906     MEOH     HO2      DUMH     0.000000        1.0080           0   0.00000   0.00000
     45732 MEOH     2906     MEOH     H1A      HDA3B    0.080000        1.0080           0   0.00000   0.00000
     45733 MEOH     2906     MEOH     H1B      HDA3B    0.080000        1.0080           0   0.00000   0.00000
     45734 MEOH     2906     MEOH     H1C      HDA3B    0.080000        1.0080           0   0.00000   0.00000
     45735 MEOH     2906     MEOH     LP1A     LPD     -0.230000        0.0000           -1   0.00000   0.00000
     45736 MEOH     2906     MEOH     LP1B     LPD     -0.230000        0.0000           -1   0.00000   0.00000
     45737 MEOH     2907     MEOH     C1       CD33B    2.314100       11.6110           0   -1.00000   1.30000
     45738 MEOH     2907     MEOH     DC1      DRUD    -2.454100        0.4000           0   0.00000   0.00000
     45739 MEOH     2907     MEOH     O1       OD31H    2.488300       15.5990           0   -1.02800   1.30000
     45740 MEOH     2907     MEOH     DO1      DRUD    -2.488300        0.4000           0   0.00000   0.00000
     45741 MEOH     2907     MEOH     HO1      HDP1A    0.360000        1.0080           0   0.00000   0.00000
     45742 MEOH     2907     MEOH     HO2      DUMH     0.000000        1.0080           0   0.00000   0.00000
     45743 MEOH     2907     MEOH     H1A      HDA3B    0.080000        1.0080           0   0.00000   0.00000
     45744 MEOH     2907     MEOH     H1B      HDA3B    0.080000        1.0080           0   0.00000   0.00000
     45745 MEOH     2907     MEOH     H1C      HDA3B    0.080000        1.0080           0   0.00000   0.00000
     45746 MEOH     2907     MEOH     LP1A     LPD     -0.230000        0.0000           -1   0.00000   0.00000
     45747 MEOH     2907     MEOH     LP1B     LPD     -0.230000        0.0000           -1   0.00000   0.00000
     45748 MEOH     2908     MEOH     C1       CD33B    2.314100       11.6110           0   -1.00000   1.30000
     45749 MEOH     2908     MEOH     DC1      DRUD    -2.454100        0.4000           0   0.00000   0.00000
     45750 MEOH     2908     MEOH     O1       OD31H    2.488300       15.5990           0   -1.02800   1.30000
     45751 MEOH     2908     MEOH     DO1      DRUD    -2.488300        0.4000           0   0.00000   0.00000
     45752 MEOH     2908     MEOH     HO1      HDP1A    0.360000        1.0080           0   0.00000   0.00000
     45753 MEOH     2908     MEOH     HO2      DUMH     0.000000        1.0080           0   0.00000   0.00000
     45754 MEOH     2908     MEOH     H1A      HDA3B    0.080000        1.0080           0   0.00000   0.00000
     45755 MEOH     2908     MEOH     H1B      HDA3B    0.080000        1.0080           0   0.00000   0.00000
     45756 MEOH     2908     MEOH     H1C      HDA3B    0.080000        1.0080           0   0.00000   0.00000
     45757 MEOH     2908     MEOH     LP1A     LPD     -0.230000        0.0000           -1   0.00000   0.00000
     45758 MEOH     2908     MEOH     LP1B     LPD     -0.230000        0.0000           -1   0.00000   0.00000
     45759 MEOH     2909     MEOH     C1       CD33B    2.314100       11.6110           0   -1.00000   1.30000
     45760 MEOH     2909     MEOH     DC1      DRUD    -2.454100        0.4000           0   0.00000   0.00000
     45761 MEOH     2909     MEOH     O1       OD31H    2.488300       15.5990           0   -1.02800   1.30000
     45762 MEOH     2909     MEOH     DO1      DRUD    -2.488300        0.4000           0   0.00000   0.00000
     45763 MEOH     2909     MEOH     HO1      HDP1A    0.360000        1.0080           0   0.00000   0.00000
     45764 MEOH     2909     MEOH     HO2      DUMH     0.000000        1.0080           0   0.00000   0.00000
     45765 MEOH     2909     MEOH     H1A      HDA3B    0.080000        1.0080           0   0.00000   0.00000
     45766 MEOH     2909     MEOH     H1B      HDA3B    0.080000        1.0080           0   0.00000   0.00000
     45767 MEOH     2909     MEOH     H1C      HDA3B    0.080000        1.0080           0   0.00000   0.00000
     45768 MEOH     2909     MEOH     LP1A     LPD     -0.230000        0.0000           -1   0.00000   0.00000
     45769 MEOH     2909     MEOH     LP1B     LPD     -0.230000        0.0000           -1   0.00000   0.00000
     45770 MEOH     2910     MEOH     C1       CD33B    2.314100       11.6110           0   -1.00000   1.30000
     45771 MEOH     2910     MEOH     DC1      DRUD    -2.454100        0.4000           0   0.00000   0.00000
     45772 MEOH     2910     MEOH     O1       OD31H    2.488300       15.5990           0   -1.02800   1.30000
     45773 MEOH     2910     MEOH     DO1      DRUD    -2.488300        0.4000           0   0.00000   0.00000
     45774 MEOH     2910     MEOH     HO1      HDP1A    0.360000        1.0080           0   0.00000   0.00000
     45775 MEOH     2910     MEOH     HO2      DUMH     0.000000        1.0080           0   0.00000   0.00000
     45776 MEOH     2910     MEOH     H1A      HDA3B    0.080000        1.0080           0   0.00000   0.00000
     45777 MEOH     2910     MEOH     H1B      HDA3B    0.080000        1.0080           0   0.00000   0.00000
     45778 MEOH     2910     MEOH     H1C      HDA3B    0.080000        1.0080           0   0.00000   0.00000
     45779 MEOH     2910     MEOH     LP1A     LPD     -0.230000        0.0000           -1   0.00000   0.00000
     45780 MEOH     2910     MEOH     LP1B     LPD     -0.230000        0.0000           -1   0.00000   0.00000
     45781 MEOH     2911     MEOH     C1       CD33B    2.314100       11.6110           0   -1.00000   1.30000
     45782 MEOH     2911     MEOH     DC1      DRUD    -2.454100        0.4000           0   0.00000   0.00000
     45783 MEOH     2911     MEOH     O1       OD31H    2.488300       15.5990           0   -1.02800   1.30000
     45784 MEOH     2911     MEOH     DO1      DRUD    -2.488300        0.4000           0   0.00000   0.00000
     45785 MEOH     2911     MEOH     HO1      HDP1A    0.360000        1.0080           0   0.00000   0.00000
     45786 MEOH     2911     MEOH     HO2      DUMH     0.000000        1.0080           0   0.00000   0.00000
     45787 MEOH     2911     MEOH     H1A      HDA3B    0.080000        1.0080           0   0.00000   0.00000
     45788 MEOH     2911     MEOH     H1B      HDA3B    0.080000        1.0080           0   0.00000   0.00000
     45789 MEOH     2911     MEOH     H1C      HDA3B    0.080000        1.0080           0   0.00000   0.00000
     45790 MEOH     2911     MEOH     LP1A     LPD     -0.230000        0.0000           -1   0.00000   0.00000
     45791 MEOH     2911     MEOH     LP1B     LPD     -0.230000        0.0000           -1   0.00000   0.00000
     45792 MEOH     2912     MEOH     C1       CD33B    2.314100       11.6110           0   -1.00000   1.30000
     45793 MEOH     2912     MEOH     DC1      DRUD    -2.454100        0.4000           0   0.00000   0.00000
     45794 MEOH     2912     MEOH     O1       OD31H    2.488300       15.5990           0   -1.02800   1.30000
     45795 MEOH     2912     MEOH     DO1      DRUD    -2.488300        0.4000           0   0.00000   0.00000
     45796 MEOH     2912     MEOH     HO1      HDP1A    0.360000        1.0080           0   0.00000   0.00000
     45797 MEOH     2912     MEOH     HO2      DUMH     0.000000        1.0080           0   0.00000   0.00000
     45798 MEOH     2912     MEOH     H1A      HDA3B    0.080000        1.0080           0   0.00000   0.00000
     45799 MEOH     2912     MEOH     H1B      HDA3B    0.080000        1.0080           0   0.00000   0.00000
     45800 MEOH     2912     MEOH     H1C      HDA3B    0.080000        1.0080           0   0.00000   0.00000
     45801 MEOH     2912     MEOH     LP1A     LPD     -0.230000        0.0000           -1   0.00000   0.00000
     45802 MEOH     2912     MEOH     LP1B     LPD     -0.230000        0.0000           -1   0.00000   0.00000
     45803 MEOH     2913     MEOH     C1       CD33B    2.314100       11.6110           0   -1.00000   1.30000
     45804 MEOH     2913     MEOH     DC1      DRUD    -2.454100        0.4000           0   0.00000   0.00000
     45805 MEOH     2913     MEOH     O1       OD31H    2.488300       15.5990           0   -1.02800   1.30000
     45806 MEOH     2913     MEOH     DO1      DRUD    -2.488300        0.4000           0   0.00000   0.00000
     45807 MEOH     2913     MEOH     HO1      HDP1A    0.360000        1.0080           0   0.00000   0.00000
     45808 MEOH     2913     MEOH     HO2      DUMH     0.000000        1.0080           0   0.00000   0.00000
     45809 MEOH     2913     MEOH     H1A      HDA3B    0.080000        1.0080           0   0.00000   0.00000
     45810 MEOH     2913     MEOH     H1B      HDA3B    0.080000        1.0080           0   0.00000   0.00000
     45811 MEOH     2913     MEOH     H1C      HDA3B    0.080000        1.0080           0   0.00000   0.00000
     45812 MEOH     2913     MEOH     LP1A     LPD     -0.230000        0.0000           -1   0.00000   0.00000
     45813 MEOH     2913     MEOH     LP1B     LPD     -0.230000        0.0000           -1   0.00000   0.00000
     45814 MEOH     2914     MEOH     C1       CD33B    2.314100       11.6110           0   -1.00000   1.30000
     45815 MEOH     2914     MEOH     DC1      DRUD    -2.454100        0.4000           0   0.00000   0.00000
     45816 MEOH     2914     MEOH     O1       OD31H    2.488300       15.5990           0   -1.02800   1.30000
     45817 MEOH     2914     MEOH     DO1      DRUD    -2.488300        0.4000           0   0.00000   0.00000
     45818 MEOH     2914     MEOH     HO1      HDP1A    0.360000        1.0080           0   0.00000   0.00000
     45819 MEOH     2914     MEOH     HO2      DUMH     0.000000        1.0080           0   0.00000   0.00000
     45820 MEOH     2914     MEOH     H1A      HDA3B    0.080000        1.0080           0   0.00000   0.00000
     45821 MEOH     2914     MEOH     H1B      HDA3B    0.080000        1.0080           0   0.00000   0.00000
     45822 MEOH     2914     MEOH     H1C      HDA3B    0.080000        1.0080           0   0.00000   0.00000
     45823 MEOH     2914     MEOH     LP1A     LPD     -0.230000        0.0000           -1   0.00000   0.00000
     45824 MEOH     2914     MEOH     LP1B     LPD     -0.230000        0.0000           -1   0.00000   0.00000
     45825 MEOH     2915     MEOH     C1       CD33B    2.314100       11.6110           0   -1.00000   1.30000
     45826 MEOH     2915     MEOH     DC1      DRUD    -2.454100        0.4000           0   0.00000   0.00000
     45827 MEOH     2915     MEOH     O1       OD31H    2.488300       15.5990           0   -1.02800   1.30000
     45828 MEOH     2915     MEOH     DO1      DRUD    -2.488300        0.4000           0   0.00000   0.00000
     45829 MEOH     2915     MEOH     HO1      HDP1A    0.360000        1.0080           0   0.00000   0.00000
     45830 MEOH     2915     MEOH     HO2      DUMH     0.000000        1.0080           0   0.00000   0.00000
     45831 MEOH     2915     MEOH     H1A      HDA3B    0.080000        1.0080           0   0.00000   0.00000
     45832 MEOH     2915     MEOH     H1B      HDA3B    0.080000        1.0080           0   0.00000   0.00000
     45833 MEOH     2915     MEOH     H1C      HDA3B    0.080000        1.0080           0   0.00000   0.00000
     45834 MEOH     2915     MEOH     LP1A     LPD     -0.230000        0.0000           -1   0.00000   0.00000
     45835 MEOH     2915     MEOH     LP1B     LPD     -0.230000        0.0000           -1   0.00000   0.00000
     45836 MEOH     2916     MEOH     C1       CD33B    2.314100       11.6110           0   -1.00000   1.30000
     45837 MEOH     2916     MEOH     DC1      DRUD    -2.454100        0.4000           0   0.00000   0.00000
     45838 MEOH     2916     MEOH     O1       OD31H    2.488300       15.5990           0   -1.02800   1.30000
     45839 MEOH     2916     MEOH     DO1      DRUD    -2.488300        0.4000           0   0.00000   0.00000
     45840 MEOH     2916     MEOH     HO1      HDP1A    0.360000        1.0080           0   0.00000   0.00000
     45841 MEOH     2916     MEOH     HO2      DUMH     0.000000        1.0080           0   0.00000   0.00000
     45842 MEOH     2916     MEOH     H1A      HDA3B    0.080000        1.0080           0   0.00000   0.00000
     45843 MEOH     2916     MEOH     H1B      HDA3B    0.080000        1.0080           0   0.00000   0.00000
     45844 MEOH     2916     MEOH     H1C      HDA3B    0.080000        1.0080           0   0.00000   0.00000
     45845 MEOH     2916     MEOH     LP1A     LPD     -0.230000        0.0000           -1   0.00000   0.00000
     45846 MEOH     2916     MEOH     LP1B     LPD     -0.230000        0.0000           -1   0.00000   0.00000
     45847 MEOH     2917     MEOH     C1       CD33B    2.314100       11.6110           0   -1.00000   1.30000
     45848 MEOH     2917     MEOH     DC1      DRUD    -2.454100        0.4000           0   0.00000   0.00000
     45849 MEOH     2917     MEOH     O1       OD31H    2.488300       15.5990           0   -1.02800   1.30000
     45850 MEOH     2917     MEOH     DO1      DRUD    -2.488300        0.4000           0   0.00000   0.00000
     45851 MEOH     2917     MEOH     HO1      HDP1A    0.360000        1.0080           0   0.00000   0.00000
     45852 MEOH     2917     MEOH     HO2      DUMH     0.000000        1.0080           0   0.00000   0.00000
     45853 MEOH     2917     MEOH     H1A      HDA3B    0.080000        1.0080           0   0.00000   0.00000
     45854 MEOH     2917     MEOH     H1B      HDA3B    0.080000        1.0080           0   0.00000   0.00000
     45855 MEOH     2917     MEOH     H1C      HDA3B    0.080000        1.0080           0   0.00000   0.00000
     45856 MEOH     2917     MEOH     LP1A     LPD     -0.230000        0.0000           -1   0.00000   0.00000
     45857 MEOH     2917     MEOH     LP1B     LPD     -0.230000        0.0000           -1   0.00000   0.00000
     45858 MEOH     2918     MEOH     C1       CD33B    2.314100       11.6110           0   -1.00000   1.30000
     45859 MEOH     2918     MEOH     DC1      DRUD    -2.454100        0.4000           0   0.00000   0.00000
     45860 MEOH     2918     MEOH     O1       OD31H    2.488300       15.5990           0   -1.02800   1.30000
     45861 MEOH     2918     MEOH     DO1      DRUD    -2.488300        0.4000           0   0.00000   0.00000
     45862 MEOH     2918     MEOH     HO1      HDP1A    0.360000        1.0080           0   0.00000   0.00000
     45863 MEOH     2918     MEOH     HO2      DUMH     0.000000        1.0080           0   0.00000   0.00000
     45864 MEOH     2918     MEOH     H1A      HDA3B    0.080000        1.0080           0   0.00000   0.00000
     45865 MEOH     2918     MEOH     H1B      HDA3B    0.080000        1.0080           0   0.00000   0.00000
     45866 MEOH     2918     MEOH     H1C      HDA3B    0.080000        1.0080           0   0.00000   0.00000
     45867 MEOH     2918     MEOH     LP1A     LPD     -0.230000        0.0000           -1   0.00000   0.00000
     45868 MEOH     2918     MEOH     LP1B     LPD     -0.230000        0.0000           -1   0.00000   0.00000
     45869 MEOH     2919     MEOH     C1       CD33B    2.314100       11.6110           0   -1.00000   1.30000
     45870 MEOH     2919     MEOH     DC1      DRUD    -2.454100        0.4000           0   0.00000   0.00000
     45871 MEOH     2919     MEOH     O1       OD31H    2.488300       15.5990           0   -1.02800   1.30000
     45872 MEOH     2919     MEOH     DO1      DRUD    -2.488300        0.4000           0   0.00000   0.00000
     45873 MEOH     2919     MEOH     HO1      HDP1A    0.360000        1.0080           0   0.00000   0.00000
     45874 MEOH     2919     MEOH     HO2      DUMH     0.000000        1.0080           0   0.00000   0.00000
     45875 MEOH     2919     MEOH     H1A      HDA3B    0.080000        1.0080           0   0.00000   0.00000
     45876 MEOH     2919     MEOH     H1B      HDA3B    0.080000        1.0080           0   0.00000   0.00000
     45877 MEOH     2919     MEOH     H1C      HDA3B    0.080000        1.0080           0   0.00000   0.00000
     45878 MEOH     2919     MEOH     LP1A     LPD     -0.230000        0.0000           -1   0.00000   0.00000
     45879 MEOH     2919     MEOH     LP1B     LPD     -0.230000        0.0000           -1   0.00000   0.00000
     45880 MEOH     2920     MEOH     C1       CD33B    2.314100       11.6110           0   -1.00000   1.30000
     45881 MEOH     2920     MEOH     DC1      DRUD    -2.454100        0.4000           0   0.00000   0.00000
     45882 MEOH     2920     MEOH     O1       OD31H    2.488300       15.5990           0   -1.02800   1.30000
     45883 MEOH     2920     MEOH     DO1      DRUD    -2.488300        0.4000           0   0.00000   0.00000
     45884 MEOH     2920     MEOH     HO1      HDP1A    0.360000        1.0080           0   0.00000   0.00000
     45885 MEOH     2920     MEOH     HO2      DUMH     0.000000        1.0080           0   0.00000   0.00000
     45886 MEOH     2920     MEOH     H1A      HDA3B    0.080000        1.0080           0   0.00000   0.00000
     45887 MEOH     2920     MEOH     H1B      HDA3B    0.080000        1.0080           0   0.00000   0.00000
     45888 MEOH     2920     MEOH     H1C      HDA3B    0.080000        1.0080           0   0.00000   0.00000
     45889 MEOH     2920     MEOH     LP1A     LPD     -0.230000        0.0000           -1   0.00000   0.00000
     45890 MEOH     2920     MEOH     LP1B     LPD     -0.230000        0.0000           -1   0.00000   0.00000
     45891 MEOH     2921     MEOH     C1       CD33B    2.314100       11.6110           0   -1.00000   1.30000
     45892 MEOH     2921     MEOH     DC1      DRUD    -2.454100        0.4000           0   0.00000   0.00000
     45893 MEOH     2921     MEOH     O1       OD31H    2.488300       15.5990           0   -1.02800   1.30000
     45894 MEOH     2921     MEOH     DO1      DRUD    -2.488300        0.4000           0   0.00000   0.00000
     45895 MEOH     2921     MEOH     HO1      HDP1A    0.360000        1.0080           0   0.00000   0.00000
     45896 MEOH     2921     MEOH     HO2      DUMH     0.000000        1.0080           0   0.00000   0.00000
     45897 MEOH     2921     MEOH     H1A      HDA3B    0.080000        1.0080           0   0.00000   0.00000
     45898 MEOH     2921     MEOH     H1B      HDA3B    0.080000        1.0080           0   0.00000   0.00000
     45899 MEOH     2921     MEOH     H1C      HDA3B    0.080000        1.0080           0   0.00000   0.00000
     45900 MEOH     2921     MEOH     LP1A     LPD     -0.230000        0.0000           -1   0.00000   0.00000
     45901 MEOH     2921     MEOH     LP1B     LPD     -0.230000        0.0000           -1   0.00000   0.00000
     45902 MEOH     2922     MEOH     C1       CD33B    2.314100       11.6110           0   -1.00000   1.30000
     45903 MEOH     2922     MEOH     DC1      DRUD    -2.454100        0.4000           0   0.00000   0.00000
     45904 MEOH     2922     MEOH     O1       OD31H    2.488300       15.5990           0   -1.02800   1.30000
     45905 MEOH     2922     MEOH     DO1      DRUD    -2.488300        0.4000           0   0.00000   0.00000
     45906 MEOH     2922     MEOH     HO1      HDP1A    0.360000        1.0080           0   0.00000   0.00000
     45907 MEOH     2922     MEOH     HO2      DUMH     0.000000        1.0080           0   0.00000   0.00000
     45908 MEOH     2922     MEOH     H1A      HDA3B    0.080000        1.0080           0   0.00000   0.00000
     45909 MEOH     2922     MEOH     H1B      HDA3B    0.080000        1.0080           0   0.00000   0.00000
     45910 MEOH     2922     MEOH     H1C      HDA3B    0.080000        1.0080           0   0.00000   0.00000
     45911 MEOH     2922     MEOH     LP1A     LPD     -0.230000        0.0000           -1   0.00000   0.00000
     45912 MEOH     2922     MEOH     LP1B     LPD     -0.230000        0.0000           -1   0.00000   0.00000
     45913 MEOH     2923     MEOH     C1       CD33B    2.314100       11.6110           0   -1.00000   1.30000
     45914 MEOH     2923     MEOH     DC1      DRUD    -2.454100        0.4000           0   0.00000   0.00000
     45915 MEOH     2923     MEOH     O1       OD31H    2.488300       15.5990           0   -1.02800   1.30000
     45916 MEOH     2923     MEOH     DO1      DRUD    -2.488300        0.4000           0   0.00000   0.00000
     45917 MEOH     2923     MEOH     HO1      HDP1A    0.360000        1.0080           0   0.00000   0.00000
     45918 MEOH     2923     MEOH     HO2      DUMH     0.000000        1.0080           0   0.00000   0.00000
     45919 MEOH     2923     MEOH     H1A      HDA3B    0.080000        1.0080           0   0.00000   0.00000
     45920 MEOH     2923     MEOH     H1B      HDA3B    0.080000        1.0080           0   0.00000   0.00000
     45921 MEOH     2923     MEOH     H1C      HDA3B    0.080000        1.0080           0   0.00000   0.00000
     45922 MEOH     2923     MEOH     LP1A     LPD     -0.230000        0.0000           -1   0.00000   0.00000
     45923 MEOH     2923     MEOH     LP1B     LPD     -0.230000        0.0000           -1   0.00000   0.00000
     45924 MEOH     2924     MEOH     C1       CD33B    2.314100       11.6110           0   -1.00000   1.30000
     45925 MEOH     2924     MEOH     DC1      DRUD    -2.454100        0.4000           0   0.00000   0.00000
     45926 MEOH     2924     MEOH     O1       OD31H    2.488300       15.5990           0   -1.02800   1.30000
     45927 MEOH     2924     MEOH     DO1      DRUD    -2.488300        0.4000           0   0.00000   0.00000
     45928 MEOH     2924     MEOH     HO1      HDP1A    0.360000        1.0080           0   0.00000   0.00000
     45929 MEOH     2924     MEOH     HO2      DUMH     0.000000        1.0080           0   0.00000   0.00000
     45930 MEOH     2924     MEOH     H1A      HDA3B    0.080000        1.0080           0   0.00000   0.00000
     45931 MEOH     2924     MEOH     H1B      HDA3B    0.080000        1.0080           0   0.00000   0.00000
     45932 MEOH     2924     MEOH     H1C      HDA3B    0.080000        1.0080           0   0.00000   0.00000
     45933 MEOH     2924     MEOH     LP1A     LPD     -0.230000        0.0000           -1   0.00000   0.00000
     45934 MEOH     2924     MEOH     LP1B     LPD     -0.230000        0.0000           -1   0.00000   0.00000
     45935 MEOH     2925     MEOH     C1       CD33B    2.314100       11.6110           0   -1.00000   1.30000
     45936 MEOH     2925     MEOH     DC1      DRUD    -2.454100        0.4000           0   0.00000   0.00000
     45937 MEOH     2925     MEOH     O1       OD31H    2.488300       15.5990           0   -1.02800   1.30000
     45938 MEOH     2925     MEOH     DO1      DRUD    -2.488300        0.4000           0   0.00000   0.00000
     45939 MEOH     2925     MEOH     HO1      HDP1A    0.360000        1.0080           0   0.00000   0.00000
     45940 MEOH     2925     MEOH     HO2      DUMH     0.000000        1.0080           0   0.00000   0.00000
     45941 MEOH     2925     MEOH     H1A      HDA3B    0.080000        1.0080           0   0.00000   0.00000
     45942 MEOH     2925     MEOH     H1B      HDA3B    0.080000        1.0080           0   0.00000   0.00000
     45943 MEOH     2925     MEOH     H1C      HDA3B    0.080000        1.0080           0   0.00000   0.00000
     45944 MEOH     2925     MEOH     LP1A     LPD     -0.230000        0.0000           -1   0.00000   0.00000
     45945 MEOH     2925     MEOH     LP1B     LPD     -0.230000        0.0000           -1   0.00000   0.00000
     45946 MEOH     2926     MEOH     C1       CD33B    2.314100       11.6110           0   -1.00000   1.30000
     45947 MEOH     2926     MEOH     DC1      DRUD    -2.454100        0.4000           0   0.00000   0.00000
     45948 MEOH     2926     MEOH     O1       OD31H    2.488300       15.5990           0   -1.02800   1.30000
     45949 MEOH     2926     MEOH     DO1      DRUD    -2.488300        0.4000           0   0.00000   0.00000
     45950 MEOH     2926     MEOH     HO1      HDP1A    0.360000        1.0080           0   0.00000   0.00000
     45951 MEOH     2926     MEOH     HO2      DUMH     0.000000        1.0080           0   0.00000   0.00000
     45952 MEOH     2926     MEOH     H1A      HDA3B    0.080000        1.0080           0   0.00000   0.00000
     45953 MEOH     2926     MEOH     H1B      HDA3B    0.080000        1.0080           0   0.00000   0.00000
     45954 MEOH     2926     MEOH     H1C      HDA3B    0.080000        1.0080           0   0.00000   0.00000
     45955 MEOH     2926     MEOH     LP1A     LPD     -0.230000        0.0000           -1   0.00000   0.00000
     45956 MEOH     2926     MEOH     LP1B     LPD     -0.230000        0.0000           -1   0.00000   0.00000
     45957 MEOH     2927     MEOH     C1       CD33B    2.314100       11.6110           0   -1.00000   1.30000
     45958 MEOH     2927     MEOH     DC1      DRUD    -2.454100        0.4000           0   0.00000   0.00000
     45959 MEOH     2927     MEOH     O1       OD31H    2.488300       15.5990           0   -1.02800   1.30000
     45960 MEOH     2927     MEOH     DO1      DRUD    -2.488300        0.4000           0   0.00000   0.00000
     45961 MEOH     2927     MEOH     HO1      HDP1A    0.360000        1.0080           0   0.00000   0.00000
     45962 MEOH     2927     MEOH     HO2      DUMH     0.000000        1.0080           0   0.00000   0.00000
     45963 MEOH     2927     MEOH     H1A      HDA3B    0.080000        1.0080           0   0.00000   0.00000
     45964 MEOH     2927     MEOH     H1B      HDA3B    0.080000        1.0080           0   0.00000   0.00000
     45965 MEOH     2927     MEOH     H1C      HDA3B    0.080000        1.0080           0   0.00000   0.00000
     45966 MEOH     2927     MEOH     LP1A     LPD     -0.230000        0.0000           -1   0.00000   0.00000
     45967 MEOH     2927     MEOH     LP1B     LPD     -0.230000        0.0000           -1   0.00000   0.00000
     45968 MEOH     2928     MEOH     C1       CD33B    2.314100       11.6110           0   -1.00000   1.30000
     45969 MEOH     2928     MEOH     DC1      DRUD    -2.454100        0.4000           0   0.00000   0.00000
     45970 MEOH     2928     MEOH     O1       OD31H    2.488300       15.5990           0   -1.02800   1.30000
     45971 MEOH     2928     MEOH     DO1      DRUD    -2.488300        0.4000           0   0.00000   0.00000
     45972 MEOH     2928     MEOH     HO1      HDP1A    0.360000        1.0080           0   0.00000   0.00000
     45973 MEOH     2928     MEOH     HO2      DUMH     0.000000        1.0080           0   0.00000   0.00000
     45974 MEOH     2928     MEOH     H1A      HDA3B    0.080000        1.0080           0   0.00000   0.00000
     45975 MEOH     2928     MEOH     H1B      HDA3B    0.080000        1.0080           0   0.00000   0.00000
     45976 MEOH     2928     MEOH     H1C      HDA3B    0.080000        1.0080           0   0.00000   0.00000
     45977 MEOH     2928     MEOH     LP1A     LPD     -0.230000        0.0000           -1   0.00000   0.00000
     45978 MEOH     2928     MEOH     LP1B     LPD     -0.230000        0.0000           -1   0.00000   0.00000
     45979 MEOH     2929     MEOH     C1       CD33B    2.314100       11.6110           0   -1.00000   1.30000
     45980 MEOH     2929     MEOH     DC1      DRUD    -2.454100        0.4000           0   0.00000   0.00000
     45981 MEOH     2929     MEOH     O1       OD31H    2.488300       15.5990           0   -1.02800   1.30000
     45982 MEOH     2929     MEOH     DO1      DRUD    -2.488300        0.4000           0   0.00000   0.00000
     45983 MEOH     2929     MEOH     HO1      HDP1A    0.360000        1.0080           0   0.00000   0.00000
     45984 MEOH     2929     MEOH     HO2      DUMH     0.000000        1.0080           0   0.00000   0.00000
     45985 MEOH     2929     MEOH     H1A      HDA3B    0.080000        1.0080           0   0.00000   0.00000
     45986 MEOH     2929     MEOH     H1B      HDA3B    0.080000        1.0080           0   0.00000   0.00000
     45987 MEOH     2929     MEOH     H1C      HDA3B    0.080000        1.0080           0   0.00000   0.00000
     45988 MEOH     2929     MEOH     LP1A     LPD     -0.230000        0.0000           -1   0.00000   0.00000
     45989 MEOH     2929     MEOH     LP1B     LPD     -0.230000        0.0000           -1   0.00000   0.00000
     45990 MEOH     2930     MEOH     C1       CD33B    2.314100       11.6110           0   -1.00000   1.30000
     45991 MEOH     2930     MEOH     DC1      DRUD    -2.454100        0.4000           0   0.00000   0.00000
     45992 MEOH     2930     MEOH     O1       OD31H    2.488300       15.5990           0   -1.02800   1.30000
     45993 MEOH     2930     MEOH     DO1      DRUD    -2.488300        0.4000           0   0.00000   0.00000
     45994 MEOH     2930     MEOH     HO1      HDP1A    0.360000        1.0080           0   0.00000   0.00000
     45995 MEOH     2930     MEOH     HO2      DUMH     0.000000        1.0080           0   0.00000   0.00000
     45996 MEOH     2930     MEOH     H1A      HDA3B    0.080000        1.0080           0   0.00000   0.00000
     45997 MEOH     2930     MEOH     H1B      HDA3B    0.080000        1.0080           0   0.00000   0.00000
     45998 MEOH     2930     MEOH     H1C      HDA3B    0.080000        1.0080           0   0.00000   0.00000
     45999 MEOH     2930     MEOH     LP1A     LPD     -0.230000        0.0000           -1   0.00000   0.00000
     46000 MEOH     2930     MEOH     LP1B     LPD     -0.230000        0.0000           -1   0.00000   0.00000
     46001 MEOH     2931     MEOH     C1       CD33B    2.314100       11.6110           0   -1.00000   1.30000
     46002 MEOH     2931     MEOH     DC1      DRUD    -2.454100        0.4000           0   0.00000   0.00000
     46003 MEOH     2931     MEOH     O1       OD31H    2.488300       15.5990           0   -1.02800   1.30000
     46004 MEOH     2931     MEOH     DO1      DRUD    -2.488300        0.4000           0   0.00000   0.00000
     46005 MEOH     2931     MEOH     HO1      HDP1A    0.360000        1.0080           0   0.00000   0.00000
     46006 MEOH     2931     MEOH     HO2      DUMH     0.000000        1.0080           0   0.00000   0.00000
     46007 MEOH     2931     MEOH     H1A      HDA3B    0.080000        1.0080           0   0.00000   0.00000
     46008 MEOH     2931     MEOH     H1B      HDA3B    0.080000        1.0080           0   0.00000   0.00000
     46009 MEOH     2931     MEOH     H1C      HDA3B    0.080000        1.0080           0   0.00000   0.00000
     46010 MEOH     2931     MEOH     LP1A     LPD     -0.230000        0.0000           -1   0.00000   0.00000
     46011 MEOH     2931     MEOH     LP1B     LPD     -0.230000        0.0000           -1   0.00000   0.00000
     46012 MEOH     2932     MEOH     C1       CD33B    2.314100       11.6110           0   -1.00000   1.30000
     46013 MEOH     2932     MEOH     DC1      DRUD    -2.454100        0.4000           0   0.00000   0.00000
     46014 MEOH     2932     MEOH     O1       OD31H    2.488300       15.5990           0   -1.02800   1.30000
     46015 MEOH     2932     MEOH     DO1      DRUD    -2.488300        0.4000           0   0.00000   0.00000
     46016 MEOH     2932     MEOH     HO1      HDP1A    0.360000        1.0080           0   0.00000   0.00000
     46017 MEOH     2932     MEOH     HO2      DUMH     0.000000        1.0080           0   0.00000   0.00000
     46018 MEOH     2932     MEOH     H1A      HDA3B    0.080000        1.0080           0   0.00000   0.00000
     46019 MEOH     2932     MEOH     H1B      HDA3B    0.080000        1.0080           0   0.00000   0.00000
     46020 MEOH     2932     MEOH     H1C      HDA3B    0.080000        1.0080           0   0.00000   0.00000
     46021 MEOH     2932     MEOH     LP1A     LPD     -0.230000        0.0000           -1   0.00000   0.00000
     46022 MEOH     2932     MEOH     LP1B     LPD     -0.230000        0.0000           -1   0.00000   0.00000
     46023 MEOH     2933     MEOH     C1       CD33B    2.314100       11.6110           0   -1.00000   1.30000
     46024 MEOH     2933     MEOH     DC1      DRUD    -2.454100        0.4000           0   0.00000   0.00000
     46025 MEOH     2933     MEOH     O1       OD31H    2.488300       15.5990           0   -1.02800   1.30000
     46026 MEOH     2933     MEOH     DO1      DRUD    -2.488300        0.4000           0   0.00000   0.00000
     46027 MEOH     2933     MEOH     HO1      HDP1A    0.360000        1.0080           0   0.00000   0.00000
     46028 MEOH     2933     MEOH     HO2      DUMH     0.000000        1.0080           0   0.00000   0.00000
     46029 MEOH     2933     MEOH     H1A      HDA3B    0.080000        1.0080           0   0.00000   0.00000
     46030 MEOH     2933     MEOH     H1B      HDA3B    0.080000        1.0080           0   0.00000   0.00000
     46031 MEOH     2933     MEOH     H1C      HDA3B    0.080000        1.0080           0   0.00000   0.00000
     46032 MEOH     2933     MEOH     LP1A     LPD     -0.230000        0.0000           -1   0.00000   0.00000
     46033 MEOH     2933     MEOH     LP1B     LPD     -0.230000        0.0000           -1   0.00000   0.00000
     46034 MEOH     2934     MEOH     C1       CD33B    2.314100       11.6110           0   -1.00000   1.30000
     46035 MEOH     2934     MEOH     DC1      DRUD    -2.454100        0.4000           0   0.00000   0.00000
     46036 MEOH     2934     MEOH     O1       OD31H    2.488300       15.5990           0   -1.02800   1.30000
     46037 MEOH     2934     MEOH     DO1      DRUD    -2.488300        0.4000           0   0.00000   0.00000
     46038 MEOH     2934     MEOH     HO1      HDP1A    0.360000        1.0080           0   0.00000   0.00000
     46039 MEOH     2934     MEOH     HO2      DUMH     0.000000        1.0080           0   0.00000   0.00000
     46040 MEOH     2934     MEOH     H1A      HDA3B    0.080000        1.0080           0   0.00000   0.00000
     46041 MEOH     2934     MEOH     H1B      HDA3B    0.080000        1.0080           0   0.00000   0.00000
     46042 MEOH     2934     MEOH     H1C      HDA3B    0.080000        1.0080           0   0.00000   0.00000
     46043 MEOH     2934     MEOH     LP1A     LPD     -0.230000        0.0000           -1   0.00000   0.00000
     46044 MEOH     2934     MEOH     LP1B     LPD     -0.230000        0.0000           -1   0.00000   0.00000
     46045 MEOH     2935     MEOH     C1       CD33B    2.314100       11.6110           0   -1.00000   1.30000
     46046 MEOH     2935     MEOH     DC1      DRUD    -2.454100        0.4000           0   0.00000   0.00000
     46047 MEOH     2935     MEOH     O1       OD31H    2.488300       15.5990           0   -1.02800   1.30000
     46048 MEOH     2935     MEOH     DO1      DRUD    -2.488300        0.4000           0   0.00000   0.00000
     46049 MEOH     2935     MEOH     HO1      HDP1A    0.360000        1.0080           0   0.00000   0.00000
     46050 MEOH     2935     MEOH     HO2      DUMH     0.000000        1.0080           0   0.00000   0.00000
     46051 MEOH     2935     MEOH     H1A      HDA3B    0.080000        1.0080           0   0.00000   0.00000
     46052 MEOH     2935     MEOH     H1B      HDA3B    0.080000        1.0080           0   0.00000   0.00000
     46053 MEOH     2935     MEOH     H1C      HDA3B    0.080000        1.0080           0   0.00000   0.00000
     46054 MEOH     2935     MEOH     LP1A     LPD     -0.230000        0.0000           -1   0.00000   0.00000
     46055 MEOH     2935     MEOH     LP1B     LPD     -0.230000        0.0000           -1   0.00000   0.00000
     46056 MEOH     2936     MEOH     C1       CD33B    2.314100       11.6110           0   -1.00000   1.30000
     46057 MEOH     2936     MEOH     DC1      DRUD    -2.454100        0.4000           0   0.00000   0.00000
     46058 MEOH     2936     MEOH     O1       OD31H    2.488300       15.5990           0   -1.02800   1.30000
     46059 MEOH     2936     MEOH     DO1      DRUD    -2.488300        0.4000           0   0.00000   0.00000
     46060 MEOH     2936     MEOH     HO1      HDP1A    0.360000        1.0080           0   0.00000   0.00000
     46061 MEOH     2936     MEOH     HO2      DUMH     0.000000        1.0080           0   0.00000   0.00000
     46062 MEOH     2936     MEOH     H1A      HDA3B    0.080000        1.0080           0   0.00000   0.00000
     46063 MEOH     2936     MEOH     H1B      HDA3B    0.080000        1.0080           0   0.00000   0.00000
     46064 MEOH     2936     MEOH     H1C      HDA3B    0.080000        1.0080           0   0.00000   0.00000
     46065 MEOH     2936     MEOH     LP1A     LPD     -0.230000        0.0000           -1   0.00000   0.00000
     46066 MEOH     2936     MEOH     LP1B     LPD     -0.230000        0.0000           -1   0.00000   0.00000
     46067 MEOH     2937     MEOH     C1       CD33B    2.314100       11.6110           0   -1.00000   1.30000
     46068 MEOH     2937     MEOH     DC1      DRUD    -2.454100        0.4000           0   0.00000   0.00000
     46069 MEOH     2937     MEOH     O1       OD31H    2.488300       15.5990           0   -1.02800   1.30000
     46070 MEOH     2937     MEOH     DO1      DRUD    -2.488300        0.4000           0   0.00000   0.00000
     46071 MEOH     2937     MEOH     HO1      HDP1A    0.360000        1.0080           0   0.00000   0.00000
     46072 MEOH     2937     MEOH     HO2      DUMH     0.000000        1.0080           0   0.00000   0.00000
     46073 MEOH     2937     MEOH     H1A      HDA3B    0.080000        1.0080           0   0.00000   0.00000
     46074 MEOH     2937     MEOH     H1B      HDA3B    0.080000        1.0080           0   0.00000   0.00000
     46075 MEOH     2937     MEOH     H1C      HDA3B    0.080000        1.0080           0   0.00000   0.00000
     46076 MEOH     2937     MEOH     LP1A     LPD     -0.230000        0.0000           -1   0.00000   0.00000
     46077 MEOH     2937     MEOH     LP1B     LPD     -0.230000        0.0000           -1   0.00000   0.00000
     46078 MEOH     2938     MEOH     C1       CD33B    2.314100       11.6110           0   -1.00000   1.30000
     46079 MEOH     2938     MEOH     DC1      DRUD    -2.454100        0.4000           0   0.00000   0.00000
     46080 MEOH     2938     MEOH     O1       OD31H    2.488300       15.5990           0   -1.02800   1.30000
     46081 MEOH     2938     MEOH     DO1      DRUD    -2.488300        0.4000           0   0.00000   0.00000
     46082 MEOH     2938     MEOH     HO1      HDP1A    0.360000        1.0080           0   0.00000   0.00000
     46083 MEOH     2938     MEOH     HO2      DUMH     0.000000        1.0080           0   0.00000   0.00000
     46084 MEOH     2938     MEOH     H1A      HDA3B    0.080000        1.0080           0   0.00000   0.00000
     46085 MEOH     2938     MEOH     H1B      HDA3B    0.080000        1.0080           0   0.00000   0.00000
     46086 MEOH     2938     MEOH     H1C      HDA3B    0.080000        1.0080           0   0.00000   0.00000
     46087 MEOH     2938     MEOH     LP1A     LPD     -0.230000        0.0000           -1   0.00000   0.00000
     46088 MEOH     2938     MEOH     LP1B     LPD     -0.230000        0.0000           -1   0.00000   0.00000
     46089 MEOH     2939     MEOH     C1       CD33B    2.314100       11.6110           0   -1.00000   1.30000
     46090 MEOH     2939     MEOH     DC1      DRUD    -2.454100        0.4000           0   0.00000   0.00000
     46091 MEOH     2939     MEOH     O1       OD31H    2.488300       15.5990           0   -1.02800   1.30000
     46092 MEOH     2939     MEOH     DO1      DRUD    -2.488300        0.4000           0   0.00000   0.00000
     46093 MEOH     2939     MEOH     HO1      HDP1A    0.360000        1.0080           0   0.00000   0.00000
     46094 MEOH     2939     MEOH     HO2      DUMH     0.000000        1.0080           0   0.00000   0.00000
     46095 MEOH     2939     MEOH     H1A      HDA3B    0.080000        1.0080           0   0.00000   0.00000
     46096 MEOH     2939     MEOH     H1B      HDA3B    0.080000        1.0080           0   0.00000   0.00000
     46097 MEOH     2939     MEOH     H1C      HDA3B    0.080000        1.0080           0   0.00000   0.00000
     46098 MEOH     2939     MEOH     LP1A     LPD     -0.230000        0.0000           -1   0.00000   0.00000
     46099 MEOH     2939     MEOH     LP1B     LPD     -0.230000        0.0000           -1   0.00000   0.00000
     46100 MEOH     2940     MEOH     C1       CD33B    2.314100       11.6110           0   -1.00000   1.30000
     46101 MEOH     2940     MEOH     DC1      DRUD    -2.454100        0.4000           0   0.00000   0.00000
     46102 MEOH     2940     MEOH     O1       OD31H    2.488300       15.5990           0   -1.02800   1.30000
     46103 MEOH     2940     MEOH     DO1      DRUD    -2.488300        0.4000           0   0.00000   0.00000
     46104 MEOH     2940     MEOH     HO1      HDP1A    0.360000        1.0080           0   0.00000   0.00000
     46105 MEOH     2940     MEOH     HO2      DUMH     0.000000        1.0080           0   0.00000   0.00000
     46106 MEOH     2940     MEOH     H1A      HDA3B    0.080000        1.0080           0   0.00000   0.00000
     46107 MEOH     2940     MEOH     H1B      HDA3B    0.080000        1.0080           0   0.00000   0.00000
     46108 MEOH     2940     MEOH     H1C      HDA3B    0.080000        1.0080           0   0.00000   0.00000
     46109 MEOH     2940     MEOH     LP1A     LPD     -0.230000        0.0000           -1   0.00000   0.00000
     46110 MEOH     2940     MEOH     LP1B     LPD     -0.230000        0.0000           -1   0.00000   0.00000
     46111 MEOH     2941     MEOH     C1       CD33B    2.314100       11.6110           0   -1.00000   1.30000
     46112 MEOH     2941     MEOH     DC1      DRUD    -2.454100        0.4000           0   0.00000   0.00000
     46113 MEOH     2941     MEOH     O1       OD31H    2.488300       15.5990           0   -1.02800   1.30000
     46114 MEOH     2941     MEOH     DO1      DRUD    -2.488300        0.4000           0   0.00000   0.00000
     46115 MEOH     2941     MEOH     HO1      HDP1A    0.360000        1.0080           0   0.00000   0.00000
     46116 MEOH     2941     MEOH     HO2      DUMH     0.000000        1.0080           0   0.00000   0.00000
     46117 MEOH     2941     MEOH     H1A      HDA3B    0.080000        1.0080           0   0.00000   0.00000
     46118 MEOH     2941     MEOH     H1B      HDA3B    0.080000        1.0080           0   0.00000   0.00000
     46119 MEOH     2941     MEOH     H1C      HDA3B    0.080000        1.0080           0   0.00000   0.00000
     46120 MEOH     2941     MEOH     LP1A     LPD     -0.230000        0.0000           -1   0.00000   0.00000
     46121 MEOH     2941     MEOH     LP1B     LPD     -0.230000        0.0000           -1   0.00000   0.00000
     46122 MEOH     2942     MEOH     C1       CD33B    2.314100       11.6110           0   -1.00000   1.30000
     46123 MEOH     2942     MEOH     DC1      DRUD    -2.454100        0.4000           0   0.00000   0.00000
     46124 MEOH     2942     MEOH     O1       OD31H    2.488300       15.5990           0   -1.02800   1.30000
     46125 MEOH     2942     MEOH     DO1      DRUD    -2.488300        0.4000           0   0.00000   0.00000
     46126 MEOH     2942     MEOH     HO1      HDP1A    0.360000        1.0080           0   0.00000   0.00000
     46127 MEOH     2942     MEOH     HO2      DUMH     0.000000        1.0080           0   0.00000   0.00000
     46128 MEOH     2942     MEOH     H1A      HDA3B    0.080000        1.0080           0   0.00000   0.00000
     46129 MEOH     2942     MEOH     H1B      HDA3B    0.080000        1.0080           0   0.00000   0.00000
     46130 MEOH     2942     MEOH     H1C      HDA3B    0.080000        1.0080           0   0.00000   0.00000
     46131 MEOH     2942     MEOH     LP1A     LPD     -0.230000        0.0000           -1   0.00000   0.00000
     46132 MEOH     2942     MEOH     LP1B     LPD     -0.230000        0.0000           -1   0.00000   0.00000
     46133 MEOH     2943     MEOH     C1       CD33B    2.314100       11.6110           0   -1.00000   1.30000
     46134 MEOH     2943     MEOH     DC1      DRUD    -2.454100        0.4000           0   0.00000   0.00000
     46135 MEOH     2943     MEOH     O1       OD31H    2.488300       15.5990           0   -1.02800   1.30000
     46136 MEOH     2943     MEOH     DO1      DRUD    -2.488300        0.4000           0   0.00000   0.00000
     46137 MEOH     2943     MEOH     HO1      HDP1A    0.360000        1.0080           0   0.00000   0.00000
     46138 MEOH     2943     MEOH     HO2      DUMH     0.000000        1.0080           0   0.00000   0.00000
     46139 MEOH     2943     MEOH     H1A      HDA3B    0.080000        1.0080           0   0.00000   0.00000
     46140 MEOH     2943     MEOH     H1B      HDA3B    0.080000        1.0080           0   0.00000   0.00000
     46141 MEOH     2943     MEOH     H1C      HDA3B    0.080000        1.0080           0   0.00000   0.00000
     46142 MEOH     2943     MEOH     LP1A     LPD     -0.230000        0.0000           -1   0.00000   0.00000
     46143 MEOH     2943     MEOH     LP1B     LPD     -0.230000        0.0000           -1   0.00000   0.00000
     46144 MEOH     2944     MEOH     C1       CD33B    2.314100       11.6110           0   -1.00000   1.30000
     46145 MEOH     2944     MEOH     DC1      DRUD    -2.454100        0.4000           0   0.00000   0.00000
     46146 MEOH     2944     MEOH     O1       OD31H    2.488300       15.5990           0   -1.02800   1.30000
     46147 MEOH     2944     MEOH     DO1      DRUD    -2.488300        0.4000           0   0.00000   0.00000
     46148 MEOH     2944     MEOH     HO1      HDP1A    0.360000        1.0080           0   0.00000   0.00000
     46149 MEOH     2944     MEOH     HO2      DUMH     0.000000        1.0080           0   0.00000   0.00000
     46150 MEOH     2944     MEOH     H1A      HDA3B    0.080000        1.0080           0   0.00000   0.00000
     46151 MEOH     2944     MEOH     H1B      HDA3B    0.080000        1.0080           0   0.00000   0.00000
     46152 MEOH     2944     MEOH     H1C      HDA3B    0.080000        1.0080           0   0.00000   0.00000
     46153 MEOH     2944     MEOH     LP1A     LPD     -0.230000        0.0000           -1   0.00000   0.00000
     46154 MEOH     2944     MEOH     LP1B     LPD     -0.230000        0.0000           -1   0.00000   0.00000
     46155 MEOH     2945     MEOH     C1       CD33B    2.314100       11.6110           0   -1.00000   1.30000
     46156 MEOH     2945     MEOH     DC1      DRUD    -2.454100        0.4000           0   0.00000   0.00000
     46157 MEOH     2945     MEOH     O1       OD31H    2.488300       15.5990           0   -1.02800   1.30000
     46158 MEOH     2945     MEOH     DO1      DRUD    -2.488300        0.4000           0   0.00000   0.00000
     46159 MEOH     2945     MEOH     HO1      HDP1A    0.360000        1.0080           0   0.00000   0.00000
     46160 MEOH     2945     MEOH     HO2      DUMH     0.000000        1.0080           0   0.00000   0.00000
     46161 MEOH     2945     MEOH     H1A      HDA3B    0.080000        1.0080           0   0.00000   0.00000
     46162 MEOH     2945     MEOH     H1B      HDA3B    0.080000        1.0080           0   0.00000   0.00000
     46163 MEOH     2945     MEOH     H1C      HDA3B    0.080000        1.0080           0   0.00000   0.00000
     46164 MEOH     2945     MEOH     LP1A     LPD     -0.230000        0.0000           -1   0.00000   0.00000
     46165 MEOH     2945     MEOH     LP1B     LPD     -0.230000        0.0000           -1   0.00000   0.00000
     46166 MEOH     2946     MEOH     C1       CD33B    2.314100       11.6110           0   -1.00000   1.30000
     46167 MEOH     2946     MEOH     DC1      DRUD    -2.454100        0.4000           0   0.00000   0.00000
     46168 MEOH     2946     MEOH     O1       OD31H    2.488300       15.5990           0   -1.02800   1.30000
     46169 MEOH     2946     MEOH     DO1      DRUD    -2.488300        0.4000           0   0.00000   0.00000
     46170 MEOH     2946     MEOH     HO1      HDP1A    0.360000        1.0080           0   0.00000   0.00000
     46171 MEOH     2946     MEOH     HO2      DUMH     0.000000        1.0080           0   0.00000   0.00000
     46172 MEOH     2946     MEOH     H1A      HDA3B    0.080000        1.0080           0   0.00000   0.00000
     46173 MEOH     2946     MEOH     H1B      HDA3B    0.080000        1.0080           0   0.00000   0.00000
     46174 MEOH     2946     MEOH     H1C      HDA3B    0.080000        1.0080           0   0.00000   0.00000
     46175 MEOH     2946     MEOH     LP1A     LPD     -0.230000        0.0000           -1   0.00000   0.00000
     46176 MEOH     2946     MEOH     LP1B     LPD     -0.230000        0.0000           -1   0.00000   0.00000
     46177 MEOH     2947     MEOH     C1       CD33B    2.314100       11.6110           0   -1.00000   1.30000
     46178 MEOH     2947     MEOH     DC1      DRUD    -2.454100        0.4000           0   0.00000   0.00000
     46179 MEOH     2947     MEOH     O1       OD31H    2.488300       15.5990           0   -1.02800   1.30000
     46180 MEOH     2947     MEOH     DO1      DRUD    -2.488300        0.4000           0   0.00000   0.00000
     46181 MEOH     2947     MEOH     HO1      HDP1A    0.360000        1.0080           0   0.00000   0.00000
     46182 MEOH     2947     MEOH     HO2      DUMH     0.000000        1.0080           0   0.00000   0.00000
     46183 MEOH     2947     MEOH     H1A      HDA3B    0.080000        1.0080           0   0.00000   0.00000
     46184 MEOH     2947     MEOH     H1B      HDA3B    0.080000        1.0080           0   0.00000   0.00000
     46185 MEOH     2947     MEOH     H1C      HDA3B    0.080000        1.0080           0   0.00000   0.00000
     46186 MEOH     2947     MEOH     LP1A     LPD     -0.230000        0.0000           -1   0.00000   0.00000
     46187 MEOH     2947     MEOH     LP1B     LPD     -0.230000        0.0000           -1   0.00000   0.00000
     46188 MEOH     2948     MEOH     C1       CD33B    2.314100       11.6110           0   -1.00000   1.30000
     46189 MEOH     2948     MEOH     DC1      DRUD    -2.454100        0.4000           0   0.00000   0.00000
     46190 MEOH     2948     MEOH     O1       OD31H    2.488300       15.5990           0   -1.02800   1.30000
     46191 MEOH     2948     MEOH     DO1      DRUD    -2.488300        0.4000           0   0.00000   0.00000
     46192 MEOH     2948     MEOH     HO1      HDP1A    0.360000        1.0080           0   0.00000   0.00000
     46193 MEOH     2948     MEOH     HO2      DUMH     0.000000        1.0080           0   0.00000   0.00000
     46194 MEOH     2948     MEOH     H1A      HDA3B    0.080000        1.0080           0   0.00000   0.00000
     46195 MEOH     2948     MEOH     H1B      HDA3B    0.080000        1.0080           0   0.00000   0.00000
     46196 MEOH     2948     MEOH     H1C      HDA3B    0.080000        1.0080           0   0.00000   0.00000
     46197 MEOH     2948     MEOH     LP1A     LPD     -0.230000        0.0000           -1   0.00000   0.00000
     46198 MEOH     2948     MEOH     LP1B     LPD     -0.230000        0.0000           -1   0.00000   0.00000
     46199 MEOH     2949     MEOH     C1       CD33B    2.314100       11.6110           0   -1.00000   1.30000
     46200 MEOH     2949     MEOH     DC1      DRUD    -2.454100        0.4000           0   0.00000   0.00000
     46201 MEOH     2949     MEOH     O1       OD31H    2.488300       15.5990           0   -1.02800   1.30000
     46202 MEOH     2949     MEOH     DO1      DRUD    -2.488300        0.4000           0   0.00000   0.00000
     46203 MEOH     2949     MEOH     HO1      HDP1A    0.360000        1.0080           0   0.00000   0.00000
     46204 MEOH     2949     MEOH     HO2      DUMH     0.000000        1.0080           0   0.00000   0.00000
     46205 MEOH     2949     MEOH     H1A      HDA3B    0.080000        1.0080           0   0.00000   0.00000
     46206 MEOH     2949     MEOH     H1B      HDA3B    0.080000        1.0080           0   0.00000   0.00000
     46207 MEOH     2949     MEOH     H1C      HDA3B    0.080000        1.0080           0   0.00000   0.00000
     46208 MEOH     2949     MEOH     LP1A     LPD     -0.230000        0.0000           -1   0.00000   0.00000
     46209 MEOH     2949     MEOH     LP1B     LPD     -0.230000        0.0000           -1   0.00000   0.00000
     46210 MEOH     2950     MEOH     C1       CD33B    2.314100       11.6110           0   -1.00000   1.30000
     46211 MEOH     2950     MEOH     DC1      DRUD    -2.454100        0.4000           0   0.00000   0.00000
     46212 MEOH     2950     MEOH     O1       OD31H    2.488300       15.5990           0   -1.02800   1.30000
     46213 MEOH     2950     MEOH     DO1      DRUD    -2.488300        0.4000           0   0.00000   0.00000
     46214 MEOH     2950     MEOH     HO1      HDP1A    0.360000        1.0080           0   0.00000   0.00000
     46215 MEOH     2950     MEOH     HO2      DUMH     0.000000        1.0080           0   0.00000   0.00000
     46216 MEOH     2950     MEOH     H1A      HDA3B    0.080000        1.0080           0   0.00000   0.00000
     46217 MEOH     2950     MEOH     H1B      HDA3B    0.080000        1.0080           0   0.00000   0.00000
     46218 MEOH     2950     MEOH     H1C      HDA3B    0.080000        1.0080           0   0.00000   0.00000
     46219 MEOH     2950     MEOH     LP1A     LPD     -0.230000        0.0000           -1   0.00000   0.00000
     46220 MEOH     2950     MEOH     LP1B     LPD     -0.230000        0.0000           -1   0.00000   0.00000
     46221 MEOH     2951     MEOH     C1       CD33B    2.314100       11.6110           0   -1.00000   1.30000
     46222 MEOH     2951     MEOH     DC1      DRUD    -2.454100        0.4000           0   0.00000   0.00000
     46223 MEOH     2951     MEOH     O1       OD31H    2.488300       15.5990           0   -1.02800   1.30000
     46224 MEOH     2951     MEOH     DO1      DRUD    -2.488300        0.4000           0   0.00000   0.00000
     46225 MEOH     2951     MEOH     HO1      HDP1A    0.360000        1.0080           0   0.00000   0.00000
     46226 MEOH     2951     MEOH     HO2      DUMH     0.000000        1.0080           0   0.00000   0.00000
     46227 MEOH     2951     MEOH     H1A      HDA3B    0.080000        1.0080           0   0.00000   0.00000
     46228 MEOH     2951     MEOH     H1B      HDA3B    0.080000        1.0080           0   0.00000   0.00000
     46229 MEOH     2951     MEOH     H1C      HDA3B    0.080000        1.0080           0   0.00000   0.00000
     46230 MEOH     2951     MEOH     LP1A     LPD     -0.230000        0.0000           -1   0.00000   0.00000
     46231 MEOH     2951     MEOH     LP1B     LPD     -0.230000        0.0000           -1   0.00000   0.00000
     46232 MEOH     2952     MEOH     C1       CD33B    2.314100       11.6110           0   -1.00000   1.30000
     46233 MEOH     2952     MEOH     DC1      DRUD    -2.454100        0.4000           0   0.00000   0.00000
     46234 MEOH     2952     MEOH     O1       OD31H    2.488300       15.5990           0   -1.02800   1.30000
     46235 MEOH     2952     MEOH     DO1      DRUD    -2.488300        0.4000           0   0.00000   0.00000
     46236 MEOH     2952     MEOH     HO1      HDP1A    0.360000        1.0080           0   0.00000   0.00000
     46237 MEOH     2952     MEOH     HO2      DUMH     0.000000        1.0080           0   0.00000   0.00000
     46238 MEOH     2952     MEOH     H1A      HDA3B    0.080000        1.0080           0   0.00000   0.00000
     46239 MEOH     2952     MEOH     H1B      HDA3B    0.080000        1.0080           0   0.00000   0.00000
     46240 MEOH     2952     MEOH     H1C      HDA3B    0.080000        1.0080           0   0.00000   0.00000
     46241 MEOH     2952     MEOH     LP1A     LPD     -0.230000        0.0000           -1   0.00000   0.00000
     46242 MEOH     2952     MEOH     LP1B     LPD     -0.230000        0.0000           -1   0.00000   0.00000
     46243 MEOH     2953     MEOH     C1       CD33B    2.314100       11.6110           0   -1.00000   1.30000
     46244 MEOH     2953     MEOH     DC1      DRUD    -2.454100        0.4000           0   0.00000   0.00000
     46245 MEOH     2953     MEOH     O1       OD31H    2.488300       15.5990           0   -1.02800   1.30000
     46246 MEOH     2953     MEOH     DO1      DRUD    -2.488300        0.4000           0   0.00000   0.00000
     46247 MEOH     2953     MEOH     HO1      HDP1A    0.360000        1.0080           0   0.00000   0.00000
     46248 MEOH     2953     MEOH     HO2      DUMH     0.000000        1.0080           0   0.00000   0.00000
     46249 MEOH     2953     MEOH     H1A      HDA3B    0.080000        1.0080           0   0.00000   0.00000
     46250 MEOH     2953     MEOH     H1B      HDA3B    0.080000        1.0080           0   0.00000   0.00000
     46251 MEOH     2953     MEOH     H1C      HDA3B    0.080000        1.0080           0   0.00000   0.00000
     46252 MEOH     2953     MEOH     LP1A     LPD     -0.230000        0.0000           -1   0.00000   0.00000
     46253 MEOH     2953     MEOH     LP1B     LPD     -0.230000        0.0000           -1   0.00000   0.00000
     46254 MEOH     2954     MEOH     C1       CD33B    2.314100       11.6110           0   -1.00000   1.30000
     46255 MEOH     2954     MEOH     DC1      DRUD    -2.454100        0.4000           0   0.00000   0.00000
     46256 MEOH     2954     MEOH     O1       OD31H    2.488300       15.5990           0   -1.02800   1.30000
     46257 MEOH     2954     MEOH     DO1      DRUD    -2.488300        0.4000           0   0.00000   0.00000
     46258 MEOH     2954     MEOH     HO1      HDP1A    0.360000        1.0080           0   0.00000   0.00000
     46259 MEOH     2954     MEOH     HO2      DUMH     0.000000        1.0080           0   0.00000   0.00000
     46260 MEOH     2954     MEOH     H1A      HDA3B    0.080000        1.0080           0   0.00000   0.00000
     46261 MEOH     2954     MEOH     H1B      HDA3B    0.080000        1.0080           0   0.00000   0.00000
     46262 MEOH     2954     MEOH     H1C      HDA3B    0.080000        1.0080           0   0.00000   0.00000
     46263 MEOH     2954     MEOH     LP1A     LPD     -0.230000        0.0000           -1   0.00000   0.00000
     46264 MEOH     2954     MEOH     LP1B     LPD     -0.230000        0.0000           -1   0.00000   0.00000
     46265 MEOH     2955     MEOH     C1       CD33B    2.314100       11.6110           0   -1.00000   1.30000
     46266 MEOH     2955     MEOH     DC1      DRUD    -2.454100        0.4000           0   0.00000   0.00000
     46267 MEOH     2955     MEOH     O1       OD31H    2.488300       15.5990           0   -1.02800   1.30000
     46268 MEOH     2955     MEOH     DO1      DRUD    -2.488300        0.4000           0   0.00000   0.00000
     46269 MEOH     2955     MEOH     HO1      HDP1A    0.360000        1.0080           0   0.00000   0.00000
     46270 MEOH     2955     MEOH     HO2      DUMH     0.000000        1.0080           0   0.00000   0.00000
     46271 MEOH     2955     MEOH     H1A      HDA3B    0.080000        1.0080           0   0.00000   0.00000
     46272 MEOH     2955     MEOH     H1B      HDA3B    0.080000        1.0080           0   0.00000   0.00000
     46273 MEOH     2955     MEOH     H1C      HDA3B    0.080000        1.0080           0   0.00000   0.00000
     46274 MEOH     2955     MEOH     LP1A     LPD     -0.230000        0.0000           -1   0.00000   0.00000
     46275 MEOH     2955     MEOH     LP1B     LPD     -0.230000        0.0000           -1   0.00000   0.00000
     46276 MEOH     2956     MEOH     C1       CD33B    2.314100       11.6110           0   -1.00000   1.30000
     46277 MEOH     2956     MEOH     DC1      DRUD    -2.454100        0.4000           0   0.00000   0.00000
     46278 MEOH     2956     MEOH     O1       OD31H    2.488300       15.5990           0   -1.02800   1.30000
     46279 MEOH     2956     MEOH     DO1      DRUD    -2.488300        0.4000           0   0.00000   0.00000
     46280 MEOH     2956     MEOH     HO1      HDP1A    0.360000        1.0080           0   0.00000   0.00000
     46281 MEOH     2956     MEOH     HO2      DUMH     0.000000        1.0080           0   0.00000   0.00000
     46282 MEOH     2956     MEOH     H1A      HDA3B    0.080000        1.0080           0   0.00000   0.00000
     46283 MEOH     2956     MEOH     H1B      HDA3B    0.080000        1.0080           0   0.00000   0.00000
     46284 MEOH     2956     MEOH     H1C      HDA3B    0.080000        1.0080           0   0.00000   0.00000
     46285 MEOH     2956     MEOH     LP1A     LPD     -0.230000        0.0000           -1   0.00000   0.00000
     46286 MEOH     2956     MEOH     LP1B     LPD     -0.230000        0.0000           -1   0.00000   0.00000
     46287 MEOH     2957     MEOH     C1       CD33B    2.314100       11.6110           0   -1.00000   1.30000
     46288 MEOH     2957     MEOH     DC1      DRUD    -2.454100        0.4000           0   0.00000   0.00000
     46289 MEOH     2957     MEOH     O1       OD31H    2.488300       15.5990           0   -1.02800   1.30000
     46290 MEOH     2957     MEOH     DO1      DRUD    -2.488300        0.4000           0   0.00000   0.00000
     46291 MEOH     2957     MEOH     HO1      HDP1A    0.360000        1.0080           0   0.00000   0.00000
     46292 MEOH     2957     MEOH     HO2      DUMH     0.000000        1.0080           0   0.00000   0.00000
     46293 MEOH     2957     MEOH     H1A      HDA3B    0.080000        1.0080           0   0.00000   0.00000
     46294 MEOH     2957     MEOH     H1B      HDA3B    0.080000        1.0080           0   0.00000   0.00000
     46295 MEOH     2957     MEOH     H1C      HDA3B    0.080000        1.0080           0   0.00000   0.00000
     46296 MEOH     2957     MEOH     LP1A     LPD     -0.230000        0.0000           -1   0.00000   0.00000
     46297 MEOH     2957     MEOH     LP1B     LPD     -0.230000        0.0000           -1   0.00000   0.00000
     46298 MEOH     2958     MEOH     C1       CD33B    2.314100       11.6110           0   -1.00000   1.30000
     46299 MEOH     2958     MEOH     DC1      DRUD    -2.454100        0.4000           0   0.00000   0.00000
     46300 MEOH     2958     MEOH     O1       OD31H    2.488300       15.5990           0   -1.02800   1.30000
     46301 MEOH     2958     MEOH     DO1      DRUD    -2.488300        0.4000           0   0.00000   0.00000
     46302 MEOH     2958     MEOH     HO1      HDP1A    0.360000        1.0080           0   0.00000   0.00000
     46303 MEOH     2958     MEOH     HO2      DUMH     0.000000        1.0080           0   0.00000   0.00000
     46304 MEOH     2958     MEOH     H1A      HDA3B    0.080000        1.0080           0   0.00000   0.00000
     46305 MEOH     2958     MEOH     H1B      HDA3B    0.080000        1.0080           0   0.00000   0.00000
     46306 MEOH     2958     MEOH     H1C      HDA3B    0.080000        1.0080           0   0.00000   0.00000
     46307 MEOH     2958     MEOH     LP1A     LPD     -0.230000        0.0000           -1   0.00000   0.00000
     46308 MEOH     2958     MEOH     LP1B     LPD     -0.230000        0.0000           -1   0.00000   0.00000
     46309 MEOH     2959     MEOH     C1       CD33B    2.314100       11.6110           0   -1.00000   1.30000
     46310 MEOH     2959     MEOH     DC1      DRUD    -2.454100        0.4000           0   0.00000   0.00000
     46311 MEOH     2959     MEOH     O1       OD31H    2.488300       15.5990           0   -1.02800   1.30000
     46312 MEOH     2959     MEOH     DO1      DRUD    -2.488300        0.4000           0   0.00000   0.00000
     46313 MEOH     2959     MEOH     HO1      HDP1A    0.360000        1.0080           0   0.00000   0.00000
     46314 MEOH     2959     MEOH     HO2      DUMH     0.000000        1.0080           0   0.00000   0.00000
     46315 MEOH     2959     MEOH     H1A      HDA3B    0.080000        1.0080           0   0.00000   0.00000
     46316 MEOH     2959     MEOH     H1B      HDA3B    0.080000        1.0080           0   0.00000   0.00000
     46317 MEOH     2959     MEOH     H1C      HDA3B    0.080000        1.0080           0   0.00000   0.00000
     46318 MEOH     2959     MEOH     LP1A     LPD     -0.230000        0.0000           -1   0.00000   0.00000
     46319 MEOH     2959     MEOH     LP1B     LPD     -0.230000        0.0000           -1   0.00000   0.00000
     46320 MEOH     2960     MEOH     C1       CD33B    2.314100       11.6110           0   -1.00000   1.30000
     46321 MEOH     2960     MEOH     DC1      DRUD    -2.454100        0.4000           0   0.00000   0.00000
     46322 MEOH     2960     MEOH     O1       OD31H    2.488300       15.5990           0   -1.02800   1.30000
     46323 MEOH     2960     MEOH     DO1      DRUD    -2.488300        0.4000           0   0.00000   0.00000
     46324 MEOH     2960     MEOH     HO1      HDP1A    0.360000        1.0080           0   0.00000   0.00000
     46325 MEOH     2960     MEOH     HO2      DUMH     0.000000        1.0080           0   0.00000   0.00000
     46326 MEOH     2960     MEOH     H1A      HDA3B    0.080000        1.0080           0   0.00000   0.00000
     46327 MEOH     2960     MEOH     H1B      HDA3B    0.080000        1.0080           0   0.00000   0.00000
     46328 MEOH     2960     MEOH     H1C      HDA3B    0.080000        1.0080           0   0.00000   0.00000
     46329 MEOH     2960     MEOH     LP1A     LPD     -0.230000        0.0000           -1   0.00000   0.00000
     46330 MEOH     2960     MEOH     LP1B     LPD     -0.230000        0.0000           -1   0.00000   0.00000
     46331 MEOH     2961     MEOH     C1       CD33B    2.314100       11.6110           0   -1.00000   1.30000
     46332 MEOH     2961     MEOH     DC1      DRUD    -2.454100        0.4000           0   0.00000   0.00000
     46333 MEOH     2961     MEOH     O1       OD31H    2.488300       15.5990           0   -1.02800   1.30000
     46334 MEOH     2961     MEOH     DO1      DRUD    -2.488300        0.4000           0   0.00000   0.00000
     46335 MEOH     2961     MEOH     HO1      HDP1A    0.360000        1.0080           0   0.00000   0.00000
     46336 MEOH     2961     MEOH     HO2      DUMH     0.000000        1.0080           0   0.00000   0.00000
     46337 MEOH     2961     MEOH     H1A      HDA3B    0.080000        1.0080           0   0.00000   0.00000
     46338 MEOH     2961     MEOH     H1B      HDA3B    0.080000        1.0080           0   0.00000   0.00000
     46339 MEOH     2961     MEOH     H1C      HDA3B    0.080000        1.0080           0   0.00000   0.00000
     46340 MEOH     2961     MEOH     LP1A     LPD     -0.230000        0.0000           -1   0.00000   0.00000
     46341 MEOH     2961     MEOH     LP1B     LPD     -0.230000        0.0000           -1   0.00000   0.00000
     46342 MEOH     2962     MEOH     C1       CD33B    2.314100       11.6110           0   -1.00000   1.30000
     46343 MEOH     2962     MEOH     DC1      DRUD    -2.454100        0.4000           0   0.00000   0.00000
     46344 MEOH     2962     MEOH     O1       OD31H    2.488300       15.5990           0   -1.02800   1.30000
     46345 MEOH     2962     MEOH     DO1      DRUD    -2.488300        0.4000           0   0.00000   0.00000
     46346 MEOH     2962     MEOH     HO1      HDP1A    0.360000        1.0080           0   0.00000   0.00000
     46347 MEOH     2962     MEOH     HO2      DUMH     0.000000        1.0080           0   0.00000   0.00000
     46348 MEOH     2962     MEOH     H1A      HDA3B    0.080000        1.0080           0   0.00000   0.00000
     46349 MEOH     2962     MEOH     H1B      HDA3B    0.080000        1.0080           0   0.00000   0.00000
     46350 MEOH     2962     MEOH     H1C      HDA3B    0.080000        1.0080           0   0.00000   0.00000
     46351 MEOH     2962     MEOH     LP1A     LPD     -0.230000        0.0000           -1   0.00000   0.00000
     46352 MEOH     2962     MEOH     LP1B     LPD     -0.230000        0.0000           -1   0.00000   0.00000
     46353 MEOH     2963     MEOH     C1       CD33B    2.314100       11.6110           0   -1.00000   1.30000
     46354 MEOH     2963     MEOH     DC1      DRUD    -2.454100        0.4000           0   0.00000   0.00000
     46355 MEOH     2963     MEOH     O1       OD31H    2.488300       15.5990           0   -1.02800   1.30000
     46356 MEOH     2963     MEOH     DO1      DRUD    -2.488300        0.4000           0   0.00000   0.00000
     46357 MEOH     2963     MEOH     HO1      HDP1A    0.360000        1.0080           0   0.00000   0.00000
     46358 MEOH     2963     MEOH     HO2      DUMH     0.000000        1.0080           0   0.00000   0.00000
     46359 MEOH     2963     MEOH     H1A      HDA3B    0.080000        1.0080           0   0.00000   0.00000
     46360 MEOH     2963     MEOH     H1B      HDA3B    0.080000        1.0080           0   0.00000   0.00000
     46361 MEOH     2963     MEOH     H1C      HDA3B    0.080000        1.0080           0   0.00000   0.00000
     46362 MEOH     2963     MEOH     LP1A     LPD     -0.230000        0.0000           -1   0.00000   0.00000
     46363 MEOH     2963     MEOH     LP1B     LPD     -0.230000        0.0000           -1   0.00000   0.00000
     46364 MEOH     2964     MEOH     C1       CD33B    2.314100       11.6110           0   -1.00000   1.30000
     46365 MEOH     2964     MEOH     DC1      DRUD    -2.454100        0.4000           0   0.00000   0.00000
     46366 MEOH     2964     MEOH     O1       OD31H    2.488300       15.5990           0   -1.02800   1.30000
     46367 MEOH     2964     MEOH     DO1      DRUD    -2.488300        0.4000           0   0.00000   0.00000
     46368 MEOH     2964     MEOH     HO1      HDP1A    0.360000        1.0080           0   0.00000   0.00000
     46369 MEOH     2964     MEOH     HO2      DUMH     0.000000        1.0080           0   0.00000   0.00000
     46370 MEOH     2964     MEOH     H1A      HDA3B    0.080000        1.0080           0   0.00000   0.00000
     46371 MEOH     2964     MEOH     H1B      HDA3B    0.080000        1.0080           0   0.00000   0.00000
     46372 MEOH     2964     MEOH     H1C      HDA3B    0.080000        1.0080           0   0.00000   0.00000
     46373 MEOH     2964     MEOH     LP1A     LPD     -0.230000        0.0000           -1   0.00000   0.00000
     46374 MEOH     2964     MEOH     LP1B     LPD     -0.230000        0.0000           -1   0.00000   0.00000
     46375 MEOH     2965     MEOH     C1       CD33B    2.314100       11.6110           0   -1.00000   1.30000
     46376 MEOH     2965     MEOH     DC1      DRUD    -2.454100        0.4000           0   0.00000   0.00000
     46377 MEOH     2965     MEOH     O1       OD31H    2.488300       15.5990           0   -1.02800   1.30000
     46378 MEOH     2965     MEOH     DO1      DRUD    -2.488300        0.4000           0   0.00000   0.00000
     46379 MEOH     2965     MEOH     HO1      HDP1A    0.360000        1.0080           0   0.00000   0.00000
     46380 MEOH     2965     MEOH     HO2      DUMH     0.000000        1.0080           0   0.00000   0.00000
     46381 MEOH     2965     MEOH     H1A      HDA3B    0.080000        1.0080           0   0.00000   0.00000
     46382 MEOH     2965     MEOH     H1B      HDA3B    0.080000        1.0080           0   0.00000   0.00000
     46383 MEOH     2965     MEOH     H1C      HDA3B    0.080000        1.0080           0   0.00000   0.00000
     46384 MEOH     2965     MEOH     LP1A     LPD     -0.230000        0.0000           -1   0.00000   0.00000
     46385 MEOH     2965     MEOH     LP1B     LPD     -0.230000        0.0000           -1   0.00000   0.00000
     46386 MEOH     2966     MEOH     C1       CD33B    2.314100       11.6110           0   -1.00000   1.30000
     46387 MEOH     2966     MEOH     DC1      DRUD    -2.454100        0.4000           0   0.00000   0.00000
     46388 MEOH     2966     MEOH     O1       OD31H    2.488300       15.5990           0   -1.02800   1.30000
     46389 MEOH     2966     MEOH     DO1      DRUD    -2.488300        0.4000           0   0.00000   0.00000
     46390 MEOH     2966     MEOH     HO1      HDP1A    0.360000        1.0080           0   0.00000   0.00000
     46391 MEOH     2966     MEOH     HO2      DUMH     0.000000        1.0080           0   0.00000   0.00000
     46392 MEOH     2966     MEOH     H1A      HDA3B    0.080000        1.0080           0   0.00000   0.00000
     46393 MEOH     2966     MEOH     H1B      HDA3B    0.080000        1.0080           0   0.00000   0.00000
     46394 MEOH     2966     MEOH     H1C      HDA3B    0.080000        1.0080           0   0.00000   0.00000
     46395 MEOH     2966     MEOH     LP1A     LPD     -0.230000        0.0000           -1   0.00000   0.00000
     46396 MEOH     2966     MEOH     LP1B     LPD     -0.230000        0.0000           -1   0.00000   0.00000
     46397 MEOH     2967     MEOH     C1       CD33B    2.314100       11.6110           0   -1.00000   1.30000
     46398 MEOH     2967     MEOH     DC1      DRUD    -2.454100        0.4000           0   0.00000   0.00000
     46399 MEOH     2967     MEOH     O1       OD31H    2.488300       15.5990           0   -1.02800   1.30000
     46400 MEOH     2967     MEOH     DO1      DRUD    -2.488300        0.4000           0   0.00000   0.00000
     46401 MEOH     2967     MEOH     HO1      HDP1A    0.360000        1.0080           0   0.00000   0.00000
     46402 MEOH     2967     MEOH     HO2      DUMH     0.000000        1.0080           0   0.00000   0.00000
     46403 MEOH     2967     MEOH     H1A      HDA3B    0.080000        1.0080           0   0.00000   0.00000
     46404 MEOH     2967     MEOH     H1B      HDA3B    0.080000        1.0080           0   0.00000   0.00000
     46405 MEOH     2967     MEOH     H1C      HDA3B    0.080000        1.0080           0   0.00000   0.00000
     46406 MEOH     2967     MEOH     LP1A     LPD     -0.230000        0.0000           -1   0.00000   0.00000
     46407 MEOH     2967     MEOH     LP1B     LPD     -0.230000        0.0000           -1   0.00000   0.00000
     46408 MEOH     2968     MEOH     C1       CD33B    2.314100       11.6110           0   -1.00000   1.30000
     46409 MEOH     2968     MEOH     DC1      DRUD    -2.454100        0.4000           0   0.00000   0.00000
     46410 MEOH     2968     MEOH     O1       OD31H    2.488300       15.5990           0   -1.02800   1.30000
     46411 MEOH     2968     MEOH     DO1      DRUD    -2.488300        0.4000           0   0.00000   0.00000
     46412 MEOH     2968     MEOH     HO1      HDP1A    0.360000        1.0080           0   0.00000   0.00000
     46413 MEOH     2968     MEOH     HO2      DUMH     0.000000        1.0080           0   0.00000   0.00000
     46414 MEOH     2968     MEOH     H1A      HDA3B    0.080000        1.0080           0   0.00000   0.00000
     46415 MEOH     2968     MEOH     H1B      HDA3B    0.080000        1.0080           0   0.00000   0.00000
     46416 MEOH     2968     MEOH     H1C      HDA3B    0.080000        1.0080           0   0.00000   0.00000
     46417 MEOH     2968     MEOH     LP1A     LPD     -0.230000        0.0000           -1   0.00000   0.00000
     46418 MEOH     2968     MEOH     LP1B     LPD     -0.230000        0.0000           -1   0.00000   0.00000
     46419 MEOH     2969     MEOH     C1       CD33B    2.314100       11.6110           0   -1.00000   1.30000
     46420 MEOH     2969     MEOH     DC1      DRUD    -2.454100        0.4000           0   0.00000   0.00000
     46421 MEOH     2969     MEOH     O1       OD31H    2.488300       15.5990           0   -1.02800   1.30000
     46422 MEOH     2969     MEOH     DO1      DRUD    -2.488300        0.4000           0   0.00000   0.00000
     46423 MEOH     2969     MEOH     HO1      HDP1A    0.360000        1.0080           0   0.00000   0.00000
     46424 MEOH     2969     MEOH     HO2      DUMH     0.000000        1.0080           0   0.00000   0.00000
     46425 MEOH     2969     MEOH     H1A      HDA3B    0.080000        1.0080           0   0.00000   0.00000
     46426 MEOH     2969     MEOH     H1B      HDA3B    0.080000        1.0080           0   0.00000   0.00000
     46427 MEOH     2969     MEOH     H1C      HDA3B    0.080000        1.0080           0   0.00000   0.00000
     46428 MEOH     2969     MEOH     LP1A     LPD     -0.230000        0.0000           -1   0.00000   0.00000
     46429 MEOH     2969     MEOH     LP1B     LPD     -0.230000        0.0000           -1   0.00000   0.00000
     46430 MEOH     2970     MEOH     C1       CD33B    2.314100       11.6110           0   -1.00000   1.30000
     46431 MEOH     2970     MEOH     DC1      DRUD    -2.454100        0.4000           0   0.00000   0.00000
     46432 MEOH     2970     MEOH     O1       OD31H    2.488300       15.5990           0   -1.02800   1.30000
     46433 MEOH     2970     MEOH     DO1      DRUD    -2.488300        0.4000           0   0.00000   0.00000
     46434 MEOH     2970     MEOH     HO1      HDP1A    0.360000        1.0080           0   0.00000   0.00000
     46435 MEOH     2970     MEOH     HO2      DUMH     0.000000        1.0080           0   0.00000   0.00000
     46436 MEOH     2970     MEOH     H1A      HDA3B    0.080000        1.0080           0   0.00000   0.00000
     46437 MEOH     2970     MEOH     H1B      HDA3B    0.080000        1.0080           0   0.00000   0.00000
     46438 MEOH     2970     MEOH     H1C      HDA3B    0.080000        1.0080           0   0.00000   0.00000
     46439 MEOH     2970     MEOH     LP1A     LPD     -0.230000        0.0000           -1   0.00000   0.00000
     46440 MEOH     2970     MEOH     LP1B     LPD     -0.230000        0.0000           -1   0.00000   0.00000
     46441 MEOH     2971     MEOH     C1       CD33B    2.314100       11.6110           0   -1.00000   1.30000
     46442 MEOH     2971     MEOH     DC1      DRUD    -2.454100        0.4000           0   0.00000   0.00000
     46443 MEOH     2971     MEOH     O1       OD31H    2.488300       15.5990           0   -1.02800   1.30000
     46444 MEOH     2971     MEOH     DO1      DRUD    -2.488300        0.4000           0   0.00000   0.00000
     46445 MEOH     2971     MEOH     HO1      HDP1A    0.360000        1.0080           0   0.00000   0.00000
     46446 MEOH     2971     MEOH     HO2      DUMH     0.000000        1.0080           0   0.00000   0.00000
     46447 MEOH     2971     MEOH     H1A      HDA3B    0.080000        1.0080           0   0.00000   0.00000
     46448 MEOH     2971     MEOH     H1B      HDA3B    0.080000        1.0080           0   0.00000   0.00000
     46449 MEOH     2971     MEOH     H1C      HDA3B    0.080000        1.0080           0   0.00000   0.00000
     46450 MEOH     2971     MEOH     LP1A     LPD     -0.230000        0.0000           -1   0.00000   0.00000
     46451 MEOH     2971     MEOH     LP1B     LPD     -0.230000        0.0000           -1   0.00000   0.00000
     46452 MEOH     2972     MEOH     C1       CD33B    2.314100       11.6110           0   -1.00000   1.30000
     46453 MEOH     2972     MEOH     DC1      DRUD    -2.454100        0.4000           0   0.00000   0.00000
     46454 MEOH     2972     MEOH     O1       OD31H    2.488300       15.5990           0   -1.02800   1.30000
     46455 MEOH     2972     MEOH     DO1      DRUD    -2.488300        0.4000           0   0.00000   0.00000
     46456 MEOH     2972     MEOH     HO1      HDP1A    0.360000        1.0080           0   0.00000   0.00000
     46457 MEOH     2972     MEOH     HO2      DUMH     0.000000        1.0080           0   0.00000   0.00000
     46458 MEOH     2972     MEOH     H1A      HDA3B    0.080000        1.0080           0   0.00000   0.00000
     46459 MEOH     2972     MEOH     H1B      HDA3B    0.080000        1.0080           0   0.00000   0.00000
     46460 MEOH     2972     MEOH     H1C      HDA3B    0.080000        1.0080           0   0.00000   0.00000
     46461 MEOH     2972     MEOH     LP1A     LPD     -0.230000        0.0000           -1   0.00000   0.00000
     46462 MEOH     2972     MEOH     LP1B     LPD     -0.230000        0.0000           -1   0.00000   0.00000
     46463 MEOH     2973     MEOH     C1       CD33B    2.314100       11.6110           0   -1.00000   1.30000
     46464 MEOH     2973     MEOH     DC1      DRUD    -2.454100        0.4000           0   0.00000   0.00000
     46465 MEOH     2973     MEOH     O1       OD31H    2.488300       15.5990           0   -1.02800   1.30000
     46466 MEOH     2973     MEOH     DO1      DRUD    -2.488300        0.4000           0   0.00000   0.00000
     46467 MEOH     2973     MEOH     HO1      HDP1A    0.360000        1.0080           0   0.00000   0.00000
     46468 MEOH     2973     MEOH     HO2      DUMH     0.000000        1.0080           0   0.00000   0.00000
     46469 MEOH     2973     MEOH     H1A      HDA3B    0.080000        1.0080           0   0.00000   0.00000
     46470 MEOH     2973     MEOH     H1B      HDA3B    0.080000        1.0080           0   0.00000   0.00000
     46471 MEOH     2973     MEOH     H1C      HDA3B    0.080000        1.0080           0   0.00000   0.00000
     46472 MEOH     2973     MEOH     LP1A     LPD     -0.230000        0.0000           -1   0.00000   0.00000
     46473 MEOH     2973     MEOH     LP1B     LPD     -0.230000        0.0000           -1   0.00000   0.00000
     46474 MEOH     2974     MEOH     C1       CD33B    2.314100       11.6110           0   -1.00000   1.30000
     46475 MEOH     2974     MEOH     DC1      DRUD    -2.454100        0.4000           0   0.00000   0.00000
     46476 MEOH     2974     MEOH     O1       OD31H    2.488300       15.5990           0   -1.02800   1.30000
     46477 MEOH     2974     MEOH     DO1      DRUD    -2.488300        0.4000           0   0.00000   0.00000
     46478 MEOH     2974     MEOH     HO1      HDP1A    0.360000        1.0080           0   0.00000   0.00000
     46479 MEOH     2974     MEOH     HO2      DUMH     0.000000        1.0080           0   0.00000   0.00000
     46480 MEOH     2974     MEOH     H1A      HDA3B    0.080000        1.0080           0   0.00000   0.00000
     46481 MEOH     2974     MEOH     H1B      HDA3B    0.080000        1.0080           0   0.00000   0.00000
     46482 MEOH     2974     MEOH     H1C      HDA3B    0.080000        1.0080           0   0.00000   0.00000
     46483 MEOH     2974     MEOH     LP1A     LPD     -0.230000        0.0000           -1   0.00000   0.00000
     46484 MEOH     2974     MEOH     LP1B     LPD     -0.230000        0.0000           -1   0.00000   0.00000
     46485 MEOH     2975     MEOH     C1       CD33B    2.314100       11.6110           0   -1.00000   1.30000
     46486 MEOH     2975     MEOH     DC1      DRUD    -2.454100        0.4000           0   0.00000   0.00000
     46487 MEOH     2975     MEOH     O1       OD31H    2.488300       15.5990           0   -1.02800   1.30000
     46488 MEOH     2975     MEOH     DO1      DRUD    -2.488300        0.4000           0   0.00000   0.00000
     46489 MEOH     2975     MEOH     HO1      HDP1A    0.360000        1.0080           0   0.00000   0.00000
     46490 MEOH     2975     MEOH     HO2      DUMH     0.000000        1.0080           0   0.00000   0.00000
     46491 MEOH     2975     MEOH     H1A      HDA3B    0.080000        1.0080           0   0.00000   0.00000
     46492 MEOH     2975     MEOH     H1B      HDA3B    0.080000        1.0080           0   0.00000   0.00000
     46493 MEOH     2975     MEOH     H1C      HDA3B    0.080000        1.0080           0   0.00000   0.00000
     46494 MEOH     2975     MEOH     LP1A     LPD     -0.230000        0.0000           -1   0.00000   0.00000
     46495 MEOH     2975     MEOH     LP1B     LPD     -0.230000        0.0000           -1   0.00000   0.00000
     46496 MEOH     2976     MEOH     C1       CD33B    2.314100       11.6110           0   -1.00000   1.30000
     46497 MEOH     2976     MEOH     DC1      DRUD    -2.454100        0.4000           0   0.00000   0.00000
     46498 MEOH     2976     MEOH     O1       OD31H    2.488300       15.5990           0   -1.02800   1.30000
     46499 MEOH     2976     MEOH     DO1      DRUD    -2.488300        0.4000           0   0.00000   0.00000
     46500 MEOH     2976     MEOH     HO1      HDP1A    0.360000        1.0080           0   0.00000   0.00000
     46501 MEOH     2976     MEOH     HO2      DUMH     0.000000        1.0080           0   0.00000   0.00000
     46502 MEOH     2976     MEOH     H1A      HDA3B    0.080000        1.0080           0   0.00000   0.00000
     46503 MEOH     2976     MEOH     H1B      HDA3B    0.080000        1.0080           0   0.00000   0.00000
     46504 MEOH     2976     MEOH     H1C      HDA3B    0.080000        1.0080           0   0.00000   0.00000
     46505 MEOH     2976     MEOH     LP1A     LPD     -0.230000        0.0000           -1   0.00000   0.00000
     46506 MEOH     2976     MEOH     LP1B     LPD     -0.230000        0.0000           -1   0.00000   0.00000
     46507 MEOH     2977     MEOH     C1       CD33B    2.314100       11.6110           0   -1.00000   1.30000
     46508 MEOH     2977     MEOH     DC1      DRUD    -2.454100        0.4000           0   0.00000   0.00000
     46509 MEOH     2977     MEOH     O1       OD31H    2.488300       15.5990           0   -1.02800   1.30000
     46510 MEOH     2977     MEOH     DO1      DRUD    -2.488300        0.4000           0   0.00000   0.00000
     46511 MEOH     2977     MEOH     HO1      HDP1A    0.360000        1.0080           0   0.00000   0.00000
     46512 MEOH     2977     MEOH     HO2      DUMH     0.000000        1.0080           0   0.00000   0.00000
     46513 MEOH     2977     MEOH     H1A      HDA3B    0.080000        1.0080           0   0.00000   0.00000
     46514 MEOH     2977     MEOH     H1B      HDA3B    0.080000        1.0080           0   0.00000   0.00000
     46515 MEOH     2977     MEOH     H1C      HDA3B    0.080000        1.0080           0   0.00000   0.00000
     46516 MEOH     2977     MEOH     LP1A     LPD     -0.230000        0.0000           -1   0.00000   0.00000
     46517 MEOH     2977     MEOH     LP1B     LPD     -0.230000        0.0000           -1   0.00000   0.00000
     46518 MEOH     2978     MEOH     C1       CD33B    2.314100       11.6110           0   -1.00000   1.30000
     46519 MEOH     2978     MEOH     DC1      DRUD    -2.454100        0.4000           0   0.00000   0.00000
     46520 MEOH     2978     MEOH     O1       OD31H    2.488300       15.5990           0   -1.02800   1.30000
     46521 MEOH     2978     MEOH     DO1      DRUD    -2.488300        0.4000           0   0.00000   0.00000
     46522 MEOH     2978     MEOH     HO1      HDP1A    0.360000        1.0080           0   0.00000   0.00000
     46523 MEOH     2978     MEOH     HO2      DUMH     0.000000        1.0080           0   0.00000   0.00000
     46524 MEOH     2978     MEOH     H1A      HDA3B    0.080000        1.0080           0   0.00000   0.00000
     46525 MEOH     2978     MEOH     H1B      HDA3B    0.080000        1.0080           0   0.00000   0.00000
     46526 MEOH     2978     MEOH     H1C      HDA3B    0.080000        1.0080           0   0.00000   0.00000
     46527 MEOH     2978     MEOH     LP1A     LPD     -0.230000        0.0000           -1   0.00000   0.00000
     46528 MEOH     2978     MEOH     LP1B     LPD     -0.230000        0.0000           -1   0.00000   0.00000
     46529 MEOH     2979     MEOH     C1       CD33B    2.314100       11.6110           0   -1.00000   1.30000
     46530 MEOH     2979     MEOH     DC1      DRUD    -2.454100        0.4000           0   0.00000   0.00000
     46531 MEOH     2979     MEOH     O1       OD31H    2.488300       15.5990           0   -1.02800   1.30000
     46532 MEOH     2979     MEOH     DO1      DRUD    -2.488300        0.4000           0   0.00000   0.00000
     46533 MEOH     2979     MEOH     HO1      HDP1A    0.360000        1.0080           0   0.00000   0.00000
     46534 MEOH     2979     MEOH     HO2      DUMH     0.000000        1.0080           0   0.00000   0.00000
     46535 MEOH     2979     MEOH     H1A      HDA3B    0.080000        1.0080           0   0.00000   0.00000
     46536 MEOH     2979     MEOH     H1B      HDA3B    0.080000        1.0080           0   0.00000   0.00000
     46537 MEOH     2979     MEOH     H1C      HDA3B    0.080000        1.0080           0   0.00000   0.00000
     46538 MEOH     2979     MEOH     LP1A     LPD     -0.230000        0.0000           -1   0.00000   0.00000
     46539 MEOH     2979     MEOH     LP1B     LPD     -0.230000        0.0000           -1   0.00000   0.00000
     46540 MEOH     2980     MEOH     C1       CD33B    2.314100       11.6110           0   -1.00000   1.30000
     46541 MEOH     2980     MEOH     DC1      DRUD    -2.454100        0.4000           0   0.00000   0.00000
     46542 MEOH     2980     MEOH     O1       OD31H    2.488300       15.5990           0   -1.02800   1.30000
     46543 MEOH     2980     MEOH     DO1      DRUD    -2.488300        0.4000           0   0.00000   0.00000
     46544 MEOH     2980     MEOH     HO1      HDP1A    0.360000        1.0080           0   0.00000   0.00000
     46545 MEOH     2980     MEOH     HO2      DUMH     0.000000        1.0080           0   0.00000   0.00000
     46546 MEOH     2980     MEOH     H1A      HDA3B    0.080000        1.0080           0   0.00000   0.00000
     46547 MEOH     2980     MEOH     H1B      HDA3B    0.080000        1.0080           0   0.00000   0.00000
     46548 MEOH     2980     MEOH     H1C      HDA3B    0.080000        1.0080           0   0.00000   0.00000
     46549 MEOH     2980     MEOH     LP1A     LPD     -0.230000        0.0000           -1   0.00000   0.00000
     46550 MEOH     2980     MEOH     LP1B     LPD     -0.230000        0.0000           -1   0.00000   0.00000
     46551 MEOH     2981     MEOH     C1       CD33B    2.314100       11.6110           0   -1.00000   1.30000
     46552 MEOH     2981     MEOH     DC1      DRUD    -2.454100        0.4000           0   0.00000   0.00000
     46553 MEOH     2981     MEOH     O1       OD31H    2.488300       15.5990           0   -1.02800   1.30000
     46554 MEOH     2981     MEOH     DO1      DRUD    -2.488300        0.4000           0   0.00000   0.00000
     46555 MEOH     2981     MEOH     HO1      HDP1A    0.360000        1.0080           0   0.00000   0.00000
     46556 MEOH     2981     MEOH     HO2      DUMH     0.000000        1.0080           0   0.00000   0.00000
     46557 MEOH     2981     MEOH     H1A      HDA3B    0.080000        1.0080           0   0.00000   0.00000
     46558 MEOH     2981     MEOH     H1B      HDA3B    0.080000        1.0080           0   0.00000   0.00000
     46559 MEOH     2981     MEOH     H1C      HDA3B    0.080000        1.0080           0   0.00000   0.00000
     46560 MEOH     2981     MEOH     LP1A     LPD     -0.230000        0.0000           -1   0.00000   0.00000
     46561 MEOH     2981     MEOH     LP1B     LPD     -0.230000        0.0000           -1   0.00000   0.00000
     46562 MEOH     2982     MEOH     C1       CD33B    2.314100       11.6110           0   -1.00000   1.30000
     46563 MEOH     2982     MEOH     DC1      DRUD    -2.454100        0.4000           0   0.00000   0.00000
     46564 MEOH     2982     MEOH     O1       OD31H    2.488300       15.5990           0   -1.02800   1.30000
     46565 MEOH     2982     MEOH     DO1      DRUD    -2.488300        0.4000           0   0.00000   0.00000
     46566 MEOH     2982     MEOH     HO1      HDP1A    0.360000        1.0080           0   0.00000   0.00000
     46567 MEOH     2982     MEOH     HO2      DUMH     0.000000        1.0080           0   0.00000   0.00000
     46568 MEOH     2982     MEOH     H1A      HDA3B    0.080000        1.0080           0   0.00000   0.00000
     46569 MEOH     2982     MEOH     H1B      HDA3B    0.080000        1.0080           0   0.00000   0.00000
     46570 MEOH     2982     MEOH     H1C      HDA3B    0.080000        1.0080           0   0.00000   0.00000
     46571 MEOH     2982     MEOH     LP1A     LPD     -0.230000        0.0000           -1   0.00000   0.00000
     46572 MEOH     2982     MEOH     LP1B     LPD     -0.230000        0.0000           -1   0.00000   0.00000
     46573 MEOH     2983     MEOH     C1       CD33B    2.314100       11.6110           0   -1.00000   1.30000
     46574 MEOH     2983     MEOH     DC1      DRUD    -2.454100        0.4000           0   0.00000   0.00000
     46575 MEOH     2983     MEOH     O1       OD31H    2.488300       15.5990           0   -1.02800   1.30000
     46576 MEOH     2983     MEOH     DO1      DRUD    -2.488300        0.4000           0   0.00000   0.00000
     46577 MEOH     2983     MEOH     HO1      HDP1A    0.360000        1.0080           0   0.00000   0.00000
     46578 MEOH     2983     MEOH     HO2      DUMH     0.000000        1.0080           0   0.00000   0.00000
     46579 MEOH     2983     MEOH     H1A      HDA3B    0.080000        1.0080           0   0.00000   0.00000
     46580 MEOH     2983     MEOH     H1B      HDA3B    0.080000        1.0080           0   0.00000   0.00000
     46581 MEOH     2983     MEOH     H1C      HDA3B    0.080000        1.0080           0   0.00000   0.00000
     46582 MEOH     2983     MEOH     LP1A     LPD     -0.230000        0.0000           -1   0.00000   0.00000
     46583 MEOH     2983     MEOH     LP1B     LPD     -0.230000        0.0000           -1   0.00000   0.00000
     46584 MEOH     2984     MEOH     C1       CD33B    2.314100       11.6110           0   -1.00000   1.30000
     46585 MEOH     2984     MEOH     DC1      DRUD    -2.454100        0.4000           0   0.00000   0.00000
     46586 MEOH     2984     MEOH     O1       OD31H    2.488300       15.5990           0   -1.02800   1.30000
     46587 MEOH     2984     MEOH     DO1      DRUD    -2.488300        0.4000           0   0.00000   0.00000
     46588 MEOH     2984     MEOH     HO1      HDP1A    0.360000        1.0080           0   0.00000   0.00000
     46589 MEOH     2984     MEOH     HO2      DUMH     0.000000        1.0080           0   0.00000   0.00000
     46590 MEOH     2984     MEOH     H1A      HDA3B    0.080000        1.0080           0   0.00000   0.00000
     46591 MEOH     2984     MEOH     H1B      HDA3B    0.080000        1.0080           0   0.00000   0.00000
     46592 MEOH     2984     MEOH     H1C      HDA3B    0.080000        1.0080           0   0.00000   0.00000
     46593 MEOH     2984     MEOH     LP1A     LPD     -0.230000        0.0000           -1   0.00000   0.00000
     46594 MEOH     2984     MEOH     LP1B     LPD     -0.230000        0.0000           -1   0.00000   0.00000
     46595 MEOH     2985     MEOH     C1       CD33B    2.314100       11.6110           0   -1.00000   1.30000
     46596 MEOH     2985     MEOH     DC1      DRUD    -2.454100        0.4000           0   0.00000   0.00000
     46597 MEOH     2985     MEOH     O1       OD31H    2.488300       15.5990           0   -1.02800   1.30000
     46598 MEOH     2985     MEOH     DO1      DRUD    -2.488300        0.4000           0   0.00000   0.00000
     46599 MEOH     2985     MEOH     HO1      HDP1A    0.360000        1.0080           0   0.00000   0.00000
     46600 MEOH     2985     MEOH     HO2      DUMH     0.000000        1.0080           0   0.00000   0.00000
     46601 MEOH     2985     MEOH     H1A      HDA3B    0.080000        1.0080           0   0.00000   0.00000
     46602 MEOH     2985     MEOH     H1B      HDA3B    0.080000        1.0080           0   0.00000   0.00000
     46603 MEOH     2985     MEOH     H1C      HDA3B    0.080000        1.0080           0   0.00000   0.00000
     46604 MEOH     2985     MEOH     LP1A     LPD     -0.230000        0.0000           -1   0.00000   0.00000
     46605 MEOH     2985     MEOH     LP1B     LPD     -0.230000        0.0000           -1   0.00000   0.00000
     46606 MEOH     2986     MEOH     C1       CD33B    2.314100       11.6110           0   -1.00000   1.30000
     46607 MEOH     2986     MEOH     DC1      DRUD    -2.454100        0.4000           0   0.00000   0.00000
     46608 MEOH     2986     MEOH     O1       OD31H    2.488300       15.5990           0   -1.02800   1.30000
     46609 MEOH     2986     MEOH     DO1      DRUD    -2.488300        0.4000           0   0.00000   0.00000
     46610 MEOH     2986     MEOH     HO1      HDP1A    0.360000        1.0080           0   0.00000   0.00000
     46611 MEOH     2986     MEOH     HO2      DUMH     0.000000        1.0080           0   0.00000   0.00000
     46612 MEOH     2986     MEOH     H1A      HDA3B    0.080000        1.0080           0   0.00000   0.00000
     46613 MEOH     2986     MEOH     H1B      HDA3B    0.080000        1.0080           0   0.00000   0.00000
     46614 MEOH     2986     MEOH     H1C      HDA3B    0.080000        1.0080           0   0.00000   0.00000
     46615 MEOH     2986     MEOH     LP1A     LPD     -0.230000        0.0000           -1   0.00000   0.00000
     46616 MEOH     2986     MEOH     LP1B     LPD     -0.230000        0.0000           -1   0.00000   0.00000
     46617 MEOH     2987     MEOH     C1       CD33B    2.314100       11.6110           0   -1.00000   1.30000
     46618 MEOH     2987     MEOH     DC1      DRUD    -2.454100        0.4000           0   0.00000   0.00000
     46619 MEOH     2987     MEOH     O1       OD31H    2.488300       15.5990           0   -1.02800   1.30000
     46620 MEOH     2987     MEOH     DO1      DRUD    -2.488300        0.4000           0   0.00000   0.00000
     46621 MEOH     2987     MEOH     HO1      HDP1A    0.360000        1.0080           0   0.00000   0.00000
     46622 MEOH     2987     MEOH     HO2      DUMH     0.000000        1.0080           0   0.00000   0.00000
     46623 MEOH     2987     MEOH     H1A      HDA3B    0.080000        1.0080           0   0.00000   0.00000
     46624 MEOH     2987     MEOH     H1B      HDA3B    0.080000        1.0080           0   0.00000   0.00000
     46625 MEOH     2987     MEOH     H1C      HDA3B    0.080000        1.0080           0   0.00000   0.00000
     46626 MEOH     2987     MEOH     LP1A     LPD     -0.230000        0.0000           -1   0.00000   0.00000
     46627 MEOH     2987     MEOH     LP1B     LPD     -0.230000        0.0000           -1   0.00000   0.00000
     46628 MEOH     2988     MEOH     C1       CD33B    2.314100       11.6110           0   -1.00000   1.30000
     46629 MEOH     2988     MEOH     DC1      DRUD    -2.454100        0.4000           0   0.00000   0.00000
     46630 MEOH     2988     MEOH     O1       OD31H    2.488300       15.5990           0   -1.02800   1.30000
     46631 MEOH     2988     MEOH     DO1      DRUD    -2.488300        0.4000           0   0.00000   0.00000
     46632 MEOH     2988     MEOH     HO1      HDP1A    0.360000        1.0080           0   0.00000   0.00000
     46633 MEOH     2988     MEOH     HO2      DUMH     0.000000        1.0080           0   0.00000   0.00000
     46634 MEOH     2988     MEOH     H1A      HDA3B    0.080000        1.0080           0   0.00000   0.00000
     46635 MEOH     2988     MEOH     H1B      HDA3B    0.080000        1.0080           0   0.00000   0.00000
     46636 MEOH     2988     MEOH     H1C      HDA3B    0.080000        1.0080           0   0.00000   0.00000
     46637 MEOH     2988     MEOH     LP1A     LPD     -0.230000        0.0000           -1   0.00000   0.00000
     46638 MEOH     2988     MEOH     LP1B     LPD     -0.230000        0.0000           -1   0.00000   0.00000
     46639 MEOH     2989     MEOH     C1       CD33B    2.314100       11.6110           0   -1.00000   1.30000
     46640 MEOH     2989     MEOH     DC1      DRUD    -2.454100        0.4000           0   0.00000   0.00000
     46641 MEOH     2989     MEOH     O1       OD31H    2.488300       15.5990           0   -1.02800   1.30000
     46642 MEOH     2989     MEOH     DO1      DRUD    -2.488300        0.4000           0   0.00000   0.00000
     46643 MEOH     2989     MEOH     HO1      HDP1A    0.360000        1.0080           0   0.00000   0.00000
     46644 MEOH     2989     MEOH     HO2      DUMH     0.000000        1.0080           0   0.00000   0.00000
     46645 MEOH     2989     MEOH     H1A      HDA3B    0.080000        1.0080           0   0.00000   0.00000
     46646 MEOH     2989     MEOH     H1B      HDA3B    0.080000        1.0080           0   0.00000   0.00000
     46647 MEOH     2989     MEOH     H1C      HDA3B    0.080000        1.0080           0   0.00000   0.00000
     46648 MEOH     2989     MEOH     LP1A     LPD     -0.230000        0.0000           -1   0.00000   0.00000
     46649 MEOH     2989     MEOH     LP1B     LPD     -0.230000        0.0000           -1   0.00000   0.00000
     46650 MEOH     2990     MEOH     C1       CD33B    2.314100       11.6110           0   -1.00000   1.30000
     46651 MEOH     2990     MEOH     DC1      DRUD    -2.454100        0.4000           0   0.00000   0.00000
     46652 MEOH     2990     MEOH     O1       OD31H    2.488300       15.5990           0   -1.02800   1.30000
     46653 MEOH     2990     MEOH     DO1      DRUD    -2.488300        0.4000           0   0.00000   0.00000
     46654 MEOH     2990     MEOH     HO1      HDP1A    0.360000        1.0080           0   0.00000   0.00000
     46655 MEOH     2990     MEOH     HO2      DUMH     0.000000        1.0080           0   0.00000   0.00000
     46656 MEOH     2990     MEOH     H1A      HDA3B    0.080000        1.0080           0   0.00000   0.00000
     46657 MEOH     2990     MEOH     H1B      HDA3B    0.080000        1.0080           0   0.00000   0.00000
     46658 MEOH     2990     MEOH     H1C      HDA3B    0.080000        1.0080           0   0.00000   0.00000
     46659 MEOH     2990     MEOH     LP1A     LPD     -0.230000        0.0000           -1   0.00000   0.00000
     46660 MEOH     2990     MEOH     LP1B     LPD     -0.230000        0.0000           -1   0.00000   0.00000
     46661 MEOH     2991     MEOH     C1       CD33B    2.314100       11.6110           0   -1.00000   1.30000
     46662 MEOH     2991     MEOH     DC1      DRUD    -2.454100        0.4000           0   0.00000   0.00000
     46663 MEOH     2991     MEOH     O1       OD31H    2.488300       15.5990           0   -1.02800   1.30000
     46664 MEOH     2991     MEOH     DO1      DRUD    -2.488300        0.4000           0   0.00000   0.00000
     46665 MEOH     2991     MEOH     HO1      HDP1A    0.360000        1.0080           0   0.00000   0.00000
     46666 MEOH     2991     MEOH     HO2      DUMH     0.000000        1.0080           0   0.00000   0.00000
     46667 MEOH     2991     MEOH     H1A      HDA3B    0.080000        1.0080           0   0.00000   0.00000
     46668 MEOH     2991     MEOH     H1B      HDA3B    0.080000        1.0080           0   0.00000   0.00000
     46669 MEOH     2991     MEOH     H1C      HDA3B    0.080000        1.0080           0   0.00000   0.00000
     46670 MEOH     2991     MEOH     LP1A     LPD     -0.230000        0.0000           -1   0.00000   0.00000
     46671 MEOH     2991     MEOH     LP1B     LPD     -0.230000        0.0000           -1   0.00000   0.00000
     46672 MEOH     2992     MEOH     C1       CD33B    2.314100       11.6110           0   -1.00000   1.30000
     46673 MEOH     2992     MEOH     DC1      DRUD    -2.454100        0.4000           0   0.00000   0.00000
     46674 MEOH     2992     MEOH     O1       OD31H    2.488300       15.5990           0   -1.02800   1.30000
     46675 MEOH     2992     MEOH     DO1      DRUD    -2.488300        0.4000           0   0.00000   0.00000
     46676 MEOH     2992     MEOH     HO1      HDP1A    0.360000        1.0080           0   0.00000   0.00000
     46677 MEOH     2992     MEOH     HO2      DUMH     0.000000        1.0080           0   0.00000   0.00000
     46678 MEOH     2992     MEOH     H1A      HDA3B    0.080000        1.0080           0   0.00000   0.00000
     46679 MEOH     2992     MEOH     H1B      HDA3B    0.080000        1.0080           0   0.00000   0.00000
     46680 MEOH     2992     MEOH     H1C      HDA3B    0.080000        1.0080           0   0.00000   0.00000
     46681 MEOH     2992     MEOH     LP1A     LPD     -0.230000        0.0000           -1   0.00000   0.00000
     46682 MEOH     2992     MEOH     LP1B     LPD     -0.230000        0.0000           -1   0.00000   0.00000
     46683 MEOH     2993     MEOH     C1       CD33B    2.314100       11.6110           0   -1.00000   1.30000
     46684 MEOH     2993     MEOH     DC1      DRUD    -2.454100        0.4000           0   0.00000   0.00000
     46685 MEOH     2993     MEOH     O1       OD31H    2.488300       15.5990           0   -1.02800   1.30000
     46686 MEOH     2993     MEOH     DO1      DRUD    -2.488300        0.4000           0   0.00000   0.00000
     46687 MEOH     2993     MEOH     HO1      HDP1A    0.360000        1.0080           0   0.00000   0.00000
     46688 MEOH     2993     MEOH     HO2      DUMH     0.000000        1.0080           0   0.00000   0.00000
     46689 MEOH     2993     MEOH     H1A      HDA3B    0.080000        1.0080           0   0.00000   0.00000
     46690 MEOH     2993     MEOH     H1B      HDA3B    0.080000        1.0080           0   0.00000   0.00000
     46691 MEOH     2993     MEOH     H1C      HDA3B    0.080000        1.0080           0   0.00000   0.00000
     46692 MEOH     2993     MEOH     LP1A     LPD     -0.230000        0.0000           -1   0.00000   0.00000
     46693 MEOH     2993     MEOH     LP1B     LPD     -0.230000        0.0000           -1   0.00000   0.00000
     46694 MEOH     2994     MEOH     C1       CD33B    2.314100       11.6110           0   -1.00000   1.30000
     46695 MEOH     2994     MEOH     DC1      DRUD    -2.454100        0.4000           0   0.00000   0.00000
     46696 MEOH     2994     MEOH     O1       OD31H    2.488300       15.5990           0   -1.02800   1.30000
     46697 MEOH     2994     MEOH     DO1      DRUD    -2.488300        0.4000           0   0.00000   0.00000
     46698 MEOH     2994     MEOH     HO1      HDP1A    0.360000        1.0080           0   0.00000   0.00000
     46699 MEOH     2994     MEOH     HO2      DUMH     0.000000        1.0080           0   0.00000   0.00000
     46700 MEOH     2994     MEOH     H1A      HDA3B    0.080000        1.0080           0   0.00000   0.00000
     46701 MEOH     2994     MEOH     H1B      HDA3B    0.080000        1.0080           0   0.00000   0.00000
     46702 MEOH     2994     MEOH     H1C      HDA3B    0.080000        1.0080           0   0.00000   0.00000
     46703 MEOH     2994     MEOH     LP1A     LPD     -0.230000        0.0000           -1   0.00000   0.00000
     46704 MEOH     2994     MEOH     LP1B     LPD     -0.230000        0.0000           -1   0.00000   0.00000
     46705 MEOH     2995     MEOH     C1       CD33B    2.314100       11.6110           0   -1.00000   1.30000
     46706 MEOH     2995     MEOH     DC1      DRUD    -2.454100        0.4000           0   0.00000   0.00000
     46707 MEOH     2995     MEOH     O1       OD31H    2.488300       15.5990           0   -1.02800   1.30000
     46708 MEOH     2995     MEOH     DO1      DRUD    -2.488300        0.4000           0   0.00000   0.00000
     46709 MEOH     2995     MEOH     HO1      HDP1A    0.360000        1.0080           0   0.00000   0.00000
     46710 MEOH     2995     MEOH     HO2      DUMH     0.000000        1.0080           0   0.00000   0.00000
     46711 MEOH     2995     MEOH     H1A      HDA3B    0.080000        1.0080           0   0.00000   0.00000
     46712 MEOH     2995     MEOH     H1B      HDA3B    0.080000        1.0080           0   0.00000   0.00000
     46713 MEOH     2995     MEOH     H1C      HDA3B    0.080000        1.0080           0   0.00000   0.00000
     46714 MEOH     2995     MEOH     LP1A     LPD     -0.230000        0.0000           -1   0.00000   0.00000
     46715 MEOH     2995     MEOH     LP1B     LPD     -0.230000        0.0000           -1   0.00000   0.00000
     46716 MEOH     2996     MEOH     C1       CD33B    2.314100       11.6110           0   -1.00000   1.30000
     46717 MEOH     2996     MEOH     DC1      DRUD    -2.454100        0.4000           0   0.00000   0.00000
     46718 MEOH     2996     MEOH     O1       OD31H    2.488300       15.5990           0   -1.02800   1.30000
     46719 MEOH     2996     MEOH     DO1      DRUD    -2.488300        0.4000           0   0.00000   0.00000
     46720 MEOH     2996     MEOH     HO1      HDP1A    0.360000        1.0080           0   0.00000   0.00000
     46721 MEOH     2996     MEOH     HO2      DUMH     0.000000        1.0080           0   0.00000   0.00000
     46722 MEOH     2996     MEOH     H1A      HDA3B    0.080000        1.0080           0   0.00000   0.00000
     46723 MEOH     2996     MEOH     H1B      HDA3B    0.080000        1.0080           0   0.00000   0.00000
     46724 MEOH     2996     MEOH     H1C      HDA3B    0.080000        1.0080           0   0.00000   0.00000
     46725 MEOH     2996     MEOH     LP1A     LPD     -0.230000        0.0000           -1   0.00000   0.00000
     46726 MEOH     2996     MEOH     LP1B     LPD     -0.230000        0.0000           -1   0.00000   0.00000
     46727 MEOH     2997     MEOH     C1       CD33B    2.314100       11.6110           0   -1.00000   1.30000
     46728 MEOH     2997     MEOH     DC1      DRUD    -2.454100        0.4000           0   0.00000   0.00000
     46729 MEOH     2997     MEOH     O1       OD31H    2.488300       15.5990           0   -1.02800   1.30000
     46730 MEOH     2997     MEOH     DO1      DRUD    -2.488300        0.4000           0   0.00000   0.00000
     46731 MEOH     2997     MEOH     HO1      HDP1A    0.360000        1.0080           0   0.00000   0.00000
     46732 MEOH     2997     MEOH     HO2      DUMH     0.000000        1.0080           0   0.00000   0.00000
     46733 MEOH     2997     MEOH     H1A      HDA3B    0.080000        1.0080           0   0.00000   0.00000
     46734 MEOH     2997     MEOH     H1B      HDA3B    0.080000        1.0080           0   0.00000   0.00000
     46735 MEOH     2997     MEOH     H1C      HDA3B    0.080000        1.0080           0   0.00000   0.00000
     46736 MEOH     2997     MEOH     LP1A     LPD     -0.230000        0.0000           -1   0.00000   0.00000
     46737 MEOH     2997     MEOH     LP1B     LPD     -0.230000        0.0000           -1   0.00000   0.00000
     46738 MEOH     2998     MEOH     C1       CD33B    2.314100       11.6110           0   -1.00000   1.30000
     46739 MEOH     2998     MEOH     DC1      DRUD    -2.454100        0.4000           0   0.00000   0.00000
     46740 MEOH     2998     MEOH     O1       OD31H    2.488300       15.5990           0   -1.02800   1.30000
     46741 MEOH     2998     MEOH     DO1      DRUD    -2.488300        0.4000           0   0.00000   0.00000
     46742 MEOH     2998     MEOH     HO1      HDP1A    0.360000        1.0080           0   0.00000   0.00000
     46743 MEOH     2998     MEOH     HO2      DUMH     0.000000        1.0080           0   0.00000   0.00000
     46744 MEOH     2998     MEOH     H1A      HDA3B    0.080000        1.0080           0   0.00000   0.00000
     46745 MEOH     2998     MEOH     H1B      HDA3B    0.080000        1.0080           0   0.00000   0.00000
     46746 MEOH     2998     MEOH     H1C      HDA3B    0.080000        1.0080           0   0.00000   0.00000
     46747 MEOH     2998     MEOH     LP1A     LPD     -0.230000        0.0000           -1   0.00000   0.00000
     46748 MEOH     2998     MEOH     LP1B     LPD     -0.230000        0.0000           -1   0.00000   0.00000
     46749 MEOH     2999     MEOH     C1       CD33B    2.314100       11.6110           0   -1.00000   1.30000
     46750 MEOH     2999     MEOH     DC1      DRUD    -2.454100        0.4000           0   0.00000   0.00000
     46751 MEOH     2999     MEOH     O1       OD31H    2.488300       15.5990           0   -1.02800   1.30000
     46752 MEOH     2999     MEOH     DO1      DRUD    -2.488300        0.4000           0   0.00000   0.00000
     46753 MEOH     2999     MEOH     HO1      HDP1A    0.360000        1.0080           0   0.00000   0.00000
     46754 MEOH     2999     MEOH     HO2      DUMH     0.000000        1.0080           0   0.00000   0.00000
     46755 MEOH     2999     MEOH     H1A      HDA3B    0.080000        1.0080           0   0.00000   0.00000
     46756 MEOH     2999     MEOH     H1B      HDA3B    0.080000        1.0080           0   0.00000   0.00000
     46757 MEOH     2999     MEOH     H1C      HDA3B    0.080000        1.0080           0   0.00000   0.00000
     46758 MEOH     2999     MEOH     LP1A     LPD     -0.230000        0.0000           -1   0.00000   0.00000
     46759 MEOH     2999     MEOH     LP1B     LPD     -0.230000        0.0000           -1   0.00000   0.00000
     46760 MEOH     3000     MEOH     C1       CD33B    2.314100       11.6110           0   -1.00000   1.30000
     46761 MEOH     3000     MEOH     DC1      DRUD    -2.454100        0.4000           0   0.00000   0.00000
     46762 MEOH     3000     MEOH     O1       OD31H    2.488300       15.5990           0   -1.02800   1.30000
     46763 MEOH     3000     MEOH     DO1      DRUD    -2.488300        0.4000           0   0.00000   0.00000
     46764 MEOH     3000     MEOH     HO1      HDP1A    0.360000        1.0080           0   0.00000   0.00000
     46765 MEOH     3000     MEOH     HO2      DUMH     0.000000        1.0080           0   0.00000   0.00000
     46766 MEOH     3000     MEOH     H1A      HDA3B    0.080000        1.0080           0   0.00000   0.00000
     46767 MEOH     3000     MEOH     H1B      HDA3B    0.080000        1.0080           0   0.00000   0.00000
     46768 MEOH     3000     MEOH     H1C      HDA3B    0.080000        1.0080           0   0.00000   0.00000
     46769 MEOH     3000     MEOH     LP1A     LPD     -0.230000        0.0000           -1   0.00000   0.00000
     46770 MEOH     3000     MEOH     LP1B     LPD     -0.230000        0.0000           -1   0.00000   0.00000
     46771 MEOH     3001     MEOH     C1       CD33B    2.314100       11.6110           0   -1.00000   1.30000
     46772 MEOH     3001     MEOH     DC1      DRUD    -2.454100        0.4000           0   0.00000   0.00000
     46773 MEOH     3001     MEOH     O1       OD31H    2.488300       15.5990           0   -1.02800   1.30000
     46774 MEOH     3001     MEOH     DO1      DRUD    -2.488300        0.4000           0   0.00000   0.00000
     46775 MEOH     3001     MEOH     HO1      HDP1A    0.360000        1.0080           0   0.00000   0.00000
     46776 MEOH     3001     MEOH     HO2      DUMH     0.000000        1.0080           0   0.00000   0.00000
     46777 MEOH     3001     MEOH     H1A      HDA3B    0.080000        1.0080           0   0.00000   0.00000
     46778 MEOH     3001     MEOH     H1B      HDA3B    0.080000        1.0080           0   0.00000   0.00000
     46779 MEOH     3001     MEOH     H1C      HDA3B    0.080000        1.0080           0   0.00000   0.00000
     46780 MEOH     3001     MEOH     LP1A     LPD     -0.230000        0.0000           -1   0.00000   0.00000
     46781 MEOH     3001     MEOH     LP1B     LPD     -0.230000        0.0000           -1   0.00000   0.00000
     46782 MEOH     3002     MEOH     C1       CD33B    2.314100       11.6110           0   -1.00000   1.30000
     46783 MEOH     3002     MEOH     DC1      DRUD    -2.454100        0.4000           0   0.00000   0.00000
     46784 MEOH     3002     MEOH     O1       OD31H    2.488300       15.5990           0   -1.02800   1.30000
     46785 MEOH     3002     MEOH     DO1      DRUD    -2.488300        0.4000           0   0.00000   0.00000
     46786 MEOH     3002     MEOH     HO1      HDP1A    0.360000        1.0080           0   0.00000   0.00000
     46787 MEOH     3002     MEOH     HO2      DUMH     0.000000        1.0080           0   0.00000   0.00000
     46788 MEOH     3002     MEOH     H1A      HDA3B    0.080000        1.0080           0   0.00000   0.00000
     46789 MEOH     3002     MEOH     H1B      HDA3B    0.080000        1.0080           0   0.00000   0.00000
     46790 MEOH     3002     MEOH     H1C      HDA3B    0.080000        1.0080           0   0.00000   0.00000
     46791 MEOH     3002     MEOH     LP1A     LPD     -0.230000        0.0000           -1   0.00000   0.00000
     46792 MEOH     3002     MEOH     LP1B     LPD     -0.230000        0.0000           -1   0.00000   0.00000
     46793 MEOH     3003     MEOH     C1       CD33B    2.314100       11.6110           0   -1.00000   1.30000
     46794 MEOH     3003     MEOH     DC1      DRUD    -2.454100        0.4000           0   0.00000   0.00000
     46795 MEOH     3003     MEOH     O1       OD31H    2.488300       15.5990           0   -1.02800   1.30000
     46796 MEOH     3003     MEOH     DO1      DRUD    -2.488300        0.4000           0   0.00000   0.00000
     46797 MEOH     3003     MEOH     HO1      HDP1A    0.360000        1.0080           0   0.00000   0.00000
     46798 MEOH     3003     MEOH     HO2      DUMH     0.000000        1.0080           0   0.00000   0.00000
     46799 MEOH     3003     MEOH     H1A      HDA3B    0.080000        1.0080           0   0.00000   0.00000
     46800 MEOH     3003     MEOH     H1B      HDA3B    0.080000        1.0080           0   0.00000   0.00000
     46801 MEOH     3003     MEOH     H1C      HDA3B    0.080000        1.0080           0   0.00000   0.00000
     46802 MEOH     3003     MEOH     LP1A     LPD     -0.230000        0.0000           -1   0.00000   0.00000
     46803 MEOH     3003     MEOH     LP1B     LPD     -0.230000        0.0000           -1   0.00000   0.00000
     46804 MEOH     3004     MEOH     C1       CD33B    2.314100       11.6110           0   -1.00000   1.30000
     46805 MEOH     3004     MEOH     DC1      DRUD    -2.454100        0.4000           0   0.00000   0.00000
     46806 MEOH     3004     MEOH     O1       OD31H    2.488300       15.5990           0   -1.02800   1.30000
     46807 MEOH     3004     MEOH     DO1      DRUD    -2.488300        0.4000           0   0.00000   0.00000
     46808 MEOH     3004     MEOH     HO1      HDP1A    0.360000        1.0080           0   0.00000   0.00000
     46809 MEOH     3004     MEOH     HO2      DUMH     0.000000        1.0080           0   0.00000   0.00000
     46810 MEOH     3004     MEOH     H1A      HDA3B    0.080000        1.0080           0   0.00000   0.00000
     46811 MEOH     3004     MEOH     H1B      HDA3B    0.080000        1.0080           0   0.00000   0.00000
     46812 MEOH     3004     MEOH     H1C      HDA3B    0.080000        1.0080           0   0.00000   0.00000
     46813 MEOH     3004     MEOH     LP1A     LPD     -0.230000        0.0000           -1   0.00000   0.00000
     46814 MEOH     3004     MEOH     LP1B     LPD     -0.230000        0.0000           -1   0.00000   0.00000
     46815 MEOH     3005     MEOH     C1       CD33B    2.314100       11.6110           0   -1.00000   1.30000
     46816 MEOH     3005     MEOH     DC1      DRUD    -2.454100        0.4000           0   0.00000   0.00000
     46817 MEOH     3005     MEOH     O1       OD31H    2.488300       15.5990           0   -1.02800   1.30000
     46818 MEOH     3005     MEOH     DO1      DRUD    -2.488300        0.4000           0   0.00000   0.00000
     46819 MEOH     3005     MEOH     HO1      HDP1A    0.360000        1.0080           0   0.00000   0.00000
     46820 MEOH     3005     MEOH     HO2      DUMH     0.000000        1.0080           0   0.00000   0.00000
     46821 MEOH     3005     MEOH     H1A      HDA3B    0.080000        1.0080           0   0.00000   0.00000
     46822 MEOH     3005     MEOH     H1B      HDA3B    0.080000        1.0080           0   0.00000   0.00000
     46823 MEOH     3005     MEOH     H1C      HDA3B    0.080000        1.0080           0   0.00000   0.00000
     46824 MEOH     3005     MEOH     LP1A     LPD     -0.230000        0.0000           -1   0.00000   0.00000
     46825 MEOH     3005     MEOH     LP1B     LPD     -0.230000        0.0000           -1   0.00000   0.00000
     46826 MEOH     3006     MEOH     C1       CD33B    2.314100       11.6110           0   -1.00000   1.30000
     46827 MEOH     3006     MEOH     DC1      DRUD    -2.454100        0.4000           0   0.00000   0.00000
     46828 MEOH     3006     MEOH     O1       OD31H    2.488300       15.5990           0   -1.02800   1.30000
     46829 MEOH     3006     MEOH     DO1      DRUD    -2.488300        0.4000           0   0.00000   0.00000
     46830 MEOH     3006     MEOH     HO1      HDP1A    0.360000        1.0080           0   0.00000   0.00000
     46831 MEOH     3006     MEOH     HO2      DUMH     0.000000        1.0080           0   0.00000   0.00000
     46832 MEOH     3006     MEOH     H1A      HDA3B    0.080000        1.0080           0   0.00000   0.00000
     46833 MEOH     3006     MEOH     H1B      HDA3B    0.080000        1.0080           0   0.00000   0.00000
     46834 MEOH     3006     MEOH     H1C      HDA3B    0.080000        1.0080           0   0.00000   0.00000
     46835 MEOH     3006     MEOH     LP1A     LPD     -0.230000        0.0000           -1   0.00000   0.00000
     46836 MEOH     3006     MEOH     LP1B     LPD     -0.230000        0.0000           -1   0.00000   0.00000
     46837 MEOH     3007     MEOH     C1       CD33B    2.314100       11.6110           0   -1.00000   1.30000
     46838 MEOH     3007     MEOH     DC1      DRUD    -2.454100        0.4000           0   0.00000   0.00000
     46839 MEOH     3007     MEOH     O1       OD31H    2.488300       15.5990           0   -1.02800   1.30000
     46840 MEOH     3007     MEOH     DO1      DRUD    -2.488300        0.4000           0   0.00000   0.00000
     46841 MEOH     3007     MEOH     HO1      HDP1A    0.360000        1.0080           0   0.00000   0.00000
     46842 MEOH     3007     MEOH     HO2      DUMH     0.000000        1.0080           0   0.00000   0.00000
     46843 MEOH     3007     MEOH     H1A      HDA3B    0.080000        1.0080           0   0.00000   0.00000
     46844 MEOH     3007     MEOH     H1B      HDA3B    0.080000        1.0080           0   0.00000   0.00000
     46845 MEOH     3007     MEOH     H1C      HDA3B    0.080000        1.0080           0   0.00000   0.00000
     46846 MEOH     3007     MEOH     LP1A     LPD     -0.230000        0.0000           -1   0.00000   0.00000
     46847 MEOH     3007     MEOH     LP1B     LPD     -0.230000        0.0000           -1   0.00000   0.00000
     46848 MEOH     3008     MEOH     C1       CD33B    2.314100       11.6110           0   -1.00000   1.30000
     46849 MEOH     3008     MEOH     DC1      DRUD    -2.454100        0.4000           0   0.00000   0.00000
     46850 MEOH     3008     MEOH     O1       OD31H    2.488300       15.5990           0   -1.02800   1.30000
     46851 MEOH     3008     MEOH     DO1      DRUD    -2.488300        0.4000           0   0.00000   0.00000
     46852 MEOH     3008     MEOH     HO1      HDP1A    0.360000        1.0080           0   0.00000   0.00000
     46853 MEOH     3008     MEOH     HO2      DUMH     0.000000        1.0080           0   0.00000   0.00000
     46854 MEOH     3008     MEOH     H1A      HDA3B    0.080000        1.0080           0   0.00000   0.00000
     46855 MEOH     3008     MEOH     H1B      HDA3B    0.080000        1.0080           0   0.00000   0.00000
     46856 MEOH     3008     MEOH     H1C      HDA3B    0.080000        1.0080           0   0.00000   0.00000
     46857 MEOH     3008     MEOH     LP1A     LPD     -0.230000        0.0000           -1   0.00000   0.00000
     46858 MEOH     3008     MEOH     LP1B     LPD     -0.230000        0.0000           -1   0.00000   0.00000
     46859 MEOH     3009     MEOH     C1       CD33B    2.314100       11.6110           0   -1.00000   1.30000
     46860 MEOH     3009     MEOH     DC1      DRUD    -2.454100        0.4000           0   0.00000   0.00000
     46861 MEOH     3009     MEOH     O1       OD31H    2.488300       15.5990           0   -1.02800   1.30000
     46862 MEOH     3009     MEOH     DO1      DRUD    -2.488300        0.4000           0   0.00000   0.00000
     46863 MEOH     3009     MEOH     HO1      HDP1A    0.360000        1.0080           0   0.00000   0.00000
     46864 MEOH     3009     MEOH     HO2      DUMH     0.000000        1.0080           0   0.00000   0.00000
     46865 MEOH     3009     MEOH     H1A      HDA3B    0.080000        1.0080           0   0.00000   0.00000
     46866 MEOH     3009     MEOH     H1B      HDA3B    0.080000        1.0080           0   0.00000   0.00000
     46867 MEOH     3009     MEOH     H1C      HDA3B    0.080000        1.0080           0   0.00000   0.00000
     46868 MEOH     3009     MEOH     LP1A     LPD     -0.230000        0.0000           -1   0.00000   0.00000
     46869 MEOH     3009     MEOH     LP1B     LPD     -0.230000        0.0000           -1   0.00000   0.00000
     46870 MEOH     3010     MEOH     C1       CD33B    2.314100       11.6110           0   -1.00000   1.30000
     46871 MEOH     3010     MEOH     DC1      DRUD    -2.454100        0.4000           0   0.00000   0.00000
     46872 MEOH     3010     MEOH     O1       OD31H    2.488300       15.5990           0   -1.02800   1.30000
     46873 MEOH     3010     MEOH     DO1      DRUD    -2.488300        0.4000           0   0.00000   0.00000
     46874 MEOH     3010     MEOH     HO1      HDP1A    0.360000        1.0080           0   0.00000   0.00000
     46875 MEOH     3010     MEOH     HO2      DUMH     0.000000        1.0080           0   0.00000   0.00000
     46876 MEOH     3010     MEOH     H1A      HDA3B    0.080000        1.0080           0   0.00000   0.00000
     46877 MEOH     3010     MEOH     H1B      HDA3B    0.080000        1.0080           0   0.00000   0.00000
     46878 MEOH     3010     MEOH     H1C      HDA3B    0.080000        1.0080           0   0.00000   0.00000
     46879 MEOH     3010     MEOH     LP1A     LPD     -0.230000        0.0000           -1   0.00000   0.00000
     46880 MEOH     3010     MEOH     LP1B     LPD     -0.230000        0.0000           -1   0.00000   0.00000
     46881 MEOH     3011     MEOH     C1       CD33B    2.314100       11.6110           0   -1.00000   1.30000
     46882 MEOH     3011     MEOH     DC1      DRUD    -2.454100        0.4000           0   0.00000   0.00000
     46883 MEOH     3011     MEOH     O1       OD31H    2.488300       15.5990           0   -1.02800   1.30000
     46884 MEOH     3011     MEOH     DO1      DRUD    -2.488300        0.4000           0   0.00000   0.00000
     46885 MEOH     3011     MEOH     HO1      HDP1A    0.360000        1.0080           0   0.00000   0.00000
     46886 MEOH     3011     MEOH     HO2      DUMH     0.000000        1.0080           0   0.00000   0.00000
     46887 MEOH     3011     MEOH     H1A      HDA3B    0.080000        1.0080           0   0.00000   0.00000
     46888 MEOH     3011     MEOH     H1B      HDA3B    0.080000        1.0080           0   0.00000   0.00000
     46889 MEOH     3011     MEOH     H1C      HDA3B    0.080000        1.0080           0   0.00000   0.00000
     46890 MEOH     3011     MEOH     LP1A     LPD     -0.230000        0.0000           -1   0.00000   0.00000
     46891 MEOH     3011     MEOH     LP1B     LPD     -0.230000        0.0000           -1   0.00000   0.00000
     46892 MEOH     3012     MEOH     C1       CD33B    2.314100       11.6110           0   -1.00000   1.30000
     46893 MEOH     3012     MEOH     DC1      DRUD    -2.454100        0.4000           0   0.00000   0.00000
     46894 MEOH     3012     MEOH     O1       OD31H    2.488300       15.5990           0   -1.02800   1.30000
     46895 MEOH     3012     MEOH     DO1      DRUD    -2.488300        0.4000           0   0.00000   0.00000
     46896 MEOH     3012     MEOH     HO1      HDP1A    0.360000        1.0080           0   0.00000   0.00000
     46897 MEOH     3012     MEOH     HO2      DUMH     0.000000        1.0080           0   0.00000   0.00000
     46898 MEOH     3012     MEOH     H1A      HDA3B    0.080000        1.0080           0   0.00000   0.00000
     46899 MEOH     3012     MEOH     H1B      HDA3B    0.080000        1.0080           0   0.00000   0.00000
     46900 MEOH     3012     MEOH     H1C      HDA3B    0.080000        1.0080           0   0.00000   0.00000
     46901 MEOH     3012     MEOH     LP1A     LPD     -0.230000        0.0000           -1   0.00000   0.00000
     46902 MEOH     3012     MEOH     LP1B     LPD     -0.230000        0.0000           -1   0.00000   0.00000
     46903 MEOH     3013     MEOH     C1       CD33B    2.314100       11.6110           0   -1.00000   1.30000
     46904 MEOH     3013     MEOH     DC1      DRUD    -2.454100        0.4000           0   0.00000   0.00000
     46905 MEOH     3013     MEOH     O1       OD31H    2.488300       15.5990           0   -1.02800   1.30000
     46906 MEOH     3013     MEOH     DO1      DRUD    -2.488300        0.4000           0   0.00000   0.00000
     46907 MEOH     3013     MEOH     HO1      HDP1A    0.360000        1.0080           0   0.00000   0.00000
     46908 MEOH     3013     MEOH     HO2      DUMH     0.000000        1.0080           0   0.00000   0.00000
     46909 MEOH     3013     MEOH     H1A      HDA3B    0.080000        1.0080           0   0.00000   0.00000
     46910 MEOH     3013     MEOH     H1B      HDA3B    0.080000        1.0080           0   0.00000   0.00000
     46911 MEOH     3013     MEOH     H1C      HDA3B    0.080000        1.0080           0   0.00000   0.00000
     46912 MEOH     3013     MEOH     LP1A     LPD     -0.230000        0.0000           -1   0.00000   0.00000
     46913 MEOH     3013     MEOH     LP1B     LPD     -0.230000        0.0000           -1   0.00000   0.00000
     46914 MEOH     3014     MEOH     C1       CD33B    2.314100       11.6110           0   -1.00000   1.30000
     46915 MEOH     3014     MEOH     DC1      DRUD    -2.454100        0.4000           0   0.00000   0.00000
     46916 MEOH     3014     MEOH     O1       OD31H    2.488300       15.5990           0   -1.02800   1.30000
     46917 MEOH     3014     MEOH     DO1      DRUD    -2.488300        0.4000           0   0.00000   0.00000
     46918 MEOH     3014     MEOH     HO1      HDP1A    0.360000        1.0080           0   0.00000   0.00000
     46919 MEOH     3014     MEOH     HO2      DUMH     0.000000        1.0080           0   0.00000   0.00000
     46920 MEOH     3014     MEOH     H1A      HDA3B    0.080000        1.0080           0   0.00000   0.00000
     46921 MEOH     3014     MEOH     H1B      HDA3B    0.080000        1.0080           0   0.00000   0.00000
     46922 MEOH     3014     MEOH     H1C      HDA3B    0.080000        1.0080           0   0.00000   0.00000
     46923 MEOH     3014     MEOH     LP1A     LPD     -0.230000        0.0000           -1   0.00000   0.00000
     46924 MEOH     3014     MEOH     LP1B     LPD     -0.230000        0.0000           -1   0.00000   0.00000
     46925 MEOH     3015     MEOH     C1       CD33B    2.314100       11.6110           0   -1.00000   1.30000
     46926 MEOH     3015     MEOH     DC1      DRUD    -2.454100        0.4000           0   0.00000   0.00000
     46927 MEOH     3015     MEOH     O1       OD31H    2.488300       15.5990           0   -1.02800   1.30000
     46928 MEOH     3015     MEOH     DO1      DRUD    -2.488300        0.4000           0   0.00000   0.00000
     46929 MEOH     3015     MEOH     HO1      HDP1A    0.360000        1.0080           0   0.00000   0.00000
     46930 MEOH     3015     MEOH     HO2      DUMH     0.000000        1.0080           0   0.00000   0.00000
     46931 MEOH     3015     MEOH     H1A      HDA3B    0.080000        1.0080           0   0.00000   0.00000
     46932 MEOH     3015     MEOH     H1B      HDA3B    0.080000        1.0080           0   0.00000   0.00000
     46933 MEOH     3015     MEOH     H1C      HDA3B    0.080000        1.0080           0   0.00000   0.00000
     46934 MEOH     3015     MEOH     LP1A     LPD     -0.230000        0.0000           -1   0.00000   0.00000
     46935 MEOH     3015     MEOH     LP1B     LPD     -0.230000        0.0000           -1   0.00000   0.00000
     46936 MEOH     3016     MEOH     C1       CD33B    2.314100       11.6110           0   -1.00000   1.30000
     46937 MEOH     3016     MEOH     DC1      DRUD    -2.454100        0.4000           0   0.00000   0.00000
     46938 MEOH     3016     MEOH     O1       OD31H    2.488300       15.5990           0   -1.02800   1.30000
     46939 MEOH     3016     MEOH     DO1      DRUD    -2.488300        0.4000           0   0.00000   0.00000
     46940 MEOH     3016     MEOH     HO1      HDP1A    0.360000        1.0080           0   0.00000   0.00000
     46941 MEOH     3016     MEOH     HO2      DUMH     0.000000        1.0080           0   0.00000   0.00000
     46942 MEOH     3016     MEOH     H1A      HDA3B    0.080000        1.0080           0   0.00000   0.00000
     46943 MEOH     3016     MEOH     H1B      HDA3B    0.080000        1.0080           0   0.00000   0.00000
     46944 MEOH     3016     MEOH     H1C      HDA3B    0.080000        1.0080           0   0.00000   0.00000
     46945 MEOH     3016     MEOH     LP1A     LPD     -0.230000        0.0000           -1   0.00000   0.00000
     46946 MEOH     3016     MEOH     LP1B     LPD     -0.230000        0.0000           -1   0.00000   0.00000
     46947 MEOH     3017     MEOH     C1       CD33B    2.314100       11.6110           0   -1.00000   1.30000
     46948 MEOH     3017     MEOH     DC1      DRUD    -2.454100        0.4000           0   0.00000   0.00000
     46949 MEOH     3017     MEOH     O1       OD31H    2.488300       15.5990           0   -1.02800   1.30000
     46950 MEOH     3017     MEOH     DO1      DRUD    -2.488300        0.4000           0   0.00000   0.00000
     46951 MEOH     3017     MEOH     HO1      HDP1A    0.360000        1.0080           0   0.00000   0.00000
     46952 MEOH     3017     MEOH     HO2      DUMH     0.000000        1.0080           0   0.00000   0.00000
     46953 MEOH     3017     MEOH     H1A      HDA3B    0.080000        1.0080           0   0.00000   0.00000
     46954 MEOH     3017     MEOH     H1B      HDA3B    0.080000        1.0080           0   0.00000   0.00000
     46955 MEOH     3017     MEOH     H1C      HDA3B    0.080000        1.0080           0   0.00000   0.00000
     46956 MEOH     3017     MEOH     LP1A     LPD     -0.230000        0.0000           -1   0.00000   0.00000
     46957 MEOH     3017     MEOH     LP1B     LPD     -0.230000        0.0000           -1   0.00000   0.00000
     46958 MEOH     3018     MEOH     C1       CD33B    2.314100       11.6110           0   -1.00000   1.30000
     46959 MEOH     3018     MEOH     DC1      DRUD    -2.454100        0.4000           0   0.00000   0.00000
     46960 MEOH     3018     MEOH     O1       OD31H    2.488300       15.5990           0   -1.02800   1.30000
     46961 MEOH     3018     MEOH     DO1      DRUD    -2.488300        0.4000           0   0.00000   0.00000
     46962 MEOH     3018     MEOH     HO1      HDP1A    0.360000        1.0080           0   0.00000   0.00000
     46963 MEOH     3018     MEOH     HO2      DUMH     0.000000        1.0080           0   0.00000   0.00000
     46964 MEOH     3018     MEOH     H1A      HDA3B    0.080000        1.0080           0   0.00000   0.00000
     46965 MEOH     3018     MEOH     H1B      HDA3B    0.080000        1.0080           0   0.00000   0.00000
     46966 MEOH     3018     MEOH     H1C      HDA3B    0.080000        1.0080           0   0.00000   0.00000
     46967 MEOH     3018     MEOH     LP1A     LPD     -0.230000        0.0000           -1   0.00000   0.00000
     46968 MEOH     3018     MEOH     LP1B     LPD     -0.230000        0.0000           -1   0.00000   0.00000
     46969 MEOH     3019     MEOH     C1       CD33B    2.314100       11.6110           0   -1.00000   1.30000
     46970 MEOH     3019     MEOH     DC1      DRUD    -2.454100        0.4000           0   0.00000   0.00000
     46971 MEOH     3019     MEOH     O1       OD31H    2.488300       15.5990           0   -1.02800   1.30000
     46972 MEOH     3019     MEOH     DO1      DRUD    -2.488300        0.4000           0   0.00000   0.00000
     46973 MEOH     3019     MEOH     HO1      HDP1A    0.360000        1.0080           0   0.00000   0.00000
     46974 MEOH     3019     MEOH     HO2      DUMH     0.000000        1.0080           0   0.00000   0.00000
     46975 MEOH     3019     MEOH     H1A      HDA3B    0.080000        1.0080           0   0.00000   0.00000
     46976 MEOH     3019     MEOH     H1B      HDA3B    0.080000        1.0080           0   0.00000   0.00000
     46977 MEOH     3019     MEOH     H1C      HDA3B    0.080000        1.0080           0   0.00000   0.00000
     46978 MEOH     3019     MEOH     LP1A     LPD     -0.230000        0.0000           -1   0.00000   0.00000
     46979 MEOH     3019     MEOH     LP1B     LPD     -0.230000        0.0000           -1   0.00000   0.00000
     46980 MEOH     3020     MEOH     C1       CD33B    2.314100       11.6110           0   -1.00000   1.30000
     46981 MEOH     3020     MEOH     DC1      DRUD    -2.454100        0.4000           0   0.00000   0.00000
     46982 MEOH     3020     MEOH     O1       OD31H    2.488300       15.5990           0   -1.02800   1.30000
     46983 MEOH     3020     MEOH     DO1      DRUD    -2.488300        0.4000           0   0.00000   0.00000
     46984 MEOH     3020     MEOH     HO1      HDP1A    0.360000        1.0080           0   0.00000   0.00000
     46985 MEOH     3020     MEOH     HO2      DUMH     0.000000        1.0080           0   0.00000   0.00000
     46986 MEOH     3020     MEOH     H1A      HDA3B    0.080000        1.0080           0   0.00000   0.00000
     46987 MEOH     3020     MEOH     H1B      HDA3B    0.080000        1.0080           0   0.00000   0.00000
     46988 MEOH     3020     MEOH     H1C      HDA3B    0.080000        1.0080           0   0.00000   0.00000
     46989 MEOH     3020     MEOH     LP1A     LPD     -0.230000        0.0000           -1   0.00000   0.00000
     46990 MEOH     3020     MEOH     LP1B     LPD     -0.230000        0.0000           -1   0.00000   0.00000
     46991 MEOH     3021     MEOH     C1       CD33B    2.314100       11.6110           0   -1.00000   1.30000
     46992 MEOH     3021     MEOH     DC1      DRUD    -2.454100        0.4000           0   0.00000   0.00000
     46993 MEOH     3021     MEOH     O1       OD31H    2.488300       15.5990           0   -1.02800   1.30000
     46994 MEOH     3021     MEOH     DO1      DRUD    -2.488300        0.4000           0   0.00000   0.00000
     46995 MEOH     3021     MEOH     HO1      HDP1A    0.360000        1.0080           0   0.00000   0.00000
     46996 MEOH     3021     MEOH     HO2      DUMH     0.000000        1.0080           0   0.00000   0.00000
     46997 MEOH     3021     MEOH     H1A      HDA3B    0.080000        1.0080           0   0.00000   0.00000
     46998 MEOH     3021     MEOH     H1B      HDA3B    0.080000        1.0080           0   0.00000   0.00000
     46999 MEOH     3021     MEOH     H1C      HDA3B    0.080000        1.0080           0   0.00000   0.00000
     47000 MEOH     3021     MEOH     LP1A     LPD     -0.230000        0.0000           -1   0.00000   0.00000
     47001 MEOH     3021     MEOH     LP1B     LPD     -0.230000        0.0000           -1   0.00000   0.00000
     47002 MEOH     3022     MEOH     C1       CD33B    2.314100       11.6110           0   -1.00000   1.30000
     47003 MEOH     3022     MEOH     DC1      DRUD    -2.454100        0.4000           0   0.00000   0.00000
     47004 MEOH     3022     MEOH     O1       OD31H    2.488300       15.5990           0   -1.02800   1.30000
     47005 MEOH     3022     MEOH     DO1      DRUD    -2.488300        0.4000           0   0.00000   0.00000
     47006 MEOH     3022     MEOH     HO1      HDP1A    0.360000        1.0080           0   0.00000   0.00000
     47007 MEOH     3022     MEOH     HO2      DUMH     0.000000        1.0080           0   0.00000   0.00000
     47008 MEOH     3022     MEOH     H1A      HDA3B    0.080000        1.0080           0   0.00000   0.00000
     47009 MEOH     3022     MEOH     H1B      HDA3B    0.080000        1.0080           0   0.00000   0.00000
     47010 MEOH     3022     MEOH     H1C      HDA3B    0.080000        1.0080           0   0.00000   0.00000
     47011 MEOH     3022     MEOH     LP1A     LPD     -0.230000        0.0000           -1   0.00000   0.00000
     47012 MEOH     3022     MEOH     LP1B     LPD     -0.230000        0.0000           -1   0.00000   0.00000
     47013 MEOH     3023     MEOH     C1       CD33B    2.314100       11.6110           0   -1.00000   1.30000
     47014 MEOH     3023     MEOH     DC1      DRUD    -2.454100        0.4000           0   0.00000   0.00000
     47015 MEOH     3023     MEOH     O1       OD31H    2.488300       15.5990           0   -1.02800   1.30000
     47016 MEOH     3023     MEOH     DO1      DRUD    -2.488300        0.4000           0   0.00000   0.00000
     47017 MEOH     3023     MEOH     HO1      HDP1A    0.360000        1.0080           0   0.00000   0.00000
     47018 MEOH     3023     MEOH     HO2      DUMH     0.000000        1.0080           0   0.00000   0.00000
     47019 MEOH     3023     MEOH     H1A      HDA3B    0.080000        1.0080           0   0.00000   0.00000
     47020 MEOH     3023     MEOH     H1B      HDA3B    0.080000        1.0080           0   0.00000   0.00000
     47021 MEOH     3023     MEOH     H1C      HDA3B    0.080000        1.0080           0   0.00000   0.00000
     47022 MEOH     3023     MEOH     LP1A     LPD     -0.230000        0.0000           -1   0.00000   0.00000
     47023 MEOH     3023     MEOH     LP1B     LPD     -0.230000        0.0000           -1   0.00000   0.00000
     47024 MEOH     3024     MEOH     C1       CD33B    2.314100       11.6110           0   -1.00000   1.30000
     47025 MEOH     3024     MEOH     DC1      DRUD    -2.454100        0.4000           0   0.00000   0.00000
     47026 MEOH     3024     MEOH     O1       OD31H    2.488300       15.5990           0   -1.02800   1.30000
     47027 MEOH     3024     MEOH     DO1      DRUD    -2.488300        0.4000           0   0.00000   0.00000
     47028 MEOH     3024     MEOH     HO1      HDP1A    0.360000        1.0080           0   0.00000   0.00000
     47029 MEOH     3024     MEOH     HO2      DUMH     0.000000        1.0080           0   0.00000   0.00000
     47030 MEOH     3024     MEOH     H1A      HDA3B    0.080000        1.0080           0   0.00000   0.00000
     47031 MEOH     3024     MEOH     H1B      HDA3B    0.080000        1.0080           0   0.00000   0.00000
     47032 MEOH     3024     MEOH     H1C      HDA3B    0.080000        1.0080           0   0.00000   0.00000
     47033 MEOH     3024     MEOH     LP1A     LPD     -0.230000        0.0000           -1   0.00000   0.00000
     47034 MEOH     3024     MEOH     LP1B     LPD     -0.230000        0.0000           -1   0.00000   0.00000
     47035 MEOH     3025     MEOH     C1       CD33B    2.314100       11.6110           0   -1.00000   1.30000
     47036 MEOH     3025     MEOH     DC1      DRUD    -2.454100        0.4000           0   0.00000   0.00000
     47037 MEOH     3025     MEOH     O1       OD31H    2.488300       15.5990           0   -1.02800   1.30000
     47038 MEOH     3025     MEOH     DO1      DRUD    -2.488300        0.4000           0   0.00000   0.00000
     47039 MEOH     3025     MEOH     HO1      HDP1A    0.360000        1.0080           0   0.00000   0.00000
     47040 MEOH     3025     MEOH     HO2      DUMH     0.000000        1.0080           0   0.00000   0.00000
     47041 MEOH     3025     MEOH     H1A      HDA3B    0.080000        1.0080           0   0.00000   0.00000
     47042 MEOH     3025     MEOH     H1B      HDA3B    0.080000        1.0080           0   0.00000   0.00000
     47043 MEOH     3025     MEOH     H1C      HDA3B    0.080000        1.0080           0   0.00000   0.00000
     47044 MEOH     3025     MEOH     LP1A     LPD     -0.230000        0.0000           -1   0.00000   0.00000
     47045 MEOH     3025     MEOH     LP1B     LPD     -0.230000        0.0000           -1   0.00000   0.00000
     47046 MEOH     3026     MEOH     C1       CD33B    2.314100       11.6110           0   -1.00000   1.30000
     47047 MEOH     3026     MEOH     DC1      DRUD    -2.454100        0.4000           0   0.00000   0.00000
     47048 MEOH     3026     MEOH     O1       OD31H    2.488300       15.5990           0   -1.02800   1.30000
     47049 MEOH     3026     MEOH     DO1      DRUD    -2.488300        0.4000           0   0.00000   0.00000
     47050 MEOH     3026     MEOH     HO1      HDP1A    0.360000        1.0080           0   0.00000   0.00000
     47051 MEOH     3026     MEOH     HO2      DUMH     0.000000        1.0080           0   0.00000   0.00000
     47052 MEOH     3026     MEOH     H1A      HDA3B    0.080000        1.0080           0   0.00000   0.00000
     47053 MEOH     3026     MEOH     H1B      HDA3B    0.080000        1.0080           0   0.00000   0.00000
     47054 MEOH     3026     MEOH     H1C      HDA3B    0.080000        1.0080           0   0.00000   0.00000
     47055 MEOH     3026     MEOH     LP1A     LPD     -0.230000        0.0000           -1   0.00000   0.00000
     47056 MEOH     3026     MEOH     LP1B     LPD     -0.230000        0.0000           -1   0.00000   0.00000
     47057 MEOH     3027     MEOH     C1       CD33B    2.314100       11.6110           0   -1.00000   1.30000
     47058 MEOH     3027     MEOH     DC1      DRUD    -2.454100        0.4000           0   0.00000   0.00000
     47059 MEOH     3027     MEOH     O1       OD31H    2.488300       15.5990           0   -1.02800   1.30000
     47060 MEOH     3027     MEOH     DO1      DRUD    -2.488300        0.4000           0   0.00000   0.00000
     47061 MEOH     3027     MEOH     HO1      HDP1A    0.360000        1.0080           0   0.00000   0.00000
     47062 MEOH     3027     MEOH     HO2      DUMH     0.000000        1.0080           0   0.00000   0.00000
     47063 MEOH     3027     MEOH     H1A      HDA3B    0.080000        1.0080           0   0.00000   0.00000
     47064 MEOH     3027     MEOH     H1B      HDA3B    0.080000        1.0080           0   0.00000   0.00000
     47065 MEOH     3027     MEOH     H1C      HDA3B    0.080000        1.0080           0   0.00000   0.00000
     47066 MEOH     3027     MEOH     LP1A     LPD     -0.230000        0.0000           -1   0.00000   0.00000
     47067 MEOH     3027     MEOH     LP1B     LPD     -0.230000        0.0000           -1   0.00000   0.00000
     47068 MEOH     3028     MEOH     C1       CD33B    2.314100       11.6110           0   -1.00000   1.30000
     47069 MEOH     3028     MEOH     DC1      DRUD    -2.454100        0.4000           0   0.00000   0.00000
     47070 MEOH     3028     MEOH     O1       OD31H    2.488300       15.5990           0   -1.02800   1.30000
     47071 MEOH     3028     MEOH     DO1      DRUD    -2.488300        0.4000           0   0.00000   0.00000
     47072 MEOH     3028     MEOH     HO1      HDP1A    0.360000        1.0080           0   0.00000   0.00000
     47073 MEOH     3028     MEOH     HO2      DUMH     0.000000        1.0080           0   0.00000   0.00000
     47074 MEOH     3028     MEOH     H1A      HDA3B    0.080000        1.0080           0   0.00000   0.00000
     47075 MEOH     3028     MEOH     H1B      HDA3B    0.080000        1.0080           0   0.00000   0.00000
     47076 MEOH     3028     MEOH     H1C      HDA3B    0.080000        1.0080           0   0.00000   0.00000
     47077 MEOH     3028     MEOH     LP1A     LPD     -0.230000        0.0000           -1   0.00000   0.00000
     47078 MEOH     3028     MEOH     LP1B     LPD     -0.230000        0.0000           -1   0.00000   0.00000
     47079 MEOH     3029     MEOH     C1       CD33B    2.314100       11.6110           0   -1.00000   1.30000
     47080 MEOH     3029     MEOH     DC1      DRUD    -2.454100        0.4000           0   0.00000   0.00000
     47081 MEOH     3029     MEOH     O1       OD31H    2.488300       15.5990           0   -1.02800   1.30000
     47082 MEOH     3029     MEOH     DO1      DRUD    -2.488300        0.4000           0   0.00000   0.00000
     47083 MEOH     3029     MEOH     HO1      HDP1A    0.360000        1.0080           0   0.00000   0.00000
     47084 MEOH     3029     MEOH     HO2      DUMH     0.000000        1.0080           0   0.00000   0.00000
     47085 MEOH     3029     MEOH     H1A      HDA3B    0.080000        1.0080           0   0.00000   0.00000
     47086 MEOH     3029     MEOH     H1B      HDA3B    0.080000        1.0080           0   0.00000   0.00000
     47087 MEOH     3029     MEOH     H1C      HDA3B    0.080000        1.0080           0   0.00000   0.00000
     47088 MEOH     3029     MEOH     LP1A     LPD     -0.230000        0.0000           -1   0.00000   0.00000
     47089 MEOH     3029     MEOH     LP1B     LPD     -0.230000        0.0000           -1   0.00000   0.00000
     47090 MEOH     3030     MEOH     C1       CD33B    2.314100       11.6110           0   -1.00000   1.30000
     47091 MEOH     3030     MEOH     DC1      DRUD    -2.454100        0.4000           0   0.00000   0.00000
     47092 MEOH     3030     MEOH     O1       OD31H    2.488300       15.5990           0   -1.02800   1.30000
     47093 MEOH     3030     MEOH     DO1      DRUD    -2.488300        0.4000           0   0.00000   0.00000
     47094 MEOH     3030     MEOH     HO1      HDP1A    0.360000        1.0080           0   0.00000   0.00000
     47095 MEOH     3030     MEOH     HO2      DUMH     0.000000        1.0080           0   0.00000   0.00000
     47096 MEOH     3030     MEOH     H1A      HDA3B    0.080000        1.0080           0   0.00000   0.00000
     47097 MEOH     3030     MEOH     H1B      HDA3B    0.080000        1.0080           0   0.00000   0.00000
     47098 MEOH     3030     MEOH     H1C      HDA3B    0.080000        1.0080           0   0.00000   0.00000
     47099 MEOH     3030     MEOH     LP1A     LPD     -0.230000        0.0000           -1   0.00000   0.00000
     47100 MEOH     3030     MEOH     LP1B     LPD     -0.230000        0.0000           -1   0.00000   0.00000
     47101 MEOH     3031     MEOH     C1       CD33B    2.314100       11.6110           0   -1.00000   1.30000
     47102 MEOH     3031     MEOH     DC1      DRUD    -2.454100        0.4000           0   0.00000   0.00000
     47103 MEOH     3031     MEOH     O1       OD31H    2.488300       15.5990           0   -1.02800   1.30000
     47104 MEOH     3031     MEOH     DO1      DRUD    -2.488300        0.4000           0   0.00000   0.00000
     47105 MEOH     3031     MEOH     HO1      HDP1A    0.360000        1.0080           0   0.00000   0.00000
     47106 MEOH     3031     MEOH     HO2      DUMH     0.000000        1.0080           0   0.00000   0.00000
     47107 MEOH     3031     MEOH     H1A      HDA3B    0.080000        1.0080           0   0.00000   0.00000
     47108 MEOH     3031     MEOH     H1B      HDA3B    0.080000        1.0080           0   0.00000   0.00000
     47109 MEOH     3031     MEOH     H1C      HDA3B    0.080000        1.0080           0   0.00000   0.00000
     47110 MEOH     3031     MEOH     LP1A     LPD     -0.230000        0.0000           -1   0.00000   0.00000
     47111 MEOH     3031     MEOH     LP1B     LPD     -0.230000        0.0000           -1   0.00000   0.00000
     47112 MEOH     3032     MEOH     C1       CD33B    2.314100       11.6110           0   -1.00000   1.30000
     47113 MEOH     3032     MEOH     DC1      DRUD    -2.454100        0.4000           0   0.00000   0.00000
     47114 MEOH     3032     MEOH     O1       OD31H    2.488300       15.5990           0   -1.02800   1.30000
     47115 MEOH     3032     MEOH     DO1      DRUD    -2.488300        0.4000           0   0.00000   0.00000
     47116 MEOH     3032     MEOH     HO1      HDP1A    0.360000        1.0080           0   0.00000   0.00000
     47117 MEOH     3032     MEOH     HO2      DUMH     0.000000        1.0080           0   0.00000   0.00000
     47118 MEOH     3032     MEOH     H1A      HDA3B    0.080000        1.0080           0   0.00000   0.00000
     47119 MEOH     3032     MEOH     H1B      HDA3B    0.080000        1.0080           0   0.00000   0.00000
     47120 MEOH     3032     MEOH     H1C      HDA3B    0.080000        1.0080           0   0.00000   0.00000
     47121 MEOH     3032     MEOH     LP1A     LPD     -0.230000        0.0000           -1   0.00000   0.00000
     47122 MEOH     3032     MEOH     LP1B     LPD     -0.230000        0.0000           -1   0.00000   0.00000
     47123 MEOH     3033     MEOH     C1       CD33B    2.314100       11.6110           0   -1.00000   1.30000
     47124 MEOH     3033     MEOH     DC1      DRUD    -2.454100        0.4000           0   0.00000   0.00000
     47125 MEOH     3033     MEOH     O1       OD31H    2.488300       15.5990           0   -1.02800   1.30000
     47126 MEOH     3033     MEOH     DO1      DRUD    -2.488300        0.4000           0   0.00000   0.00000
     47127 MEOH     3033     MEOH     HO1      HDP1A    0.360000        1.0080           0   0.00000   0.00000
     47128 MEOH     3033     MEOH     HO2      DUMH     0.000000        1.0080           0   0.00000   0.00000
     47129 MEOH     3033     MEOH     H1A      HDA3B    0.080000        1.0080           0   0.00000   0.00000
     47130 MEOH     3033     MEOH     H1B      HDA3B    0.080000        1.0080           0   0.00000   0.00000
     47131 MEOH     3033     MEOH     H1C      HDA3B    0.080000        1.0080           0   0.00000   0.00000
     47132 MEOH     3033     MEOH     LP1A     LPD     -0.230000        0.0000           -1   0.00000   0.00000
     47133 MEOH     3033     MEOH     LP1B     LPD     -0.230000        0.0000           -1   0.00000   0.00000
     47134 MEOH     3034     MEOH     C1       CD33B    2.314100       11.6110           0   -1.00000   1.30000
     47135 MEOH     3034     MEOH     DC1      DRUD    -2.454100        0.4000           0   0.00000   0.00000
     47136 MEOH     3034     MEOH     O1       OD31H    2.488300       15.5990           0   -1.02800   1.30000
     47137 MEOH     3034     MEOH     DO1      DRUD    -2.488300        0.4000           0   0.00000   0.00000
     47138 MEOH     3034     MEOH     HO1      HDP1A    0.360000        1.0080           0   0.00000   0.00000
     47139 MEOH     3034     MEOH     HO2      DUMH     0.000000        1.0080           0   0.00000   0.00000
     47140 MEOH     3034     MEOH     H1A      HDA3B    0.080000        1.0080           0   0.00000   0.00000
     47141 MEOH     3034     MEOH     H1B      HDA3B    0.080000        1.0080           0   0.00000   0.00000
     47142 MEOH     3034     MEOH     H1C      HDA3B    0.080000        1.0080           0   0.00000   0.00000
     47143 MEOH     3034     MEOH     LP1A     LPD     -0.230000        0.0000           -1   0.00000   0.00000
     47144 MEOH     3034     MEOH     LP1B     LPD     -0.230000        0.0000           -1   0.00000   0.00000
     47145 MEOH     3035     MEOH     C1       CD33B    2.314100       11.6110           0   -1.00000   1.30000
     47146 MEOH     3035     MEOH     DC1      DRUD    -2.454100        0.4000           0   0.00000   0.00000
     47147 MEOH     3035     MEOH     O1       OD31H    2.488300       15.5990           0   -1.02800   1.30000
     47148 MEOH     3035     MEOH     DO1      DRUD    -2.488300        0.4000           0   0.00000   0.00000
     47149 MEOH     3035     MEOH     HO1      HDP1A    0.360000        1.0080           0   0.00000   0.00000
     47150 MEOH     3035     MEOH     HO2      DUMH     0.000000        1.0080           0   0.00000   0.00000
     47151 MEOH     3035     MEOH     H1A      HDA3B    0.080000        1.0080           0   0.00000   0.00000
     47152 MEOH     3035     MEOH     H1B      HDA3B    0.080000        1.0080           0   0.00000   0.00000
     47153 MEOH     3035     MEOH     H1C      HDA3B    0.080000        1.0080           0   0.00000   0.00000
     47154 MEOH     3035     MEOH     LP1A     LPD     -0.230000        0.0000           -1   0.00000   0.00000
     47155 MEOH     3035     MEOH     LP1B     LPD     -0.230000        0.0000           -1   0.00000   0.00000
     47156 MEOH     3036     MEOH     C1       CD33B    2.314100       11.6110           0   -1.00000   1.30000
     47157 MEOH     3036     MEOH     DC1      DRUD    -2.454100        0.4000           0   0.00000   0.00000
     47158 MEOH     3036     MEOH     O1       OD31H    2.488300       15.5990           0   -1.02800   1.30000
     47159 MEOH     3036     MEOH     DO1      DRUD    -2.488300        0.4000           0   0.00000   0.00000
     47160 MEOH     3036     MEOH     HO1      HDP1A    0.360000        1.0080           0   0.00000   0.00000
     47161 MEOH     3036     MEOH     HO2      DUMH     0.000000        1.0080           0   0.00000   0.00000
     47162 MEOH     3036     MEOH     H1A      HDA3B    0.080000        1.0080           0   0.00000   0.00000
     47163 MEOH     3036     MEOH     H1B      HDA3B    0.080000        1.0080           0   0.00000   0.00000
     47164 MEOH     3036     MEOH     H1C      HDA3B    0.080000        1.0080           0   0.00000   0.00000
     47165 MEOH     3036     MEOH     LP1A     LPD     -0.230000        0.0000           -1   0.00000   0.00000
     47166 MEOH     3036     MEOH     LP1B     LPD     -0.230000        0.0000           -1   0.00000   0.00000
     47167 MEOH     3037     MEOH     C1       CD33B    2.314100       11.6110           0   -1.00000   1.30000
     47168 MEOH     3037     MEOH     DC1      DRUD    -2.454100        0.4000           0   0.00000   0.00000
     47169 MEOH     3037     MEOH     O1       OD31H    2.488300       15.5990           0   -1.02800   1.30000
     47170 MEOH     3037     MEOH     DO1      DRUD    -2.488300        0.4000           0   0.00000   0.00000
     47171 MEOH     3037     MEOH     HO1      HDP1A    0.360000        1.0080           0   0.00000   0.00000
     47172 MEOH     3037     MEOH     HO2      DUMH     0.000000        1.0080           0   0.00000   0.00000
     47173 MEOH     3037     MEOH     H1A      HDA3B    0.080000        1.0080           0   0.00000   0.00000
     47174 MEOH     3037     MEOH     H1B      HDA3B    0.080000        1.0080           0   0.00000   0.00000
     47175 MEOH     3037     MEOH     H1C      HDA3B    0.080000        1.0080           0   0.00000   0.00000
     47176 MEOH     3037     MEOH     LP1A     LPD     -0.230000        0.0000           -1   0.00000   0.00000
     47177 MEOH     3037     MEOH     LP1B     LPD     -0.230000        0.0000           -1   0.00000   0.00000
     47178 MEOH     3038     MEOH     C1       CD33B    2.314100       11.6110           0   -1.00000   1.30000
     47179 MEOH     3038     MEOH     DC1      DRUD    -2.454100        0.4000           0   0.00000   0.00000
     47180 MEOH     3038     MEOH     O1       OD31H    2.488300       15.5990           0   -1.02800   1.30000
     47181 MEOH     3038     MEOH     DO1      DRUD    -2.488300        0.4000           0   0.00000   0.00000
     47182 MEOH     3038     MEOH     HO1      HDP1A    0.360000        1.0080           0   0.00000   0.00000
     47183 MEOH     3038     MEOH     HO2      DUMH     0.000000        1.0080           0   0.00000   0.00000
     47184 MEOH     3038     MEOH     H1A      HDA3B    0.080000        1.0080           0   0.00000   0.00000
     47185 MEOH     3038     MEOH     H1B      HDA3B    0.080000        1.0080           0   0.00000   0.00000
     47186 MEOH     3038     MEOH     H1C      HDA3B    0.080000        1.0080           0   0.00000   0.00000
     47187 MEOH     3038     MEOH     LP1A     LPD     -0.230000        0.0000           -1   0.00000   0.00000
     47188 MEOH     3038     MEOH     LP1B     LPD     -0.230000        0.0000           -1   0.00000   0.00000
     47189 MEOH     3039     MEOH     C1       CD33B    2.314100       11.6110           0   -1.00000   1.30000
     47190 MEOH     3039     MEOH     DC1      DRUD    -2.454100        0.4000           0   0.00000   0.00000
     47191 MEOH     3039     MEOH     O1       OD31H    2.488300       15.5990           0   -1.02800   1.30000
     47192 MEOH     3039     MEOH     DO1      DRUD    -2.488300        0.4000           0   0.00000   0.00000
     47193 MEOH     3039     MEOH     HO1      HDP1A    0.360000        1.0080           0   0.00000   0.00000
     47194 MEOH     3039     MEOH     HO2      DUMH     0.000000        1.0080           0   0.00000   0.00000
     47195 MEOH     3039     MEOH     H1A      HDA3B    0.080000        1.0080           0   0.00000   0.00000
     47196 MEOH     3039     MEOH     H1B      HDA3B    0.080000        1.0080           0   0.00000   0.00000
     47197 MEOH     3039     MEOH     H1C      HDA3B    0.080000        1.0080           0   0.00000   0.00000
     47198 MEOH     3039     MEOH     LP1A     LPD     -0.230000        0.0000           -1   0.00000   0.00000
     47199 MEOH     3039     MEOH     LP1B     LPD     -0.230000        0.0000           -1   0.00000   0.00000
     47200 MEOH     3040     MEOH     C1       CD33B    2.314100       11.6110           0   -1.00000   1.30000
     47201 MEOH     3040     MEOH     DC1      DRUD    -2.454100        0.4000           0   0.00000   0.00000
     47202 MEOH     3040     MEOH     O1       OD31H    2.488300       15.5990           0   -1.02800   1.30000
     47203 MEOH     3040     MEOH     DO1      DRUD    -2.488300        0.4000           0   0.00000   0.00000
     47204 MEOH     3040     MEOH     HO1      HDP1A    0.360000        1.0080           0   0.00000   0.00000
     47205 MEOH     3040     MEOH     HO2      DUMH     0.000000        1.0080           0   0.00000   0.00000
     47206 MEOH     3040     MEOH     H1A      HDA3B    0.080000        1.0080           0   0.00000   0.00000
     47207 MEOH     3040     MEOH     H1B      HDA3B    0.080000        1.0080           0   0.00000   0.00000
     47208 MEOH     3040     MEOH     H1C      HDA3B    0.080000        1.0080           0   0.00000   0.00000
     47209 MEOH     3040     MEOH     LP1A     LPD     -0.230000        0.0000           -1   0.00000   0.00000
     47210 MEOH     3040     MEOH     LP1B     LPD     -0.230000        0.0000           -1   0.00000   0.00000
     47211 MEOH     3041     MEOH     C1       CD33B    2.314100       11.6110           0   -1.00000   1.30000
     47212 MEOH     3041     MEOH     DC1      DRUD    -2.454100        0.4000           0   0.00000   0.00000
     47213 MEOH     3041     MEOH     O1       OD31H    2.488300       15.5990           0   -1.02800   1.30000
     47214 MEOH     3041     MEOH     DO1      DRUD    -2.488300        0.4000           0   0.00000   0.00000
     47215 MEOH     3041     MEOH     HO1      HDP1A    0.360000        1.0080           0   0.00000   0.00000
     47216 MEOH     3041     MEOH     HO2      DUMH     0.000000        1.0080           0   0.00000   0.00000
     47217 MEOH     3041     MEOH     H1A      HDA3B    0.080000        1.0080           0   0.00000   0.00000
     47218 MEOH     3041     MEOH     H1B      HDA3B    0.080000        1.0080           0   0.00000   0.00000
     47219 MEOH     3041     MEOH     H1C      HDA3B    0.080000        1.0080           0   0.00000   0.00000
     47220 MEOH     3041     MEOH     LP1A     LPD     -0.230000        0.0000           -1   0.00000   0.00000
     47221 MEOH     3041     MEOH     LP1B     LPD     -0.230000        0.0000           -1   0.00000   0.00000
     47222 MEOH     3042     MEOH     C1       CD33B    2.314100       11.6110           0   -1.00000   1.30000
     47223 MEOH     3042     MEOH     DC1      DRUD    -2.454100        0.4000           0   0.00000   0.00000
     47224 MEOH     3042     MEOH     O1       OD31H    2.488300       15.5990           0   -1.02800   1.30000
     47225 MEOH     3042     MEOH     DO1      DRUD    -2.488300        0.4000           0   0.00000   0.00000
     47226 MEOH     3042     MEOH     HO1      HDP1A    0.360000        1.0080           0   0.00000   0.00000
     47227 MEOH     3042     MEOH     HO2      DUMH     0.000000        1.0080           0   0.00000   0.00000
     47228 MEOH     3042     MEOH     H1A      HDA3B    0.080000        1.0080           0   0.00000   0.00000
     47229 MEOH     3042     MEOH     H1B      HDA3B    0.080000        1.0080           0   0.00000   0.00000
     47230 MEOH     3042     MEOH     H1C      HDA3B    0.080000        1.0080           0   0.00000   0.00000
     47231 MEOH     3042     MEOH     LP1A     LPD     -0.230000        0.0000           -1   0.00000   0.00000
     47232 MEOH     3042     MEOH     LP1B     LPD     -0.230000        0.0000           -1   0.00000   0.00000
     47233 MEOH     3043     MEOH     C1       CD33B    2.314100       11.6110           0   -1.00000   1.30000
     47234 MEOH     3043     MEOH     DC1      DRUD    -2.454100        0.4000           0   0.00000   0.00000
     47235 MEOH     3043     MEOH     O1       OD31H    2.488300       15.5990           0   -1.02800   1.30000
     47236 MEOH     3043     MEOH     DO1      DRUD    -2.488300        0.4000           0   0.00000   0.00000
     47237 MEOH     3043     MEOH     HO1      HDP1A    0.360000        1.0080           0   0.00000   0.00000
     47238 MEOH     3043     MEOH     HO2      DUMH     0.000000        1.0080           0   0.00000   0.00000
     47239 MEOH     3043     MEOH     H1A      HDA3B    0.080000        1.0080           0   0.00000   0.00000
     47240 MEOH     3043     MEOH     H1B      HDA3B    0.080000        1.0080           0   0.00000   0.00000
     47241 MEOH     3043     MEOH     H1C      HDA3B    0.080000        1.0080           0   0.00000   0.00000
     47242 MEOH     3043     MEOH     LP1A     LPD     -0.230000        0.0000           -1   0.00000   0.00000
     47243 MEOH     3043     MEOH     LP1B     LPD     -0.230000        0.0000           -1   0.00000   0.00000
     47244 MEOH     3044     MEOH     C1       CD33B    2.314100       11.6110           0   -1.00000   1.30000
     47245 MEOH     3044     MEOH     DC1      DRUD    -2.454100        0.4000           0   0.00000   0.00000
     47246 MEOH     3044     MEOH     O1       OD31H    2.488300       15.5990           0   -1.02800   1.30000
     47247 MEOH     3044     MEOH     DO1      DRUD    -2.488300        0.4000           0   0.00000   0.00000
     47248 MEOH     3044     MEOH     HO1      HDP1A    0.360000        1.0080           0   0.00000   0.00000
     47249 MEOH     3044     MEOH     HO2      DUMH     0.000000        1.0080           0   0.00000   0.00000
     47250 MEOH     3044     MEOH     H1A      HDA3B    0.080000        1.0080           0   0.00000   0.00000
     47251 MEOH     3044     MEOH     H1B      HDA3B    0.080000        1.0080           0   0.00000   0.00000
     47252 MEOH     3044     MEOH     H1C      HDA3B    0.080000        1.0080           0   0.00000   0.00000
     47253 MEOH     3044     MEOH     LP1A     LPD     -0.230000        0.0000           -1   0.00000   0.00000
     47254 MEOH     3044     MEOH     LP1B     LPD     -0.230000        0.0000           -1   0.00000   0.00000
     47255 MEOH     3045     MEOH     C1       CD33B    2.314100       11.6110           0   -1.00000   1.30000
     47256 MEOH     3045     MEOH     DC1      DRUD    -2.454100        0.4000           0   0.00000   0.00000
     47257 MEOH     3045     MEOH     O1       OD31H    2.488300       15.5990           0   -1.02800   1.30000
     47258 MEOH     3045     MEOH     DO1      DRUD    -2.488300        0.4000           0   0.00000   0.00000
     47259 MEOH     3045     MEOH     HO1      HDP1A    0.360000        1.0080           0   0.00000   0.00000
     47260 MEOH     3045     MEOH     HO2      DUMH     0.000000        1.0080           0   0.00000   0.00000
     47261 MEOH     3045     MEOH     H1A      HDA3B    0.080000        1.0080           0   0.00000   0.00000
     47262 MEOH     3045     MEOH     H1B      HDA3B    0.080000        1.0080           0   0.00000   0.00000
     47263 MEOH     3045     MEOH     H1C      HDA3B    0.080000        1.0080           0   0.00000   0.00000
     47264 MEOH     3045     MEOH     LP1A     LPD     -0.230000        0.0000           -1   0.00000   0.00000
     47265 MEOH     3045     MEOH     LP1B     LPD     -0.230000        0.0000           -1   0.00000   0.00000
     47266 MEOH     3046     MEOH     C1       CD33B    2.314100       11.6110           0   -1.00000   1.30000
     47267 MEOH     3046     MEOH     DC1      DRUD    -2.454100        0.4000           0   0.00000   0.00000
     47268 MEOH     3046     MEOH     O1       OD31H    2.488300       15.5990           0   -1.02800   1.30000
     47269 MEOH     3046     MEOH     DO1      DRUD    -2.488300        0.4000           0   0.00000   0.00000
     47270 MEOH     3046     MEOH     HO1      HDP1A    0.360000        1.0080           0   0.00000   0.00000
     47271 MEOH     3046     MEOH     HO2      DUMH     0.000000        1.0080           0   0.00000   0.00000
     47272 MEOH     3046     MEOH     H1A      HDA3B    0.080000        1.0080           0   0.00000   0.00000
     47273 MEOH     3046     MEOH     H1B      HDA3B    0.080000        1.0080           0   0.00000   0.00000
     47274 MEOH     3046     MEOH     H1C      HDA3B    0.080000        1.0080           0   0.00000   0.00000
     47275 MEOH     3046     MEOH     LP1A     LPD     -0.230000        0.0000           -1   0.00000   0.00000
     47276 MEOH     3046     MEOH     LP1B     LPD     -0.230000        0.0000           -1   0.00000   0.00000
     47277 MEOH     3047     MEOH     C1       CD33B    2.314100       11.6110           0   -1.00000   1.30000
     47278 MEOH     3047     MEOH     DC1      DRUD    -2.454100        0.4000           0   0.00000   0.00000
     47279 MEOH     3047     MEOH     O1       OD31H    2.488300       15.5990           0   -1.02800   1.30000
     47280 MEOH     3047     MEOH     DO1      DRUD    -2.488300        0.4000           0   0.00000   0.00000
     47281 MEOH     3047     MEOH     HO1      HDP1A    0.360000        1.0080           0   0.00000   0.00000
     47282 MEOH     3047     MEOH     HO2      DUMH     0.000000        1.0080           0   0.00000   0.00000
     47283 MEOH     3047     MEOH     H1A      HDA3B    0.080000        1.0080           0   0.00000   0.00000
     47284 MEOH     3047     MEOH     H1B      HDA3B    0.080000        1.0080           0   0.00000   0.00000
     47285 MEOH     3047     MEOH     H1C      HDA3B    0.080000        1.0080           0   0.00000   0.00000
     47286 MEOH     3047     MEOH     LP1A     LPD     -0.230000        0.0000           -1   0.00000   0.00000
     47287 MEOH     3047     MEOH     LP1B     LPD     -0.230000        0.0000           -1   0.00000   0.00000
     47288 MEOH     3048     MEOH     C1       CD33B    2.314100       11.6110           0   -1.00000   1.30000
     47289 MEOH     3048     MEOH     DC1      DRUD    -2.454100        0.4000           0   0.00000   0.00000
     47290 MEOH     3048     MEOH     O1       OD31H    2.488300       15.5990           0   -1.02800   1.30000
     47291 MEOH     3048     MEOH     DO1      DRUD    -2.488300        0.4000           0   0.00000   0.00000
     47292 MEOH     3048     MEOH     HO1      HDP1A    0.360000        1.0080           0   0.00000   0.00000
     47293 MEOH     3048     MEOH     HO2      DUMH     0.000000        1.0080           0   0.00000   0.00000
     47294 MEOH     3048     MEOH     H1A      HDA3B    0.080000        1.0080           0   0.00000   0.00000
     47295 MEOH     3048     MEOH     H1B      HDA3B    0.080000        1.0080           0   0.00000   0.00000
     47296 MEOH     3048     MEOH     H1C      HDA3B    0.080000        1.0080           0   0.00000   0.00000
     47297 MEOH     3048     MEOH     LP1A     LPD     -0.230000        0.0000           -1   0.00000   0.00000
     47298 MEOH     3048     MEOH     LP1B     LPD     -0.230000        0.0000           -1   0.00000   0.00000
     47299 MEOH     3049     MEOH     C1       CD33B    2.314100       11.6110           0   -1.00000   1.30000
     47300 MEOH     3049     MEOH     DC1      DRUD    -2.454100        0.4000           0   0.00000   0.00000
     47301 MEOH     3049     MEOH     O1       OD31H    2.488300       15.5990           0   -1.02800   1.30000
     47302 MEOH     3049     MEOH     DO1      DRUD    -2.488300        0.4000           0   0.00000   0.00000
     47303 MEOH     3049     MEOH     HO1      HDP1A    0.360000        1.0080           0   0.00000   0.00000
     47304 MEOH     3049     MEOH     HO2      DUMH     0.000000        1.0080           0   0.00000   0.00000
     47305 MEOH     3049     MEOH     H1A      HDA3B    0.080000        1.0080           0   0.00000   0.00000
     47306 MEOH     3049     MEOH     H1B      HDA3B    0.080000        1.0080           0   0.00000   0.00000
     47307 MEOH     3049     MEOH     H1C      HDA3B    0.080000        1.0080           0   0.00000   0.00000
     47308 MEOH     3049     MEOH     LP1A     LPD     -0.230000        0.0000           -1   0.00000   0.00000
     47309 MEOH     3049     MEOH     LP1B     LPD     -0.230000        0.0000           -1   0.00000   0.00000
     47310 MEOH     3050     MEOH     C1       CD33B    2.314100       11.6110           0   -1.00000   1.30000
     47311 MEOH     3050     MEOH     DC1      DRUD    -2.454100        0.4000           0   0.00000   0.00000
     47312 MEOH     3050     MEOH     O1       OD31H    2.488300       15.5990           0   -1.02800   1.30000
     47313 MEOH     3050     MEOH     DO1      DRUD    -2.488300        0.4000           0   0.00000   0.00000
     47314 MEOH     3050     MEOH     HO1      HDP1A    0.360000        1.0080           0   0.00000   0.00000
     47315 MEOH     3050     MEOH     HO2      DUMH     0.000000        1.0080           0   0.00000   0.00000
     47316 MEOH     3050     MEOH     H1A      HDA3B    0.080000        1.0080           0   0.00000   0.00000
     47317 MEOH     3050     MEOH     H1B      HDA3B    0.080000        1.0080           0   0.00000   0.00000
     47318 MEOH     3050     MEOH     H1C      HDA3B    0.080000        1.0080           0   0.00000   0.00000
     47319 MEOH     3050     MEOH     LP1A     LPD     -0.230000        0.0000           -1   0.00000   0.00000
     47320 MEOH     3050     MEOH     LP1B     LPD     -0.230000        0.0000           -1   0.00000   0.00000
     47321 MEOH     3051     MEOH     C1       CD33B    2.314100       11.6110           0   -1.00000   1.30000
     47322 MEOH     3051     MEOH     DC1      DRUD    -2.454100        0.4000           0   0.00000   0.00000
     47323 MEOH     3051     MEOH     O1       OD31H    2.488300       15.5990           0   -1.02800   1.30000
     47324 MEOH     3051     MEOH     DO1      DRUD    -2.488300        0.4000           0   0.00000   0.00000
     47325 MEOH     3051     MEOH     HO1      HDP1A    0.360000        1.0080           0   0.00000   0.00000
     47326 MEOH     3051     MEOH     HO2      DUMH     0.000000        1.0080           0   0.00000   0.00000
     47327 MEOH     3051     MEOH     H1A      HDA3B    0.080000        1.0080           0   0.00000   0.00000
     47328 MEOH     3051     MEOH     H1B      HDA3B    0.080000        1.0080           0   0.00000   0.00000
     47329 MEOH     3051     MEOH     H1C      HDA3B    0.080000        1.0080           0   0.00000   0.00000
     47330 MEOH     3051     MEOH     LP1A     LPD     -0.230000        0.0000           -1   0.00000   0.00000
     47331 MEOH     3051     MEOH     LP1B     LPD     -0.230000        0.0000           -1   0.00000   0.00000
     47332 MEOH     3052     MEOH     C1       CD33B    2.314100       11.6110           0   -1.00000   1.30000
     47333 MEOH     3052     MEOH     DC1      DRUD    -2.454100        0.4000           0   0.00000   0.00000
     47334 MEOH     3052     MEOH     O1       OD31H    2.488300       15.5990           0   -1.02800   1.30000
     47335 MEOH     3052     MEOH     DO1      DRUD    -2.488300        0.4000           0   0.00000   0.00000
     47336 MEOH     3052     MEOH     HO1      HDP1A    0.360000        1.0080           0   0.00000   0.00000
     47337 MEOH     3052     MEOH     HO2      DUMH     0.000000        1.0080           0   0.00000   0.00000
     47338 MEOH     3052     MEOH     H1A      HDA3B    0.080000        1.0080           0   0.00000   0.00000
     47339 MEOH     3052     MEOH     H1B      HDA3B    0.080000        1.0080           0   0.00000   0.00000
     47340 MEOH     3052     MEOH     H1C      HDA3B    0.080000        1.0080           0   0.00000   0.00000
     47341 MEOH     3052     MEOH     LP1A     LPD     -0.230000        0.0000           -1   0.00000   0.00000
     47342 MEOH     3052     MEOH     LP1B     LPD     -0.230000        0.0000           -1   0.00000   0.00000
     47343 MEOH     3053     MEOH     C1       CD33B    2.314100       11.6110           0   -1.00000   1.30000
     47344 MEOH     3053     MEOH     DC1      DRUD    -2.454100        0.4000           0   0.00000   0.00000
     47345 MEOH     3053     MEOH     O1       OD31H    2.488300       15.5990           0   -1.02800   1.30000
     47346 MEOH     3053     MEOH     DO1      DRUD    -2.488300        0.4000           0   0.00000   0.00000
     47347 MEOH     3053     MEOH     HO1      HDP1A    0.360000        1.0080           0   0.00000   0.00000
     47348 MEOH     3053     MEOH     HO2      DUMH     0.000000        1.0080           0   0.00000   0.00000
     47349 MEOH     3053     MEOH     H1A      HDA3B    0.080000        1.0080           0   0.00000   0.00000
     47350 MEOH     3053     MEOH     H1B      HDA3B    0.080000        1.0080           0   0.00000   0.00000
     47351 MEOH     3053     MEOH     H1C      HDA3B    0.080000        1.0080           0   0.00000   0.00000
     47352 MEOH     3053     MEOH     LP1A     LPD     -0.230000        0.0000           -1   0.00000   0.00000
     47353 MEOH     3053     MEOH     LP1B     LPD     -0.230000        0.0000           -1   0.00000   0.00000
     47354 MEOH     3054     MEOH     C1       CD33B    2.314100       11.6110           0   -1.00000   1.30000
     47355 MEOH     3054     MEOH     DC1      DRUD    -2.454100        0.4000           0   0.00000   0.00000
     47356 MEOH     3054     MEOH     O1       OD31H    2.488300       15.5990           0   -1.02800   1.30000
     47357 MEOH     3054     MEOH     DO1      DRUD    -2.488300        0.4000           0   0.00000   0.00000
     47358 MEOH     3054     MEOH     HO1      HDP1A    0.360000        1.0080           0   0.00000   0.00000
     47359 MEOH     3054     MEOH     HO2      DUMH     0.000000        1.0080           0   0.00000   0.00000
     47360 MEOH     3054     MEOH     H1A      HDA3B    0.080000        1.0080           0   0.00000   0.00000
     47361 MEOH     3054     MEOH     H1B      HDA3B    0.080000        1.0080           0   0.00000   0.00000
     47362 MEOH     3054     MEOH     H1C      HDA3B    0.080000        1.0080           0   0.00000   0.00000
     47363 MEOH     3054     MEOH     LP1A     LPD     -0.230000        0.0000           -1   0.00000   0.00000
     47364 MEOH     3054     MEOH     LP1B     LPD     -0.230000        0.0000           -1   0.00000   0.00000
     47365 MEOH     3055     MEOH     C1       CD33B    2.314100       11.6110           0   -1.00000   1.30000
     47366 MEOH     3055     MEOH     DC1      DRUD    -2.454100        0.4000           0   0.00000   0.00000
     47367 MEOH     3055     MEOH     O1       OD31H    2.488300       15.5990           0   -1.02800   1.30000
     47368 MEOH     3055     MEOH     DO1      DRUD    -2.488300        0.4000           0   0.00000   0.00000
     47369 MEOH     3055     MEOH     HO1      HDP1A    0.360000        1.0080           0   0.00000   0.00000
     47370 MEOH     3055     MEOH     HO2      DUMH     0.000000        1.0080           0   0.00000   0.00000
     47371 MEOH     3055     MEOH     H1A      HDA3B    0.080000        1.0080           0   0.00000   0.00000
     47372 MEOH     3055     MEOH     H1B      HDA3B    0.080000        1.0080           0   0.00000   0.00000
     47373 MEOH     3055     MEOH     H1C      HDA3B    0.080000        1.0080           0   0.00000   0.00000
     47374 MEOH     3055     MEOH     LP1A     LPD     -0.230000        0.0000           -1   0.00000   0.00000
     47375 MEOH     3055     MEOH     LP1B     LPD     -0.230000        0.0000           -1   0.00000   0.00000
     47376 MEOH     3056     MEOH     C1       CD33B    2.314100       11.6110           0   -1.00000   1.30000
     47377 MEOH     3056     MEOH     DC1      DRUD    -2.454100        0.4000           0   0.00000   0.00000
     47378 MEOH     3056     MEOH     O1       OD31H    2.488300       15.5990           0   -1.02800   1.30000
     47379 MEOH     3056     MEOH     DO1      DRUD    -2.488300        0.4000           0   0.00000   0.00000
     47380 MEOH     3056     MEOH     HO1      HDP1A    0.360000        1.0080           0   0.00000   0.00000
     47381 MEOH     3056     MEOH     HO2      DUMH     0.000000        1.0080           0   0.00000   0.00000
     47382 MEOH     3056     MEOH     H1A      HDA3B    0.080000        1.0080           0   0.00000   0.00000
     47383 MEOH     3056     MEOH     H1B      HDA3B    0.080000        1.0080           0   0.00000   0.00000
     47384 MEOH     3056     MEOH     H1C      HDA3B    0.080000        1.0080           0   0.00000   0.00000
     47385 MEOH     3056     MEOH     LP1A     LPD     -0.230000        0.0000           -1   0.00000   0.00000
     47386 MEOH     3056     MEOH     LP1B     LPD     -0.230000        0.0000           -1   0.00000   0.00000
     47387 MEOH     3057     MEOH     C1       CD33B    2.314100       11.6110           0   -1.00000   1.30000
     47388 MEOH     3057     MEOH     DC1      DRUD    -2.454100        0.4000           0   0.00000   0.00000
     47389 MEOH     3057     MEOH     O1       OD31H    2.488300       15.5990           0   -1.02800   1.30000
     47390 MEOH     3057     MEOH     DO1      DRUD    -2.488300        0.4000           0   0.00000   0.00000
     47391 MEOH     3057     MEOH     HO1      HDP1A    0.360000        1.0080           0   0.00000   0.00000
     47392 MEOH     3057     MEOH     HO2      DUMH     0.000000        1.0080           0   0.00000   0.00000
     47393 MEOH     3057     MEOH     H1A      HDA3B    0.080000        1.0080           0   0.00000   0.00000
     47394 MEOH     3057     MEOH     H1B      HDA3B    0.080000        1.0080           0   0.00000   0.00000
     47395 MEOH     3057     MEOH     H1C      HDA3B    0.080000        1.0080           0   0.00000   0.00000
     47396 MEOH     3057     MEOH     LP1A     LPD     -0.230000        0.0000           -1   0.00000   0.00000
     47397 MEOH     3057     MEOH     LP1B     LPD     -0.230000        0.0000           -1   0.00000   0.00000
     47398 MEOH     3058     MEOH     C1       CD33B    2.314100       11.6110           0   -1.00000   1.30000
     47399 MEOH     3058     MEOH     DC1      DRUD    -2.454100        0.4000           0   0.00000   0.00000
     47400 MEOH     3058     MEOH     O1       OD31H    2.488300       15.5990           0   -1.02800   1.30000
     47401 MEOH     3058     MEOH     DO1      DRUD    -2.488300        0.4000           0   0.00000   0.00000
     47402 MEOH     3058     MEOH     HO1      HDP1A    0.360000        1.0080           0   0.00000   0.00000
     47403 MEOH     3058     MEOH     HO2      DUMH     0.000000        1.0080           0   0.00000   0.00000
     47404 MEOH     3058     MEOH     H1A      HDA3B    0.080000        1.0080           0   0.00000   0.00000
     47405 MEOH     3058     MEOH     H1B      HDA3B    0.080000        1.0080           0   0.00000   0.00000
     47406 MEOH     3058     MEOH     H1C      HDA3B    0.080000        1.0080           0   0.00000   0.00000
     47407 MEOH     3058     MEOH     LP1A     LPD     -0.230000        0.0000           -1   0.00000   0.00000
     47408 MEOH     3058     MEOH     LP1B     LPD     -0.230000        0.0000           -1   0.00000   0.00000
     47409 MEOH     3059     MEOH     C1       CD33B    2.314100       11.6110           0   -1.00000   1.30000
     47410 MEOH     3059     MEOH     DC1      DRUD    -2.454100        0.4000           0   0.00000   0.00000
     47411 MEOH     3059     MEOH     O1       OD31H    2.488300       15.5990           0   -1.02800   1.30000
     47412 MEOH     3059     MEOH     DO1      DRUD    -2.488300        0.4000           0   0.00000   0.00000
     47413 MEOH     3059     MEOH     HO1      HDP1A    0.360000        1.0080           0   0.00000   0.00000
     47414 MEOH     3059     MEOH     HO2      DUMH     0.000000        1.0080           0   0.00000   0.00000
     47415 MEOH     3059     MEOH     H1A      HDA3B    0.080000        1.0080           0   0.00000   0.00000
     47416 MEOH     3059     MEOH     H1B      HDA3B    0.080000        1.0080           0   0.00000   0.00000
     47417 MEOH     3059     MEOH     H1C      HDA3B    0.080000        1.0080           0   0.00000   0.00000
     47418 MEOH     3059     MEOH     LP1A     LPD     -0.230000        0.0000           -1   0.00000   0.00000
     47419 MEOH     3059     MEOH     LP1B     LPD     -0.230000        0.0000           -1   0.00000   0.00000
     47420 MEOH     3060     MEOH     C1       CD33B    2.314100       11.6110           0   -1.00000   1.30000
     47421 MEOH     3060     MEOH     DC1      DRUD    -2.454100        0.4000           0   0.00000   0.00000
     47422 MEOH     3060     MEOH     O1       OD31H    2.488300       15.5990           0   -1.02800   1.30000
     47423 MEOH     3060     MEOH     DO1      DRUD    -2.488300        0.4000           0   0.00000   0.00000
     47424 MEOH     3060     MEOH     HO1      HDP1A    0.360000        1.0080           0   0.00000   0.00000
     47425 MEOH     3060     MEOH     HO2      DUMH     0.000000        1.0080           0   0.00000   0.00000
     47426 MEOH     3060     MEOH     H1A      HDA3B    0.080000        1.0080           0   0.00000   0.00000
     47427 MEOH     3060     MEOH     H1B      HDA3B    0.080000        1.0080           0   0.00000   0.00000
     47428 MEOH     3060     MEOH     H1C      HDA3B    0.080000        1.0080           0   0.00000   0.00000
     47429 MEOH     3060     MEOH     LP1A     LPD     -0.230000        0.0000           -1   0.00000   0.00000
     47430 MEOH     3060     MEOH     LP1B     LPD     -0.230000        0.0000           -1   0.00000   0.00000
     47431 MEOH     3061     MEOH     C1       CD33B    2.314100       11.6110           0   -1.00000   1.30000
     47432 MEOH     3061     MEOH     DC1      DRUD    -2.454100        0.4000           0   0.00000   0.00000
     47433 MEOH     3061     MEOH     O1       OD31H    2.488300       15.5990           0   -1.02800   1.30000
     47434 MEOH     3061     MEOH     DO1      DRUD    -2.488300        0.4000           0   0.00000   0.00000
     47435 MEOH     3061     MEOH     HO1      HDP1A    0.360000        1.0080           0   0.00000   0.00000
     47436 MEOH     3061     MEOH     HO2      DUMH     0.000000        1.0080           0   0.00000   0.00000
     47437 MEOH     3061     MEOH     H1A      HDA3B    0.080000        1.0080           0   0.00000   0.00000
     47438 MEOH     3061     MEOH     H1B      HDA3B    0.080000        1.0080           0   0.00000   0.00000
     47439 MEOH     3061     MEOH     H1C      HDA3B    0.080000        1.0080           0   0.00000   0.00000
     47440 MEOH     3061     MEOH     LP1A     LPD     -0.230000        0.0000           -1   0.00000   0.00000
     47441 MEOH     3061     MEOH     LP1B     LPD     -0.230000        0.0000           -1   0.00000   0.00000
     47442 MEOH     3062     MEOH     C1       CD33B    2.314100       11.6110           0   -1.00000   1.30000
     47443 MEOH     3062     MEOH     DC1      DRUD    -2.454100        0.4000           0   0.00000   0.00000
     47444 MEOH     3062     MEOH     O1       OD31H    2.488300       15.5990           0   -1.02800   1.30000
     47445 MEOH     3062     MEOH     DO1      DRUD    -2.488300        0.4000           0   0.00000   0.00000
     47446 MEOH     3062     MEOH     HO1      HDP1A    0.360000        1.0080           0   0.00000   0.00000
     47447 MEOH     3062     MEOH     HO2      DUMH     0.000000        1.0080           0   0.00000   0.00000
     47448 MEOH     3062     MEOH     H1A      HDA3B    0.080000        1.0080           0   0.00000   0.00000
     47449 MEOH     3062     MEOH     H1B      HDA3B    0.080000        1.0080           0   0.00000   0.00000
     47450 MEOH     3062     MEOH     H1C      HDA3B    0.080000        1.0080           0   0.00000   0.00000
     47451 MEOH     3062     MEOH     LP1A     LPD     -0.230000        0.0000           -1   0.00000   0.00000
     47452 MEOH     3062     MEOH     LP1B     LPD     -0.230000        0.0000           -1   0.00000   0.00000
     47453 MEOH     3063     MEOH     C1       CD33B    2.314100       11.6110           0   -1.00000   1.30000
     47454 MEOH     3063     MEOH     DC1      DRUD    -2.454100        0.4000           0   0.00000   0.00000
     47455 MEOH     3063     MEOH     O1       OD31H    2.488300       15.5990           0   -1.02800   1.30000
     47456 MEOH     3063     MEOH     DO1      DRUD    -2.488300        0.4000           0   0.00000   0.00000
     47457 MEOH     3063     MEOH     HO1      HDP1A    0.360000        1.0080           0   0.00000   0.00000
     47458 MEOH     3063     MEOH     HO2      DUMH     0.000000        1.0080           0   0.00000   0.00000
     47459 MEOH     3063     MEOH     H1A      HDA3B    0.080000        1.0080           0   0.00000   0.00000
     47460 MEOH     3063     MEOH     H1B      HDA3B    0.080000        1.0080           0   0.00000   0.00000
     47461 MEOH     3063     MEOH     H1C      HDA3B    0.080000        1.0080           0   0.00000   0.00000
     47462 MEOH     3063     MEOH     LP1A     LPD     -0.230000        0.0000           -1   0.00000   0.00000
     47463 MEOH     3063     MEOH     LP1B     LPD     -0.230000        0.0000           -1   0.00000   0.00000
     47464 MEOH     3064     MEOH     C1       CD33B    2.314100       11.6110           0   -1.00000   1.30000
     47465 MEOH     3064     MEOH     DC1      DRUD    -2.454100        0.4000           0   0.00000   0.00000
     47466 MEOH     3064     MEOH     O1       OD31H    2.488300       15.5990           0   -1.02800   1.30000
     47467 MEOH     3064     MEOH     DO1      DRUD    -2.488300        0.4000           0   0.00000   0.00000
     47468 MEOH     3064     MEOH     HO1      HDP1A    0.360000        1.0080           0   0.00000   0.00000
     47469 MEOH     3064     MEOH     HO2      DUMH     0.000000        1.0080           0   0.00000   0.00000
     47470 MEOH     3064     MEOH     H1A      HDA3B    0.080000        1.0080           0   0.00000   0.00000
     47471 MEOH     3064     MEOH     H1B      HDA3B    0.080000        1.0080           0   0.00000   0.00000
     47472 MEOH     3064     MEOH     H1C      HDA3B    0.080000        1.0080           0   0.00000   0.00000
     47473 MEOH     3064     MEOH     LP1A     LPD     -0.230000        0.0000           -1   0.00000   0.00000
     47474 MEOH     3064     MEOH     LP1B     LPD     -0.230000        0.0000           -1   0.00000   0.00000
     47475 MEOH     3065     MEOH     C1       CD33B    2.314100       11.6110           0   -1.00000   1.30000
     47476 MEOH     3065     MEOH     DC1      DRUD    -2.454100        0.4000           0   0.00000   0.00000
     47477 MEOH     3065     MEOH     O1       OD31H    2.488300       15.5990           0   -1.02800   1.30000
     47478 MEOH     3065     MEOH     DO1      DRUD    -2.488300        0.4000           0   0.00000   0.00000
     47479 MEOH     3065     MEOH     HO1      HDP1A    0.360000        1.0080           0   0.00000   0.00000
     47480 MEOH     3065     MEOH     HO2      DUMH     0.000000        1.0080           0   0.00000   0.00000
     47481 MEOH     3065     MEOH     H1A      HDA3B    0.080000        1.0080           0   0.00000   0.00000
     47482 MEOH     3065     MEOH     H1B      HDA3B    0.080000        1.0080           0   0.00000   0.00000
     47483 MEOH     3065     MEOH     H1C      HDA3B    0.080000        1.0080           0   0.00000   0.00000
     47484 MEOH     3065     MEOH     LP1A     LPD     -0.230000        0.0000           -1   0.00000   0.00000
     47485 MEOH     3065     MEOH     LP1B     LPD     -0.230000        0.0000           -1   0.00000   0.00000
     47486 MEOH     3066     MEOH     C1       CD33B    2.314100       11.6110           0   -1.00000   1.30000
     47487 MEOH     3066     MEOH     DC1      DRUD    -2.454100        0.4000           0   0.00000   0.00000
     47488 MEOH     3066     MEOH     O1       OD31H    2.488300       15.5990           0   -1.02800   1.30000
     47489 MEOH     3066     MEOH     DO1      DRUD    -2.488300        0.4000           0   0.00000   0.00000
     47490 MEOH     3066     MEOH     HO1      HDP1A    0.360000        1.0080           0   0.00000   0.00000
     47491 MEOH     3066     MEOH     HO2      DUMH     0.000000        1.0080           0   0.00000   0.00000
     47492 MEOH     3066     MEOH     H1A      HDA3B    0.080000        1.0080           0   0.00000   0.00000
     47493 MEOH     3066     MEOH     H1B      HDA3B    0.080000        1.0080           0   0.00000   0.00000
     47494 MEOH     3066     MEOH     H1C      HDA3B    0.080000        1.0080           0   0.00000   0.00000
     47495 MEOH     3066     MEOH     LP1A     LPD     -0.230000        0.0000           -1   0.00000   0.00000
     47496 MEOH     3066     MEOH     LP1B     LPD     -0.230000        0.0000           -1   0.00000   0.00000
     47497 MEOH     3067     MEOH     C1       CD33B    2.314100       11.6110           0   -1.00000   1.30000
     47498 MEOH     3067     MEOH     DC1      DRUD    -2.454100        0.4000           0   0.00000   0.00000
     47499 MEOH     3067     MEOH     O1       OD31H    2.488300       15.5990           0   -1.02800   1.30000
     47500 MEOH     3067     MEOH     DO1      DRUD    -2.488300        0.4000           0   0.00000   0.00000
     47501 MEOH     3067     MEOH     HO1      HDP1A    0.360000        1.0080           0   0.00000   0.00000
     47502 MEOH     3067     MEOH     HO2      DUMH     0.000000        1.0080           0   0.00000   0.00000
     47503 MEOH     3067     MEOH     H1A      HDA3B    0.080000        1.0080           0   0.00000   0.00000
     47504 MEOH     3067     MEOH     H1B      HDA3B    0.080000        1.0080           0   0.00000   0.00000
     47505 MEOH     3067     MEOH     H1C      HDA3B    0.080000        1.0080           0   0.00000   0.00000
     47506 MEOH     3067     MEOH     LP1A     LPD     -0.230000        0.0000           -1   0.00000   0.00000
     47507 MEOH     3067     MEOH     LP1B     LPD     -0.230000        0.0000           -1   0.00000   0.00000
     47508 MEOH     3068     MEOH     C1       CD33B    2.314100       11.6110           0   -1.00000   1.30000
     47509 MEOH     3068     MEOH     DC1      DRUD    -2.454100        0.4000           0   0.00000   0.00000
     47510 MEOH     3068     MEOH     O1       OD31H    2.488300       15.5990           0   -1.02800   1.30000
     47511 MEOH     3068     MEOH     DO1      DRUD    -2.488300        0.4000           0   0.00000   0.00000
     47512 MEOH     3068     MEOH     HO1      HDP1A    0.360000        1.0080           0   0.00000   0.00000
     47513 MEOH     3068     MEOH     HO2      DUMH     0.000000        1.0080           0   0.00000   0.00000
     47514 MEOH     3068     MEOH     H1A      HDA3B    0.080000        1.0080           0   0.00000   0.00000
     47515 MEOH     3068     MEOH     H1B      HDA3B    0.080000        1.0080           0   0.00000   0.00000
     47516 MEOH     3068     MEOH     H1C      HDA3B    0.080000        1.0080           0   0.00000   0.00000
     47517 MEOH     3068     MEOH     LP1A     LPD     -0.230000        0.0000           -1   0.00000   0.00000
     47518 MEOH     3068     MEOH     LP1B     LPD     -0.230000        0.0000           -1   0.00000   0.00000
     47519 MEOH     3069     MEOH     C1       CD33B    2.314100       11.6110           0   -1.00000   1.30000
     47520 MEOH     3069     MEOH     DC1      DRUD    -2.454100        0.4000           0   0.00000   0.00000
     47521 MEOH     3069     MEOH     O1       OD31H    2.488300       15.5990           0   -1.02800   1.30000
     47522 MEOH     3069     MEOH     DO1      DRUD    -2.488300        0.4000           0   0.00000   0.00000
     47523 MEOH     3069     MEOH     HO1      HDP1A    0.360000        1.0080           0   0.00000   0.00000
     47524 MEOH     3069     MEOH     HO2      DUMH     0.000000        1.0080           0   0.00000   0.00000
     47525 MEOH     3069     MEOH     H1A      HDA3B    0.080000        1.0080           0   0.00000   0.00000
     47526 MEOH     3069     MEOH     H1B      HDA3B    0.080000        1.0080           0   0.00000   0.00000
     47527 MEOH     3069     MEOH     H1C      HDA3B    0.080000        1.0080           0   0.00000   0.00000
     47528 MEOH     3069     MEOH     LP1A     LPD     -0.230000        0.0000           -1   0.00000   0.00000
     47529 MEOH     3069     MEOH     LP1B     LPD     -0.230000        0.0000           -1   0.00000   0.00000
     47530 MEOH     3070     MEOH     C1       CD33B    2.314100       11.6110           0   -1.00000   1.30000
     47531 MEOH     3070     MEOH     DC1      DRUD    -2.454100        0.4000           0   0.00000   0.00000
     47532 MEOH     3070     MEOH     O1       OD31H    2.488300       15.5990           0   -1.02800   1.30000
     47533 MEOH     3070     MEOH     DO1      DRUD    -2.488300        0.4000           0   0.00000   0.00000
     47534 MEOH     3070     MEOH     HO1      HDP1A    0.360000        1.0080           0   0.00000   0.00000
     47535 MEOH     3070     MEOH     HO2      DUMH     0.000000        1.0080           0   0.00000   0.00000
     47536 MEOH     3070     MEOH     H1A      HDA3B    0.080000        1.0080           0   0.00000   0.00000
     47537 MEOH     3070     MEOH     H1B      HDA3B    0.080000        1.0080           0   0.00000   0.00000
     47538 MEOH     3070     MEOH     H1C      HDA3B    0.080000        1.0080           0   0.00000   0.00000
     47539 MEOH     3070     MEOH     LP1A     LPD     -0.230000        0.0000           -1   0.00000   0.00000
     47540 MEOH     3070     MEOH     LP1B     LPD     -0.230000        0.0000           -1   0.00000   0.00000
     47541 MEOH     3071     MEOH     C1       CD33B    2.314100       11.6110           0   -1.00000   1.30000
     47542 MEOH     3071     MEOH     DC1      DRUD    -2.454100        0.4000           0   0.00000   0.00000
     47543 MEOH     3071     MEOH     O1       OD31H    2.488300       15.5990           0   -1.02800   1.30000
     47544 MEOH     3071     MEOH     DO1      DRUD    -2.488300        0.4000           0   0.00000   0.00000
     47545 MEOH     3071     MEOH     HO1      HDP1A    0.360000        1.0080           0   0.00000   0.00000
     47546 MEOH     3071     MEOH     HO2      DUMH     0.000000        1.0080           0   0.00000   0.00000
     47547 MEOH     3071     MEOH     H1A      HDA3B    0.080000        1.0080           0   0.00000   0.00000
     47548 MEOH     3071     MEOH     H1B      HDA3B    0.080000        1.0080           0   0.00000   0.00000
     47549 MEOH     3071     MEOH     H1C      HDA3B    0.080000        1.0080           0   0.00000   0.00000
     47550 MEOH     3071     MEOH     LP1A     LPD     -0.230000        0.0000           -1   0.00000   0.00000
     47551 MEOH     3071     MEOH     LP1B     LPD     -0.230000        0.0000           -1   0.00000   0.00000
     47552 MEOH     3072     MEOH     C1       CD33B    2.314100       11.6110           0   -1.00000   1.30000
     47553 MEOH     3072     MEOH     DC1      DRUD    -2.454100        0.4000           0   0.00000   0.00000
     47554 MEOH     3072     MEOH     O1       OD31H    2.488300       15.5990           0   -1.02800   1.30000
     47555 MEOH     3072     MEOH     DO1      DRUD    -2.488300        0.4000           0   0.00000   0.00000
     47556 MEOH     3072     MEOH     HO1      HDP1A    0.360000        1.0080           0   0.00000   0.00000
     47557 MEOH     3072     MEOH     HO2      DUMH     0.000000        1.0080           0   0.00000   0.00000
     47558 MEOH     3072     MEOH     H1A      HDA3B    0.080000        1.0080           0   0.00000   0.00000
     47559 MEOH     3072     MEOH     H1B      HDA3B    0.080000        1.0080           0   0.00000   0.00000
     47560 MEOH     3072     MEOH     H1C      HDA3B    0.080000        1.0080           0   0.00000   0.00000
     47561 MEOH     3072     MEOH     LP1A     LPD     -0.230000        0.0000           -1   0.00000   0.00000
     47562 MEOH     3072     MEOH     LP1B     LPD     -0.230000        0.0000           -1   0.00000   0.00000
     47563 MEOH     3073     MEOH     C1       CD33B    2.314100       11.6110           0   -1.00000   1.30000
     47564 MEOH     3073     MEOH     DC1      DRUD    -2.454100        0.4000           0   0.00000   0.00000
     47565 MEOH     3073     MEOH     O1       OD31H    2.488300       15.5990           0   -1.02800   1.30000
     47566 MEOH     3073     MEOH     DO1      DRUD    -2.488300        0.4000           0   0.00000   0.00000
     47567 MEOH     3073     MEOH     HO1      HDP1A    0.360000        1.0080           0   0.00000   0.00000
     47568 MEOH     3073     MEOH     HO2      DUMH     0.000000        1.0080           0   0.00000   0.00000
     47569 MEOH     3073     MEOH     H1A      HDA3B    0.080000        1.0080           0   0.00000   0.00000
     47570 MEOH     3073     MEOH     H1B      HDA3B    0.080000        1.0080           0   0.00000   0.00000
     47571 MEOH     3073     MEOH     H1C      HDA3B    0.080000        1.0080           0   0.00000   0.00000
     47572 MEOH     3073     MEOH     LP1A     LPD     -0.230000        0.0000           -1   0.00000   0.00000
     47573 MEOH     3073     MEOH     LP1B     LPD     -0.230000        0.0000           -1   0.00000   0.00000
     47574 MEOH     3074     MEOH     C1       CD33B    2.314100       11.6110           0   -1.00000   1.30000
     47575 MEOH     3074     MEOH     DC1      DRUD    -2.454100        0.4000           0   0.00000   0.00000
     47576 MEOH     3074     MEOH     O1       OD31H    2.488300       15.5990           0   -1.02800   1.30000
     47577 MEOH     3074     MEOH     DO1      DRUD    -2.488300        0.4000           0   0.00000   0.00000
     47578 MEOH     3074     MEOH     HO1      HDP1A    0.360000        1.0080           0   0.00000   0.00000
     47579 MEOH     3074     MEOH     HO2      DUMH     0.000000        1.0080           0   0.00000   0.00000
     47580 MEOH     3074     MEOH     H1A      HDA3B    0.080000        1.0080           0   0.00000   0.00000
     47581 MEOH     3074     MEOH     H1B      HDA3B    0.080000        1.0080           0   0.00000   0.00000
     47582 MEOH     3074     MEOH     H1C      HDA3B    0.080000        1.0080           0   0.00000   0.00000
     47583 MEOH     3074     MEOH     LP1A     LPD     -0.230000        0.0000           -1   0.00000   0.00000
     47584 MEOH     3074     MEOH     LP1B     LPD     -0.230000        0.0000           -1   0.00000   0.00000
     47585 MEOH     3075     MEOH     C1       CD33B    2.314100       11.6110           0   -1.00000   1.30000
     47586 MEOH     3075     MEOH     DC1      DRUD    -2.454100        0.4000           0   0.00000   0.00000
     47587 MEOH     3075     MEOH     O1       OD31H    2.488300       15.5990           0   -1.02800   1.30000
     47588 MEOH     3075     MEOH     DO1      DRUD    -2.488300        0.4000           0   0.00000   0.00000
     47589 MEOH     3075     MEOH     HO1      HDP1A    0.360000        1.0080           0   0.00000   0.00000
     47590 MEOH     3075     MEOH     HO2      DUMH     0.000000        1.0080           0   0.00000   0.00000
     47591 MEOH     3075     MEOH     H1A      HDA3B    0.080000        1.0080           0   0.00000   0.00000
     47592 MEOH     3075     MEOH     H1B      HDA3B    0.080000        1.0080           0   0.00000   0.00000
     47593 MEOH     3075     MEOH     H1C      HDA3B    0.080000        1.0080           0   0.00000   0.00000
     47594 MEOH     3075     MEOH     LP1A     LPD     -0.230000        0.0000           -1   0.00000   0.00000
     47595 MEOH     3075     MEOH     LP1B     LPD     -0.230000        0.0000           -1   0.00000   0.00000
     47596 MEOH     3076     MEOH     C1       CD33B    2.314100       11.6110           0   -1.00000   1.30000
     47597 MEOH     3076     MEOH     DC1      DRUD    -2.454100        0.4000           0   0.00000   0.00000
     47598 MEOH     3076     MEOH     O1       OD31H    2.488300       15.5990           0   -1.02800   1.30000
     47599 MEOH     3076     MEOH     DO1      DRUD    -2.488300        0.4000           0   0.00000   0.00000
     47600 MEOH     3076     MEOH     HO1      HDP1A    0.360000        1.0080           0   0.00000   0.00000
     47601 MEOH     3076     MEOH     HO2      DUMH     0.000000        1.0080           0   0.00000   0.00000
     47602 MEOH     3076     MEOH     H1A      HDA3B    0.080000        1.0080           0   0.00000   0.00000
     47603 MEOH     3076     MEOH     H1B      HDA3B    0.080000        1.0080           0   0.00000   0.00000
     47604 MEOH     3076     MEOH     H1C      HDA3B    0.080000        1.0080           0   0.00000   0.00000
     47605 MEOH     3076     MEOH     LP1A     LPD     -0.230000        0.0000           -1   0.00000   0.00000
     47606 MEOH     3076     MEOH     LP1B     LPD     -0.230000        0.0000           -1   0.00000   0.00000
     47607 MEOH     3077     MEOH     C1       CD33B    2.314100       11.6110           0   -1.00000   1.30000
     47608 MEOH     3077     MEOH     DC1      DRUD    -2.454100        0.4000           0   0.00000   0.00000
     47609 MEOH     3077     MEOH     O1       OD31H    2.488300       15.5990           0   -1.02800   1.30000
     47610 MEOH     3077     MEOH     DO1      DRUD    -2.488300        0.4000           0   0.00000   0.00000
     47611 MEOH     3077     MEOH     HO1      HDP1A    0.360000        1.0080           0   0.00000   0.00000
     47612 MEOH     3077     MEOH     HO2      DUMH     0.000000        1.0080           0   0.00000   0.00000
     47613 MEOH     3077     MEOH     H1A      HDA3B    0.080000        1.0080           0   0.00000   0.00000
     47614 MEOH     3077     MEOH     H1B      HDA3B    0.080000        1.0080           0   0.00000   0.00000
     47615 MEOH     3077     MEOH     H1C      HDA3B    0.080000        1.0080           0   0.00000   0.00000
     47616 MEOH     3077     MEOH     LP1A     LPD     -0.230000        0.0000           -1   0.00000   0.00000
     47617 MEOH     3077     MEOH     LP1B     LPD     -0.230000        0.0000           -1   0.00000   0.00000
     47618 MEOH     3078     MEOH     C1       CD33B    2.314100       11.6110           0   -1.00000   1.30000
     47619 MEOH     3078     MEOH     DC1      DRUD    -2.454100        0.4000           0   0.00000   0.00000
     47620 MEOH     3078     MEOH     O1       OD31H    2.488300       15.5990           0   -1.02800   1.30000
     47621 MEOH     3078     MEOH     DO1      DRUD    -2.488300        0.4000           0   0.00000   0.00000
     47622 MEOH     3078     MEOH     HO1      HDP1A    0.360000        1.0080           0   0.00000   0.00000
     47623 MEOH     3078     MEOH     HO2      DUMH     0.000000        1.0080           0   0.00000   0.00000
     47624 MEOH     3078     MEOH     H1A      HDA3B    0.080000        1.0080           0   0.00000   0.00000
     47625 MEOH     3078     MEOH     H1B      HDA3B    0.080000        1.0080           0   0.00000   0.00000
     47626 MEOH     3078     MEOH     H1C      HDA3B    0.080000        1.0080           0   0.00000   0.00000
     47627 MEOH     3078     MEOH     LP1A     LPD     -0.230000        0.0000           -1   0.00000   0.00000
     47628 MEOH     3078     MEOH     LP1B     LPD     -0.230000        0.0000           -1   0.00000   0.00000
     47629 MEOH     3079     MEOH     C1       CD33B    2.314100       11.6110           0   -1.00000   1.30000
     47630 MEOH     3079     MEOH     DC1      DRUD    -2.454100        0.4000           0   0.00000   0.00000
     47631 MEOH     3079     MEOH     O1       OD31H    2.488300       15.5990           0   -1.02800   1.30000
     47632 MEOH     3079     MEOH     DO1      DRUD    -2.488300        0.4000           0   0.00000   0.00000
     47633 MEOH     3079     MEOH     HO1      HDP1A    0.360000        1.0080           0   0.00000   0.00000
     47634 MEOH     3079     MEOH     HO2      DUMH     0.000000        1.0080           0   0.00000   0.00000
     47635 MEOH     3079     MEOH     H1A      HDA3B    0.080000        1.0080           0   0.00000   0.00000
     47636 MEOH     3079     MEOH     H1B      HDA3B    0.080000        1.0080           0   0.00000   0.00000
     47637 MEOH     3079     MEOH     H1C      HDA3B    0.080000        1.0080           0   0.00000   0.00000
     47638 MEOH     3079     MEOH     LP1A     LPD     -0.230000        0.0000           -1   0.00000   0.00000
     47639 MEOH     3079     MEOH     LP1B     LPD     -0.230000        0.0000           -1   0.00000   0.00000
     47640 MEOH     3080     MEOH     C1       CD33B    2.314100       11.6110           0   -1.00000   1.30000
     47641 MEOH     3080     MEOH     DC1      DRUD    -2.454100        0.4000           0   0.00000   0.00000
     47642 MEOH     3080     MEOH     O1       OD31H    2.488300       15.5990           0   -1.02800   1.30000
     47643 MEOH     3080     MEOH     DO1      DRUD    -2.488300        0.4000           0   0.00000   0.00000
     47644 MEOH     3080     MEOH     HO1      HDP1A    0.360000        1.0080           0   0.00000   0.00000
     47645 MEOH     3080     MEOH     HO2      DUMH     0.000000        1.0080           0   0.00000   0.00000
     47646 MEOH     3080     MEOH     H1A      HDA3B    0.080000        1.0080           0   0.00000   0.00000
     47647 MEOH     3080     MEOH     H1B      HDA3B    0.080000        1.0080           0   0.00000   0.00000
     47648 MEOH     3080     MEOH     H1C      HDA3B    0.080000        1.0080           0   0.00000   0.00000
     47649 MEOH     3080     MEOH     LP1A     LPD     -0.230000        0.0000           -1   0.00000   0.00000
     47650 MEOH     3080     MEOH     LP1B     LPD     -0.230000        0.0000           -1   0.00000   0.00000
     47651 MEOH     3081     MEOH     C1       CD33B    2.314100       11.6110           0   -1.00000   1.30000
     47652 MEOH     3081     MEOH     DC1      DRUD    -2.454100        0.4000           0   0.00000   0.00000
     47653 MEOH     3081     MEOH     O1       OD31H    2.488300       15.5990           0   -1.02800   1.30000
     47654 MEOH     3081     MEOH     DO1      DRUD    -2.488300        0.4000           0   0.00000   0.00000
     47655 MEOH     3081     MEOH     HO1      HDP1A    0.360000        1.0080           0   0.00000   0.00000
     47656 MEOH     3081     MEOH     HO2      DUMH     0.000000        1.0080           0   0.00000   0.00000
     47657 MEOH     3081     MEOH     H1A      HDA3B    0.080000        1.0080           0   0.00000   0.00000
     47658 MEOH     3081     MEOH     H1B      HDA3B    0.080000        1.0080           0   0.00000   0.00000
     47659 MEOH     3081     MEOH     H1C      HDA3B    0.080000        1.0080           0   0.00000   0.00000
     47660 MEOH     3081     MEOH     LP1A     LPD     -0.230000        0.0000           -1   0.00000   0.00000
     47661 MEOH     3081     MEOH     LP1B     LPD     -0.230000        0.0000           -1   0.00000   0.00000
     47662 MEOH     3082     MEOH     C1       CD33B    2.314100       11.6110           0   -1.00000   1.30000
     47663 MEOH     3082     MEOH     DC1      DRUD    -2.454100        0.4000           0   0.00000   0.00000
     47664 MEOH     3082     MEOH     O1       OD31H    2.488300       15.5990           0   -1.02800   1.30000
     47665 MEOH     3082     MEOH     DO1      DRUD    -2.488300        0.4000           0   0.00000   0.00000
     47666 MEOH     3082     MEOH     HO1      HDP1A    0.360000        1.0080           0   0.00000   0.00000
     47667 MEOH     3082     MEOH     HO2      DUMH     0.000000        1.0080           0   0.00000   0.00000
     47668 MEOH     3082     MEOH     H1A      HDA3B    0.080000        1.0080           0   0.00000   0.00000
     47669 MEOH     3082     MEOH     H1B      HDA3B    0.080000        1.0080           0   0.00000   0.00000
     47670 MEOH     3082     MEOH     H1C      HDA3B    0.080000        1.0080           0   0.00000   0.00000
     47671 MEOH     3082     MEOH     LP1A     LPD     -0.230000        0.0000           -1   0.00000   0.00000
     47672 MEOH     3082     MEOH     LP1B     LPD     -0.230000        0.0000           -1   0.00000   0.00000
     47673 MEOH     3083     MEOH     C1       CD33B    2.314100       11.6110           0   -1.00000   1.30000
     47674 MEOH     3083     MEOH     DC1      DRUD    -2.454100        0.4000           0   0.00000   0.00000
     47675 MEOH     3083     MEOH     O1       OD31H    2.488300       15.5990           0   -1.02800   1.30000
     47676 MEOH     3083     MEOH     DO1      DRUD    -2.488300        0.4000           0   0.00000   0.00000
     47677 MEOH     3083     MEOH     HO1      HDP1A    0.360000        1.0080           0   0.00000   0.00000
     47678 MEOH     3083     MEOH     HO2      DUMH     0.000000        1.0080           0   0.00000   0.00000
     47679 MEOH     3083     MEOH     H1A      HDA3B    0.080000        1.0080           0   0.00000   0.00000
     47680 MEOH     3083     MEOH     H1B      HDA3B    0.080000        1.0080           0   0.00000   0.00000
     47681 MEOH     3083     MEOH     H1C      HDA3B    0.080000        1.0080           0   0.00000   0.00000
     47682 MEOH     3083     MEOH     LP1A     LPD     -0.230000        0.0000           -1   0.00000   0.00000
     47683 MEOH     3083     MEOH     LP1B     LPD     -0.230000        0.0000           -1   0.00000   0.00000
     47684 MEOH     3084     MEOH     C1       CD33B    2.314100       11.6110           0   -1.00000   1.30000
     47685 MEOH     3084     MEOH     DC1      DRUD    -2.454100        0.4000           0   0.00000   0.00000
     47686 MEOH     3084     MEOH     O1       OD31H    2.488300       15.5990           0   -1.02800   1.30000
     47687 MEOH     3084     MEOH     DO1      DRUD    -2.488300        0.4000           0   0.00000   0.00000
     47688 MEOH     3084     MEOH     HO1      HDP1A    0.360000        1.0080           0   0.00000   0.00000
     47689 MEOH     3084     MEOH     HO2      DUMH     0.000000        1.0080           0   0.00000   0.00000
     47690 MEOH     3084     MEOH     H1A      HDA3B    0.080000        1.0080           0   0.00000   0.00000
     47691 MEOH     3084     MEOH     H1B      HDA3B    0.080000        1.0080           0   0.00000   0.00000
     47692 MEOH     3084     MEOH     H1C      HDA3B    0.080000        1.0080           0   0.00000   0.00000
     47693 MEOH     3084     MEOH     LP1A     LPD     -0.230000        0.0000           -1   0.00000   0.00000
     47694 MEOH     3084     MEOH     LP1B     LPD     -0.230000        0.0000           -1   0.00000   0.00000
     47695 MEOH     3085     MEOH     C1       CD33B    2.314100       11.6110           0   -1.00000   1.30000
     47696 MEOH     3085     MEOH     DC1      DRUD    -2.454100        0.4000           0   0.00000   0.00000
     47697 MEOH     3085     MEOH     O1       OD31H    2.488300       15.5990           0   -1.02800   1.30000
     47698 MEOH     3085     MEOH     DO1      DRUD    -2.488300        0.4000           0   0.00000   0.00000
     47699 MEOH     3085     MEOH     HO1      HDP1A    0.360000        1.0080           0   0.00000   0.00000
     47700 MEOH     3085     MEOH     HO2      DUMH     0.000000        1.0080           0   0.00000   0.00000
     47701 MEOH     3085     MEOH     H1A      HDA3B    0.080000        1.0080           0   0.00000   0.00000
     47702 MEOH     3085     MEOH     H1B      HDA3B    0.080000        1.0080           0   0.00000   0.00000
     47703 MEOH     3085     MEOH     H1C      HDA3B    0.080000        1.0080           0   0.00000   0.00000
     47704 MEOH     3085     MEOH     LP1A     LPD     -0.230000        0.0000           -1   0.00000   0.00000
     47705 MEOH     3085     MEOH     LP1B     LPD     -0.230000        0.0000           -1   0.00000   0.00000
     47706 MEOH     3086     MEOH     C1       CD33B    2.314100       11.6110           0   -1.00000   1.30000
     47707 MEOH     3086     MEOH     DC1      DRUD    -2.454100        0.4000           0   0.00000   0.00000
     47708 MEOH     3086     MEOH     O1       OD31H    2.488300       15.5990           0   -1.02800   1.30000
     47709 MEOH     3086     MEOH     DO1      DRUD    -2.488300        0.4000           0   0.00000   0.00000
     47710 MEOH     3086     MEOH     HO1      HDP1A    0.360000        1.0080           0   0.00000   0.00000
     47711 MEOH     3086     MEOH     HO2      DUMH     0.000000        1.0080           0   0.00000   0.00000
     47712 MEOH     3086     MEOH     H1A      HDA3B    0.080000        1.0080           0   0.00000   0.00000
     47713 MEOH     3086     MEOH     H1B      HDA3B    0.080000        1.0080           0   0.00000   0.00000
     47714 MEOH     3086     MEOH     H1C      HDA3B    0.080000        1.0080           0   0.00000   0.00000
     47715 MEOH     3086     MEOH     LP1A     LPD     -0.230000        0.0000           -1   0.00000   0.00000
     47716 MEOH     3086     MEOH     LP1B     LPD     -0.230000        0.0000           -1   0.00000   0.00000
     47717 MEOH     3087     MEOH     C1       CD33B    2.314100       11.6110           0   -1.00000   1.30000
     47718 MEOH     3087     MEOH     DC1      DRUD    -2.454100        0.4000           0   0.00000   0.00000
     47719 MEOH     3087     MEOH     O1       OD31H    2.488300       15.5990           0   -1.02800   1.30000
     47720 MEOH     3087     MEOH     DO1      DRUD    -2.488300        0.4000           0   0.00000   0.00000
     47721 MEOH     3087     MEOH     HO1      HDP1A    0.360000        1.0080           0   0.00000   0.00000
     47722 MEOH     3087     MEOH     HO2      DUMH     0.000000        1.0080           0   0.00000   0.00000
     47723 MEOH     3087     MEOH     H1A      HDA3B    0.080000        1.0080           0   0.00000   0.00000
     47724 MEOH     3087     MEOH     H1B      HDA3B    0.080000        1.0080           0   0.00000   0.00000
     47725 MEOH     3087     MEOH     H1C      HDA3B    0.080000        1.0080           0   0.00000   0.00000
     47726 MEOH     3087     MEOH     LP1A     LPD     -0.230000        0.0000           -1   0.00000   0.00000
     47727 MEOH     3087     MEOH     LP1B     LPD     -0.230000        0.0000           -1   0.00000   0.00000
     47728 MEOH     3088     MEOH     C1       CD33B    2.314100       11.6110           0   -1.00000   1.30000
     47729 MEOH     3088     MEOH     DC1      DRUD    -2.454100        0.4000           0   0.00000   0.00000
     47730 MEOH     3088     MEOH     O1       OD31H    2.488300       15.5990           0   -1.02800   1.30000
     47731 MEOH     3088     MEOH     DO1      DRUD    -2.488300        0.4000           0   0.00000   0.00000
     47732 MEOH     3088     MEOH     HO1      HDP1A    0.360000        1.0080           0   0.00000   0.00000
     47733 MEOH     3088     MEOH     HO2      DUMH     0.000000        1.0080           0   0.00000   0.00000
     47734 MEOH     3088     MEOH     H1A      HDA3B    0.080000        1.0080           0   0.00000   0.00000
     47735 MEOH     3088     MEOH     H1B      HDA3B    0.080000        1.0080           0   0.00000   0.00000
     47736 MEOH     3088     MEOH     H1C      HDA3B    0.080000        1.0080           0   0.00000   0.00000
     47737 MEOH     3088     MEOH     LP1A     LPD     -0.230000        0.0000           -1   0.00000   0.00000
     47738 MEOH     3088     MEOH     LP1B     LPD     -0.230000        0.0000           -1   0.00000   0.00000
     47739 MEOH     3089     MEOH     C1       CD33B    2.314100       11.6110           0   -1.00000   1.30000
     47740 MEOH     3089     MEOH     DC1      DRUD    -2.454100        0.4000           0   0.00000   0.00000
     47741 MEOH     3089     MEOH     O1       OD31H    2.488300       15.5990           0   -1.02800   1.30000
     47742 MEOH     3089     MEOH     DO1      DRUD    -2.488300        0.4000           0   0.00000   0.00000
     47743 MEOH     3089     MEOH     HO1      HDP1A    0.360000        1.0080           0   0.00000   0.00000
     47744 MEOH     3089     MEOH     HO2      DUMH     0.000000        1.0080           0   0.00000   0.00000
     47745 MEOH     3089     MEOH     H1A      HDA3B    0.080000        1.0080           0   0.00000   0.00000
     47746 MEOH     3089     MEOH     H1B      HDA3B    0.080000        1.0080           0   0.00000   0.00000
     47747 MEOH     3089     MEOH     H1C      HDA3B    0.080000        1.0080           0   0.00000   0.00000
     47748 MEOH     3089     MEOH     LP1A     LPD     -0.230000        0.0000           -1   0.00000   0.00000
     47749 MEOH     3089     MEOH     LP1B     LPD     -0.230000        0.0000           -1   0.00000   0.00000
     47750 MEOH     3090     MEOH     C1       CD33B    2.314100       11.6110           0   -1.00000   1.30000
     47751 MEOH     3090     MEOH     DC1      DRUD    -2.454100        0.4000           0   0.00000   0.00000
     47752 MEOH     3090     MEOH     O1       OD31H    2.488300       15.5990           0   -1.02800   1.30000
     47753 MEOH     3090     MEOH     DO1      DRUD    -2.488300        0.4000           0   0.00000   0.00000
     47754 MEOH     3090     MEOH     HO1      HDP1A    0.360000        1.0080           0   0.00000   0.00000
     47755 MEOH     3090     MEOH     HO2      DUMH     0.000000        1.0080           0   0.00000   0.00000
     47756 MEOH     3090     MEOH     H1A      HDA3B    0.080000        1.0080           0   0.00000   0.00000
     47757 MEOH     3090     MEOH     H1B      HDA3B    0.080000        1.0080           0   0.00000   0.00000
     47758 MEOH     3090     MEOH     H1C      HDA3B    0.080000        1.0080           0   0.00000   0.00000
     47759 MEOH     3090     MEOH     LP1A     LPD     -0.230000        0.0000           -1   0.00000   0.00000
     47760 MEOH     3090     MEOH     LP1B     LPD     -0.230000        0.0000           -1   0.00000   0.00000
     47761 MEOH     3091     MEOH     C1       CD33B    2.314100       11.6110           0   -1.00000   1.30000
     47762 MEOH     3091     MEOH     DC1      DRUD    -2.454100        0.4000           0   0.00000   0.00000
     47763 MEOH     3091     MEOH     O1       OD31H    2.488300       15.5990           0   -1.02800   1.30000
     47764 MEOH     3091     MEOH     DO1      DRUD    -2.488300        0.4000           0   0.00000   0.00000
     47765 MEOH     3091     MEOH     HO1      HDP1A    0.360000        1.0080           0   0.00000   0.00000
     47766 MEOH     3091     MEOH     HO2      DUMH     0.000000        1.0080           0   0.00000   0.00000
     47767 MEOH     3091     MEOH     H1A      HDA3B    0.080000        1.0080           0   0.00000   0.00000
     47768 MEOH     3091     MEOH     H1B      HDA3B    0.080000        1.0080           0   0.00000   0.00000
     47769 MEOH     3091     MEOH     H1C      HDA3B    0.080000        1.0080           0   0.00000   0.00000
     47770 MEOH     3091     MEOH     LP1A     LPD     -0.230000        0.0000           -1   0.00000   0.00000
     47771 MEOH     3091     MEOH     LP1B     LPD     -0.230000        0.0000           -1   0.00000   0.00000
     47772 MEOH     3092     MEOH     C1       CD33B    2.314100       11.6110           0   -1.00000   1.30000
     47773 MEOH     3092     MEOH     DC1      DRUD    -2.454100        0.4000           0   0.00000   0.00000
     47774 MEOH     3092     MEOH     O1       OD31H    2.488300       15.5990           0   -1.02800   1.30000
     47775 MEOH     3092     MEOH     DO1      DRUD    -2.488300        0.4000           0   0.00000   0.00000
     47776 MEOH     3092     MEOH     HO1      HDP1A    0.360000        1.0080           0   0.00000   0.00000
     47777 MEOH     3092     MEOH     HO2      DUMH     0.000000        1.0080           0   0.00000   0.00000
     47778 MEOH     3092     MEOH     H1A      HDA3B    0.080000        1.0080           0   0.00000   0.00000
     47779 MEOH     3092     MEOH     H1B      HDA3B    0.080000        1.0080           0   0.00000   0.00000
     47780 MEOH     3092     MEOH     H1C      HDA3B    0.080000        1.0080           0   0.00000   0.00000
     47781 MEOH     3092     MEOH     LP1A     LPD     -0.230000        0.0000           -1   0.00000   0.00000
     47782 MEOH     3092     MEOH     LP1B     LPD     -0.230000        0.0000           -1   0.00000   0.00000
     47783 MEOH     3093     MEOH     C1       CD33B    2.314100       11.6110           0   -1.00000   1.30000
     47784 MEOH     3093     MEOH     DC1      DRUD    -2.454100        0.4000           0   0.00000   0.00000
     47785 MEOH     3093     MEOH     O1       OD31H    2.488300       15.5990           0   -1.02800   1.30000
     47786 MEOH     3093     MEOH     DO1      DRUD    -2.488300        0.4000           0   0.00000   0.00000
     47787 MEOH     3093     MEOH     HO1      HDP1A    0.360000        1.0080           0   0.00000   0.00000
     47788 MEOH     3093     MEOH     HO2      DUMH     0.000000        1.0080           0   0.00000   0.00000
     47789 MEOH     3093     MEOH     H1A      HDA3B    0.080000        1.0080           0   0.00000   0.00000
     47790 MEOH     3093     MEOH     H1B      HDA3B    0.080000        1.0080           0   0.00000   0.00000
     47791 MEOH     3093     MEOH     H1C      HDA3B    0.080000        1.0080           0   0.00000   0.00000
     47792 MEOH     3093     MEOH     LP1A     LPD     -0.230000        0.0000           -1   0.00000   0.00000
     47793 MEOH     3093     MEOH     LP1B     LPD     -0.230000        0.0000           -1   0.00000   0.00000
     47794 MEOH     3094     MEOH     C1       CD33B    2.314100       11.6110           0   -1.00000   1.30000
     47795 MEOH     3094     MEOH     DC1      DRUD    -2.454100        0.4000           0   0.00000   0.00000
     47796 MEOH     3094     MEOH     O1       OD31H    2.488300       15.5990           0   -1.02800   1.30000
     47797 MEOH     3094     MEOH     DO1      DRUD    -2.488300        0.4000           0   0.00000   0.00000
     47798 MEOH     3094     MEOH     HO1      HDP1A    0.360000        1.0080           0   0.00000   0.00000
     47799 MEOH     3094     MEOH     HO2      DUMH     0.000000        1.0080           0   0.00000   0.00000
     47800 MEOH     3094     MEOH     H1A      HDA3B    0.080000        1.0080           0   0.00000   0.00000
     47801 MEOH     3094     MEOH     H1B      HDA3B    0.080000        1.0080           0   0.00000   0.00000
     47802 MEOH     3094     MEOH     H1C      HDA3B    0.080000        1.0080           0   0.00000   0.00000
     47803 MEOH     3094     MEOH     LP1A     LPD     -0.230000        0.0000           -1   0.00000   0.00000
     47804 MEOH     3094     MEOH     LP1B     LPD     -0.230000        0.0000           -1   0.00000   0.00000
     47805 MEOH     3095     MEOH     C1       CD33B    2.314100       11.6110           0   -1.00000   1.30000
     47806 MEOH     3095     MEOH     DC1      DRUD    -2.454100        0.4000           0   0.00000   0.00000
     47807 MEOH     3095     MEOH     O1       OD31H    2.488300       15.5990           0   -1.02800   1.30000
     47808 MEOH     3095     MEOH     DO1      DRUD    -2.488300        0.4000           0   0.00000   0.00000
     47809 MEOH     3095     MEOH     HO1      HDP1A    0.360000        1.0080           0   0.00000   0.00000
     47810 MEOH     3095     MEOH     HO2      DUMH     0.000000        1.0080           0   0.00000   0.00000
     47811 MEOH     3095     MEOH     H1A      HDA3B    0.080000        1.0080           0   0.00000   0.00000
     47812 MEOH     3095     MEOH     H1B      HDA3B    0.080000        1.0080           0   0.00000   0.00000
     47813 MEOH     3095     MEOH     H1C      HDA3B    0.080000        1.0080           0   0.00000   0.00000
     47814 MEOH     3095     MEOH     LP1A     LPD     -0.230000        0.0000           -1   0.00000   0.00000
     47815 MEOH     3095     MEOH     LP1B     LPD     -0.230000        0.0000           -1   0.00000   0.00000
     47816 MEOH     3096     MEOH     C1       CD33B    2.314100       11.6110           0   -1.00000   1.30000
     47817 MEOH     3096     MEOH     DC1      DRUD    -2.454100        0.4000           0   0.00000   0.00000
     47818 MEOH     3096     MEOH     O1       OD31H    2.488300       15.5990           0   -1.02800   1.30000
     47819 MEOH     3096     MEOH     DO1      DRUD    -2.488300        0.4000           0   0.00000   0.00000
     47820 MEOH     3096     MEOH     HO1      HDP1A    0.360000        1.0080           0   0.00000   0.00000
     47821 MEOH     3096     MEOH     HO2      DUMH     0.000000        1.0080           0   0.00000   0.00000
     47822 MEOH     3096     MEOH     H1A      HDA3B    0.080000        1.0080           0   0.00000   0.00000
     47823 MEOH     3096     MEOH     H1B      HDA3B    0.080000        1.0080           0   0.00000   0.00000
     47824 MEOH     3096     MEOH     H1C      HDA3B    0.080000        1.0080           0   0.00000   0.00000
     47825 MEOH     3096     MEOH     LP1A     LPD     -0.230000        0.0000           -1   0.00000   0.00000
     47826 MEOH     3096     MEOH     LP1B     LPD     -0.230000        0.0000           -1   0.00000   0.00000
     47827 MEOH     3097     MEOH     C1       CD33B    2.314100       11.6110           0   -1.00000   1.30000
     47828 MEOH     3097     MEOH     DC1      DRUD    -2.454100        0.4000           0   0.00000   0.00000
     47829 MEOH     3097     MEOH     O1       OD31H    2.488300       15.5990           0   -1.02800   1.30000
     47830 MEOH     3097     MEOH     DO1      DRUD    -2.488300        0.4000           0   0.00000   0.00000
     47831 MEOH     3097     MEOH     HO1      HDP1A    0.360000        1.0080           0   0.00000   0.00000
     47832 MEOH     3097     MEOH     HO2      DUMH     0.000000        1.0080           0   0.00000   0.00000
     47833 MEOH     3097     MEOH     H1A      HDA3B    0.080000        1.0080           0   0.00000   0.00000
     47834 MEOH     3097     MEOH     H1B      HDA3B    0.080000        1.0080           0   0.00000   0.00000
     47835 MEOH     3097     MEOH     H1C      HDA3B    0.080000        1.0080           0   0.00000   0.00000
     47836 MEOH     3097     MEOH     LP1A     LPD     -0.230000        0.0000           -1   0.00000   0.00000
     47837 MEOH     3097     MEOH     LP1B     LPD     -0.230000        0.0000           -1   0.00000   0.00000
     47838 MEOH     3098     MEOH     C1       CD33B    2.314100       11.6110           0   -1.00000   1.30000
     47839 MEOH     3098     MEOH     DC1      DRUD    -2.454100        0.4000           0   0.00000   0.00000
     47840 MEOH     3098     MEOH     O1       OD31H    2.488300       15.5990           0   -1.02800   1.30000
     47841 MEOH     3098     MEOH     DO1      DRUD    -2.488300        0.4000           0   0.00000   0.00000
     47842 MEOH     3098     MEOH     HO1      HDP1A    0.360000        1.0080           0   0.00000   0.00000
     47843 MEOH     3098     MEOH     HO2      DUMH     0.000000        1.0080           0   0.00000   0.00000
     47844 MEOH     3098     MEOH     H1A      HDA3B    0.080000        1.0080           0   0.00000   0.00000
     47845 MEOH     3098     MEOH     H1B      HDA3B    0.080000        1.0080           0   0.00000   0.00000
     47846 MEOH     3098     MEOH     H1C      HDA3B    0.080000        1.0080           0   0.00000   0.00000
     47847 MEOH     3098     MEOH     LP1A     LPD     -0.230000        0.0000           -1   0.00000   0.00000
     47848 MEOH     3098     MEOH     LP1B     LPD     -0.230000        0.0000           -1   0.00000   0.00000
     47849 MEOH     3099     MEOH     C1       CD33B    2.314100       11.6110           0   -1.00000   1.30000
     47850 MEOH     3099     MEOH     DC1      DRUD    -2.454100        0.4000           0   0.00000   0.00000
     47851 MEOH     3099     MEOH     O1       OD31H    2.488300       15.5990           0   -1.02800   1.30000
     47852 MEOH     3099     MEOH     DO1      DRUD    -2.488300        0.4000           0   0.00000   0.00000
     47853 MEOH     3099     MEOH     HO1      HDP1A    0.360000        1.0080           0   0.00000   0.00000
     47854 MEOH     3099     MEOH     HO2      DUMH     0.000000        1.0080           0   0.00000   0.00000
     47855 MEOH     3099     MEOH     H1A      HDA3B    0.080000        1.0080           0   0.00000   0.00000
     47856 MEOH     3099     MEOH     H1B      HDA3B    0.080000        1.0080           0   0.00000   0.00000
     47857 MEOH     3099     MEOH     H1C      HDA3B    0.080000        1.0080           0   0.00000   0.00000
     47858 MEOH     3099     MEOH     LP1A     LPD     -0.230000        0.0000           -1   0.00000   0.00000
     47859 MEOH     3099     MEOH     LP1B     LPD     -0.230000        0.0000           -1   0.00000   0.00000
     47860 MEOH     3100     MEOH     C1       CD33B    2.314100       11.6110           0   -1.00000   1.30000
     47861 MEOH     3100     MEOH     DC1      DRUD    -2.454100        0.4000           0   0.00000   0.00000
     47862 MEOH     3100     MEOH     O1       OD31H    2.488300       15.5990           0   -1.02800   1.30000
     47863 MEOH     3100     MEOH     DO1      DRUD    -2.488300        0.4000           0   0.00000   0.00000
     47864 MEOH     3100     MEOH     HO1      HDP1A    0.360000        1.0080           0   0.00000   0.00000
     47865 MEOH     3100     MEOH     HO2      DUMH     0.000000        1.0080           0   0.00000   0.00000
     47866 MEOH     3100     MEOH     H1A      HDA3B    0.080000        1.0080           0   0.00000   0.00000
     47867 MEOH     3100     MEOH     H1B      HDA3B    0.080000        1.0080           0   0.00000   0.00000
     47868 MEOH     3100     MEOH     H1C      HDA3B    0.080000        1.0080           0   0.00000   0.00000
     47869 MEOH     3100     MEOH     LP1A     LPD     -0.230000        0.0000           -1   0.00000   0.00000
     47870 MEOH     3100     MEOH     LP1B     LPD     -0.230000        0.0000           -1   0.00000   0.00000
     47871 MEOH     3101     MEOH     C1       CD33B    2.314100       11.6110           0   -1.00000   1.30000
     47872 MEOH     3101     MEOH     DC1      DRUD    -2.454100        0.4000           0   0.00000   0.00000
     47873 MEOH     3101     MEOH     O1       OD31H    2.488300       15.5990           0   -1.02800   1.30000
     47874 MEOH     3101     MEOH     DO1      DRUD    -2.488300        0.4000           0   0.00000   0.00000
     47875 MEOH     3101     MEOH     HO1      HDP1A    0.360000        1.0080           0   0.00000   0.00000
     47876 MEOH     3101     MEOH     HO2      DUMH     0.000000        1.0080           0   0.00000   0.00000
     47877 MEOH     3101     MEOH     H1A      HDA3B    0.080000        1.0080           0   0.00000   0.00000
     47878 MEOH     3101     MEOH     H1B      HDA3B    0.080000        1.0080           0   0.00000   0.00000
     47879 MEOH     3101     MEOH     H1C      HDA3B    0.080000        1.0080           0   0.00000   0.00000
     47880 MEOH     3101     MEOH     LP1A     LPD     -0.230000        0.0000           -1   0.00000   0.00000
     47881 MEOH     3101     MEOH     LP1B     LPD     -0.230000        0.0000           -1   0.00000   0.00000
     47882 MEOH     3102     MEOH     C1       CD33B    2.314100       11.6110           0   -1.00000   1.30000
     47883 MEOH     3102     MEOH     DC1      DRUD    -2.454100        0.4000           0   0.00000   0.00000
     47884 MEOH     3102     MEOH     O1       OD31H    2.488300       15.5990           0   -1.02800   1.30000
     47885 MEOH     3102     MEOH     DO1      DRUD    -2.488300        0.4000           0   0.00000   0.00000
     47886 MEOH     3102     MEOH     HO1      HDP1A    0.360000        1.0080           0   0.00000   0.00000
     47887 MEOH     3102     MEOH     HO2      DUMH     0.000000        1.0080           0   0.00000   0.00000
     47888 MEOH     3102     MEOH     H1A      HDA3B    0.080000        1.0080           0   0.00000   0.00000
     47889 MEOH     3102     MEOH     H1B      HDA3B    0.080000        1.0080           0   0.00000   0.00000
     47890 MEOH     3102     MEOH     H1C      HDA3B    0.080000        1.0080           0   0.00000   0.00000
     47891 MEOH     3102     MEOH     LP1A     LPD     -0.230000        0.0000           -1   0.00000   0.00000
     47892 MEOH     3102     MEOH     LP1B     LPD     -0.230000        0.0000           -1   0.00000   0.00000
     47893 MEOH     3103     MEOH     C1       CD33B    2.314100       11.6110           0   -1.00000   1.30000
     47894 MEOH     3103     MEOH     DC1      DRUD    -2.454100        0.4000           0   0.00000   0.00000
     47895 MEOH     3103     MEOH     O1       OD31H    2.488300       15.5990           0   -1.02800   1.30000
     47896 MEOH     3103     MEOH     DO1      DRUD    -2.488300        0.4000           0   0.00000   0.00000
     47897 MEOH     3103     MEOH     HO1      HDP1A    0.360000        1.0080           0   0.00000   0.00000
     47898 MEOH     3103     MEOH     HO2      DUMH     0.000000        1.0080           0   0.00000   0.00000
     47899 MEOH     3103     MEOH     H1A      HDA3B    0.080000        1.0080           0   0.00000   0.00000
     47900 MEOH     3103     MEOH     H1B      HDA3B    0.080000        1.0080           0   0.00000   0.00000
     47901 MEOH     3103     MEOH     H1C      HDA3B    0.080000        1.0080           0   0.00000   0.00000
     47902 MEOH     3103     MEOH     LP1A     LPD     -0.230000        0.0000           -1   0.00000   0.00000
     47903 MEOH     3103     MEOH     LP1B     LPD     -0.230000        0.0000           -1   0.00000   0.00000
     47904 MEOH     3104     MEOH     C1       CD33B    2.314100       11.6110           0   -1.00000   1.30000
     47905 MEOH     3104     MEOH     DC1      DRUD    -2.454100        0.4000           0   0.00000   0.00000
     47906 MEOH     3104     MEOH     O1       OD31H    2.488300       15.5990           0   -1.02800   1.30000
     47907 MEOH     3104     MEOH     DO1      DRUD    -2.488300        0.4000           0   0.00000   0.00000
     47908 MEOH     3104     MEOH     HO1      HDP1A    0.360000        1.0080           0   0.00000   0.00000
     47909 MEOH     3104     MEOH     HO2      DUMH     0.000000        1.0080           0   0.00000   0.00000
     47910 MEOH     3104     MEOH     H1A      HDA3B    0.080000        1.0080           0   0.00000   0.00000
     47911 MEOH     3104     MEOH     H1B      HDA3B    0.080000        1.0080           0   0.00000   0.00000
     47912 MEOH     3104     MEOH     H1C      HDA3B    0.080000        1.0080           0   0.00000   0.00000
     47913 MEOH     3104     MEOH     LP1A     LPD     -0.230000        0.0000           -1   0.00000   0.00000
     47914 MEOH     3104     MEOH     LP1B     LPD     -0.230000        0.0000           -1   0.00000   0.00000
     47915 MEOH     3105     MEOH     C1       CD33B    2.314100       11.6110           0   -1.00000   1.30000
     47916 MEOH     3105     MEOH     DC1      DRUD    -2.454100        0.4000           0   0.00000   0.00000
     47917 MEOH     3105     MEOH     O1       OD31H    2.488300       15.5990           0   -1.02800   1.30000
     47918 MEOH     3105     MEOH     DO1      DRUD    -2.488300        0.4000           0   0.00000   0.00000
     47919 MEOH     3105     MEOH     HO1      HDP1A    0.360000        1.0080           0   0.00000   0.00000
     47920 MEOH     3105     MEOH     HO2      DUMH     0.000000        1.0080           0   0.00000   0.00000
     47921 MEOH     3105     MEOH     H1A      HDA3B    0.080000        1.0080           0   0.00000   0.00000
     47922 MEOH     3105     MEOH     H1B      HDA3B    0.080000        1.0080           0   0.00000   0.00000
     47923 MEOH     3105     MEOH     H1C      HDA3B    0.080000        1.0080           0   0.00000   0.00000
     47924 MEOH     3105     MEOH     LP1A     LPD     -0.230000        0.0000           -1   0.00000   0.00000
     47925 MEOH     3105     MEOH     LP1B     LPD     -0.230000        0.0000           -1   0.00000   0.00000
     47926 MEOH     3106     MEOH     C1       CD33B    2.314100       11.6110           0   -1.00000   1.30000
     47927 MEOH     3106     MEOH     DC1      DRUD    -2.454100        0.4000           0   0.00000   0.00000
     47928 MEOH     3106     MEOH     O1       OD31H    2.488300       15.5990           0   -1.02800   1.30000
     47929 MEOH     3106     MEOH     DO1      DRUD    -2.488300        0.4000           0   0.00000   0.00000
     47930 MEOH     3106     MEOH     HO1      HDP1A    0.360000        1.0080           0   0.00000   0.00000
     47931 MEOH     3106     MEOH     HO2      DUMH     0.000000        1.0080           0   0.00000   0.00000
     47932 MEOH     3106     MEOH     H1A      HDA3B    0.080000        1.0080           0   0.00000   0.00000
     47933 MEOH     3106     MEOH     H1B      HDA3B    0.080000        1.0080           0   0.00000   0.00000
     47934 MEOH     3106     MEOH     H1C      HDA3B    0.080000        1.0080           0   0.00000   0.00000
     47935 MEOH     3106     MEOH     LP1A     LPD     -0.230000        0.0000           -1   0.00000   0.00000
     47936 MEOH     3106     MEOH     LP1B     LPD     -0.230000        0.0000           -1   0.00000   0.00000
     47937 MEOH     3107     MEOH     C1       CD33B    2.314100       11.6110           0   -1.00000   1.30000
     47938 MEOH     3107     MEOH     DC1      DRUD    -2.454100        0.4000           0   0.00000   0.00000
     47939 MEOH     3107     MEOH     O1       OD31H    2.488300       15.5990           0   -1.02800   1.30000
     47940 MEOH     3107     MEOH     DO1      DRUD    -2.488300        0.4000           0   0.00000   0.00000
     47941 MEOH     3107     MEOH     HO1      HDP1A    0.360000        1.0080           0   0.00000   0.00000
     47942 MEOH     3107     MEOH     HO2      DUMH     0.000000        1.0080           0   0.00000   0.00000
     47943 MEOH     3107     MEOH     H1A      HDA3B    0.080000        1.0080           0   0.00000   0.00000
     47944 MEOH     3107     MEOH     H1B      HDA3B    0.080000        1.0080           0   0.00000   0.00000
     47945 MEOH     3107     MEOH     H1C      HDA3B    0.080000        1.0080           0   0.00000   0.00000
     47946 MEOH     3107     MEOH     LP1A     LPD     -0.230000        0.0000           -1   0.00000   0.00000
     47947 MEOH     3107     MEOH     LP1B     LPD     -0.230000        0.0000           -1   0.00000   0.00000
     47948 MEOH     3108     MEOH     C1       CD33B    2.314100       11.6110           0   -1.00000   1.30000
     47949 MEOH     3108     MEOH     DC1      DRUD    -2.454100        0.4000           0   0.00000   0.00000
     47950 MEOH     3108     MEOH     O1       OD31H    2.488300       15.5990           0   -1.02800   1.30000
     47951 MEOH     3108     MEOH     DO1      DRUD    -2.488300        0.4000           0   0.00000   0.00000
     47952 MEOH     3108     MEOH     HO1      HDP1A    0.360000        1.0080           0   0.00000   0.00000
     47953 MEOH     3108     MEOH     HO2      DUMH     0.000000        1.0080           0   0.00000   0.00000
     47954 MEOH     3108     MEOH     H1A      HDA3B    0.080000        1.0080           0   0.00000   0.00000
     47955 MEOH     3108     MEOH     H1B      HDA3B    0.080000        1.0080           0   0.00000   0.00000
     47956 MEOH     3108     MEOH     H1C      HDA3B    0.080000        1.0080           0   0.00000   0.00000
     47957 MEOH     3108     MEOH     LP1A     LPD     -0.230000        0.0000           -1   0.00000   0.00000
     47958 MEOH     3108     MEOH     LP1B     LPD     -0.230000        0.0000           -1   0.00000   0.00000
     47959 MEOH     3109     MEOH     C1       CD33B    2.314100       11.6110           0   -1.00000   1.30000
     47960 MEOH     3109     MEOH     DC1      DRUD    -2.454100        0.4000           0   0.00000   0.00000
     47961 MEOH     3109     MEOH     O1       OD31H    2.488300       15.5990           0   -1.02800   1.30000
     47962 MEOH     3109     MEOH     DO1      DRUD    -2.488300        0.4000           0   0.00000   0.00000
     47963 MEOH     3109     MEOH     HO1      HDP1A    0.360000        1.0080           0   0.00000   0.00000
     47964 MEOH     3109     MEOH     HO2      DUMH     0.000000        1.0080           0   0.00000   0.00000
     47965 MEOH     3109     MEOH     H1A      HDA3B    0.080000        1.0080           0   0.00000   0.00000
     47966 MEOH     3109     MEOH     H1B      HDA3B    0.080000        1.0080           0   0.00000   0.00000
     47967 MEOH     3109     MEOH     H1C      HDA3B    0.080000        1.0080           0   0.00000   0.00000
     47968 MEOH     3109     MEOH     LP1A     LPD     -0.230000        0.0000           -1   0.00000   0.00000
     47969 MEOH     3109     MEOH     LP1B     LPD     -0.230000        0.0000           -1   0.00000   0.00000
     47970 MEOH     3110     MEOH     C1       CD33B    2.314100       11.6110           0   -1.00000   1.30000
     47971 MEOH     3110     MEOH     DC1      DRUD    -2.454100        0.4000           0   0.00000   0.00000
     47972 MEOH     3110     MEOH     O1       OD31H    2.488300       15.5990           0   -1.02800   1.30000
     47973 MEOH     3110     MEOH     DO1      DRUD    -2.488300        0.4000           0   0.00000   0.00000
     47974 MEOH     3110     MEOH     HO1      HDP1A    0.360000        1.0080           0   0.00000   0.00000
     47975 MEOH     3110     MEOH     HO2      DUMH     0.000000        1.0080           0   0.00000   0.00000
     47976 MEOH     3110     MEOH     H1A      HDA3B    0.080000        1.0080           0   0.00000   0.00000
     47977 MEOH     3110     MEOH     H1B      HDA3B    0.080000        1.0080           0   0.00000   0.00000
     47978 MEOH     3110     MEOH     H1C      HDA3B    0.080000        1.0080           0   0.00000   0.00000
     47979 MEOH     3110     MEOH     LP1A     LPD     -0.230000        0.0000           -1   0.00000   0.00000
     47980 MEOH     3110     MEOH     LP1B     LPD     -0.230000        0.0000           -1   0.00000   0.00000
     47981 MEOH     3111     MEOH     C1       CD33B    2.314100       11.6110           0   -1.00000   1.30000
     47982 MEOH     3111     MEOH     DC1      DRUD    -2.454100        0.4000           0   0.00000   0.00000
     47983 MEOH     3111     MEOH     O1       OD31H    2.488300       15.5990           0   -1.02800   1.30000
     47984 MEOH     3111     MEOH     DO1      DRUD    -2.488300        0.4000           0   0.00000   0.00000
     47985 MEOH     3111     MEOH     HO1      HDP1A    0.360000        1.0080           0   0.00000   0.00000
     47986 MEOH     3111     MEOH     HO2      DUMH     0.000000        1.0080           0   0.00000   0.00000
     47987 MEOH     3111     MEOH     H1A      HDA3B    0.080000        1.0080           0   0.00000   0.00000
     47988 MEOH     3111     MEOH     H1B      HDA3B    0.080000        1.0080           0   0.00000   0.00000
     47989 MEOH     3111     MEOH     H1C      HDA3B    0.080000        1.0080           0   0.00000   0.00000
     47990 MEOH     3111     MEOH     LP1A     LPD     -0.230000        0.0000           -1   0.00000   0.00000
     47991 MEOH     3111     MEOH     LP1B     LPD     -0.230000        0.0000           -1   0.00000   0.00000
     47992 MEOH     3112     MEOH     C1       CD33B    2.314100       11.6110           0   -1.00000   1.30000
     47993 MEOH     3112     MEOH     DC1      DRUD    -2.454100        0.4000           0   0.00000   0.00000
     47994 MEOH     3112     MEOH     O1       OD31H    2.488300       15.5990           0   -1.02800   1.30000
     47995 MEOH     3112     MEOH     DO1      DRUD    -2.488300        0.4000           0   0.00000   0.00000
     47996 MEOH     3112     MEOH     HO1      HDP1A    0.360000        1.0080           0   0.00000   0.00000
     47997 MEOH     3112     MEOH     HO2      DUMH     0.000000        1.0080           0   0.00000   0.00000
     47998 MEOH     3112     MEOH     H1A      HDA3B    0.080000        1.0080           0   0.00000   0.00000
     47999 MEOH     3112     MEOH     H1B      HDA3B    0.080000        1.0080           0   0.00000   0.00000
     48000 MEOH     3112     MEOH     H1C      HDA3B    0.080000        1.0080           0   0.00000   0.00000
     48001 MEOH     3112     MEOH     LP1A     LPD     -0.230000        0.0000           -1   0.00000   0.00000
     48002 MEOH     3112     MEOH     LP1B     LPD     -0.230000        0.0000           -1   0.00000   0.00000
     48003 MEOH     3113     MEOH     C1       CD33B    2.314100       11.6110           0   -1.00000   1.30000
     48004 MEOH     3113     MEOH     DC1      DRUD    -2.454100        0.4000           0   0.00000   0.00000
     48005 MEOH     3113     MEOH     O1       OD31H    2.488300       15.5990           0   -1.02800   1.30000
     48006 MEOH     3113     MEOH     DO1      DRUD    -2.488300        0.4000           0   0.00000   0.00000
     48007 MEOH     3113     MEOH     HO1      HDP1A    0.360000        1.0080           0   0.00000   0.00000
     48008 MEOH     3113     MEOH     HO2      DUMH     0.000000        1.0080           0   0.00000   0.00000
     48009 MEOH     3113     MEOH     H1A      HDA3B    0.080000        1.0080           0   0.00000   0.00000
     48010 MEOH     3113     MEOH     H1B      HDA3B    0.080000        1.0080           0   0.00000   0.00000
     48011 MEOH     3113     MEOH     H1C      HDA3B    0.080000        1.0080           0   0.00000   0.00000
     48012 MEOH     3113     MEOH     LP1A     LPD     -0.230000        0.0000           -1   0.00000   0.00000
     48013 MEOH     3113     MEOH     LP1B     LPD     -0.230000        0.0000           -1   0.00000   0.00000
     48014 MEOH     3114     MEOH     C1       CD33B    2.314100       11.6110           0   -1.00000   1.30000
     48015 MEOH     3114     MEOH     DC1      DRUD    -2.454100        0.4000           0   0.00000   0.00000
     48016 MEOH     3114     MEOH     O1       OD31H    2.488300       15.5990           0   -1.02800   1.30000
     48017 MEOH     3114     MEOH     DO1      DRUD    -2.488300        0.4000           0   0.00000   0.00000
     48018 MEOH     3114     MEOH     HO1      HDP1A    0.360000        1.0080           0   0.00000   0.00000
     48019 MEOH     3114     MEOH     HO2      DUMH     0.000000        1.0080           0   0.00000   0.00000
     48020 MEOH     3114     MEOH     H1A      HDA3B    0.080000        1.0080           0   0.00000   0.00000
     48021 MEOH     3114     MEOH     H1B      HDA3B    0.080000        1.0080           0   0.00000   0.00000
     48022 MEOH     3114     MEOH     H1C      HDA3B    0.080000        1.0080           0   0.00000   0.00000
     48023 MEOH     3114     MEOH     LP1A     LPD     -0.230000        0.0000           -1   0.00000   0.00000
     48024 MEOH     3114     MEOH     LP1B     LPD     -0.230000        0.0000           -1   0.00000   0.00000
     48025 MEOH     3115     MEOH     C1       CD33B    2.314100       11.6110           0   -1.00000   1.30000
     48026 MEOH     3115     MEOH     DC1      DRUD    -2.454100        0.4000           0   0.00000   0.00000
     48027 MEOH     3115     MEOH     O1       OD31H    2.488300       15.5990           0   -1.02800   1.30000
     48028 MEOH     3115     MEOH     DO1      DRUD    -2.488300        0.4000           0   0.00000   0.00000
     48029 MEOH     3115     MEOH     HO1      HDP1A    0.360000        1.0080           0   0.00000   0.00000
     48030 MEOH     3115     MEOH     HO2      DUMH     0.000000        1.0080           0   0.00000   0.00000
     48031 MEOH     3115     MEOH     H1A      HDA3B    0.080000        1.0080           0   0.00000   0.00000
     48032 MEOH     3115     MEOH     H1B      HDA3B    0.080000        1.0080           0   0.00000   0.00000
     48033 MEOH     3115     MEOH     H1C      HDA3B    0.080000        1.0080           0   0.00000   0.00000
     48034 MEOH     3115     MEOH     LP1A     LPD     -0.230000        0.0000           -1   0.00000   0.00000
     48035 MEOH     3115     MEOH     LP1B     LPD     -0.230000        0.0000           -1   0.00000   0.00000
     48036 MEOH     3116     MEOH     C1       CD33B    2.314100       11.6110           0   -1.00000   1.30000
     48037 MEOH     3116     MEOH     DC1      DRUD    -2.454100        0.4000           0   0.00000   0.00000
     48038 MEOH     3116     MEOH     O1       OD31H    2.488300       15.5990           0   -1.02800   1.30000
     48039 MEOH     3116     MEOH     DO1      DRUD    -2.488300        0.4000           0   0.00000   0.00000
     48040 MEOH     3116     MEOH     HO1      HDP1A    0.360000        1.0080           0   0.00000   0.00000
     48041 MEOH     3116     MEOH     HO2      DUMH     0.000000        1.0080           0   0.00000   0.00000
     48042 MEOH     3116     MEOH     H1A      HDA3B    0.080000        1.0080           0   0.00000   0.00000
     48043 MEOH     3116     MEOH     H1B      HDA3B    0.080000        1.0080           0   0.00000   0.00000
     48044 MEOH     3116     MEOH     H1C      HDA3B    0.080000        1.0080           0   0.00000   0.00000
     48045 MEOH     3116     MEOH     LP1A     LPD     -0.230000        0.0000           -1   0.00000   0.00000
     48046 MEOH     3116     MEOH     LP1B     LPD     -0.230000        0.0000           -1   0.00000   0.00000
     48047 MEOH     3117     MEOH     C1       CD33B    2.314100       11.6110           0   -1.00000   1.30000
     48048 MEOH     3117     MEOH     DC1      DRUD    -2.454100        0.4000           0   0.00000   0.00000
     48049 MEOH     3117     MEOH     O1       OD31H    2.488300       15.5990           0   -1.02800   1.30000
     48050 MEOH     3117     MEOH     DO1      DRUD    -2.488300        0.4000           0   0.00000   0.00000
     48051 MEOH     3117     MEOH     HO1      HDP1A    0.360000        1.0080           0   0.00000   0.00000
     48052 MEOH     3117     MEOH     HO2      DUMH     0.000000        1.0080           0   0.00000   0.00000
     48053 MEOH     3117     MEOH     H1A      HDA3B    0.080000        1.0080           0   0.00000   0.00000
     48054 MEOH     3117     MEOH     H1B      HDA3B    0.080000        1.0080           0   0.00000   0.00000
     48055 MEOH     3117     MEOH     H1C      HDA3B    0.080000        1.0080           0   0.00000   0.00000
     48056 MEOH     3117     MEOH     LP1A     LPD     -0.230000        0.0000           -1   0.00000   0.00000
     48057 MEOH     3117     MEOH     LP1B     LPD     -0.230000        0.0000           -1   0.00000   0.00000
     48058 MEOH     3118     MEOH     C1       CD33B    2.314100       11.6110           0   -1.00000   1.30000
     48059 MEOH     3118     MEOH     DC1      DRUD    -2.454100        0.4000           0   0.00000   0.00000
     48060 MEOH     3118     MEOH     O1       OD31H    2.488300       15.5990           0   -1.02800   1.30000
     48061 MEOH     3118     MEOH     DO1      DRUD    -2.488300        0.4000           0   0.00000   0.00000
     48062 MEOH     3118     MEOH     HO1      HDP1A    0.360000        1.0080           0   0.00000   0.00000
     48063 MEOH     3118     MEOH     HO2      DUMH     0.000000        1.0080           0   0.00000   0.00000
     48064 MEOH     3118     MEOH     H1A      HDA3B    0.080000        1.0080           0   0.00000   0.00000
     48065 MEOH     3118     MEOH     H1B      HDA3B    0.080000        1.0080           0   0.00000   0.00000
     48066 MEOH     3118     MEOH     H1C      HDA3B    0.080000        1.0080           0   0.00000   0.00000
     48067 MEOH     3118     MEOH     LP1A     LPD     -0.230000        0.0000           -1   0.00000   0.00000
     48068 MEOH     3118     MEOH     LP1B     LPD     -0.230000        0.0000           -1   0.00000   0.00000
     48069 MEOH     3119     MEOH     C1       CD33B    2.314100       11.6110           0   -1.00000   1.30000
     48070 MEOH     3119     MEOH     DC1      DRUD    -2.454100        0.4000           0   0.00000   0.00000
     48071 MEOH     3119     MEOH     O1       OD31H    2.488300       15.5990           0   -1.02800   1.30000
     48072 MEOH     3119     MEOH     DO1      DRUD    -2.488300        0.4000           0   0.00000   0.00000
     48073 MEOH     3119     MEOH     HO1      HDP1A    0.360000        1.0080           0   0.00000   0.00000
     48074 MEOH     3119     MEOH     HO2      DUMH     0.000000        1.0080           0   0.00000   0.00000
     48075 MEOH     3119     MEOH     H1A      HDA3B    0.080000        1.0080           0   0.00000   0.00000
     48076 MEOH     3119     MEOH     H1B      HDA3B    0.080000        1.0080           0   0.00000   0.00000
     48077 MEOH     3119     MEOH     H1C      HDA3B    0.080000        1.0080           0   0.00000   0.00000
     48078 MEOH     3119     MEOH     LP1A     LPD     -0.230000        0.0000           -1   0.00000   0.00000
     48079 MEOH     3119     MEOH     LP1B     LPD     -0.230000        0.0000           -1   0.00000   0.00000
     48080 MEOH     3120     MEOH     C1       CD33B    2.314100       11.6110           0   -1.00000   1.30000
     48081 MEOH     3120     MEOH     DC1      DRUD    -2.454100        0.4000           0   0.00000   0.00000
     48082 MEOH     3120     MEOH     O1       OD31H    2.488300       15.5990           0   -1.02800   1.30000
     48083 MEOH     3120     MEOH     DO1      DRUD    -2.488300        0.4000           0   0.00000   0.00000
     48084 MEOH     3120     MEOH     HO1      HDP1A    0.360000        1.0080           0   0.00000   0.00000
     48085 MEOH     3120     MEOH     HO2      DUMH     0.000000        1.0080           0   0.00000   0.00000
     48086 MEOH     3120     MEOH     H1A      HDA3B    0.080000        1.0080           0   0.00000   0.00000
     48087 MEOH     3120     MEOH     H1B      HDA3B    0.080000        1.0080           0   0.00000   0.00000
     48088 MEOH     3120     MEOH     H1C      HDA3B    0.080000        1.0080           0   0.00000   0.00000
     48089 MEOH     3120     MEOH     LP1A     LPD     -0.230000        0.0000           -1   0.00000   0.00000
     48090 MEOH     3120     MEOH     LP1B     LPD     -0.230000        0.0000           -1   0.00000   0.00000
     48091 MEOH     3121     MEOH     C1       CD33B    2.314100       11.6110           0   -1.00000   1.30000
     48092 MEOH     3121     MEOH     DC1      DRUD    -2.454100        0.4000           0   0.00000   0.00000
     48093 MEOH     3121     MEOH     O1       OD31H    2.488300       15.5990           0   -1.02800   1.30000
     48094 MEOH     3121     MEOH     DO1      DRUD    -2.488300        0.4000           0   0.00000   0.00000
     48095 MEOH     3121     MEOH     HO1      HDP1A    0.360000        1.0080           0   0.00000   0.00000
     48096 MEOH     3121     MEOH     HO2      DUMH     0.000000        1.0080           0   0.00000   0.00000
     48097 MEOH     3121     MEOH     H1A      HDA3B    0.080000        1.0080           0   0.00000   0.00000
     48098 MEOH     3121     MEOH     H1B      HDA3B    0.080000        1.0080           0   0.00000   0.00000
     48099 MEOH     3121     MEOH     H1C      HDA3B    0.080000        1.0080           0   0.00000   0.00000
     48100 MEOH     3121     MEOH     LP1A     LPD     -0.230000        0.0000           -1   0.00000   0.00000
     48101 MEOH     3121     MEOH     LP1B     LPD     -0.230000        0.0000           -1   0.00000   0.00000
     48102 MEOH     3122     MEOH     C1       CD33B    2.314100       11.6110           0   -1.00000   1.30000
     48103 MEOH     3122     MEOH     DC1      DRUD    -2.454100        0.4000           0   0.00000   0.00000
     48104 MEOH     3122     MEOH     O1       OD31H    2.488300       15.5990           0   -1.02800   1.30000
     48105 MEOH     3122     MEOH     DO1      DRUD    -2.488300        0.4000           0   0.00000   0.00000
     48106 MEOH     3122     MEOH     HO1      HDP1A    0.360000        1.0080           0   0.00000   0.00000
     48107 MEOH     3122     MEOH     HO2      DUMH     0.000000        1.0080           0   0.00000   0.00000
     48108 MEOH     3122     MEOH     H1A      HDA3B    0.080000        1.0080           0   0.00000   0.00000
     48109 MEOH     3122     MEOH     H1B      HDA3B    0.080000        1.0080           0   0.00000   0.00000
     48110 MEOH     3122     MEOH     H1C      HDA3B    0.080000        1.0080           0   0.00000   0.00000
     48111 MEOH     3122     MEOH     LP1A     LPD     -0.230000        0.0000           -1   0.00000   0.00000
     48112 MEOH     3122     MEOH     LP1B     LPD     -0.230000        0.0000           -1   0.00000   0.00000
     48113 MEOH     3123     MEOH     C1       CD33B    2.314100       11.6110           0   -1.00000   1.30000
     48114 MEOH     3123     MEOH     DC1      DRUD    -2.454100        0.4000           0   0.00000   0.00000
     48115 MEOH     3123     MEOH     O1       OD31H    2.488300       15.5990           0   -1.02800   1.30000
     48116 MEOH     3123     MEOH     DO1      DRUD    -2.488300        0.4000           0   0.00000   0.00000
     48117 MEOH     3123     MEOH     HO1      HDP1A    0.360000        1.0080           0   0.00000   0.00000
     48118 MEOH     3123     MEOH     HO2      DUMH     0.000000        1.0080           0   0.00000   0.00000
     48119 MEOH     3123     MEOH     H1A      HDA3B    0.080000        1.0080           0   0.00000   0.00000
     48120 MEOH     3123     MEOH     H1B      HDA3B    0.080000        1.0080           0   0.00000   0.00000
     48121 MEOH     3123     MEOH     H1C      HDA3B    0.080000        1.0080           0   0.00000   0.00000
     48122 MEOH     3123     MEOH     LP1A     LPD     -0.230000        0.0000           -1   0.00000   0.00000
     48123 MEOH     3123     MEOH     LP1B     LPD     -0.230000        0.0000           -1   0.00000   0.00000
     48124 MEOH     3124     MEOH     C1       CD33B    2.314100       11.6110           0   -1.00000   1.30000
     48125 MEOH     3124     MEOH     DC1      DRUD    -2.454100        0.4000           0   0.00000   0.00000
     48126 MEOH     3124     MEOH     O1       OD31H    2.488300       15.5990           0   -1.02800   1.30000
     48127 MEOH     3124     MEOH     DO1      DRUD    -2.488300        0.4000           0   0.00000   0.00000
     48128 MEOH     3124     MEOH     HO1      HDP1A    0.360000        1.0080           0   0.00000   0.00000
     48129 MEOH     3124     MEOH     HO2      DUMH     0.000000        1.0080           0   0.00000   0.00000
     48130 MEOH     3124     MEOH     H1A      HDA3B    0.080000        1.0080           0   0.00000   0.00000
     48131 MEOH     3124     MEOH     H1B      HDA3B    0.080000        1.0080           0   0.00000   0.00000
     48132 MEOH     3124     MEOH     H1C      HDA3B    0.080000        1.0080           0   0.00000   0.00000
     48133 MEOH     3124     MEOH     LP1A     LPD     -0.230000        0.0000           -1   0.00000   0.00000
     48134 MEOH     3124     MEOH     LP1B     LPD     -0.230000        0.0000           -1   0.00000   0.00000
     48135 MEOH     3125     MEOH     C1       CD33B    2.314100       11.6110           0   -1.00000   1.30000
     48136 MEOH     3125     MEOH     DC1      DRUD    -2.454100        0.4000           0   0.00000   0.00000
     48137 MEOH     3125     MEOH     O1       OD31H    2.488300       15.5990           0   -1.02800   1.30000
     48138 MEOH     3125     MEOH     DO1      DRUD    -2.488300        0.4000           0   0.00000   0.00000
     48139 MEOH     3125     MEOH     HO1      HDP1A    0.360000        1.0080           0   0.00000   0.00000
     48140 MEOH     3125     MEOH     HO2      DUMH     0.000000        1.0080           0   0.00000   0.00000
     48141 MEOH     3125     MEOH     H1A      HDA3B    0.080000        1.0080           0   0.00000   0.00000
     48142 MEOH     3125     MEOH     H1B      HDA3B    0.080000        1.0080           0   0.00000   0.00000
     48143 MEOH     3125     MEOH     H1C      HDA3B    0.080000        1.0080           0   0.00000   0.00000
     48144 MEOH     3125     MEOH     LP1A     LPD     -0.230000        0.0000           -1   0.00000   0.00000
     48145 MEOH     3125     MEOH     LP1B     LPD     -0.230000        0.0000           -1   0.00000   0.00000
     48146 MEOH     3126     MEOH     C1       CD33B    2.314100       11.6110           0   -1.00000   1.30000
     48147 MEOH     3126     MEOH     DC1      DRUD    -2.454100        0.4000           0   0.00000   0.00000
     48148 MEOH     3126     MEOH     O1       OD31H    2.488300       15.5990           0   -1.02800   1.30000
     48149 MEOH     3126     MEOH     DO1      DRUD    -2.488300        0.4000           0   0.00000   0.00000
     48150 MEOH     3126     MEOH     HO1      HDP1A    0.360000        1.0080           0   0.00000   0.00000
     48151 MEOH     3126     MEOH     HO2      DUMH     0.000000        1.0080           0   0.00000   0.00000
     48152 MEOH     3126     MEOH     H1A      HDA3B    0.080000        1.0080           0   0.00000   0.00000
     48153 MEOH     3126     MEOH     H1B      HDA3B    0.080000        1.0080           0   0.00000   0.00000
     48154 MEOH     3126     MEOH     H1C      HDA3B    0.080000        1.0080           0   0.00000   0.00000
     48155 MEOH     3126     MEOH     LP1A     LPD     -0.230000        0.0000           -1   0.00000   0.00000
     48156 MEOH     3126     MEOH     LP1B     LPD     -0.230000        0.0000           -1   0.00000   0.00000
     48157 MEOH     3127     MEOH     C1       CD33B    2.314100       11.6110           0   -1.00000   1.30000
     48158 MEOH     3127     MEOH     DC1      DRUD    -2.454100        0.4000           0   0.00000   0.00000
     48159 MEOH     3127     MEOH     O1       OD31H    2.488300       15.5990           0   -1.02800   1.30000
     48160 MEOH     3127     MEOH     DO1      DRUD    -2.488300        0.4000           0   0.00000   0.00000
     48161 MEOH     3127     MEOH     HO1      HDP1A    0.360000        1.0080           0   0.00000   0.00000
     48162 MEOH     3127     MEOH     HO2      DUMH     0.000000        1.0080           0   0.00000   0.00000
     48163 MEOH     3127     MEOH     H1A      HDA3B    0.080000        1.0080           0   0.00000   0.00000
     48164 MEOH     3127     MEOH     H1B      HDA3B    0.080000        1.0080           0   0.00000   0.00000
     48165 MEOH     3127     MEOH     H1C      HDA3B    0.080000        1.0080           0   0.00000   0.00000
     48166 MEOH     3127     MEOH     LP1A     LPD     -0.230000        0.0000           -1   0.00000   0.00000
     48167 MEOH     3127     MEOH     LP1B     LPD     -0.230000        0.0000           -1   0.00000   0.00000
     48168 MEOH     3128     MEOH     C1       CD33B    2.314100       11.6110           0   -1.00000   1.30000
     48169 MEOH     3128     MEOH     DC1      DRUD    -2.454100        0.4000           0   0.00000   0.00000
     48170 MEOH     3128     MEOH     O1       OD31H    2.488300       15.5990           0   -1.02800   1.30000
     48171 MEOH     3128     MEOH     DO1      DRUD    -2.488300        0.4000           0   0.00000   0.00000
     48172 MEOH     3128     MEOH     HO1      HDP1A    0.360000        1.0080           0   0.00000   0.00000
     48173 MEOH     3128     MEOH     HO2      DUMH     0.000000        1.0080           0   0.00000   0.00000
     48174 MEOH     3128     MEOH     H1A      HDA3B    0.080000        1.0080           0   0.00000   0.00000
     48175 MEOH     3128     MEOH     H1B      HDA3B    0.080000        1.0080           0   0.00000   0.00000
     48176 MEOH     3128     MEOH     H1C      HDA3B    0.080000        1.0080           0   0.00000   0.00000
     48177 MEOH     3128     MEOH     LP1A     LPD     -0.230000        0.0000           -1   0.00000   0.00000
     48178 MEOH     3128     MEOH     LP1B     LPD     -0.230000        0.0000           -1   0.00000   0.00000
     48179 MEOH     3129     MEOH     C1       CD33B    2.314100       11.6110           0   -1.00000   1.30000
     48180 MEOH     3129     MEOH     DC1      DRUD    -2.454100        0.4000           0   0.00000   0.00000
     48181 MEOH     3129     MEOH     O1       OD31H    2.488300       15.5990           0   -1.02800   1.30000
     48182 MEOH     3129     MEOH     DO1      DRUD    -2.488300        0.4000           0   0.00000   0.00000
     48183 MEOH     3129     MEOH     HO1      HDP1A    0.360000        1.0080           0   0.00000   0.00000
     48184 MEOH     3129     MEOH     HO2      DUMH     0.000000        1.0080           0   0.00000   0.00000
     48185 MEOH     3129     MEOH     H1A      HDA3B    0.080000        1.0080           0   0.00000   0.00000
     48186 MEOH     3129     MEOH     H1B      HDA3B    0.080000        1.0080           0   0.00000   0.00000
     48187 MEOH     3129     MEOH     H1C      HDA3B    0.080000        1.0080           0   0.00000   0.00000
     48188 MEOH     3129     MEOH     LP1A     LPD     -0.230000        0.0000           -1   0.00000   0.00000
     48189 MEOH     3129     MEOH     LP1B     LPD     -0.230000        0.0000           -1   0.00000   0.00000
     48190 MEOH     3130     MEOH     C1       CD33B    2.314100       11.6110           0   -1.00000   1.30000
     48191 MEOH     3130     MEOH     DC1      DRUD    -2.454100        0.4000           0   0.00000   0.00000
     48192 MEOH     3130     MEOH     O1       OD31H    2.488300       15.5990           0   -1.02800   1.30000
     48193 MEOH     3130     MEOH     DO1      DRUD    -2.488300        0.4000           0   0.00000   0.00000
     48194 MEOH     3130     MEOH     HO1      HDP1A    0.360000        1.0080           0   0.00000   0.00000
     48195 MEOH     3130     MEOH     HO2      DUMH     0.000000        1.0080           0   0.00000   0.00000
     48196 MEOH     3130     MEOH     H1A      HDA3B    0.080000        1.0080           0   0.00000   0.00000
     48197 MEOH     3130     MEOH     H1B      HDA3B    0.080000        1.0080           0   0.00000   0.00000
     48198 MEOH     3130     MEOH     H1C      HDA3B    0.080000        1.0080           0   0.00000   0.00000
     48199 MEOH     3130     MEOH     LP1A     LPD     -0.230000        0.0000           -1   0.00000   0.00000
     48200 MEOH     3130     MEOH     LP1B     LPD     -0.230000        0.0000           -1   0.00000   0.00000
     48201 MEOH     3131     MEOH     C1       CD33B    2.314100       11.6110           0   -1.00000   1.30000
     48202 MEOH     3131     MEOH     DC1      DRUD    -2.454100        0.4000           0   0.00000   0.00000
     48203 MEOH     3131     MEOH     O1       OD31H    2.488300       15.5990           0   -1.02800   1.30000
     48204 MEOH     3131     MEOH     DO1      DRUD    -2.488300        0.4000           0   0.00000   0.00000
     48205 MEOH     3131     MEOH     HO1      HDP1A    0.360000        1.0080           0   0.00000   0.00000
     48206 MEOH     3131     MEOH     HO2      DUMH     0.000000        1.0080           0   0.00000   0.00000
     48207 MEOH     3131     MEOH     H1A      HDA3B    0.080000        1.0080           0   0.00000   0.00000
     48208 MEOH     3131     MEOH     H1B      HDA3B    0.080000        1.0080           0   0.00000   0.00000
     48209 MEOH     3131     MEOH     H1C      HDA3B    0.080000        1.0080           0   0.00000   0.00000
     48210 MEOH     3131     MEOH     LP1A     LPD     -0.230000        0.0000           -1   0.00000   0.00000
     48211 MEOH     3131     MEOH     LP1B     LPD     -0.230000        0.0000           -1   0.00000   0.00000
     48212 MEOH     3132     MEOH     C1       CD33B    2.314100       11.6110           0   -1.00000   1.30000
     48213 MEOH     3132     MEOH     DC1      DRUD    -2.454100        0.4000           0   0.00000   0.00000
     48214 MEOH     3132     MEOH     O1       OD31H    2.488300       15.5990           0   -1.02800   1.30000
     48215 MEOH     3132     MEOH     DO1      DRUD    -2.488300        0.4000           0   0.00000   0.00000
     48216 MEOH     3132     MEOH     HO1      HDP1A    0.360000        1.0080           0   0.00000   0.00000
     48217 MEOH     3132     MEOH     HO2      DUMH     0.000000        1.0080           0   0.00000   0.00000
     48218 MEOH     3132     MEOH     H1A      HDA3B    0.080000        1.0080           0   0.00000   0.00000
     48219 MEOH     3132     MEOH     H1B      HDA3B    0.080000        1.0080           0   0.00000   0.00000
     48220 MEOH     3132     MEOH     H1C      HDA3B    0.080000        1.0080           0   0.00000   0.00000
     48221 MEOH     3132     MEOH     LP1A     LPD     -0.230000        0.0000           -1   0.00000   0.00000
     48222 MEOH     3132     MEOH     LP1B     LPD     -0.230000        0.0000           -1   0.00000   0.00000
     48223 MEOH     3133     MEOH     C1       CD33B    2.314100       11.6110           0   -1.00000   1.30000
     48224 MEOH     3133     MEOH     DC1      DRUD    -2.454100        0.4000           0   0.00000   0.00000
     48225 MEOH     3133     MEOH     O1       OD31H    2.488300       15.5990           0   -1.02800   1.30000
     48226 MEOH     3133     MEOH     DO1      DRUD    -2.488300        0.4000           0   0.00000   0.00000
     48227 MEOH     3133     MEOH     HO1      HDP1A    0.360000        1.0080           0   0.00000   0.00000
     48228 MEOH     3133     MEOH     HO2      DUMH     0.000000        1.0080           0   0.00000   0.00000
     48229 MEOH     3133     MEOH     H1A      HDA3B    0.080000        1.0080           0   0.00000   0.00000
     48230 MEOH     3133     MEOH     H1B      HDA3B    0.080000        1.0080           0   0.00000   0.00000
     48231 MEOH     3133     MEOH     H1C      HDA3B    0.080000        1.0080           0   0.00000   0.00000
     48232 MEOH     3133     MEOH     LP1A     LPD     -0.230000        0.0000           -1   0.00000   0.00000
     48233 MEOH     3133     MEOH     LP1B     LPD     -0.230000        0.0000           -1   0.00000   0.00000
     48234 MEOH     3134     MEOH     C1       CD33B    2.314100       11.6110           0   -1.00000   1.30000
     48235 MEOH     3134     MEOH     DC1      DRUD    -2.454100        0.4000           0   0.00000   0.00000
     48236 MEOH     3134     MEOH     O1       OD31H    2.488300       15.5990           0   -1.02800   1.30000
     48237 MEOH     3134     MEOH     DO1      DRUD    -2.488300        0.4000           0   0.00000   0.00000
     48238 MEOH     3134     MEOH     HO1      HDP1A    0.360000        1.0080           0   0.00000   0.00000
     48239 MEOH     3134     MEOH     HO2      DUMH     0.000000        1.0080           0   0.00000   0.00000
     48240 MEOH     3134     MEOH     H1A      HDA3B    0.080000        1.0080           0   0.00000   0.00000
     48241 MEOH     3134     MEOH     H1B      HDA3B    0.080000        1.0080           0   0.00000   0.00000
     48242 MEOH     3134     MEOH     H1C      HDA3B    0.080000        1.0080           0   0.00000   0.00000
     48243 MEOH     3134     MEOH     LP1A     LPD     -0.230000        0.0000           -1   0.00000   0.00000
     48244 MEOH     3134     MEOH     LP1B     LPD     -0.230000        0.0000           -1   0.00000   0.00000
     48245 MEOH     3135     MEOH     C1       CD33B    2.314100       11.6110           0   -1.00000   1.30000
     48246 MEOH     3135     MEOH     DC1      DRUD    -2.454100        0.4000           0   0.00000   0.00000
     48247 MEOH     3135     MEOH     O1       OD31H    2.488300       15.5990           0   -1.02800   1.30000
     48248 MEOH     3135     MEOH     DO1      DRUD    -2.488300        0.4000           0   0.00000   0.00000
     48249 MEOH     3135     MEOH     HO1      HDP1A    0.360000        1.0080           0   0.00000   0.00000
     48250 MEOH     3135     MEOH     HO2      DUMH     0.000000        1.0080           0   0.00000   0.00000
     48251 MEOH     3135     MEOH     H1A      HDA3B    0.080000        1.0080           0   0.00000   0.00000
     48252 MEOH     3135     MEOH     H1B      HDA3B    0.080000        1.0080           0   0.00000   0.00000
     48253 MEOH     3135     MEOH     H1C      HDA3B    0.080000        1.0080           0   0.00000   0.00000
     48254 MEOH     3135     MEOH     LP1A     LPD     -0.230000        0.0000           -1   0.00000   0.00000
     48255 MEOH     3135     MEOH     LP1B     LPD     -0.230000        0.0000           -1   0.00000   0.00000
     48256 MEOH     3136     MEOH     C1       CD33B    2.314100       11.6110           0   -1.00000   1.30000
     48257 MEOH     3136     MEOH     DC1      DRUD    -2.454100        0.4000           0   0.00000   0.00000
     48258 MEOH     3136     MEOH     O1       OD31H    2.488300       15.5990           0   -1.02800   1.30000
     48259 MEOH     3136     MEOH     DO1      DRUD    -2.488300        0.4000           0   0.00000   0.00000
     48260 MEOH     3136     MEOH     HO1      HDP1A    0.360000        1.0080           0   0.00000   0.00000
     48261 MEOH     3136     MEOH     HO2      DUMH     0.000000        1.0080           0   0.00000   0.00000
     48262 MEOH     3136     MEOH     H1A      HDA3B    0.080000        1.0080           0   0.00000   0.00000
     48263 MEOH     3136     MEOH     H1B      HDA3B    0.080000        1.0080           0   0.00000   0.00000
     48264 MEOH     3136     MEOH     H1C      HDA3B    0.080000        1.0080           0   0.00000   0.00000
     48265 MEOH     3136     MEOH     LP1A     LPD     -0.230000        0.0000           -1   0.00000   0.00000
     48266 MEOH     3136     MEOH     LP1B     LPD     -0.230000        0.0000           -1   0.00000   0.00000
     48267 MEOH     3137     MEOH     C1       CD33B    2.314100       11.6110           0   -1.00000   1.30000
     48268 MEOH     3137     MEOH     DC1      DRUD    -2.454100        0.4000           0   0.00000   0.00000
     48269 MEOH     3137     MEOH     O1       OD31H    2.488300       15.5990           0   -1.02800   1.30000
     48270 MEOH     3137     MEOH     DO1      DRUD    -2.488300        0.4000           0   0.00000   0.00000
     48271 MEOH     3137     MEOH     HO1      HDP1A    0.360000        1.0080           0   0.00000   0.00000
     48272 MEOH     3137     MEOH     HO2      DUMH     0.000000        1.0080           0   0.00000   0.00000
     48273 MEOH     3137     MEOH     H1A      HDA3B    0.080000        1.0080           0   0.00000   0.00000
     48274 MEOH     3137     MEOH     H1B      HDA3B    0.080000        1.0080           0   0.00000   0.00000
     48275 MEOH     3137     MEOH     H1C      HDA3B    0.080000        1.0080           0   0.00000   0.00000
     48276 MEOH     3137     MEOH     LP1A     LPD     -0.230000        0.0000           -1   0.00000   0.00000
     48277 MEOH     3137     MEOH     LP1B     LPD     -0.230000        0.0000           -1   0.00000   0.00000
     48278 MEOH     3138     MEOH     C1       CD33B    2.314100       11.6110           0   -1.00000   1.30000
     48279 MEOH     3138     MEOH     DC1      DRUD    -2.454100        0.4000           0   0.00000   0.00000
     48280 MEOH     3138     MEOH     O1       OD31H    2.488300       15.5990           0   -1.02800   1.30000
     48281 MEOH     3138     MEOH     DO1      DRUD    -2.488300        0.4000           0   0.00000   0.00000
     48282 MEOH     3138     MEOH     HO1      HDP1A    0.360000        1.0080           0   0.00000   0.00000
     48283 MEOH     3138     MEOH     HO2      DUMH     0.000000        1.0080           0   0.00000   0.00000
     48284 MEOH     3138     MEOH     H1A      HDA3B    0.080000        1.0080           0   0.00000   0.00000
     48285 MEOH     3138     MEOH     H1B      HDA3B    0.080000        1.0080           0   0.00000   0.00000
     48286 MEOH     3138     MEOH     H1C      HDA3B    0.080000        1.0080           0   0.00000   0.00000
     48287 MEOH     3138     MEOH     LP1A     LPD     -0.230000        0.0000           -1   0.00000   0.00000
     48288 MEOH     3138     MEOH     LP1B     LPD     -0.230000        0.0000           -1   0.00000   0.00000
     48289 MEOH     3139     MEOH     C1       CD33B    2.314100       11.6110           0   -1.00000   1.30000
     48290 MEOH     3139     MEOH     DC1      DRUD    -2.454100        0.4000           0   0.00000   0.00000
     48291 MEOH     3139     MEOH     O1       OD31H    2.488300       15.5990           0   -1.02800   1.30000
     48292 MEOH     3139     MEOH     DO1      DRUD    -2.488300        0.4000           0   0.00000   0.00000
     48293 MEOH     3139     MEOH     HO1      HDP1A    0.360000        1.0080           0   0.00000   0.00000
     48294 MEOH     3139     MEOH     HO2      DUMH     0.000000        1.0080           0   0.00000   0.00000
     48295 MEOH     3139     MEOH     H1A      HDA3B    0.080000        1.0080           0   0.00000   0.00000
     48296 MEOH     3139     MEOH     H1B      HDA3B    0.080000        1.0080           0   0.00000   0.00000
     48297 MEOH     3139     MEOH     H1C      HDA3B    0.080000        1.0080           0   0.00000   0.00000
     48298 MEOH     3139     MEOH     LP1A     LPD     -0.230000        0.0000           -1   0.00000   0.00000
     48299 MEOH     3139     MEOH     LP1B     LPD     -0.230000        0.0000           -1   0.00000   0.00000
     48300 MEOH     3140     MEOH     C1       CD33B    2.314100       11.6110           0   -1.00000   1.30000
     48301 MEOH     3140     MEOH     DC1      DRUD    -2.454100        0.4000           0   0.00000   0.00000
     48302 MEOH     3140     MEOH     O1       OD31H    2.488300       15.5990           0   -1.02800   1.30000
     48303 MEOH     3140     MEOH     DO1      DRUD    -2.488300        0.4000           0   0.00000   0.00000
     48304 MEOH     3140     MEOH     HO1      HDP1A    0.360000        1.0080           0   0.00000   0.00000
     48305 MEOH     3140     MEOH     HO2      DUMH     0.000000        1.0080           0   0.00000   0.00000
     48306 MEOH     3140     MEOH     H1A      HDA3B    0.080000        1.0080           0   0.00000   0.00000
     48307 MEOH     3140     MEOH     H1B      HDA3B    0.080000        1.0080           0   0.00000   0.00000
     48308 MEOH     3140     MEOH     H1C      HDA3B    0.080000        1.0080           0   0.00000   0.00000
     48309 MEOH     3140     MEOH     LP1A     LPD     -0.230000        0.0000           -1   0.00000   0.00000
     48310 MEOH     3140     MEOH     LP1B     LPD     -0.230000        0.0000           -1   0.00000   0.00000
     48311 MEOH     3141     MEOH     C1       CD33B    2.314100       11.6110           0   -1.00000   1.30000
     48312 MEOH     3141     MEOH     DC1      DRUD    -2.454100        0.4000           0   0.00000   0.00000
     48313 MEOH     3141     MEOH     O1       OD31H    2.488300       15.5990           0   -1.02800   1.30000
     48314 MEOH     3141     MEOH     DO1      DRUD    -2.488300        0.4000           0   0.00000   0.00000
     48315 MEOH     3141     MEOH     HO1      HDP1A    0.360000        1.0080           0   0.00000   0.00000
     48316 MEOH     3141     MEOH     HO2      DUMH     0.000000        1.0080           0   0.00000   0.00000
     48317 MEOH     3141     MEOH     H1A      HDA3B    0.080000        1.0080           0   0.00000   0.00000
     48318 MEOH     3141     MEOH     H1B      HDA3B    0.080000        1.0080           0   0.00000   0.00000
     48319 MEOH     3141     MEOH     H1C      HDA3B    0.080000        1.0080           0   0.00000   0.00000
     48320 MEOH     3141     MEOH     LP1A     LPD     -0.230000        0.0000           -1   0.00000   0.00000
     48321 MEOH     3141     MEOH     LP1B     LPD     -0.230000        0.0000           -1   0.00000   0.00000
     48322 MEOH     3142     MEOH     C1       CD33B    2.314100       11.6110           0   -1.00000   1.30000
     48323 MEOH     3142     MEOH     DC1      DRUD    -2.454100        0.4000           0   0.00000   0.00000
     48324 MEOH     3142     MEOH     O1       OD31H    2.488300       15.5990           0   -1.02800   1.30000
     48325 MEOH     3142     MEOH     DO1      DRUD    -2.488300        0.4000           0   0.00000   0.00000
     48326 MEOH     3142     MEOH     HO1      HDP1A    0.360000        1.0080           0   0.00000   0.00000
     48327 MEOH     3142     MEOH     HO2      DUMH     0.000000        1.0080           0   0.00000   0.00000
     48328 MEOH     3142     MEOH     H1A      HDA3B    0.080000        1.0080           0   0.00000   0.00000
     48329 MEOH     3142     MEOH     H1B      HDA3B    0.080000        1.0080           0   0.00000   0.00000
     48330 MEOH     3142     MEOH     H1C      HDA3B    0.080000        1.0080           0   0.00000   0.00000
     48331 MEOH     3142     MEOH     LP1A     LPD     -0.230000        0.0000           -1   0.00000   0.00000
     48332 MEOH     3142     MEOH     LP1B     LPD     -0.230000        0.0000           -1   0.00000   0.00000
     48333 MEOH     3143     MEOH     C1       CD33B    2.314100       11.6110           0   -1.00000   1.30000
     48334 MEOH     3143     MEOH     DC1      DRUD    -2.454100        0.4000           0   0.00000   0.00000
     48335 MEOH     3143     MEOH     O1       OD31H    2.488300       15.5990           0   -1.02800   1.30000
     48336 MEOH     3143     MEOH     DO1      DRUD    -2.488300        0.4000           0   0.00000   0.00000
     48337 MEOH     3143     MEOH     HO1      HDP1A    0.360000        1.0080           0   0.00000   0.00000
     48338 MEOH     3143     MEOH     HO2      DUMH     0.000000        1.0080           0   0.00000   0.00000
     48339 MEOH     3143     MEOH     H1A      HDA3B    0.080000        1.0080           0   0.00000   0.00000
     48340 MEOH     3143     MEOH     H1B      HDA3B    0.080000        1.0080           0   0.00000   0.00000
     48341 MEOH     3143     MEOH     H1C      HDA3B    0.080000        1.0080           0   0.00000   0.00000
     48342 MEOH     3143     MEOH     LP1A     LPD     -0.230000        0.0000           -1   0.00000   0.00000
     48343 MEOH     3143     MEOH     LP1B     LPD     -0.230000        0.0000           -1   0.00000   0.00000
     48344 MEOH     3144     MEOH     C1       CD33B    2.314100       11.6110           0   -1.00000   1.30000
     48345 MEOH     3144     MEOH     DC1      DRUD    -2.454100        0.4000           0   0.00000   0.00000
     48346 MEOH     3144     MEOH     O1       OD31H    2.488300       15.5990           0   -1.02800   1.30000
     48347 MEOH     3144     MEOH     DO1      DRUD    -2.488300        0.4000           0   0.00000   0.00000
     48348 MEOH     3144     MEOH     HO1      HDP1A    0.360000        1.0080           0   0.00000   0.00000
     48349 MEOH     3144     MEOH     HO2      DUMH     0.000000        1.0080           0   0.00000   0.00000
     48350 MEOH     3144     MEOH     H1A      HDA3B    0.080000        1.0080           0   0.00000   0.00000
     48351 MEOH     3144     MEOH     H1B      HDA3B    0.080000        1.0080           0   0.00000   0.00000
     48352 MEOH     3144     MEOH     H1C      HDA3B    0.080000        1.0080           0   0.00000   0.00000
     48353 MEOH     3144     MEOH     LP1A     LPD     -0.230000        0.0000           -1   0.00000   0.00000
     48354 MEOH     3144     MEOH     LP1B     LPD     -0.230000        0.0000           -1   0.00000   0.00000
     48355 MEOH     3145     MEOH     C1       CD33B    2.314100       11.6110           0   -1.00000   1.30000
     48356 MEOH     3145     MEOH     DC1      DRUD    -2.454100        0.4000           0   0.00000   0.00000
     48357 MEOH     3145     MEOH     O1       OD31H    2.488300       15.5990           0   -1.02800   1.30000
     48358 MEOH     3145     MEOH     DO1      DRUD    -2.488300        0.4000           0   0.00000   0.00000
     48359 MEOH     3145     MEOH     HO1      HDP1A    0.360000        1.0080           0   0.00000   0.00000
     48360 MEOH     3145     MEOH     HO2      DUMH     0.000000        1.0080           0   0.00000   0.00000
     48361 MEOH     3145     MEOH     H1A      HDA3B    0.080000        1.0080           0   0.00000   0.00000
     48362 MEOH     3145     MEOH     H1B      HDA3B    0.080000        1.0080           0   0.00000   0.00000
     48363 MEOH     3145     MEOH     H1C      HDA3B    0.080000        1.0080           0   0.00000   0.00000
     48364 MEOH     3145     MEOH     LP1A     LPD     -0.230000        0.0000           -1   0.00000   0.00000
     48365 MEOH     3145     MEOH     LP1B     LPD     -0.230000        0.0000           -1   0.00000   0.00000
     48366 MEOH     3146     MEOH     C1       CD33B    2.314100       11.6110           0   -1.00000   1.30000
     48367 MEOH     3146     MEOH     DC1      DRUD    -2.454100        0.4000           0   0.00000   0.00000
     48368 MEOH     3146     MEOH     O1       OD31H    2.488300       15.5990           0   -1.02800   1.30000
     48369 MEOH     3146     MEOH     DO1      DRUD    -2.488300        0.4000           0   0.00000   0.00000
     48370 MEOH     3146     MEOH     HO1      HDP1A    0.360000        1.0080           0   0.00000   0.00000
     48371 MEOH     3146     MEOH     HO2      DUMH     0.000000        1.0080           0   0.00000   0.00000
     48372 MEOH     3146     MEOH     H1A      HDA3B    0.080000        1.0080           0   0.00000   0.00000
     48373 MEOH     3146     MEOH     H1B      HDA3B    0.080000        1.0080           0   0.00000   0.00000
     48374 MEOH     3146     MEOH     H1C      HDA3B    0.080000        1.0080           0   0.00000   0.00000
     48375 MEOH     3146     MEOH     LP1A     LPD     -0.230000        0.0000           -1   0.00000   0.00000
     48376 MEOH     3146     MEOH     LP1B     LPD     -0.230000        0.0000           -1   0.00000   0.00000
     48377 MEOH     3147     MEOH     C1       CD33B    2.314100       11.6110           0   -1.00000   1.30000
     48378 MEOH     3147     MEOH     DC1      DRUD    -2.454100        0.4000           0   0.00000   0.00000
     48379 MEOH     3147     MEOH     O1       OD31H    2.488300       15.5990           0   -1.02800   1.30000
     48380 MEOH     3147     MEOH     DO1      DRUD    -2.488300        0.4000           0   0.00000   0.00000
     48381 MEOH     3147     MEOH     HO1      HDP1A    0.360000        1.0080           0   0.00000   0.00000
     48382 MEOH     3147     MEOH     HO2      DUMH     0.000000        1.0080           0   0.00000   0.00000
     48383 MEOH     3147     MEOH     H1A      HDA3B    0.080000        1.0080           0   0.00000   0.00000
     48384 MEOH     3147     MEOH     H1B      HDA3B    0.080000        1.0080           0   0.00000   0.00000
     48385 MEOH     3147     MEOH     H1C      HDA3B    0.080000        1.0080           0   0.00000   0.00000
     48386 MEOH     3147     MEOH     LP1A     LPD     -0.230000        0.0000           -1   0.00000   0.00000
     48387 MEOH     3147     MEOH     LP1B     LPD     -0.230000        0.0000           -1   0.00000   0.00000
     48388 MEOH     3148     MEOH     C1       CD33B    2.314100       11.6110           0   -1.00000   1.30000
     48389 MEOH     3148     MEOH     DC1      DRUD    -2.454100        0.4000           0   0.00000   0.00000
     48390 MEOH     3148     MEOH     O1       OD31H    2.488300       15.5990           0   -1.02800   1.30000
     48391 MEOH     3148     MEOH     DO1      DRUD    -2.488300        0.4000           0   0.00000   0.00000
     48392 MEOH     3148     MEOH     HO1      HDP1A    0.360000        1.0080           0   0.00000   0.00000
     48393 MEOH     3148     MEOH     HO2      DUMH     0.000000        1.0080           0   0.00000   0.00000
     48394 MEOH     3148     MEOH     H1A      HDA3B    0.080000        1.0080           0   0.00000   0.00000
     48395 MEOH     3148     MEOH     H1B      HDA3B    0.080000        1.0080           0   0.00000   0.00000
     48396 MEOH     3148     MEOH     H1C      HDA3B    0.080000        1.0080           0   0.00000   0.00000
     48397 MEOH     3148     MEOH     LP1A     LPD     -0.230000        0.0000           -1   0.00000   0.00000
     48398 MEOH     3148     MEOH     LP1B     LPD     -0.230000        0.0000           -1   0.00000   0.00000
     48399 MEOH     3149     MEOH     C1       CD33B    2.314100       11.6110           0   -1.00000   1.30000
     48400 MEOH     3149     MEOH     DC1      DRUD    -2.454100        0.4000           0   0.00000   0.00000
     48401 MEOH     3149     MEOH     O1       OD31H    2.488300       15.5990           0   -1.02800   1.30000
     48402 MEOH     3149     MEOH     DO1      DRUD    -2.488300        0.4000           0   0.00000   0.00000
     48403 MEOH     3149     MEOH     HO1      HDP1A    0.360000        1.0080           0   0.00000   0.00000
     48404 MEOH     3149     MEOH     HO2      DUMH     0.000000        1.0080           0   0.00000   0.00000
     48405 MEOH     3149     MEOH     H1A      HDA3B    0.080000        1.0080           0   0.00000   0.00000
     48406 MEOH     3149     MEOH     H1B      HDA3B    0.080000        1.0080           0   0.00000   0.00000
     48407 MEOH     3149     MEOH     H1C      HDA3B    0.080000        1.0080           0   0.00000   0.00000
     48408 MEOH     3149     MEOH     LP1A     LPD     -0.230000        0.0000           -1   0.00000   0.00000
     48409 MEOH     3149     MEOH     LP1B     LPD     -0.230000        0.0000           -1   0.00000   0.00000
     48410 MEOH     3150     MEOH     C1       CD33B    2.314100       11.6110           0   -1.00000   1.30000
     48411 MEOH     3150     MEOH     DC1      DRUD    -2.454100        0.4000           0   0.00000   0.00000
     48412 MEOH     3150     MEOH     O1       OD31H    2.488300       15.5990           0   -1.02800   1.30000
     48413 MEOH     3150     MEOH     DO1      DRUD    -2.488300        0.4000           0   0.00000   0.00000
     48414 MEOH     3150     MEOH     HO1      HDP1A    0.360000        1.0080           0   0.00000   0.00000
     48415 MEOH     3150     MEOH     HO2      DUMH     0.000000        1.0080           0   0.00000   0.00000
     48416 MEOH     3150     MEOH     H1A      HDA3B    0.080000        1.0080           0   0.00000   0.00000
     48417 MEOH     3150     MEOH     H1B      HDA3B    0.080000        1.0080           0   0.00000   0.00000
     48418 MEOH     3150     MEOH     H1C      HDA3B    0.080000        1.0080           0   0.00000   0.00000
     48419 MEOH     3150     MEOH     LP1A     LPD     -0.230000        0.0000           -1   0.00000   0.00000
     48420 MEOH     3150     MEOH     LP1B     LPD     -0.230000        0.0000           -1   0.00000   0.00000
     48421 MEOH     3151     MEOH     C1       CD33B    2.314100       11.6110           0   -1.00000   1.30000
     48422 MEOH     3151     MEOH     DC1      DRUD    -2.454100        0.4000           0   0.00000   0.00000
     48423 MEOH     3151     MEOH     O1       OD31H    2.488300       15.5990           0   -1.02800   1.30000
     48424 MEOH     3151     MEOH     DO1      DRUD    -2.488300        0.4000           0   0.00000   0.00000
     48425 MEOH     3151     MEOH     HO1      HDP1A    0.360000        1.0080           0   0.00000   0.00000
     48426 MEOH     3151     MEOH     HO2      DUMH     0.000000        1.0080           0   0.00000   0.00000
     48427 MEOH     3151     MEOH     H1A      HDA3B    0.080000        1.0080           0   0.00000   0.00000
     48428 MEOH     3151     MEOH     H1B      HDA3B    0.080000        1.0080           0   0.00000   0.00000
     48429 MEOH     3151     MEOH     H1C      HDA3B    0.080000        1.0080           0   0.00000   0.00000
     48430 MEOH     3151     MEOH     LP1A     LPD     -0.230000        0.0000           -1   0.00000   0.00000
     48431 MEOH     3151     MEOH     LP1B     LPD     -0.230000        0.0000           -1   0.00000   0.00000
     48432 MEOH     3152     MEOH     C1       CD33B    2.314100       11.6110           0   -1.00000   1.30000
     48433 MEOH     3152     MEOH     DC1      DRUD    -2.454100        0.4000           0   0.00000   0.00000
     48434 MEOH     3152     MEOH     O1       OD31H    2.488300       15.5990           0   -1.02800   1.30000
     48435 MEOH     3152     MEOH     DO1      DRUD    -2.488300        0.4000           0   0.00000   0.00000
     48436 MEOH     3152     MEOH     HO1      HDP1A    0.360000        1.0080           0   0.00000   0.00000
     48437 MEOH     3152     MEOH     HO2      DUMH     0.000000        1.0080           0   0.00000   0.00000
     48438 MEOH     3152     MEOH     H1A      HDA3B    0.080000        1.0080           0   0.00000   0.00000
     48439 MEOH     3152     MEOH     H1B      HDA3B    0.080000        1.0080           0   0.00000   0.00000
     48440 MEOH     3152     MEOH     H1C      HDA3B    0.080000        1.0080           0   0.00000   0.00000
     48441 MEOH     3152     MEOH     LP1A     LPD     -0.230000        0.0000           -1   0.00000   0.00000
     48442 MEOH     3152     MEOH     LP1B     LPD     -0.230000        0.0000           -1   0.00000   0.00000
     48443 MEOH     3153     MEOH     C1       CD33B    2.314100       11.6110           0   -1.00000   1.30000
     48444 MEOH     3153     MEOH     DC1      DRUD    -2.454100        0.4000           0   0.00000   0.00000
     48445 MEOH     3153     MEOH     O1       OD31H    2.488300       15.5990           0   -1.02800   1.30000
     48446 MEOH     3153     MEOH     DO1      DRUD    -2.488300        0.4000           0   0.00000   0.00000
     48447 MEOH     3153     MEOH     HO1      HDP1A    0.360000        1.0080           0   0.00000   0.00000
     48448 MEOH     3153     MEOH     HO2      DUMH     0.000000        1.0080           0   0.00000   0.00000
     48449 MEOH     3153     MEOH     H1A      HDA3B    0.080000        1.0080           0   0.00000   0.00000
     48450 MEOH     3153     MEOH     H1B      HDA3B    0.080000        1.0080           0   0.00000   0.00000
     48451 MEOH     3153     MEOH     H1C      HDA3B    0.080000        1.0080           0   0.00000   0.00000
     48452 MEOH     3153     MEOH     LP1A     LPD     -0.230000        0.0000           -1   0.00000   0.00000
     48453 MEOH     3153     MEOH     LP1B     LPD     -0.230000        0.0000           -1   0.00000   0.00000
     48454 MEOH     3154     MEOH     C1       CD33B    2.314100       11.6110           0   -1.00000   1.30000
     48455 MEOH     3154     MEOH     DC1      DRUD    -2.454100        0.4000           0   0.00000   0.00000
     48456 MEOH     3154     MEOH     O1       OD31H    2.488300       15.5990           0   -1.02800   1.30000
     48457 MEOH     3154     MEOH     DO1      DRUD    -2.488300        0.4000           0   0.00000   0.00000
     48458 MEOH     3154     MEOH     HO1      HDP1A    0.360000        1.0080           0   0.00000   0.00000
     48459 MEOH     3154     MEOH     HO2      DUMH     0.000000        1.0080           0   0.00000   0.00000
     48460 MEOH     3154     MEOH     H1A      HDA3B    0.080000        1.0080           0   0.00000   0.00000
     48461 MEOH     3154     MEOH     H1B      HDA3B    0.080000        1.0080           0   0.00000   0.00000
     48462 MEOH     3154     MEOH     H1C      HDA3B    0.080000        1.0080           0   0.00000   0.00000
     48463 MEOH     3154     MEOH     LP1A     LPD     -0.230000        0.0000           -1   0.00000   0.00000
     48464 MEOH     3154     MEOH     LP1B     LPD     -0.230000        0.0000           -1   0.00000   0.00000
     48465 MEOH     3155     MEOH     C1       CD33B    2.314100       11.6110           0   -1.00000   1.30000
     48466 MEOH     3155     MEOH     DC1      DRUD    -2.454100        0.4000           0   0.00000   0.00000
     48467 MEOH     3155     MEOH     O1       OD31H    2.488300       15.5990           0   -1.02800   1.30000
     48468 MEOH     3155     MEOH     DO1      DRUD    -2.488300        0.4000           0   0.00000   0.00000
     48469 MEOH     3155     MEOH     HO1      HDP1A    0.360000        1.0080           0   0.00000   0.00000
     48470 MEOH     3155     MEOH     HO2      DUMH     0.000000        1.0080           0   0.00000   0.00000
     48471 MEOH     3155     MEOH     H1A      HDA3B    0.080000        1.0080           0   0.00000   0.00000
     48472 MEOH     3155     MEOH     H1B      HDA3B    0.080000        1.0080           0   0.00000   0.00000
     48473 MEOH     3155     MEOH     H1C      HDA3B    0.080000        1.0080           0   0.00000   0.00000
     48474 MEOH     3155     MEOH     LP1A     LPD     -0.230000        0.0000           -1   0.00000   0.00000
     48475 MEOH     3155     MEOH     LP1B     LPD     -0.230000        0.0000           -1   0.00000   0.00000
     48476 MEOH     3156     MEOH     C1       CD33B    2.314100       11.6110           0   -1.00000   1.30000
     48477 MEOH     3156     MEOH     DC1      DRUD    -2.454100        0.4000           0   0.00000   0.00000
     48478 MEOH     3156     MEOH     O1       OD31H    2.488300       15.5990           0   -1.02800   1.30000
     48479 MEOH     3156     MEOH     DO1      DRUD    -2.488300        0.4000           0   0.00000   0.00000
     48480 MEOH     3156     MEOH     HO1      HDP1A    0.360000        1.0080           0   0.00000   0.00000
     48481 MEOH     3156     MEOH     HO2      DUMH     0.000000        1.0080           0   0.00000   0.00000
     48482 MEOH     3156     MEOH     H1A      HDA3B    0.080000        1.0080           0   0.00000   0.00000
     48483 MEOH     3156     MEOH     H1B      HDA3B    0.080000        1.0080           0   0.00000   0.00000
     48484 MEOH     3156     MEOH     H1C      HDA3B    0.080000        1.0080           0   0.00000   0.00000
     48485 MEOH     3156     MEOH     LP1A     LPD     -0.230000        0.0000           -1   0.00000   0.00000
     48486 MEOH     3156     MEOH     LP1B     LPD     -0.230000        0.0000           -1   0.00000   0.00000
     48487 MEOH     3157     MEOH     C1       CD33B    2.314100       11.6110           0   -1.00000   1.30000
     48488 MEOH     3157     MEOH     DC1      DRUD    -2.454100        0.4000           0   0.00000   0.00000
     48489 MEOH     3157     MEOH     O1       OD31H    2.488300       15.5990           0   -1.02800   1.30000
     48490 MEOH     3157     MEOH     DO1      DRUD    -2.488300        0.4000           0   0.00000   0.00000
     48491 MEOH     3157     MEOH     HO1      HDP1A    0.360000        1.0080           0   0.00000   0.00000
     48492 MEOH     3157     MEOH     HO2      DUMH     0.000000        1.0080           0   0.00000   0.00000
     48493 MEOH     3157     MEOH     H1A      HDA3B    0.080000        1.0080           0   0.00000   0.00000
     48494 MEOH     3157     MEOH     H1B      HDA3B    0.080000        1.0080           0   0.00000   0.00000
     48495 MEOH     3157     MEOH     H1C      HDA3B    0.080000        1.0080           0   0.00000   0.00000
     48496 MEOH     3157     MEOH     LP1A     LPD     -0.230000        0.0000           -1   0.00000   0.00000
     48497 MEOH     3157     MEOH     LP1B     LPD     -0.230000        0.0000           -1   0.00000   0.00000
     48498 MEOH     3158     MEOH     C1       CD33B    2.314100       11.6110           0   -1.00000   1.30000
     48499 MEOH     3158     MEOH     DC1      DRUD    -2.454100        0.4000           0   0.00000   0.00000
     48500 MEOH     3158     MEOH     O1       OD31H    2.488300       15.5990           0   -1.02800   1.30000
     48501 MEOH     3158     MEOH     DO1      DRUD    -2.488300        0.4000           0   0.00000   0.00000
     48502 MEOH     3158     MEOH     HO1      HDP1A    0.360000        1.0080           0   0.00000   0.00000
     48503 MEOH     3158     MEOH     HO2      DUMH     0.000000        1.0080           0   0.00000   0.00000
     48504 MEOH     3158     MEOH     H1A      HDA3B    0.080000        1.0080           0   0.00000   0.00000
     48505 MEOH     3158     MEOH     H1B      HDA3B    0.080000        1.0080           0   0.00000   0.00000
     48506 MEOH     3158     MEOH     H1C      HDA3B    0.080000        1.0080           0   0.00000   0.00000
     48507 MEOH     3158     MEOH     LP1A     LPD     -0.230000        0.0000           -1   0.00000   0.00000
     48508 MEOH     3158     MEOH     LP1B     LPD     -0.230000        0.0000           -1   0.00000   0.00000
     48509 MEOH     3159     MEOH     C1       CD33B    2.314100       11.6110           0   -1.00000   1.30000
     48510 MEOH     3159     MEOH     DC1      DRUD    -2.454100        0.4000           0   0.00000   0.00000
     48511 MEOH     3159     MEOH     O1       OD31H    2.488300       15.5990           0   -1.02800   1.30000
     48512 MEOH     3159     MEOH     DO1      DRUD    -2.488300        0.4000           0   0.00000   0.00000
     48513 MEOH     3159     MEOH     HO1      HDP1A    0.360000        1.0080           0   0.00000   0.00000
     48514 MEOH     3159     MEOH     HO2      DUMH     0.000000        1.0080           0   0.00000   0.00000
     48515 MEOH     3159     MEOH     H1A      HDA3B    0.080000        1.0080           0   0.00000   0.00000
     48516 MEOH     3159     MEOH     H1B      HDA3B    0.080000        1.0080           0   0.00000   0.00000
     48517 MEOH     3159     MEOH     H1C      HDA3B    0.080000        1.0080           0   0.00000   0.00000
     48518 MEOH     3159     MEOH     LP1A     LPD     -0.230000        0.0000           -1   0.00000   0.00000
     48519 MEOH     3159     MEOH     LP1B     LPD     -0.230000        0.0000           -1   0.00000   0.00000
     48520 MEOH     3160     MEOH     C1       CD33B    2.314100       11.6110           0   -1.00000   1.30000
     48521 MEOH     3160     MEOH     DC1      DRUD    -2.454100        0.4000           0   0.00000   0.00000
     48522 MEOH     3160     MEOH     O1       OD31H    2.488300       15.5990           0   -1.02800   1.30000
     48523 MEOH     3160     MEOH     DO1      DRUD    -2.488300        0.4000           0   0.00000   0.00000
     48524 MEOH     3160     MEOH     HO1      HDP1A    0.360000        1.0080           0   0.00000   0.00000
     48525 MEOH     3160     MEOH     HO2      DUMH     0.000000        1.0080           0   0.00000   0.00000
     48526 MEOH     3160     MEOH     H1A      HDA3B    0.080000        1.0080           0   0.00000   0.00000
     48527 MEOH     3160     MEOH     H1B      HDA3B    0.080000        1.0080           0   0.00000   0.00000
     48528 MEOH     3160     MEOH     H1C      HDA3B    0.080000        1.0080           0   0.00000   0.00000
     48529 MEOH     3160     MEOH     LP1A     LPD     -0.230000        0.0000           -1   0.00000   0.00000
     48530 MEOH     3160     MEOH     LP1B     LPD     -0.230000        0.0000           -1   0.00000   0.00000
     48531 MEOH     3161     MEOH     C1       CD33B    2.314100       11.6110           0   -1.00000   1.30000
     48532 MEOH     3161     MEOH     DC1      DRUD    -2.454100        0.4000           0   0.00000   0.00000
     48533 MEOH     3161     MEOH     O1       OD31H    2.488300       15.5990           0   -1.02800   1.30000
     48534 MEOH     3161     MEOH     DO1      DRUD    -2.488300        0.4000           0   0.00000   0.00000
     48535 MEOH     3161     MEOH     HO1      HDP1A    0.360000        1.0080           0   0.00000   0.00000
     48536 MEOH     3161     MEOH     HO2      DUMH     0.000000        1.0080           0   0.00000   0.00000
     48537 MEOH     3161     MEOH     H1A      HDA3B    0.080000        1.0080           0   0.00000   0.00000
     48538 MEOH     3161     MEOH     H1B      HDA3B    0.080000        1.0080           0   0.00000   0.00000
     48539 MEOH     3161     MEOH     H1C      HDA3B    0.080000        1.0080           0   0.00000   0.00000
     48540 MEOH     3161     MEOH     LP1A     LPD     -0.230000        0.0000           -1   0.00000   0.00000
     48541 MEOH     3161     MEOH     LP1B     LPD     -0.230000        0.0000           -1   0.00000   0.00000
     48542 MEOH     3162     MEOH     C1       CD33B    2.314100       11.6110           0   -1.00000   1.30000
     48543 MEOH     3162     MEOH     DC1      DRUD    -2.454100        0.4000           0   0.00000   0.00000
     48544 MEOH     3162     MEOH     O1       OD31H    2.488300       15.5990           0   -1.02800   1.30000
     48545 MEOH     3162     MEOH     DO1      DRUD    -2.488300        0.4000           0   0.00000   0.00000
     48546 MEOH     3162     MEOH     HO1      HDP1A    0.360000        1.0080           0   0.00000   0.00000
     48547 MEOH     3162     MEOH     HO2      DUMH     0.000000        1.0080           0   0.00000   0.00000
     48548 MEOH     3162     MEOH     H1A      HDA3B    0.080000        1.0080           0   0.00000   0.00000
     48549 MEOH     3162     MEOH     H1B      HDA3B    0.080000        1.0080           0   0.00000   0.00000
     48550 MEOH     3162     MEOH     H1C      HDA3B    0.080000        1.0080           0   0.00000   0.00000
     48551 MEOH     3162     MEOH     LP1A     LPD     -0.230000        0.0000           -1   0.00000   0.00000
     48552 MEOH     3162     MEOH     LP1B     LPD     -0.230000        0.0000           -1   0.00000   0.00000
     48553 MEOH     3163     MEOH     C1       CD33B    2.314100       11.6110           0   -1.00000   1.30000
     48554 MEOH     3163     MEOH     DC1      DRUD    -2.454100        0.4000           0   0.00000   0.00000
     48555 MEOH     3163     MEOH     O1       OD31H    2.488300       15.5990           0   -1.02800   1.30000
     48556 MEOH     3163     MEOH     DO1      DRUD    -2.488300        0.4000           0   0.00000   0.00000
     48557 MEOH     3163     MEOH     HO1      HDP1A    0.360000        1.0080           0   0.00000   0.00000
     48558 MEOH     3163     MEOH     HO2      DUMH     0.000000        1.0080           0   0.00000   0.00000
     48559 MEOH     3163     MEOH     H1A      HDA3B    0.080000        1.0080           0   0.00000   0.00000
     48560 MEOH     3163     MEOH     H1B      HDA3B    0.080000        1.0080           0   0.00000   0.00000
     48561 MEOH     3163     MEOH     H1C      HDA3B    0.080000        1.0080           0   0.00000   0.00000
     48562 MEOH     3163     MEOH     LP1A     LPD     -0.230000        0.0000           -1   0.00000   0.00000
     48563 MEOH     3163     MEOH     LP1B     LPD     -0.230000        0.0000           -1   0.00000   0.00000
     48564 MEOH     3164     MEOH     C1       CD33B    2.314100       11.6110           0   -1.00000   1.30000
     48565 MEOH     3164     MEOH     DC1      DRUD    -2.454100        0.4000           0   0.00000   0.00000
     48566 MEOH     3164     MEOH     O1       OD31H    2.488300       15.5990           0   -1.02800   1.30000
     48567 MEOH     3164     MEOH     DO1      DRUD    -2.488300        0.4000           0   0.00000   0.00000
     48568 MEOH     3164     MEOH     HO1      HDP1A    0.360000        1.0080           0   0.00000   0.00000
     48569 MEOH     3164     MEOH     HO2      DUMH     0.000000        1.0080           0   0.00000   0.00000
     48570 MEOH     3164     MEOH     H1A      HDA3B    0.080000        1.0080           0   0.00000   0.00000
     48571 MEOH     3164     MEOH     H1B      HDA3B    0.080000        1.0080           0   0.00000   0.00000
     48572 MEOH     3164     MEOH     H1C      HDA3B    0.080000        1.0080           0   0.00000   0.00000
     48573 MEOH     3164     MEOH     LP1A     LPD     -0.230000        0.0000           -1   0.00000   0.00000
     48574 MEOH     3164     MEOH     LP1B     LPD     -0.230000        0.0000           -1   0.00000   0.00000
     48575 MEOH     3165     MEOH     C1       CD33B    2.314100       11.6110           0   -1.00000   1.30000
     48576 MEOH     3165     MEOH     DC1      DRUD    -2.454100        0.4000           0   0.00000   0.00000
     48577 MEOH     3165     MEOH     O1       OD31H    2.488300       15.5990           0   -1.02800   1.30000
     48578 MEOH     3165     MEOH     DO1      DRUD    -2.488300        0.4000           0   0.00000   0.00000
     48579 MEOH     3165     MEOH     HO1      HDP1A    0.360000        1.0080           0   0.00000   0.00000
     48580 MEOH     3165     MEOH     HO2      DUMH     0.000000        1.0080           0   0.00000   0.00000
     48581 MEOH     3165     MEOH     H1A      HDA3B    0.080000        1.0080           0   0.00000   0.00000
     48582 MEOH     3165     MEOH     H1B      HDA3B    0.080000        1.0080           0   0.00000   0.00000
     48583 MEOH     3165     MEOH     H1C      HDA3B    0.080000        1.0080           0   0.00000   0.00000
     48584 MEOH     3165     MEOH     LP1A     LPD     -0.230000        0.0000           -1   0.00000   0.00000
     48585 MEOH     3165     MEOH     LP1B     LPD     -0.230000        0.0000           -1   0.00000   0.00000
     48586 MEOH     3166     MEOH     C1       CD33B    2.314100       11.6110           0   -1.00000   1.30000
     48587 MEOH     3166     MEOH     DC1      DRUD    -2.454100        0.4000           0   0.00000   0.00000
     48588 MEOH     3166     MEOH     O1       OD31H    2.488300       15.5990           0   -1.02800   1.30000
     48589 MEOH     3166     MEOH     DO1      DRUD    -2.488300        0.4000           0   0.00000   0.00000
     48590 MEOH     3166     MEOH     HO1      HDP1A    0.360000        1.0080           0   0.00000   0.00000
     48591 MEOH     3166     MEOH     HO2      DUMH     0.000000        1.0080           0   0.00000   0.00000
     48592 MEOH     3166     MEOH     H1A      HDA3B    0.080000        1.0080           0   0.00000   0.00000
     48593 MEOH     3166     MEOH     H1B      HDA3B    0.080000        1.0080           0   0.00000   0.00000
     48594 MEOH     3166     MEOH     H1C      HDA3B    0.080000        1.0080           0   0.00000   0.00000
     48595 MEOH     3166     MEOH     LP1A     LPD     -0.230000        0.0000           -1   0.00000   0.00000
     48596 MEOH     3166     MEOH     LP1B     LPD     -0.230000        0.0000           -1   0.00000   0.00000
     48597 MEOH     3167     MEOH     C1       CD33B    2.314100       11.6110           0   -1.00000   1.30000
     48598 MEOH     3167     MEOH     DC1      DRUD    -2.454100        0.4000           0   0.00000   0.00000
     48599 MEOH     3167     MEOH     O1       OD31H    2.488300       15.5990           0   -1.02800   1.30000
     48600 MEOH     3167     MEOH     DO1      DRUD    -2.488300        0.4000           0   0.00000   0.00000
     48601 MEOH     3167     MEOH     HO1      HDP1A    0.360000        1.0080           0   0.00000   0.00000
     48602 MEOH     3167     MEOH     HO2      DUMH     0.000000        1.0080           0   0.00000   0.00000
     48603 MEOH     3167     MEOH     H1A      HDA3B    0.080000        1.0080           0   0.00000   0.00000
     48604 MEOH     3167     MEOH     H1B      HDA3B    0.080000        1.0080           0   0.00000   0.00000
     48605 MEOH     3167     MEOH     H1C      HDA3B    0.080000        1.0080           0   0.00000   0.00000
     48606 MEOH     3167     MEOH     LP1A     LPD     -0.230000        0.0000           -1   0.00000   0.00000
     48607 MEOH     3167     MEOH     LP1B     LPD     -0.230000        0.0000           -1   0.00000   0.00000
     48608 MEOH     3168     MEOH     C1       CD33B    2.314100       11.6110           0   -1.00000   1.30000
     48609 MEOH     3168     MEOH     DC1      DRUD    -2.454100        0.4000           0   0.00000   0.00000
     48610 MEOH     3168     MEOH     O1       OD31H    2.488300       15.5990           0   -1.02800   1.30000
     48611 MEOH     3168     MEOH     DO1      DRUD    -2.488300        0.4000           0   0.00000   0.00000
     48612 MEOH     3168     MEOH     HO1      HDP1A    0.360000        1.0080           0   0.00000   0.00000
     48613 MEOH     3168     MEOH     HO2      DUMH     0.000000        1.0080           0   0.00000   0.00000
     48614 MEOH     3168     MEOH     H1A      HDA3B    0.080000        1.0080           0   0.00000   0.00000
     48615 MEOH     3168     MEOH     H1B      HDA3B    0.080000        1.0080           0   0.00000   0.00000
     48616 MEOH     3168     MEOH     H1C      HDA3B    0.080000        1.0080           0   0.00000   0.00000
     48617 MEOH     3168     MEOH     LP1A     LPD     -0.230000        0.0000           -1   0.00000   0.00000
     48618 MEOH     3168     MEOH     LP1B     LPD     -0.230000        0.0000           -1   0.00000   0.00000
     48619 MEOH     3169     MEOH     C1       CD33B    2.314100       11.6110           0   -1.00000   1.30000
     48620 MEOH     3169     MEOH     DC1      DRUD    -2.454100        0.4000           0   0.00000   0.00000
     48621 MEOH     3169     MEOH     O1       OD31H    2.488300       15.5990           0   -1.02800   1.30000
     48622 MEOH     3169     MEOH     DO1      DRUD    -2.488300        0.4000           0   0.00000   0.00000
     48623 MEOH     3169     MEOH     HO1      HDP1A    0.360000        1.0080           0   0.00000   0.00000
     48624 MEOH     3169     MEOH     HO2      DUMH     0.000000        1.0080           0   0.00000   0.00000
     48625 MEOH     3169     MEOH     H1A      HDA3B    0.080000        1.0080           0   0.00000   0.00000
     48626 MEOH     3169     MEOH     H1B      HDA3B    0.080000        1.0080           0   0.00000   0.00000
     48627 MEOH     3169     MEOH     H1C      HDA3B    0.080000        1.0080           0   0.00000   0.00000
     48628 MEOH     3169     MEOH     LP1A     LPD     -0.230000        0.0000           -1   0.00000   0.00000
     48629 MEOH     3169     MEOH     LP1B     LPD     -0.230000        0.0000           -1   0.00000   0.00000
     48630 MEOH     3170     MEOH     C1       CD33B    2.314100       11.6110           0   -1.00000   1.30000
     48631 MEOH     3170     MEOH     DC1      DRUD    -2.454100        0.4000           0   0.00000   0.00000
     48632 MEOH     3170     MEOH     O1       OD31H    2.488300       15.5990           0   -1.02800   1.30000
     48633 MEOH     3170     MEOH     DO1      DRUD    -2.488300        0.4000           0   0.00000   0.00000
     48634 MEOH     3170     MEOH     HO1      HDP1A    0.360000        1.0080           0   0.00000   0.00000
     48635 MEOH     3170     MEOH     HO2      DUMH     0.000000        1.0080           0   0.00000   0.00000
     48636 MEOH     3170     MEOH     H1A      HDA3B    0.080000        1.0080           0   0.00000   0.00000
     48637 MEOH     3170     MEOH     H1B      HDA3B    0.080000        1.0080           0   0.00000   0.00000
     48638 MEOH     3170     MEOH     H1C      HDA3B    0.080000        1.0080           0   0.00000   0.00000
     48639 MEOH     3170     MEOH     LP1A     LPD     -0.230000        0.0000           -1   0.00000   0.00000
     48640 MEOH     3170     MEOH     LP1B     LPD     -0.230000        0.0000           -1   0.00000   0.00000
     48641 MEOH     3171     MEOH     C1       CD33B    2.314100       11.6110           0   -1.00000   1.30000
     48642 MEOH     3171     MEOH     DC1      DRUD    -2.454100        0.4000           0   0.00000   0.00000
     48643 MEOH     3171     MEOH     O1       OD31H    2.488300       15.5990           0   -1.02800   1.30000
     48644 MEOH     3171     MEOH     DO1      DRUD    -2.488300        0.4000           0   0.00000   0.00000
     48645 MEOH     3171     MEOH     HO1      HDP1A    0.360000        1.0080           0   0.00000   0.00000
     48646 MEOH     3171     MEOH     HO2      DUMH     0.000000        1.0080           0   0.00000   0.00000
     48647 MEOH     3171     MEOH     H1A      HDA3B    0.080000        1.0080           0   0.00000   0.00000
     48648 MEOH     3171     MEOH     H1B      HDA3B    0.080000        1.0080           0   0.00000   0.00000
     48649 MEOH     3171     MEOH     H1C      HDA3B    0.080000        1.0080           0   0.00000   0.00000
     48650 MEOH     3171     MEOH     LP1A     LPD     -0.230000        0.0000           -1   0.00000   0.00000
     48651 MEOH     3171     MEOH     LP1B     LPD     -0.230000        0.0000           -1   0.00000   0.00000
     48652 MEOH     3172     MEOH     C1       CD33B    2.314100       11.6110           0   -1.00000   1.30000
     48653 MEOH     3172     MEOH     DC1      DRUD    -2.454100        0.4000           0   0.00000   0.00000
     48654 MEOH     3172     MEOH     O1       OD31H    2.488300       15.5990           0   -1.02800   1.30000
     48655 MEOH     3172     MEOH     DO1      DRUD    -2.488300        0.4000           0   0.00000   0.00000
     48656 MEOH     3172     MEOH     HO1      HDP1A    0.360000        1.0080           0   0.00000   0.00000
     48657 MEOH     3172     MEOH     HO2      DUMH     0.000000        1.0080           0   0.00000   0.00000
     48658 MEOH     3172     MEOH     H1A      HDA3B    0.080000        1.0080           0   0.00000   0.00000
     48659 MEOH     3172     MEOH     H1B      HDA3B    0.080000        1.0080           0   0.00000   0.00000
     48660 MEOH     3172     MEOH     H1C      HDA3B    0.080000        1.0080           0   0.00000   0.00000
     48661 MEOH     3172     MEOH     LP1A     LPD     -0.230000        0.0000           -1   0.00000   0.00000
     48662 MEOH     3172     MEOH     LP1B     LPD     -0.230000        0.0000           -1   0.00000   0.00000
     48663 MEOH     3173     MEOH     C1       CD33B    2.314100       11.6110           0   -1.00000   1.30000
     48664 MEOH     3173     MEOH     DC1      DRUD    -2.454100        0.4000           0   0.00000   0.00000
     48665 MEOH     3173     MEOH     O1       OD31H    2.488300       15.5990           0   -1.02800   1.30000
     48666 MEOH     3173     MEOH     DO1      DRUD    -2.488300        0.4000           0   0.00000   0.00000
     48667 MEOH     3173     MEOH     HO1      HDP1A    0.360000        1.0080           0   0.00000   0.00000
     48668 MEOH     3173     MEOH     HO2      DUMH     0.000000        1.0080           0   0.00000   0.00000
     48669 MEOH     3173     MEOH     H1A      HDA3B    0.080000        1.0080           0   0.00000   0.00000
     48670 MEOH     3173     MEOH     H1B      HDA3B    0.080000        1.0080           0   0.00000   0.00000
     48671 MEOH     3173     MEOH     H1C      HDA3B    0.080000        1.0080           0   0.00000   0.00000
     48672 MEOH     3173     MEOH     LP1A     LPD     -0.230000        0.0000           -1   0.00000   0.00000
     48673 MEOH     3173     MEOH     LP1B     LPD     -0.230000        0.0000           -1   0.00000   0.00000
     48674 MEOH     3174     MEOH     C1       CD33B    2.314100       11.6110           0   -1.00000   1.30000
     48675 MEOH     3174     MEOH     DC1      DRUD    -2.454100        0.4000           0   0.00000   0.00000
     48676 MEOH     3174     MEOH     O1       OD31H    2.488300       15.5990           0   -1.02800   1.30000
     48677 MEOH     3174     MEOH     DO1      DRUD    -2.488300        0.4000           0   0.00000   0.00000
     48678 MEOH     3174     MEOH     HO1      HDP1A    0.360000        1.0080           0   0.00000   0.00000
     48679 MEOH     3174     MEOH     HO2      DUMH     0.000000        1.0080           0   0.00000   0.00000
     48680 MEOH     3174     MEOH     H1A      HDA3B    0.080000        1.0080           0   0.00000   0.00000
     48681 MEOH     3174     MEOH     H1B      HDA3B    0.080000        1.0080           0   0.00000   0.00000
     48682 MEOH     3174     MEOH     H1C      HDA3B    0.080000        1.0080           0   0.00000   0.00000
     48683 MEOH     3174     MEOH     LP1A     LPD     -0.230000        0.0000           -1   0.00000   0.00000
     48684 MEOH     3174     MEOH     LP1B     LPD     -0.230000        0.0000           -1   0.00000   0.00000
     48685 MEOH     3175     MEOH     C1       CD33B    2.314100       11.6110           0   -1.00000   1.30000
     48686 MEOH     3175     MEOH     DC1      DRUD    -2.454100        0.4000           0   0.00000   0.00000
     48687 MEOH     3175     MEOH     O1       OD31H    2.488300       15.5990           0   -1.02800   1.30000
     48688 MEOH     3175     MEOH     DO1      DRUD    -2.488300        0.4000           0   0.00000   0.00000
     48689 MEOH     3175     MEOH     HO1      HDP1A    0.360000        1.0080           0   0.00000   0.00000
     48690 MEOH     3175     MEOH     HO2      DUMH     0.000000        1.0080           0   0.00000   0.00000
     48691 MEOH     3175     MEOH     H1A      HDA3B    0.080000        1.0080           0   0.00000   0.00000
     48692 MEOH     3175     MEOH     H1B      HDA3B    0.080000        1.0080           0   0.00000   0.00000
     48693 MEOH     3175     MEOH     H1C      HDA3B    0.080000        1.0080           0   0.00000   0.00000
     48694 MEOH     3175     MEOH     LP1A     LPD     -0.230000        0.0000           -1   0.00000   0.00000
     48695 MEOH     3175     MEOH     LP1B     LPD     -0.230000        0.0000           -1   0.00000   0.00000
     48696 MEOH     3176     MEOH     C1       CD33B    2.314100       11.6110           0   -1.00000   1.30000
     48697 MEOH     3176     MEOH     DC1      DRUD    -2.454100        0.4000           0   0.00000   0.00000
     48698 MEOH     3176     MEOH     O1       OD31H    2.488300       15.5990           0   -1.02800   1.30000
     48699 MEOH     3176     MEOH     DO1      DRUD    -2.488300        0.4000           0   0.00000   0.00000
     48700 MEOH     3176     MEOH     HO1      HDP1A    0.360000        1.0080           0   0.00000   0.00000
     48701 MEOH     3176     MEOH     HO2      DUMH     0.000000        1.0080           0   0.00000   0.00000
     48702 MEOH     3176     MEOH     H1A      HDA3B    0.080000        1.0080           0   0.00000   0.00000
     48703 MEOH     3176     MEOH     H1B      HDA3B    0.080000        1.0080           0   0.00000   0.00000
     48704 MEOH     3176     MEOH     H1C      HDA3B    0.080000        1.0080           0   0.00000   0.00000
     48705 MEOH     3176     MEOH     LP1A     LPD     -0.230000        0.0000           -1   0.00000   0.00000
     48706 MEOH     3176     MEOH     LP1B     LPD     -0.230000        0.0000           -1   0.00000   0.00000
     48707 MEOH     3177     MEOH     C1       CD33B    2.314100       11.6110           0   -1.00000   1.30000
     48708 MEOH     3177     MEOH     DC1      DRUD    -2.454100        0.4000           0   0.00000   0.00000
     48709 MEOH     3177     MEOH     O1       OD31H    2.488300       15.5990           0   -1.02800   1.30000
     48710 MEOH     3177     MEOH     DO1      DRUD    -2.488300        0.4000           0   0.00000   0.00000
     48711 MEOH     3177     MEOH     HO1      HDP1A    0.360000        1.0080           0   0.00000   0.00000
     48712 MEOH     3177     MEOH     HO2      DUMH     0.000000        1.0080           0   0.00000   0.00000
     48713 MEOH     3177     MEOH     H1A      HDA3B    0.080000        1.0080           0   0.00000   0.00000
     48714 MEOH     3177     MEOH     H1B      HDA3B    0.080000        1.0080           0   0.00000   0.00000
     48715 MEOH     3177     MEOH     H1C      HDA3B    0.080000        1.0080           0   0.00000   0.00000
     48716 MEOH     3177     MEOH     LP1A     LPD     -0.230000        0.0000           -1   0.00000   0.00000
     48717 MEOH     3177     MEOH     LP1B     LPD     -0.230000        0.0000           -1   0.00000   0.00000
     48718 MEOH     3178     MEOH     C1       CD33B    2.314100       11.6110           0   -1.00000   1.30000
     48719 MEOH     3178     MEOH     DC1      DRUD    -2.454100        0.4000           0   0.00000   0.00000
     48720 MEOH     3178     MEOH     O1       OD31H    2.488300       15.5990           0   -1.02800   1.30000
     48721 MEOH     3178     MEOH     DO1      DRUD    -2.488300        0.4000           0   0.00000   0.00000
     48722 MEOH     3178     MEOH     HO1      HDP1A    0.360000        1.0080           0   0.00000   0.00000
     48723 MEOH     3178     MEOH     HO2      DUMH     0.000000        1.0080           0   0.00000   0.00000
     48724 MEOH     3178     MEOH     H1A      HDA3B    0.080000        1.0080           0   0.00000   0.00000
     48725 MEOH     3178     MEOH     H1B      HDA3B    0.080000        1.0080           0   0.00000   0.00000
     48726 MEOH     3178     MEOH     H1C      HDA3B    0.080000        1.0080           0   0.00000   0.00000
     48727 MEOH     3178     MEOH     LP1A     LPD     -0.230000        0.0000           -1   0.00000   0.00000
     48728 MEOH     3178     MEOH     LP1B     LPD     -0.230000        0.0000           -1   0.00000   0.00000
     48729 MEOH     3179     MEOH     C1       CD33B    2.314100       11.6110           0   -1.00000   1.30000
     48730 MEOH     3179     MEOH     DC1      DRUD    -2.454100        0.4000           0   0.00000   0.00000
     48731 MEOH     3179     MEOH     O1       OD31H    2.488300       15.5990           0   -1.02800   1.30000
     48732 MEOH     3179     MEOH     DO1      DRUD    -2.488300        0.4000           0   0.00000   0.00000
     48733 MEOH     3179     MEOH     HO1      HDP1A    0.360000        1.0080           0   0.00000   0.00000
     48734 MEOH     3179     MEOH     HO2      DUMH     0.000000        1.0080           0   0.00000   0.00000
     48735 MEOH     3179     MEOH     H1A      HDA3B    0.080000        1.0080           0   0.00000   0.00000
     48736 MEOH     3179     MEOH     H1B      HDA3B    0.080000        1.0080           0   0.00000   0.00000
     48737 MEOH     3179     MEOH     H1C      HDA3B    0.080000        1.0080           0   0.00000   0.00000
     48738 MEOH     3179     MEOH     LP1A     LPD     -0.230000        0.0000           -1   0.00000   0.00000
     48739 MEOH     3179     MEOH     LP1B     LPD     -0.230000        0.0000           -1   0.00000   0.00000
     48740 MEOH     3180     MEOH     C1       CD33B    2.314100       11.6110           0   -1.00000   1.30000
     48741 MEOH     3180     MEOH     DC1      DRUD    -2.454100        0.4000           0   0.00000   0.00000
     48742 MEOH     3180     MEOH     O1       OD31H    2.488300       15.5990           0   -1.02800   1.30000
     48743 MEOH     3180     MEOH     DO1      DRUD    -2.488300        0.4000           0   0.00000   0.00000
     48744 MEOH     3180     MEOH     HO1      HDP1A    0.360000        1.0080           0   0.00000   0.00000
     48745 MEOH     3180     MEOH     HO2      DUMH     0.000000        1.0080           0   0.00000   0.00000
     48746 MEOH     3180     MEOH     H1A      HDA3B    0.080000        1.0080           0   0.00000   0.00000
     48747 MEOH     3180     MEOH     H1B      HDA3B    0.080000        1.0080           0   0.00000   0.00000
     48748 MEOH     3180     MEOH     H1C      HDA3B    0.080000        1.0080           0   0.00000   0.00000
     48749 MEOH     3180     MEOH     LP1A     LPD     -0.230000        0.0000           -1   0.00000   0.00000
     48750 MEOH     3180     MEOH     LP1B     LPD     -0.230000        0.0000           -1   0.00000   0.00000
     48751 MEOH     3181     MEOH     C1       CD33B    2.314100       11.6110           0   -1.00000   1.30000
     48752 MEOH     3181     MEOH     DC1      DRUD    -2.454100        0.4000           0   0.00000   0.00000
     48753 MEOH     3181     MEOH     O1       OD31H    2.488300       15.5990           0   -1.02800   1.30000
     48754 MEOH     3181     MEOH     DO1      DRUD    -2.488300        0.4000           0   0.00000   0.00000
     48755 MEOH     3181     MEOH     HO1      HDP1A    0.360000        1.0080           0   0.00000   0.00000
     48756 MEOH     3181     MEOH     HO2      DUMH     0.000000        1.0080           0   0.00000   0.00000
     48757 MEOH     3181     MEOH     H1A      HDA3B    0.080000        1.0080           0   0.00000   0.00000
     48758 MEOH     3181     MEOH     H1B      HDA3B    0.080000        1.0080           0   0.00000   0.00000
     48759 MEOH     3181     MEOH     H1C      HDA3B    0.080000        1.0080           0   0.00000   0.00000
     48760 MEOH     3181     MEOH     LP1A     LPD     -0.230000        0.0000           -1   0.00000   0.00000
     48761 MEOH     3181     MEOH     LP1B     LPD     -0.230000        0.0000           -1   0.00000   0.00000
     48762 MEOH     3182     MEOH     C1       CD33B    2.314100       11.6110           0   -1.00000   1.30000
     48763 MEOH     3182     MEOH     DC1      DRUD    -2.454100        0.4000           0   0.00000   0.00000
     48764 MEOH     3182     MEOH     O1       OD31H    2.488300       15.5990           0   -1.02800   1.30000
     48765 MEOH     3182     MEOH     DO1      DRUD    -2.488300        0.4000           0   0.00000   0.00000
     48766 MEOH     3182     MEOH     HO1      HDP1A    0.360000        1.0080           0   0.00000   0.00000
     48767 MEOH     3182     MEOH     HO2      DUMH     0.000000        1.0080           0   0.00000   0.00000
     48768 MEOH     3182     MEOH     H1A      HDA3B    0.080000        1.0080           0   0.00000   0.00000
     48769 MEOH     3182     MEOH     H1B      HDA3B    0.080000        1.0080           0   0.00000   0.00000
     48770 MEOH     3182     MEOH     H1C      HDA3B    0.080000        1.0080           0   0.00000   0.00000
     48771 MEOH     3182     MEOH     LP1A     LPD     -0.230000        0.0000           -1   0.00000   0.00000
     48772 MEOH     3182     MEOH     LP1B     LPD     -0.230000        0.0000           -1   0.00000   0.00000
     48773 MEOH     3183     MEOH     C1       CD33B    2.314100       11.6110           0   -1.00000   1.30000
     48774 MEOH     3183     MEOH     DC1      DRUD    -2.454100        0.4000           0   0.00000   0.00000
     48775 MEOH     3183     MEOH     O1       OD31H    2.488300       15.5990           0   -1.02800   1.30000
     48776 MEOH     3183     MEOH     DO1      DRUD    -2.488300        0.4000           0   0.00000   0.00000
     48777 MEOH     3183     MEOH     HO1      HDP1A    0.360000        1.0080           0   0.00000   0.00000
     48778 MEOH     3183     MEOH     HO2      DUMH     0.000000        1.0080           0   0.00000   0.00000
     48779 MEOH     3183     MEOH     H1A      HDA3B    0.080000        1.0080           0   0.00000   0.00000
     48780 MEOH     3183     MEOH     H1B      HDA3B    0.080000        1.0080           0   0.00000   0.00000
     48781 MEOH     3183     MEOH     H1C      HDA3B    0.080000        1.0080           0   0.00000   0.00000
     48782 MEOH     3183     MEOH     LP1A     LPD     -0.230000        0.0000           -1   0.00000   0.00000
     48783 MEOH     3183     MEOH     LP1B     LPD     -0.230000        0.0000           -1   0.00000   0.00000
     48784 MEOH     3184     MEOH     C1       CD33B    2.314100       11.6110           0   -1.00000   1.30000
     48785 MEOH     3184     MEOH     DC1      DRUD    -2.454100        0.4000           0   0.00000   0.00000
     48786 MEOH     3184     MEOH     O1       OD31H    2.488300       15.5990           0   -1.02800   1.30000
     48787 MEOH     3184     MEOH     DO1      DRUD    -2.488300        0.4000           0   0.00000   0.00000
     48788 MEOH     3184     MEOH     HO1      HDP1A    0.360000        1.0080           0   0.00000   0.00000
     48789 MEOH     3184     MEOH     HO2      DUMH     0.000000        1.0080           0   0.00000   0.00000
     48790 MEOH     3184     MEOH     H1A      HDA3B    0.080000        1.0080           0   0.00000   0.00000
     48791 MEOH     3184     MEOH     H1B      HDA3B    0.080000        1.0080           0   0.00000   0.00000
     48792 MEOH     3184     MEOH     H1C      HDA3B    0.080000        1.0080           0   0.00000   0.00000
     48793 MEOH     3184     MEOH     LP1A     LPD     -0.230000        0.0000           -1   0.00000   0.00000
     48794 MEOH     3184     MEOH     LP1B     LPD     -0.230000        0.0000           -1   0.00000   0.00000
     48795 MEOH     3185     MEOH     C1       CD33B    2.314100       11.6110           0   -1.00000   1.30000
     48796 MEOH     3185     MEOH     DC1      DRUD    -2.454100        0.4000           0   0.00000   0.00000
     48797 MEOH     3185     MEOH     O1       OD31H    2.488300       15.5990           0   -1.02800   1.30000
     48798 MEOH     3185     MEOH     DO1      DRUD    -2.488300        0.4000           0   0.00000   0.00000
     48799 MEOH     3185     MEOH     HO1      HDP1A    0.360000        1.0080           0   0.00000   0.00000
     48800 MEOH     3185     MEOH     HO2      DUMH     0.000000        1.0080           0   0.00000   0.00000
     48801 MEOH     3185     MEOH     H1A      HDA3B    0.080000        1.0080           0   0.00000   0.00000
     48802 MEOH     3185     MEOH     H1B      HDA3B    0.080000        1.0080           0   0.00000   0.00000
     48803 MEOH     3185     MEOH     H1C      HDA3B    0.080000        1.0080           0   0.00000   0.00000
     48804 MEOH     3185     MEOH     LP1A     LPD     -0.230000        0.0000           -1   0.00000   0.00000
     48805 MEOH     3185     MEOH     LP1B     LPD     -0.230000        0.0000           -1   0.00000   0.00000
     48806 MEOH     3186     MEOH     C1       CD33B    2.314100       11.6110           0   -1.00000   1.30000
     48807 MEOH     3186     MEOH     DC1      DRUD    -2.454100        0.4000           0   0.00000   0.00000
     48808 MEOH     3186     MEOH     O1       OD31H    2.488300       15.5990           0   -1.02800   1.30000
     48809 MEOH     3186     MEOH     DO1      DRUD    -2.488300        0.4000           0   0.00000   0.00000
     48810 MEOH     3186     MEOH     HO1      HDP1A    0.360000        1.0080           0   0.00000   0.00000
     48811 MEOH     3186     MEOH     HO2      DUMH     0.000000        1.0080           0   0.00000   0.00000
     48812 MEOH     3186     MEOH     H1A      HDA3B    0.080000        1.0080           0   0.00000   0.00000
     48813 MEOH     3186     MEOH     H1B      HDA3B    0.080000        1.0080           0   0.00000   0.00000
     48814 MEOH     3186     MEOH     H1C      HDA3B    0.080000        1.0080           0   0.00000   0.00000
     48815 MEOH     3186     MEOH     LP1A     LPD     -0.230000        0.0000           -1   0.00000   0.00000
     48816 MEOH     3186     MEOH     LP1B     LPD     -0.230000        0.0000           -1   0.00000   0.00000
     48817 MEOH     3187     MEOH     C1       CD33B    2.314100       11.6110           0   -1.00000   1.30000
     48818 MEOH     3187     MEOH     DC1      DRUD    -2.454100        0.4000           0   0.00000   0.00000
     48819 MEOH     3187     MEOH     O1       OD31H    2.488300       15.5990           0   -1.02800   1.30000
     48820 MEOH     3187     MEOH     DO1      DRUD    -2.488300        0.4000           0   0.00000   0.00000
     48821 MEOH     3187     MEOH     HO1      HDP1A    0.360000        1.0080           0   0.00000   0.00000
     48822 MEOH     3187     MEOH     HO2      DUMH     0.000000        1.0080           0   0.00000   0.00000
     48823 MEOH     3187     MEOH     H1A      HDA3B    0.080000        1.0080           0   0.00000   0.00000
     48824 MEOH     3187     MEOH     H1B      HDA3B    0.080000        1.0080           0   0.00000   0.00000
     48825 MEOH     3187     MEOH     H1C      HDA3B    0.080000        1.0080           0   0.00000   0.00000
     48826 MEOH     3187     MEOH     LP1A     LPD     -0.230000        0.0000           -1   0.00000   0.00000
     48827 MEOH     3187     MEOH     LP1B     LPD     -0.230000        0.0000           -1   0.00000   0.00000
     48828 MEOH     3188     MEOH     C1       CD33B    2.314100       11.6110           0   -1.00000   1.30000
     48829 MEOH     3188     MEOH     DC1      DRUD    -2.454100        0.4000           0   0.00000   0.00000
     48830 MEOH     3188     MEOH     O1       OD31H    2.488300       15.5990           0   -1.02800   1.30000
     48831 MEOH     3188     MEOH     DO1      DRUD    -2.488300        0.4000           0   0.00000   0.00000
     48832 MEOH     3188     MEOH     HO1      HDP1A    0.360000        1.0080           0   0.00000   0.00000
     48833 MEOH     3188     MEOH     HO2      DUMH     0.000000        1.0080           0   0.00000   0.00000
     48834 MEOH     3188     MEOH     H1A      HDA3B    0.080000        1.0080           0   0.00000   0.00000
     48835 MEOH     3188     MEOH     H1B      HDA3B    0.080000        1.0080           0   0.00000   0.00000
     48836 MEOH     3188     MEOH     H1C      HDA3B    0.080000        1.0080           0   0.00000   0.00000
     48837 MEOH     3188     MEOH     LP1A     LPD     -0.230000        0.0000           -1   0.00000   0.00000
     48838 MEOH     3188     MEOH     LP1B     LPD     -0.230000        0.0000           -1   0.00000   0.00000
     48839 MEOH     3189     MEOH     C1       CD33B    2.314100       11.6110           0   -1.00000   1.30000
     48840 MEOH     3189     MEOH     DC1      DRUD    -2.454100        0.4000           0   0.00000   0.00000
     48841 MEOH     3189     MEOH     O1       OD31H    2.488300       15.5990           0   -1.02800   1.30000
     48842 MEOH     3189     MEOH     DO1      DRUD    -2.488300        0.4000           0   0.00000   0.00000
     48843 MEOH     3189     MEOH     HO1      HDP1A    0.360000        1.0080           0   0.00000   0.00000
     48844 MEOH     3189     MEOH     HO2      DUMH     0.000000        1.0080           0   0.00000   0.00000
     48845 MEOH     3189     MEOH     H1A      HDA3B    0.080000        1.0080           0   0.00000   0.00000
     48846 MEOH     3189     MEOH     H1B      HDA3B    0.080000        1.0080           0   0.00000   0.00000
     48847 MEOH     3189     MEOH     H1C      HDA3B    0.080000        1.0080           0   0.00000   0.00000
     48848 MEOH     3189     MEOH     LP1A     LPD     -0.230000        0.0000           -1   0.00000   0.00000
     48849 MEOH     3189     MEOH     LP1B     LPD     -0.230000        0.0000           -1   0.00000   0.00000
     48850 MEOH     3190     MEOH     C1       CD33B    2.314100       11.6110           0   -1.00000   1.30000
     48851 MEOH     3190     MEOH     DC1      DRUD    -2.454100        0.4000           0   0.00000   0.00000
     48852 MEOH     3190     MEOH     O1       OD31H    2.488300       15.5990           0   -1.02800   1.30000
     48853 MEOH     3190     MEOH     DO1      DRUD    -2.488300        0.4000           0   0.00000   0.00000
     48854 MEOH     3190     MEOH     HO1      HDP1A    0.360000        1.0080           0   0.00000   0.00000
     48855 MEOH     3190     MEOH     HO2      DUMH     0.000000        1.0080           0   0.00000   0.00000
     48856 MEOH     3190     MEOH     H1A      HDA3B    0.080000        1.0080           0   0.00000   0.00000
     48857 MEOH     3190     MEOH     H1B      HDA3B    0.080000        1.0080           0   0.00000   0.00000
     48858 MEOH     3190     MEOH     H1C      HDA3B    0.080000        1.0080           0   0.00000   0.00000
     48859 MEOH     3190     MEOH     LP1A     LPD     -0.230000        0.0000           -1   0.00000   0.00000
     48860 MEOH     3190     MEOH     LP1B     LPD     -0.230000        0.0000           -1   0.00000   0.00000
     48861 MEOH     3191     MEOH     C1       CD33B    2.314100       11.6110           0   -1.00000   1.30000
     48862 MEOH     3191     MEOH     DC1      DRUD    -2.454100        0.4000           0   0.00000   0.00000
     48863 MEOH     3191     MEOH     O1       OD31H    2.488300       15.5990           0   -1.02800   1.30000
     48864 MEOH     3191     MEOH     DO1      DRUD    -2.488300        0.4000           0   0.00000   0.00000
     48865 MEOH     3191     MEOH     HO1      HDP1A    0.360000        1.0080           0   0.00000   0.00000
     48866 MEOH     3191     MEOH     HO2      DUMH     0.000000        1.0080           0   0.00000   0.00000
     48867 MEOH     3191     MEOH     H1A      HDA3B    0.080000        1.0080           0   0.00000   0.00000
     48868 MEOH     3191     MEOH     H1B      HDA3B    0.080000        1.0080           0   0.00000   0.00000
     48869 MEOH     3191     MEOH     H1C      HDA3B    0.080000        1.0080           0   0.00000   0.00000
     48870 MEOH     3191     MEOH     LP1A     LPD     -0.230000        0.0000           -1   0.00000   0.00000
     48871 MEOH     3191     MEOH     LP1B     LPD     -0.230000        0.0000           -1   0.00000   0.00000
     48872 MEOH     3192     MEOH     C1       CD33B    2.314100       11.6110           0   -1.00000   1.30000
     48873 MEOH     3192     MEOH     DC1      DRUD    -2.454100        0.4000           0   0.00000   0.00000
     48874 MEOH     3192     MEOH     O1       OD31H    2.488300       15.5990           0   -1.02800   1.30000
     48875 MEOH     3192     MEOH     DO1      DRUD    -2.488300        0.4000           0   0.00000   0.00000
     48876 MEOH     3192     MEOH     HO1      HDP1A    0.360000        1.0080           0   0.00000   0.00000
     48877 MEOH     3192     MEOH     HO2      DUMH     0.000000        1.0080           0   0.00000   0.00000
     48878 MEOH     3192     MEOH     H1A      HDA3B    0.080000        1.0080           0   0.00000   0.00000
     48879 MEOH     3192     MEOH     H1B      HDA3B    0.080000        1.0080           0   0.00000   0.00000
     48880 MEOH     3192     MEOH     H1C      HDA3B    0.080000        1.0080           0   0.00000   0.00000
     48881 MEOH     3192     MEOH     LP1A     LPD     -0.230000        0.0000           -1   0.00000   0.00000
     48882 MEOH     3192     MEOH     LP1B     LPD     -0.230000        0.0000           -1   0.00000   0.00000
     48883 MEOH     3193     MEOH     C1       CD33B    2.314100       11.6110           0   -1.00000   1.30000
     48884 MEOH     3193     MEOH     DC1      DRUD    -2.454100        0.4000           0   0.00000   0.00000
     48885 MEOH     3193     MEOH     O1       OD31H    2.488300       15.5990           0   -1.02800   1.30000
     48886 MEOH     3193     MEOH     DO1      DRUD    -2.488300        0.4000           0   0.00000   0.00000
     48887 MEOH     3193     MEOH     HO1      HDP1A    0.360000        1.0080           0   0.00000   0.00000
     48888 MEOH     3193     MEOH     HO2      DUMH     0.000000        1.0080           0   0.00000   0.00000
     48889 MEOH     3193     MEOH     H1A      HDA3B    0.080000        1.0080           0   0.00000   0.00000
     48890 MEOH     3193     MEOH     H1B      HDA3B    0.080000        1.0080           0   0.00000   0.00000
     48891 MEOH     3193     MEOH     H1C      HDA3B    0.080000        1.0080           0   0.00000   0.00000
     48892 MEOH     3193     MEOH     LP1A     LPD     -0.230000        0.0000           -1   0.00000   0.00000
     48893 MEOH     3193     MEOH     LP1B     LPD     -0.230000        0.0000           -1   0.00000   0.00000
     48894 MEOH     3194     MEOH     C1       CD33B    2.314100       11.6110           0   -1.00000   1.30000
     48895 MEOH     3194     MEOH     DC1      DRUD    -2.454100        0.4000           0   0.00000   0.00000
     48896 MEOH     3194     MEOH     O1       OD31H    2.488300       15.5990           0   -1.02800   1.30000
     48897 MEOH     3194     MEOH     DO1      DRUD    -2.488300        0.4000           0   0.00000   0.00000
     48898 MEOH     3194     MEOH     HO1      HDP1A    0.360000        1.0080           0   0.00000   0.00000
     48899 MEOH     3194     MEOH     HO2      DUMH     0.000000        1.0080           0   0.00000   0.00000
     48900 MEOH     3194     MEOH     H1A      HDA3B    0.080000        1.0080           0   0.00000   0.00000
     48901 MEOH     3194     MEOH     H1B      HDA3B    0.080000        1.0080           0   0.00000   0.00000
     48902 MEOH     3194     MEOH     H1C      HDA3B    0.080000        1.0080           0   0.00000   0.00000
     48903 MEOH     3194     MEOH     LP1A     LPD     -0.230000        0.0000           -1   0.00000   0.00000
     48904 MEOH     3194     MEOH     LP1B     LPD     -0.230000        0.0000           -1   0.00000   0.00000
     48905 MEOH     3195     MEOH     C1       CD33B    2.314100       11.6110           0   -1.00000   1.30000
     48906 MEOH     3195     MEOH     DC1      DRUD    -2.454100        0.4000           0   0.00000   0.00000
     48907 MEOH     3195     MEOH     O1       OD31H    2.488300       15.5990           0   -1.02800   1.30000
     48908 MEOH     3195     MEOH     DO1      DRUD    -2.488300        0.4000           0   0.00000   0.00000
     48909 MEOH     3195     MEOH     HO1      HDP1A    0.360000        1.0080           0   0.00000   0.00000
     48910 MEOH     3195     MEOH     HO2      DUMH     0.000000        1.0080           0   0.00000   0.00000
     48911 MEOH     3195     MEOH     H1A      HDA3B    0.080000        1.0080           0   0.00000   0.00000
     48912 MEOH     3195     MEOH     H1B      HDA3B    0.080000        1.0080           0   0.00000   0.00000
     48913 MEOH     3195     MEOH     H1C      HDA3B    0.080000        1.0080           0   0.00000   0.00000
     48914 MEOH     3195     MEOH     LP1A     LPD     -0.230000        0.0000           -1   0.00000   0.00000
     48915 MEOH     3195     MEOH     LP1B     LPD     -0.230000        0.0000           -1   0.00000   0.00000
     48916 MEOH     3196     MEOH     C1       CD33B    2.314100       11.6110           0   -1.00000   1.30000
     48917 MEOH     3196     MEOH     DC1      DRUD    -2.454100        0.4000           0   0.00000   0.00000
     48918 MEOH     3196     MEOH     O1       OD31H    2.488300       15.5990           0   -1.02800   1.30000
     48919 MEOH     3196     MEOH     DO1      DRUD    -2.488300        0.4000           0   0.00000   0.00000
     48920 MEOH     3196     MEOH     HO1      HDP1A    0.360000        1.0080           0   0.00000   0.00000
     48921 MEOH     3196     MEOH     HO2      DUMH     0.000000        1.0080           0   0.00000   0.00000
     48922 MEOH     3196     MEOH     H1A      HDA3B    0.080000        1.0080           0   0.00000   0.00000
     48923 MEOH     3196     MEOH     H1B      HDA3B    0.080000        1.0080           0   0.00000   0.00000
     48924 MEOH     3196     MEOH     H1C      HDA3B    0.080000        1.0080           0   0.00000   0.00000
     48925 MEOH     3196     MEOH     LP1A     LPD     -0.230000        0.0000           -1   0.00000   0.00000
     48926 MEOH     3196     MEOH     LP1B     LPD     -0.230000        0.0000           -1   0.00000   0.00000
     48927 MEOH     3197     MEOH     C1       CD33B    2.314100       11.6110           0   -1.00000   1.30000
     48928 MEOH     3197     MEOH     DC1      DRUD    -2.454100        0.4000           0   0.00000   0.00000
     48929 MEOH     3197     MEOH     O1       OD31H    2.488300       15.5990           0   -1.02800   1.30000
     48930 MEOH     3197     MEOH     DO1      DRUD    -2.488300        0.4000           0   0.00000   0.00000
     48931 MEOH     3197     MEOH     HO1      HDP1A    0.360000        1.0080           0   0.00000   0.00000
     48932 MEOH     3197     MEOH     HO2      DUMH     0.000000        1.0080           0   0.00000   0.00000
     48933 MEOH     3197     MEOH     H1A      HDA3B    0.080000        1.0080           0   0.00000   0.00000
     48934 MEOH     3197     MEOH     H1B      HDA3B    0.080000        1.0080           0   0.00000   0.00000
     48935 MEOH     3197     MEOH     H1C      HDA3B    0.080000        1.0080           0   0.00000   0.00000
     48936 MEOH     3197     MEOH     LP1A     LPD     -0.230000        0.0000           -1   0.00000   0.00000
     48937 MEOH     3197     MEOH     LP1B     LPD     -0.230000        0.0000           -1   0.00000   0.00000
     48938 MEOH     3198     MEOH     C1       CD33B    2.314100       11.6110           0   -1.00000   1.30000
     48939 MEOH     3198     MEOH     DC1      DRUD    -2.454100        0.4000           0   0.00000   0.00000
     48940 MEOH     3198     MEOH     O1       OD31H    2.488300       15.5990           0   -1.02800   1.30000
     48941 MEOH     3198     MEOH     DO1      DRUD    -2.488300        0.4000           0   0.00000   0.00000
     48942 MEOH     3198     MEOH     HO1      HDP1A    0.360000        1.0080           0   0.00000   0.00000
     48943 MEOH     3198     MEOH     HO2      DUMH     0.000000        1.0080           0   0.00000   0.00000
     48944 MEOH     3198     MEOH     H1A      HDA3B    0.080000        1.0080           0   0.00000   0.00000
     48945 MEOH     3198     MEOH     H1B      HDA3B    0.080000        1.0080           0   0.00000   0.00000
     48946 MEOH     3198     MEOH     H1C      HDA3B    0.080000        1.0080           0   0.00000   0.00000
     48947 MEOH     3198     MEOH     LP1A     LPD     -0.230000        0.0000           -1   0.00000   0.00000
     48948 MEOH     3198     MEOH     LP1B     LPD     -0.230000        0.0000           -1   0.00000   0.00000
     48949 MEOH     3199     MEOH     C1       CD33B    2.314100       11.6110           0   -1.00000   1.30000
     48950 MEOH     3199     MEOH     DC1      DRUD    -2.454100        0.4000           0   0.00000   0.00000
     48951 MEOH     3199     MEOH     O1       OD31H    2.488300       15.5990           0   -1.02800   1.30000
     48952 MEOH     3199     MEOH     DO1      DRUD    -2.488300        0.4000           0   0.00000   0.00000
     48953 MEOH     3199     MEOH     HO1      HDP1A    0.360000        1.0080           0   0.00000   0.00000
     48954 MEOH     3199     MEOH     HO2      DUMH     0.000000        1.0080           0   0.00000   0.00000
     48955 MEOH     3199     MEOH     H1A      HDA3B    0.080000        1.0080           0   0.00000   0.00000
     48956 MEOH     3199     MEOH     H1B      HDA3B    0.080000        1.0080           0   0.00000   0.00000
     48957 MEOH     3199     MEOH     H1C      HDA3B    0.080000        1.0080           0   0.00000   0.00000
     48958 MEOH     3199     MEOH     LP1A     LPD     -0.230000        0.0000           -1   0.00000   0.00000
     48959 MEOH     3199     MEOH     LP1B     LPD     -0.230000        0.0000           -1   0.00000   0.00000
     48960 MEOH     3200     MEOH     C1       CD33B    2.314100       11.6110           0   -1.00000   1.30000
     48961 MEOH     3200     MEOH     DC1      DRUD    -2.454100        0.4000           0   0.00000   0.00000
     48962 MEOH     3200     MEOH     O1       OD31H    2.488300       15.5990           0   -1.02800   1.30000
     48963 MEOH     3200     MEOH     DO1      DRUD    -2.488300        0.4000           0   0.00000   0.00000
     48964 MEOH     3200     MEOH     HO1      HDP1A    0.360000        1.0080           0   0.00000   0.00000
     48965 MEOH     3200     MEOH     HO2      DUMH     0.000000        1.0080           0   0.00000   0.00000
     48966 MEOH     3200     MEOH     H1A      HDA3B    0.080000        1.0080           0   0.00000   0.00000
     48967 MEOH     3200     MEOH     H1B      HDA3B    0.080000        1.0080           0   0.00000   0.00000
     48968 MEOH     3200     MEOH     H1C      HDA3B    0.080000        1.0080           0   0.00000   0.00000
     48969 MEOH     3200     MEOH     LP1A     LPD     -0.230000        0.0000           -1   0.00000   0.00000
     48970 MEOH     3200     MEOH     LP1B     LPD     -0.230000        0.0000           -1   0.00000   0.00000
     48971 MEOH     3201     MEOH     C1       CD33B    2.314100       11.6110           0   -1.00000   1.30000
     48972 MEOH     3201     MEOH     DC1      DRUD    -2.454100        0.4000           0   0.00000   0.00000
     48973 MEOH     3201     MEOH     O1       OD31H    2.488300       15.5990           0   -1.02800   1.30000
     48974 MEOH     3201     MEOH     DO1      DRUD    -2.488300        0.4000           0   0.00000   0.00000
     48975 MEOH     3201     MEOH     HO1      HDP1A    0.360000        1.0080           0   0.00000   0.00000
     48976 MEOH     3201     MEOH     HO2      DUMH     0.000000        1.0080           0   0.00000   0.00000
     48977 MEOH     3201     MEOH     H1A      HDA3B    0.080000        1.0080           0   0.00000   0.00000
     48978 MEOH     3201     MEOH     H1B      HDA3B    0.080000        1.0080           0   0.00000   0.00000
     48979 MEOH     3201     MEOH     H1C      HDA3B    0.080000        1.0080           0   0.00000   0.00000
     48980 MEOH     3201     MEOH     LP1A     LPD     -0.230000        0.0000           -1   0.00000   0.00000
     48981 MEOH     3201     MEOH     LP1B     LPD     -0.230000        0.0000           -1   0.00000   0.00000
     48982 MEOH     3202     MEOH     C1       CD33B    2.314100       11.6110           0   -1.00000   1.30000
     48983 MEOH     3202     MEOH     DC1      DRUD    -2.454100        0.4000           0   0.00000   0.00000
     48984 MEOH     3202     MEOH     O1       OD31H    2.488300       15.5990           0   -1.02800   1.30000
     48985 MEOH     3202     MEOH     DO1      DRUD    -2.488300        0.4000           0   0.00000   0.00000
     48986 MEOH     3202     MEOH     HO1      HDP1A    0.360000        1.0080           0   0.00000   0.00000
     48987 MEOH     3202     MEOH     HO2      DUMH     0.000000        1.0080           0   0.00000   0.00000
     48988 MEOH     3202     MEOH     H1A      HDA3B    0.080000        1.0080           0   0.00000   0.00000
     48989 MEOH     3202     MEOH     H1B      HDA3B    0.080000        1.0080           0   0.00000   0.00000
     48990 MEOH     3202     MEOH     H1C      HDA3B    0.080000        1.0080           0   0.00000   0.00000
     48991 MEOH     3202     MEOH     LP1A     LPD     -0.230000        0.0000           -1   0.00000   0.00000
     48992 MEOH     3202     MEOH     LP1B     LPD     -0.230000        0.0000           -1   0.00000   0.00000
     48993 MEOH     3203     MEOH     C1       CD33B    2.314100       11.6110           0   -1.00000   1.30000
     48994 MEOH     3203     MEOH     DC1      DRUD    -2.454100        0.4000           0   0.00000   0.00000
     48995 MEOH     3203     MEOH     O1       OD31H    2.488300       15.5990           0   -1.02800   1.30000
     48996 MEOH     3203     MEOH     DO1      DRUD    -2.488300        0.4000           0   0.00000   0.00000
     48997 MEOH     3203     MEOH     HO1      HDP1A    0.360000        1.0080           0   0.00000   0.00000
     48998 MEOH     3203     MEOH     HO2      DUMH     0.000000        1.0080           0   0.00000   0.00000
     48999 MEOH     3203     MEOH     H1A      HDA3B    0.080000        1.0080           0   0.00000   0.00000
     49000 MEOH     3203     MEOH     H1B      HDA3B    0.080000        1.0080           0   0.00000   0.00000
     49001 MEOH     3203     MEOH     H1C      HDA3B    0.080000        1.0080           0   0.00000   0.00000
     49002 MEOH     3203     MEOH     LP1A     LPD     -0.230000        0.0000           -1   0.00000   0.00000
     49003 MEOH     3203     MEOH     LP1B     LPD     -0.230000        0.0000           -1   0.00000   0.00000
     49004 MEOH     3204     MEOH     C1       CD33B    2.314100       11.6110           0   -1.00000   1.30000
     49005 MEOH     3204     MEOH     DC1      DRUD    -2.454100        0.4000           0   0.00000   0.00000
     49006 MEOH     3204     MEOH     O1       OD31H    2.488300       15.5990           0   -1.02800   1.30000
     49007 MEOH     3204     MEOH     DO1      DRUD    -2.488300        0.4000           0   0.00000   0.00000
     49008 MEOH     3204     MEOH     HO1      HDP1A    0.360000        1.0080           0   0.00000   0.00000
     49009 MEOH     3204     MEOH     HO2      DUMH     0.000000        1.0080           0   0.00000   0.00000
     49010 MEOH     3204     MEOH     H1A      HDA3B    0.080000        1.0080           0   0.00000   0.00000
     49011 MEOH     3204     MEOH     H1B      HDA3B    0.080000        1.0080           0   0.00000   0.00000
     49012 MEOH     3204     MEOH     H1C      HDA3B    0.080000        1.0080           0   0.00000   0.00000
     49013 MEOH     3204     MEOH     LP1A     LPD     -0.230000        0.0000           -1   0.00000   0.00000
     49014 MEOH     3204     MEOH     LP1B     LPD     -0.230000        0.0000           -1   0.00000   0.00000
     49015 MEOH     3205     MEOH     C1       CD33B    2.314100       11.6110           0   -1.00000   1.30000
     49016 MEOH     3205     MEOH     DC1      DRUD    -2.454100        0.4000           0   0.00000   0.00000
     49017 MEOH     3205     MEOH     O1       OD31H    2.488300       15.5990           0   -1.02800   1.30000
     49018 MEOH     3205     MEOH     DO1      DRUD    -2.488300        0.4000           0   0.00000   0.00000
     49019 MEOH     3205     MEOH     HO1      HDP1A    0.360000        1.0080           0   0.00000   0.00000
     49020 MEOH     3205     MEOH     HO2      DUMH     0.000000        1.0080           0   0.00000   0.00000
     49021 MEOH     3205     MEOH     H1A      HDA3B    0.080000        1.0080           0   0.00000   0.00000
     49022 MEOH     3205     MEOH     H1B      HDA3B    0.080000        1.0080           0   0.00000   0.00000
     49023 MEOH     3205     MEOH     H1C      HDA3B    0.080000        1.0080           0   0.00000   0.00000
     49024 MEOH     3205     MEOH     LP1A     LPD     -0.230000        0.0000           -1   0.00000   0.00000
     49025 MEOH     3205     MEOH     LP1B     LPD     -0.230000        0.0000           -1   0.00000   0.00000
     49026 MEOH     3206     MEOH     C1       CD33B    2.314100       11.6110           0   -1.00000   1.30000
     49027 MEOH     3206     MEOH     DC1      DRUD    -2.454100        0.4000           0   0.00000   0.00000
     49028 MEOH     3206     MEOH     O1       OD31H    2.488300       15.5990           0   -1.02800   1.30000
     49029 MEOH     3206     MEOH     DO1      DRUD    -2.488300        0.4000           0   0.00000   0.00000
     49030 MEOH     3206     MEOH     HO1      HDP1A    0.360000        1.0080           0   0.00000   0.00000
     49031 MEOH     3206     MEOH     HO2      DUMH     0.000000        1.0080           0   0.00000   0.00000
     49032 MEOH     3206     MEOH     H1A      HDA3B    0.080000        1.0080           0   0.00000   0.00000
     49033 MEOH     3206     MEOH     H1B      HDA3B    0.080000        1.0080           0   0.00000   0.00000
     49034 MEOH     3206     MEOH     H1C      HDA3B    0.080000        1.0080           0   0.00000   0.00000
     49035 MEOH     3206     MEOH     LP1A     LPD     -0.230000        0.0000           -1   0.00000   0.00000
     49036 MEOH     3206     MEOH     LP1B     LPD     -0.230000        0.0000           -1   0.00000   0.00000
     49037 MEOH     3207     MEOH     C1       CD33B    2.314100       11.6110           0   -1.00000   1.30000
     49038 MEOH     3207     MEOH     DC1      DRUD    -2.454100        0.4000           0   0.00000   0.00000
     49039 MEOH     3207     MEOH     O1       OD31H    2.488300       15.5990           0   -1.02800   1.30000
     49040 MEOH     3207     MEOH     DO1      DRUD    -2.488300        0.4000           0   0.00000   0.00000
     49041 MEOH     3207     MEOH     HO1      HDP1A    0.360000        1.0080           0   0.00000   0.00000
     49042 MEOH     3207     MEOH     HO2      DUMH     0.000000        1.0080           0   0.00000   0.00000
     49043 MEOH     3207     MEOH     H1A      HDA3B    0.080000        1.0080           0   0.00000   0.00000
     49044 MEOH     3207     MEOH     H1B      HDA3B    0.080000        1.0080           0   0.00000   0.00000
     49045 MEOH     3207     MEOH     H1C      HDA3B    0.080000        1.0080           0   0.00000   0.00000
     49046 MEOH     3207     MEOH     LP1A     LPD     -0.230000        0.0000           -1   0.00000   0.00000
     49047 MEOH     3207     MEOH     LP1B     LPD     -0.230000        0.0000           -1   0.00000   0.00000
     49048 MEOH     3208     MEOH     C1       CD33B    2.314100       11.6110           0   -1.00000   1.30000
     49049 MEOH     3208     MEOH     DC1      DRUD    -2.454100        0.4000           0   0.00000   0.00000
     49050 MEOH     3208     MEOH     O1       OD31H    2.488300       15.5990           0   -1.02800   1.30000
     49051 MEOH     3208     MEOH     DO1      DRUD    -2.488300        0.4000           0   0.00000   0.00000
     49052 MEOH     3208     MEOH     HO1      HDP1A    0.360000        1.0080           0   0.00000   0.00000
     49053 MEOH     3208     MEOH     HO2      DUMH     0.000000        1.0080           0   0.00000   0.00000
     49054 MEOH     3208     MEOH     H1A      HDA3B    0.080000        1.0080           0   0.00000   0.00000
     49055 MEOH     3208     MEOH     H1B      HDA3B    0.080000        1.0080           0   0.00000   0.00000
     49056 MEOH     3208     MEOH     H1C      HDA3B    0.080000        1.0080           0   0.00000   0.00000
     49057 MEOH     3208     MEOH     LP1A     LPD     -0.230000        0.0000           -1   0.00000   0.00000
     49058 MEOH     3208     MEOH     LP1B     LPD     -0.230000        0.0000           -1   0.00000   0.00000
     49059 MEOH     3209     MEOH     C1       CD33B    2.314100       11.6110           0   -1.00000   1.30000
     49060 MEOH     3209     MEOH     DC1      DRUD    -2.454100        0.4000           0   0.00000   0.00000
     49061 MEOH     3209     MEOH     O1       OD31H    2.488300       15.5990           0   -1.02800   1.30000
     49062 MEOH     3209     MEOH     DO1      DRUD    -2.488300        0.4000           0   0.00000   0.00000
     49063 MEOH     3209     MEOH     HO1      HDP1A    0.360000        1.0080           0   0.00000   0.00000
     49064 MEOH     3209     MEOH     HO2      DUMH     0.000000        1.0080           0   0.00000   0.00000
     49065 MEOH     3209     MEOH     H1A      HDA3B    0.080000        1.0080           0   0.00000   0.00000
     49066 MEOH     3209     MEOH     H1B      HDA3B    0.080000        1.0080           0   0.00000   0.00000
     49067 MEOH     3209     MEOH     H1C      HDA3B    0.080000        1.0080           0   0.00000   0.00000
     49068 MEOH     3209     MEOH     LP1A     LPD     -0.230000        0.0000           -1   0.00000   0.00000
     49069 MEOH     3209     MEOH     LP1B     LPD     -0.230000        0.0000           -1   0.00000   0.00000
     49070 MEOH     3210     MEOH     C1       CD33B    2.314100       11.6110           0   -1.00000   1.30000
     49071 MEOH     3210     MEOH     DC1      DRUD    -2.454100        0.4000           0   0.00000   0.00000
     49072 MEOH     3210     MEOH     O1       OD31H    2.488300       15.5990           0   -1.02800   1.30000
     49073 MEOH     3210     MEOH     DO1      DRUD    -2.488300        0.4000           0   0.00000   0.00000
     49074 MEOH     3210     MEOH     HO1      HDP1A    0.360000        1.0080           0   0.00000   0.00000
     49075 MEOH     3210     MEOH     HO2      DUMH     0.000000        1.0080           0   0.00000   0.00000
     49076 MEOH     3210     MEOH     H1A      HDA3B    0.080000        1.0080           0   0.00000   0.00000
     49077 MEOH     3210     MEOH     H1B      HDA3B    0.080000        1.0080           0   0.00000   0.00000
     49078 MEOH     3210     MEOH     H1C      HDA3B    0.080000        1.0080           0   0.00000   0.00000
     49079 MEOH     3210     MEOH     LP1A     LPD     -0.230000        0.0000           -1   0.00000   0.00000
     49080 MEOH     3210     MEOH     LP1B     LPD     -0.230000        0.0000           -1   0.00000   0.00000
     49081 MEOH     3211     MEOH     C1       CD33B    2.314100       11.6110           0   -1.00000   1.30000
     49082 MEOH     3211     MEOH     DC1      DRUD    -2.454100        0.4000           0   0.00000   0.00000
     49083 MEOH     3211     MEOH     O1       OD31H    2.488300       15.5990           0   -1.02800   1.30000
     49084 MEOH     3211     MEOH     DO1      DRUD    -2.488300        0.4000           0   0.00000   0.00000
     49085 MEOH     3211     MEOH     HO1      HDP1A    0.360000        1.0080           0   0.00000   0.00000
     49086 MEOH     3211     MEOH     HO2      DUMH     0.000000        1.0080           0   0.00000   0.00000
     49087 MEOH     3211     MEOH     H1A      HDA3B    0.080000        1.0080           0   0.00000   0.00000
     49088 MEOH     3211     MEOH     H1B      HDA3B    0.080000        1.0080           0   0.00000   0.00000
     49089 MEOH     3211     MEOH     H1C      HDA3B    0.080000        1.0080           0   0.00000   0.00000
     49090 MEOH     3211     MEOH     LP1A     LPD     -0.230000        0.0000           -1   0.00000   0.00000
     49091 MEOH     3211     MEOH     LP1B     LPD     -0.230000        0.0000           -1   0.00000   0.00000
     49092 MEOH     3212     MEOH     C1       CD33B    2.314100       11.6110           0   -1.00000   1.30000
     49093 MEOH     3212     MEOH     DC1      DRUD    -2.454100        0.4000           0   0.00000   0.00000
     49094 MEOH     3212     MEOH     O1       OD31H    2.488300       15.5990           0   -1.02800   1.30000
     49095 MEOH     3212     MEOH     DO1      DRUD    -2.488300        0.4000           0   0.00000   0.00000
     49096 MEOH     3212     MEOH     HO1      HDP1A    0.360000        1.0080           0   0.00000   0.00000
     49097 MEOH     3212     MEOH     HO2      DUMH     0.000000        1.0080           0   0.00000   0.00000
     49098 MEOH     3212     MEOH     H1A      HDA3B    0.080000        1.0080           0   0.00000   0.00000
     49099 MEOH     3212     MEOH     H1B      HDA3B    0.080000        1.0080           0   0.00000   0.00000
     49100 MEOH     3212     MEOH     H1C      HDA3B    0.080000        1.0080           0   0.00000   0.00000
     49101 MEOH     3212     MEOH     LP1A     LPD     -0.230000        0.0000           -1   0.00000   0.00000
     49102 MEOH     3212     MEOH     LP1B     LPD     -0.230000        0.0000           -1   0.00000   0.00000
     49103 MEOH     3213     MEOH     C1       CD33B    2.314100       11.6110           0   -1.00000   1.30000
     49104 MEOH     3213     MEOH     DC1      DRUD    -2.454100        0.4000           0   0.00000   0.00000
     49105 MEOH     3213     MEOH     O1       OD31H    2.488300       15.5990           0   -1.02800   1.30000
     49106 MEOH     3213     MEOH     DO1      DRUD    -2.488300        0.4000           0   0.00000   0.00000
     49107 MEOH     3213     MEOH     HO1      HDP1A    0.360000        1.0080           0   0.00000   0.00000
     49108 MEOH     3213     MEOH     HO2      DUMH     0.000000        1.0080           0   0.00000   0.00000
     49109 MEOH     3213     MEOH     H1A      HDA3B    0.080000        1.0080           0   0.00000   0.00000
     49110 MEOH     3213     MEOH     H1B      HDA3B    0.080000        1.0080           0   0.00000   0.00000
     49111 MEOH     3213     MEOH     H1C      HDA3B    0.080000        1.0080           0   0.00000   0.00000
     49112 MEOH     3213     MEOH     LP1A     LPD     -0.230000        0.0000           -1   0.00000   0.00000
     49113 MEOH     3213     MEOH     LP1B     LPD     -0.230000        0.0000           -1   0.00000   0.00000
     49114 MEOH     3214     MEOH     C1       CD33B    2.314100       11.6110           0   -1.00000   1.30000
     49115 MEOH     3214     MEOH     DC1      DRUD    -2.454100        0.4000           0   0.00000   0.00000
     49116 MEOH     3214     MEOH     O1       OD31H    2.488300       15.5990           0   -1.02800   1.30000
     49117 MEOH     3214     MEOH     DO1      DRUD    -2.488300        0.4000           0   0.00000   0.00000
     49118 MEOH     3214     MEOH     HO1      HDP1A    0.360000        1.0080           0   0.00000   0.00000
     49119 MEOH     3214     MEOH     HO2      DUMH     0.000000        1.0080           0   0.00000   0.00000
     49120 MEOH     3214     MEOH     H1A      HDA3B    0.080000        1.0080           0   0.00000   0.00000
     49121 MEOH     3214     MEOH     H1B      HDA3B    0.080000        1.0080           0   0.00000   0.00000
     49122 MEOH     3214     MEOH     H1C      HDA3B    0.080000        1.0080           0   0.00000   0.00000
     49123 MEOH     3214     MEOH     LP1A     LPD     -0.230000        0.0000           -1   0.00000   0.00000
     49124 MEOH     3214     MEOH     LP1B     LPD     -0.230000        0.0000           -1   0.00000   0.00000
     49125 MEOH     3215     MEOH     C1       CD33B    2.314100       11.6110           0   -1.00000   1.30000
     49126 MEOH     3215     MEOH     DC1      DRUD    -2.454100        0.4000           0   0.00000   0.00000
     49127 MEOH     3215     MEOH     O1       OD31H    2.488300       15.5990           0   -1.02800   1.30000
     49128 MEOH     3215     MEOH     DO1      DRUD    -2.488300        0.4000           0   0.00000   0.00000
     49129 MEOH     3215     MEOH     HO1      HDP1A    0.360000        1.0080           0   0.00000   0.00000
     49130 MEOH     3215     MEOH     HO2      DUMH     0.000000        1.0080           0   0.00000   0.00000
     49131 MEOH     3215     MEOH     H1A      HDA3B    0.080000        1.0080           0   0.00000   0.00000
     49132 MEOH     3215     MEOH     H1B      HDA3B    0.080000        1.0080           0   0.00000   0.00000
     49133 MEOH     3215     MEOH     H1C      HDA3B    0.080000        1.0080           0   0.00000   0.00000
     49134 MEOH     3215     MEOH     LP1A     LPD     -0.230000        0.0000           -1   0.00000   0.00000
     49135 MEOH     3215     MEOH     LP1B     LPD     -0.230000        0.0000           -1   0.00000   0.00000
     49136 MEOH     3216     MEOH     C1       CD33B    2.314100       11.6110           0   -1.00000   1.30000
     49137 MEOH     3216     MEOH     DC1      DRUD    -2.454100        0.4000           0   0.00000   0.00000
     49138 MEOH     3216     MEOH     O1       OD31H    2.488300       15.5990           0   -1.02800   1.30000
     49139 MEOH     3216     MEOH     DO1      DRUD    -2.488300        0.4000           0   0.00000   0.00000
     49140 MEOH     3216     MEOH     HO1      HDP1A    0.360000        1.0080           0   0.00000   0.00000
     49141 MEOH     3216     MEOH     HO2      DUMH     0.000000        1.0080           0   0.00000   0.00000
     49142 MEOH     3216     MEOH     H1A      HDA3B    0.080000        1.0080           0   0.00000   0.00000
     49143 MEOH     3216     MEOH     H1B      HDA3B    0.080000        1.0080           0   0.00000   0.00000
     49144 MEOH     3216     MEOH     H1C      HDA3B    0.080000        1.0080           0   0.00000   0.00000
     49145 MEOH     3216     MEOH     LP1A     LPD     -0.230000        0.0000           -1   0.00000   0.00000
     49146 MEOH     3216     MEOH     LP1B     LPD     -0.230000        0.0000           -1   0.00000   0.00000
     49147 MEOH     3217     MEOH     C1       CD33B    2.314100       11.6110           0   -1.00000   1.30000
     49148 MEOH     3217     MEOH     DC1      DRUD    -2.454100        0.4000           0   0.00000   0.00000
     49149 MEOH     3217     MEOH     O1       OD31H    2.488300       15.5990           0   -1.02800   1.30000
     49150 MEOH     3217     MEOH     DO1      DRUD    -2.488300        0.4000           0   0.00000   0.00000
     49151 MEOH     3217     MEOH     HO1      HDP1A    0.360000        1.0080           0   0.00000   0.00000
     49152 MEOH     3217     MEOH     HO2      DUMH     0.000000        1.0080           0   0.00000   0.00000
     49153 MEOH     3217     MEOH     H1A      HDA3B    0.080000        1.0080           0   0.00000   0.00000
     49154 MEOH     3217     MEOH     H1B      HDA3B    0.080000        1.0080           0   0.00000   0.00000
     49155 MEOH     3217     MEOH     H1C      HDA3B    0.080000        1.0080           0   0.00000   0.00000
     49156 MEOH     3217     MEOH     LP1A     LPD     -0.230000        0.0000           -1   0.00000   0.00000
     49157 MEOH     3217     MEOH     LP1B     LPD     -0.230000        0.0000           -1   0.00000   0.00000
     49158 MEOH     3218     MEOH     C1       CD33B    2.314100       11.6110           0   -1.00000   1.30000
     49159 MEOH     3218     MEOH     DC1      DRUD    -2.454100        0.4000           0   0.00000   0.00000
     49160 MEOH     3218     MEOH     O1       OD31H    2.488300       15.5990           0   -1.02800   1.30000
     49161 MEOH     3218     MEOH     DO1      DRUD    -2.488300        0.4000           0   0.00000   0.00000
     49162 MEOH     3218     MEOH     HO1      HDP1A    0.360000        1.0080           0   0.00000   0.00000
     49163 MEOH     3218     MEOH     HO2      DUMH     0.000000        1.0080           0   0.00000   0.00000
     49164 MEOH     3218     MEOH     H1A      HDA3B    0.080000        1.0080           0   0.00000   0.00000
     49165 MEOH     3218     MEOH     H1B      HDA3B    0.080000        1.0080           0   0.00000   0.00000
     49166 MEOH     3218     MEOH     H1C      HDA3B    0.080000        1.0080           0   0.00000   0.00000
     49167 MEOH     3218     MEOH     LP1A     LPD     -0.230000        0.0000           -1   0.00000   0.00000
     49168 MEOH     3218     MEOH     LP1B     LPD     -0.230000        0.0000           -1   0.00000   0.00000
     49169 MEOH     3219     MEOH     C1       CD33B    2.314100       11.6110           0   -1.00000   1.30000
     49170 MEOH     3219     MEOH     DC1      DRUD    -2.454100        0.4000           0   0.00000   0.00000
     49171 MEOH     3219     MEOH     O1       OD31H    2.488300       15.5990           0   -1.02800   1.30000
     49172 MEOH     3219     MEOH     DO1      DRUD    -2.488300        0.4000           0   0.00000   0.00000
     49173 MEOH     3219     MEOH     HO1      HDP1A    0.360000        1.0080           0   0.00000   0.00000
     49174 MEOH     3219     MEOH     HO2      DUMH     0.000000        1.0080           0   0.00000   0.00000
     49175 MEOH     3219     MEOH     H1A      HDA3B    0.080000        1.0080           0   0.00000   0.00000
     49176 MEOH     3219     MEOH     H1B      HDA3B    0.080000        1.0080           0   0.00000   0.00000
     49177 MEOH     3219     MEOH     H1C      HDA3B    0.080000        1.0080           0   0.00000   0.00000
     49178 MEOH     3219     MEOH     LP1A     LPD     -0.230000        0.0000           -1   0.00000   0.00000
     49179 MEOH     3219     MEOH     LP1B     LPD     -0.230000        0.0000           -1   0.00000   0.00000
     49180 MEOH     3220     MEOH     C1       CD33B    2.314100       11.6110           0   -1.00000   1.30000
     49181 MEOH     3220     MEOH     DC1      DRUD    -2.454100        0.4000           0   0.00000   0.00000
     49182 MEOH     3220     MEOH     O1       OD31H    2.488300       15.5990           0   -1.02800   1.30000
     49183 MEOH     3220     MEOH     DO1      DRUD    -2.488300        0.4000           0   0.00000   0.00000
     49184 MEOH     3220     MEOH     HO1      HDP1A    0.360000        1.0080           0   0.00000   0.00000
     49185 MEOH     3220     MEOH     HO2      DUMH     0.000000        1.0080           0   0.00000   0.00000
     49186 MEOH     3220     MEOH     H1A      HDA3B    0.080000        1.0080           0   0.00000   0.00000
     49187 MEOH     3220     MEOH     H1B      HDA3B    0.080000        1.0080           0   0.00000   0.00000
     49188 MEOH     3220     MEOH     H1C      HDA3B    0.080000        1.0080           0   0.00000   0.00000
     49189 MEOH     3220     MEOH     LP1A     LPD     -0.230000        0.0000           -1   0.00000   0.00000
     49190 MEOH     3220     MEOH     LP1B     LPD     -0.230000        0.0000           -1   0.00000   0.00000
     49191 MEOH     3221     MEOH     C1       CD33B    2.314100       11.6110           0   -1.00000   1.30000
     49192 MEOH     3221     MEOH     DC1      DRUD    -2.454100        0.4000           0   0.00000   0.00000
     49193 MEOH     3221     MEOH     O1       OD31H    2.488300       15.5990           0   -1.02800   1.30000
     49194 MEOH     3221     MEOH     DO1      DRUD    -2.488300        0.4000           0   0.00000   0.00000
     49195 MEOH     3221     MEOH     HO1      HDP1A    0.360000        1.0080           0   0.00000   0.00000
     49196 MEOH     3221     MEOH     HO2      DUMH     0.000000        1.0080           0   0.00000   0.00000
     49197 MEOH     3221     MEOH     H1A      HDA3B    0.080000        1.0080           0   0.00000   0.00000
     49198 MEOH     3221     MEOH     H1B      HDA3B    0.080000        1.0080           0   0.00000   0.00000
     49199 MEOH     3221     MEOH     H1C      HDA3B    0.080000        1.0080           0   0.00000   0.00000
     49200 MEOH     3221     MEOH     LP1A     LPD     -0.230000        0.0000           -1   0.00000   0.00000
     49201 MEOH     3221     MEOH     LP1B     LPD     -0.230000        0.0000           -1   0.00000   0.00000
     49202 MEOH     3222     MEOH     C1       CD33B    2.314100       11.6110           0   -1.00000   1.30000
     49203 MEOH     3222     MEOH     DC1      DRUD    -2.454100        0.4000           0   0.00000   0.00000
     49204 MEOH     3222     MEOH     O1       OD31H    2.488300       15.5990           0   -1.02800   1.30000
     49205 MEOH     3222     MEOH     DO1      DRUD    -2.488300        0.4000           0   0.00000   0.00000
     49206 MEOH     3222     MEOH     HO1      HDP1A    0.360000        1.0080           0   0.00000   0.00000
     49207 MEOH     3222     MEOH     HO2      DUMH     0.000000        1.0080           0   0.00000   0.00000
     49208 MEOH     3222     MEOH     H1A      HDA3B    0.080000        1.0080           0   0.00000   0.00000
     49209 MEOH     3222     MEOH     H1B      HDA3B    0.080000        1.0080           0   0.00000   0.00000
     49210 MEOH     3222     MEOH     H1C      HDA3B    0.080000        1.0080           0   0.00000   0.00000
     49211 MEOH     3222     MEOH     LP1A     LPD     -0.230000        0.0000           -1   0.00000   0.00000
     49212 MEOH     3222     MEOH     LP1B     LPD     -0.230000        0.0000           -1   0.00000   0.00000
     49213 MEOH     3223     MEOH     C1       CD33B    2.314100       11.6110           0   -1.00000   1.30000
     49214 MEOH     3223     MEOH     DC1      DRUD    -2.454100        0.4000           0   0.00000   0.00000
     49215 MEOH     3223     MEOH     O1       OD31H    2.488300       15.5990           0   -1.02800   1.30000
     49216 MEOH     3223     MEOH     DO1      DRUD    -2.488300        0.4000           0   0.00000   0.00000
     49217 MEOH     3223     MEOH     HO1      HDP1A    0.360000        1.0080           0   0.00000   0.00000
     49218 MEOH     3223     MEOH     HO2      DUMH     0.000000        1.0080           0   0.00000   0.00000
     49219 MEOH     3223     MEOH     H1A      HDA3B    0.080000        1.0080           0   0.00000   0.00000
     49220 MEOH     3223     MEOH     H1B      HDA3B    0.080000        1.0080           0   0.00000   0.00000
     49221 MEOH     3223     MEOH     H1C      HDA3B    0.080000        1.0080           0   0.00000   0.00000
     49222 MEOH     3223     MEOH     LP1A     LPD     -0.230000        0.0000           -1   0.00000   0.00000
     49223 MEOH     3223     MEOH     LP1B     LPD     -0.230000        0.0000           -1   0.00000   0.00000
     49224 MEOH     3224     MEOH     C1       CD33B    2.314100       11.6110           0   -1.00000   1.30000
     49225 MEOH     3224     MEOH     DC1      DRUD    -2.454100        0.4000           0   0.00000   0.00000
     49226 MEOH     3224     MEOH     O1       OD31H    2.488300       15.5990           0   -1.02800   1.30000
     49227 MEOH     3224     MEOH     DO1      DRUD    -2.488300        0.4000           0   0.00000   0.00000
     49228 MEOH     3224     MEOH     HO1      HDP1A    0.360000        1.0080           0   0.00000   0.00000
     49229 MEOH     3224     MEOH     HO2      DUMH     0.000000        1.0080           0   0.00000   0.00000
     49230 MEOH     3224     MEOH     H1A      HDA3B    0.080000        1.0080           0   0.00000   0.00000
     49231 MEOH     3224     MEOH     H1B      HDA3B    0.080000        1.0080           0   0.00000   0.00000
     49232 MEOH     3224     MEOH     H1C      HDA3B    0.080000        1.0080           0   0.00000   0.00000
     49233 MEOH     3224     MEOH     LP1A     LPD     -0.230000        0.0000           -1   0.00000   0.00000
     49234 MEOH     3224     MEOH     LP1B     LPD     -0.230000        0.0000           -1   0.00000   0.00000
     49235 MEOH     3225     MEOH     C1       CD33B    2.314100       11.6110           0   -1.00000   1.30000
     49236 MEOH     3225     MEOH     DC1      DRUD    -2.454100        0.4000           0   0.00000   0.00000
     49237 MEOH     3225     MEOH     O1       OD31H    2.488300       15.5990           0   -1.02800   1.30000
     49238 MEOH     3225     MEOH     DO1      DRUD    -2.488300        0.4000           0   0.00000   0.00000
     49239 MEOH     3225     MEOH     HO1      HDP1A    0.360000        1.0080           0   0.00000   0.00000
     49240 MEOH     3225     MEOH     HO2      DUMH     0.000000        1.0080           0   0.00000   0.00000
     49241 MEOH     3225     MEOH     H1A      HDA3B    0.080000        1.0080           0   0.00000   0.00000
     49242 MEOH     3225     MEOH     H1B      HDA3B    0.080000        1.0080           0   0.00000   0.00000
     49243 MEOH     3225     MEOH     H1C      HDA3B    0.080000        1.0080           0   0.00000   0.00000
     49244 MEOH     3225     MEOH     LP1A     LPD     -0.230000        0.0000           -1   0.00000   0.00000
     49245 MEOH     3225     MEOH     LP1B     LPD     -0.230000        0.0000           -1   0.00000   0.00000
     49246 MEOH     3226     MEOH     C1       CD33B    2.314100       11.6110           0   -1.00000   1.30000
     49247 MEOH     3226     MEOH     DC1      DRUD    -2.454100        0.4000           0   0.00000   0.00000
     49248 MEOH     3226     MEOH     O1       OD31H    2.488300       15.5990           0   -1.02800   1.30000
     49249 MEOH     3226     MEOH     DO1      DRUD    -2.488300        0.4000           0   0.00000   0.00000
     49250 MEOH     3226     MEOH     HO1      HDP1A    0.360000        1.0080           0   0.00000   0.00000
     49251 MEOH     3226     MEOH     HO2      DUMH     0.000000        1.0080           0   0.00000   0.00000
     49252 MEOH     3226     MEOH     H1A      HDA3B    0.080000        1.0080           0   0.00000   0.00000
     49253 MEOH     3226     MEOH     H1B      HDA3B    0.080000        1.0080           0   0.00000   0.00000
     49254 MEOH     3226     MEOH     H1C      HDA3B    0.080000        1.0080           0   0.00000   0.00000
     49255 MEOH     3226     MEOH     LP1A     LPD     -0.230000        0.0000           -1   0.00000   0.00000
     49256 MEOH     3226     MEOH     LP1B     LPD     -0.230000        0.0000           -1   0.00000   0.00000
     49257 MEOH     3227     MEOH     C1       CD33B    2.314100       11.6110           0   -1.00000   1.30000
     49258 MEOH     3227     MEOH     DC1      DRUD    -2.454100        0.4000           0   0.00000   0.00000
     49259 MEOH     3227     MEOH     O1       OD31H    2.488300       15.5990           0   -1.02800   1.30000
     49260 MEOH     3227     MEOH     DO1      DRUD    -2.488300        0.4000           0   0.00000   0.00000
     49261 MEOH     3227     MEOH     HO1      HDP1A    0.360000        1.0080           0   0.00000   0.00000
     49262 MEOH     3227     MEOH     HO2      DUMH     0.000000        1.0080           0   0.00000   0.00000
     49263 MEOH     3227     MEOH     H1A      HDA3B    0.080000        1.0080           0   0.00000   0.00000
     49264 MEOH     3227     MEOH     H1B      HDA3B    0.080000        1.0080           0   0.00000   0.00000
     49265 MEOH     3227     MEOH     H1C      HDA3B    0.080000        1.0080           0   0.00000   0.00000
     49266 MEOH     3227     MEOH     LP1A     LPD     -0.230000        0.0000           -1   0.00000   0.00000
     49267 MEOH     3227     MEOH     LP1B     LPD     -0.230000        0.0000           -1   0.00000   0.00000
     49268 MEOH     3228     MEOH     C1       CD33B    2.314100       11.6110           0   -1.00000   1.30000
     49269 MEOH     3228     MEOH     DC1      DRUD    -2.454100        0.4000           0   0.00000   0.00000
     49270 MEOH     3228     MEOH     O1       OD31H    2.488300       15.5990           0   -1.02800   1.30000
     49271 MEOH     3228     MEOH     DO1      DRUD    -2.488300        0.4000           0   0.00000   0.00000
     49272 MEOH     3228     MEOH     HO1      HDP1A    0.360000        1.0080           0   0.00000   0.00000
     49273 MEOH     3228     MEOH     HO2      DUMH     0.000000        1.0080           0   0.00000   0.00000
     49274 MEOH     3228     MEOH     H1A      HDA3B    0.080000        1.0080           0   0.00000   0.00000
     49275 MEOH     3228     MEOH     H1B      HDA3B    0.080000        1.0080           0   0.00000   0.00000
     49276 MEOH     3228     MEOH     H1C      HDA3B    0.080000        1.0080           0   0.00000   0.00000
     49277 MEOH     3228     MEOH     LP1A     LPD     -0.230000        0.0000           -1   0.00000   0.00000
     49278 MEOH     3228     MEOH     LP1B     LPD     -0.230000        0.0000           -1   0.00000   0.00000
     49279 MEOH     3229     MEOH     C1       CD33B    2.314100       11.6110           0   -1.00000   1.30000
     49280 MEOH     3229     MEOH     DC1      DRUD    -2.454100        0.4000           0   0.00000   0.00000
     49281 MEOH     3229     MEOH     O1       OD31H    2.488300       15.5990           0   -1.02800   1.30000
     49282 MEOH     3229     MEOH     DO1      DRUD    -2.488300        0.4000           0   0.00000   0.00000
     49283 MEOH     3229     MEOH     HO1      HDP1A    0.360000        1.0080           0   0.00000   0.00000
     49284 MEOH     3229     MEOH     HO2      DUMH     0.000000        1.0080           0   0.00000   0.00000
     49285 MEOH     3229     MEOH     H1A      HDA3B    0.080000        1.0080           0   0.00000   0.00000
     49286 MEOH     3229     MEOH     H1B      HDA3B    0.080000        1.0080           0   0.00000   0.00000
     49287 MEOH     3229     MEOH     H1C      HDA3B    0.080000        1.0080           0   0.00000   0.00000
     49288 MEOH     3229     MEOH     LP1A     LPD     -0.230000        0.0000           -1   0.00000   0.00000
     49289 MEOH     3229     MEOH     LP1B     LPD     -0.230000        0.0000           -1   0.00000   0.00000
     49290 MEOH     3230     MEOH     C1       CD33B    2.314100       11.6110           0   -1.00000   1.30000
     49291 MEOH     3230     MEOH     DC1      DRUD    -2.454100        0.4000           0   0.00000   0.00000
     49292 MEOH     3230     MEOH     O1       OD31H    2.488300       15.5990           0   -1.02800   1.30000
     49293 MEOH     3230     MEOH     DO1      DRUD    -2.488300        0.4000           0   0.00000   0.00000
     49294 MEOH     3230     MEOH     HO1      HDP1A    0.360000        1.0080           0   0.00000   0.00000
     49295 MEOH     3230     MEOH     HO2      DUMH     0.000000        1.0080           0   0.00000   0.00000
     49296 MEOH     3230     MEOH     H1A      HDA3B    0.080000        1.0080           0   0.00000   0.00000
     49297 MEOH     3230     MEOH     H1B      HDA3B    0.080000        1.0080           0   0.00000   0.00000
     49298 MEOH     3230     MEOH     H1C      HDA3B    0.080000        1.0080           0   0.00000   0.00000
     49299 MEOH     3230     MEOH     LP1A     LPD     -0.230000        0.0000           -1   0.00000   0.00000
     49300 MEOH     3230     MEOH     LP1B     LPD     -0.230000        0.0000           -1   0.00000   0.00000
     49301 MEOH     3231     MEOH     C1       CD33B    2.314100       11.6110           0   -1.00000   1.30000
     49302 MEOH     3231     MEOH     DC1      DRUD    -2.454100        0.4000           0   0.00000   0.00000
     49303 MEOH     3231     MEOH     O1       OD31H    2.488300       15.5990           0   -1.02800   1.30000
     49304 MEOH     3231     MEOH     DO1      DRUD    -2.488300        0.4000           0   0.00000   0.00000
     49305 MEOH     3231     MEOH     HO1      HDP1A    0.360000        1.0080           0   0.00000   0.00000
     49306 MEOH     3231     MEOH     HO2      DUMH     0.000000        1.0080           0   0.00000   0.00000
     49307 MEOH     3231     MEOH     H1A      HDA3B    0.080000        1.0080           0   0.00000   0.00000
     49308 MEOH     3231     MEOH     H1B      HDA3B    0.080000        1.0080           0   0.00000   0.00000
     49309 MEOH     3231     MEOH     H1C      HDA3B    0.080000        1.0080           0   0.00000   0.00000
     49310 MEOH     3231     MEOH     LP1A     LPD     -0.230000        0.0000           -1   0.00000   0.00000
     49311 MEOH     3231     MEOH     LP1B     LPD     -0.230000        0.0000           -1   0.00000   0.00000
     49312 MEOH     3232     MEOH     C1       CD33B    2.314100       11.6110           0   -1.00000   1.30000
     49313 MEOH     3232     MEOH     DC1      DRUD    -2.454100        0.4000           0   0.00000   0.00000
     49314 MEOH     3232     MEOH     O1       OD31H    2.488300       15.5990           0   -1.02800   1.30000
     49315 MEOH     3232     MEOH     DO1      DRUD    -2.488300        0.4000           0   0.00000   0.00000
     49316 MEOH     3232     MEOH     HO1      HDP1A    0.360000        1.0080           0   0.00000   0.00000
     49317 MEOH     3232     MEOH     HO2      DUMH     0.000000        1.0080           0   0.00000   0.00000
     49318 MEOH     3232     MEOH     H1A      HDA3B    0.080000        1.0080           0   0.00000   0.00000
     49319 MEOH     3232     MEOH     H1B      HDA3B    0.080000        1.0080           0   0.00000   0.00000
     49320 MEOH     3232     MEOH     H1C      HDA3B    0.080000        1.0080           0   0.00000   0.00000
     49321 MEOH     3232     MEOH     LP1A     LPD     -0.230000        0.0000           -1   0.00000   0.00000
     49322 MEOH     3232     MEOH     LP1B     LPD     -0.230000        0.0000           -1   0.00000   0.00000
     49323 MEOH     3233     MEOH     C1       CD33B    2.314100       11.6110           0   -1.00000   1.30000
     49324 MEOH     3233     MEOH     DC1      DRUD    -2.454100        0.4000           0   0.00000   0.00000
     49325 MEOH     3233     MEOH     O1       OD31H    2.488300       15.5990           0   -1.02800   1.30000
     49326 MEOH     3233     MEOH     DO1      DRUD    -2.488300        0.4000           0   0.00000   0.00000
     49327 MEOH     3233     MEOH     HO1      HDP1A    0.360000        1.0080           0   0.00000   0.00000
     49328 MEOH     3233     MEOH     HO2      DUMH     0.000000        1.0080           0   0.00000   0.00000
     49329 MEOH     3233     MEOH     H1A      HDA3B    0.080000        1.0080           0   0.00000   0.00000
     49330 MEOH     3233     MEOH     H1B      HDA3B    0.080000        1.0080           0   0.00000   0.00000
     49331 MEOH     3233     MEOH     H1C      HDA3B    0.080000        1.0080           0   0.00000   0.00000
     49332 MEOH     3233     MEOH     LP1A     LPD     -0.230000        0.0000           -1   0.00000   0.00000
     49333 MEOH     3233     MEOH     LP1B     LPD     -0.230000        0.0000           -1   0.00000   0.00000
     49334 MEOH     3234     MEOH     C1       CD33B    2.314100       11.6110           0   -1.00000   1.30000
     49335 MEOH     3234     MEOH     DC1      DRUD    -2.454100        0.4000           0   0.00000   0.00000
     49336 MEOH     3234     MEOH     O1       OD31H    2.488300       15.5990           0   -1.02800   1.30000
     49337 MEOH     3234     MEOH     DO1      DRUD    -2.488300        0.4000           0   0.00000   0.00000
     49338 MEOH     3234     MEOH     HO1      HDP1A    0.360000        1.0080           0   0.00000   0.00000
     49339 MEOH     3234     MEOH     HO2      DUMH     0.000000        1.0080           0   0.00000   0.00000
     49340 MEOH     3234     MEOH     H1A      HDA3B    0.080000        1.0080           0   0.00000   0.00000
     49341 MEOH     3234     MEOH     H1B      HDA3B    0.080000        1.0080           0   0.00000   0.00000
     49342 MEOH     3234     MEOH     H1C      HDA3B    0.080000        1.0080           0   0.00000   0.00000
     49343 MEOH     3234     MEOH     LP1A     LPD     -0.230000        0.0000           -1   0.00000   0.00000
     49344 MEOH     3234     MEOH     LP1B     LPD     -0.230000        0.0000           -1   0.00000   0.00000
     49345 MEOH     3235     MEOH     C1       CD33B    2.314100       11.6110           0   -1.00000   1.30000
     49346 MEOH     3235     MEOH     DC1      DRUD    -2.454100        0.4000           0   0.00000   0.00000
     49347 MEOH     3235     MEOH     O1       OD31H    2.488300       15.5990           0   -1.02800   1.30000
     49348 MEOH     3235     MEOH     DO1      DRUD    -2.488300        0.4000           0   0.00000   0.00000
     49349 MEOH     3235     MEOH     HO1      HDP1A    0.360000        1.0080           0   0.00000   0.00000
     49350 MEOH     3235     MEOH     HO2      DUMH     0.000000        1.0080           0   0.00000   0.00000
     49351 MEOH     3235     MEOH     H1A      HDA3B    0.080000        1.0080           0   0.00000   0.00000
     49352 MEOH     3235     MEOH     H1B      HDA3B    0.080000        1.0080           0   0.00000   0.00000
     49353 MEOH     3235     MEOH     H1C      HDA3B    0.080000        1.0080           0   0.00000   0.00000
     49354 MEOH     3235     MEOH     LP1A     LPD     -0.230000        0.0000           -1   0.00000   0.00000
     49355 MEOH     3235     MEOH     LP1B     LPD     -0.230000        0.0000           -1   0.00000   0.00000
     49356 MEOH     3236     MEOH     C1       CD33B    2.314100       11.6110           0   -1.00000   1.30000
     49357 MEOH     3236     MEOH     DC1      DRUD    -2.454100        0.4000           0   0.00000   0.00000
     49358 MEOH     3236     MEOH     O1       OD31H    2.488300       15.5990           0   -1.02800   1.30000
     49359 MEOH     3236     MEOH     DO1      DRUD    -2.488300        0.4000           0   0.00000   0.00000
     49360 MEOH     3236     MEOH     HO1      HDP1A    0.360000        1.0080           0   0.00000   0.00000
     49361 MEOH     3236     MEOH     HO2      DUMH     0.000000        1.0080           0   0.00000   0.00000
     49362 MEOH     3236     MEOH     H1A      HDA3B    0.080000        1.0080           0   0.00000   0.00000
     49363 MEOH     3236     MEOH     H1B      HDA3B    0.080000        1.0080           0   0.00000   0.00000
     49364 MEOH     3236     MEOH     H1C      HDA3B    0.080000        1.0080           0   0.00000   0.00000
     49365 MEOH     3236     MEOH     LP1A     LPD     -0.230000        0.0000           -1   0.00000   0.00000
     49366 MEOH     3236     MEOH     LP1B     LPD     -0.230000        0.0000           -1   0.00000   0.00000
     49367 MEOH     3237     MEOH     C1       CD33B    2.314100       11.6110           0   -1.00000   1.30000
     49368 MEOH     3237     MEOH     DC1      DRUD    -2.454100        0.4000           0   0.00000   0.00000
     49369 MEOH     3237     MEOH     O1       OD31H    2.488300       15.5990           0   -1.02800   1.30000
     49370 MEOH     3237     MEOH     DO1      DRUD    -2.488300        0.4000           0   0.00000   0.00000
     49371 MEOH     3237     MEOH     HO1      HDP1A    0.360000        1.0080           0   0.00000   0.00000
     49372 MEOH     3237     MEOH     HO2      DUMH     0.000000        1.0080           0   0.00000   0.00000
     49373 MEOH     3237     MEOH     H1A      HDA3B    0.080000        1.0080           0   0.00000   0.00000
     49374 MEOH     3237     MEOH     H1B      HDA3B    0.080000        1.0080           0   0.00000   0.00000
     49375 MEOH     3237     MEOH     H1C      HDA3B    0.080000        1.0080           0   0.00000   0.00000
     49376 MEOH     3237     MEOH     LP1A     LPD     -0.230000        0.0000           -1   0.00000   0.00000
     49377 MEOH     3237     MEOH     LP1B     LPD     -0.230000        0.0000           -1   0.00000   0.00000
     49378 MEOH     3238     MEOH     C1       CD33B    2.314100       11.6110           0   -1.00000   1.30000
     49379 MEOH     3238     MEOH     DC1      DRUD    -2.454100        0.4000           0   0.00000   0.00000
     49380 MEOH     3238     MEOH     O1       OD31H    2.488300       15.5990           0   -1.02800   1.30000
     49381 MEOH     3238     MEOH     DO1      DRUD    -2.488300        0.4000           0   0.00000   0.00000
     49382 MEOH     3238     MEOH     HO1      HDP1A    0.360000        1.0080           0   0.00000   0.00000
     49383 MEOH     3238     MEOH     HO2      DUMH     0.000000        1.0080           0   0.00000   0.00000
     49384 MEOH     3238     MEOH     H1A      HDA3B    0.080000        1.0080           0   0.00000   0.00000
     49385 MEOH     3238     MEOH     H1B      HDA3B    0.080000        1.0080           0   0.00000   0.00000
     49386 MEOH     3238     MEOH     H1C      HDA3B    0.080000        1.0080           0   0.00000   0.00000
     49387 MEOH     3238     MEOH     LP1A     LPD     -0.230000        0.0000           -1   0.00000   0.00000
     49388 MEOH     3238     MEOH     LP1B     LPD     -0.230000        0.0000           -1   0.00000   0.00000
     49389 MEOH     3239     MEOH     C1       CD33B    2.314100       11.6110           0   -1.00000   1.30000
     49390 MEOH     3239     MEOH     DC1      DRUD    -2.454100        0.4000           0   0.00000   0.00000
     49391 MEOH     3239     MEOH     O1       OD31H    2.488300       15.5990           0   -1.02800   1.30000
     49392 MEOH     3239     MEOH     DO1      DRUD    -2.488300        0.4000           0   0.00000   0.00000
     49393 MEOH     3239     MEOH     HO1      HDP1A    0.360000        1.0080           0   0.00000   0.00000
     49394 MEOH     3239     MEOH     HO2      DUMH     0.000000        1.0080           0   0.00000   0.00000
     49395 MEOH     3239     MEOH     H1A      HDA3B    0.080000        1.0080           0   0.00000   0.00000
     49396 MEOH     3239     MEOH     H1B      HDA3B    0.080000        1.0080           0   0.00000   0.00000
     49397 MEOH     3239     MEOH     H1C      HDA3B    0.080000        1.0080           0   0.00000   0.00000
     49398 MEOH     3239     MEOH     LP1A     LPD     -0.230000        0.0000           -1   0.00000   0.00000
     49399 MEOH     3239     MEOH     LP1B     LPD     -0.230000        0.0000           -1   0.00000   0.00000
     49400 MEOH     3240     MEOH     C1       CD33B    2.314100       11.6110           0   -1.00000   1.30000
     49401 MEOH     3240     MEOH     DC1      DRUD    -2.454100        0.4000           0   0.00000   0.00000
     49402 MEOH     3240     MEOH     O1       OD31H    2.488300       15.5990           0   -1.02800   1.30000
     49403 MEOH     3240     MEOH     DO1      DRUD    -2.488300        0.4000           0   0.00000   0.00000
     49404 MEOH     3240     MEOH     HO1      HDP1A    0.360000        1.0080           0   0.00000   0.00000
     49405 MEOH     3240     MEOH     HO2      DUMH     0.000000        1.0080           0   0.00000   0.00000
     49406 MEOH     3240     MEOH     H1A      HDA3B    0.080000        1.0080           0   0.00000   0.00000
     49407 MEOH     3240     MEOH     H1B      HDA3B    0.080000        1.0080           0   0.00000   0.00000
     49408 MEOH     3240     MEOH     H1C      HDA3B    0.080000        1.0080           0   0.00000   0.00000
     49409 MEOH     3240     MEOH     LP1A     LPD     -0.230000        0.0000           -1   0.00000   0.00000
     49410 MEOH     3240     MEOH     LP1B     LPD     -0.230000        0.0000           -1   0.00000   0.00000
     49411 MEOH     3241     MEOH     C1       CD33B    2.314100       11.6110           0   -1.00000   1.30000
     49412 MEOH     3241     MEOH     DC1      DRUD    -2.454100        0.4000           0   0.00000   0.00000
     49413 MEOH     3241     MEOH     O1       OD31H    2.488300       15.5990           0   -1.02800   1.30000
     49414 MEOH     3241     MEOH     DO1      DRUD    -2.488300        0.4000           0   0.00000   0.00000
     49415 MEOH     3241     MEOH     HO1      HDP1A    0.360000        1.0080           0   0.00000   0.00000
     49416 MEOH     3241     MEOH     HO2      DUMH     0.000000        1.0080           0   0.00000   0.00000
     49417 MEOH     3241     MEOH     H1A      HDA3B    0.080000        1.0080           0   0.00000   0.00000
     49418 MEOH     3241     MEOH     H1B      HDA3B    0.080000        1.0080           0   0.00000   0.00000
     49419 MEOH     3241     MEOH     H1C      HDA3B    0.080000        1.0080           0   0.00000   0.00000
     49420 MEOH     3241     MEOH     LP1A     LPD     -0.230000        0.0000           -1   0.00000   0.00000
     49421 MEOH     3241     MEOH     LP1B     LPD     -0.230000        0.0000           -1   0.00000   0.00000
     49422 MEOH     3242     MEOH     C1       CD33B    2.314100       11.6110           0   -1.00000   1.30000
     49423 MEOH     3242     MEOH     DC1      DRUD    -2.454100        0.4000           0   0.00000   0.00000
     49424 MEOH     3242     MEOH     O1       OD31H    2.488300       15.5990           0   -1.02800   1.30000
     49425 MEOH     3242     MEOH     DO1      DRUD    -2.488300        0.4000           0   0.00000   0.00000
     49426 MEOH     3242     MEOH     HO1      HDP1A    0.360000        1.0080           0   0.00000   0.00000
     49427 MEOH     3242     MEOH     HO2      DUMH     0.000000        1.0080           0   0.00000   0.00000
     49428 MEOH     3242     MEOH     H1A      HDA3B    0.080000        1.0080           0   0.00000   0.00000
     49429 MEOH     3242     MEOH     H1B      HDA3B    0.080000        1.0080           0   0.00000   0.00000
     49430 MEOH     3242     MEOH     H1C      HDA3B    0.080000        1.0080           0   0.00000   0.00000
     49431 MEOH     3242     MEOH     LP1A     LPD     -0.230000        0.0000           -1   0.00000   0.00000
     49432 MEOH     3242     MEOH     LP1B     LPD     -0.230000        0.0000           -1   0.00000   0.00000
     49433 MEOH     3243     MEOH     C1       CD33B    2.314100       11.6110           0   -1.00000   1.30000
     49434 MEOH     3243     MEOH     DC1      DRUD    -2.454100        0.4000           0   0.00000   0.00000
     49435 MEOH     3243     MEOH     O1       OD31H    2.488300       15.5990           0   -1.02800   1.30000
     49436 MEOH     3243     MEOH     DO1      DRUD    -2.488300        0.4000           0   0.00000   0.00000
     49437 MEOH     3243     MEOH     HO1      HDP1A    0.360000        1.0080           0   0.00000   0.00000
     49438 MEOH     3243     MEOH     HO2      DUMH     0.000000        1.0080           0   0.00000   0.00000
     49439 MEOH     3243     MEOH     H1A      HDA3B    0.080000        1.0080           0   0.00000   0.00000
     49440 MEOH     3243     MEOH     H1B      HDA3B    0.080000        1.0080           0   0.00000   0.00000
     49441 MEOH     3243     MEOH     H1C      HDA3B    0.080000        1.0080           0   0.00000   0.00000
     49442 MEOH     3243     MEOH     LP1A     LPD     -0.230000        0.0000           -1   0.00000   0.00000
     49443 MEOH     3243     MEOH     LP1B     LPD     -0.230000        0.0000           -1   0.00000   0.00000
     49444 MEOH     3244     MEOH     C1       CD33B    2.314100       11.6110           0   -1.00000   1.30000
     49445 MEOH     3244     MEOH     DC1      DRUD    -2.454100        0.4000           0   0.00000   0.00000
     49446 MEOH     3244     MEOH     O1       OD31H    2.488300       15.5990           0   -1.02800   1.30000
     49447 MEOH     3244     MEOH     DO1      DRUD    -2.488300        0.4000           0   0.00000   0.00000
     49448 MEOH     3244     MEOH     HO1      HDP1A    0.360000        1.0080           0   0.00000   0.00000
     49449 MEOH     3244     MEOH     HO2      DUMH     0.000000        1.0080           0   0.00000   0.00000
     49450 MEOH     3244     MEOH     H1A      HDA3B    0.080000        1.0080           0   0.00000   0.00000
     49451 MEOH     3244     MEOH     H1B      HDA3B    0.080000        1.0080           0   0.00000   0.00000
     49452 MEOH     3244     MEOH     H1C      HDA3B    0.080000        1.0080           0   0.00000   0.00000
     49453 MEOH     3244     MEOH     LP1A     LPD     -0.230000        0.0000           -1   0.00000   0.00000
     49454 MEOH     3244     MEOH     LP1B     LPD     -0.230000        0.0000           -1   0.00000   0.00000
     49455 MEOH     3245     MEOH     C1       CD33B    2.314100       11.6110           0   -1.00000   1.30000
     49456 MEOH     3245     MEOH     DC1      DRUD    -2.454100        0.4000           0   0.00000   0.00000
     49457 MEOH     3245     MEOH     O1       OD31H    2.488300       15.5990           0   -1.02800   1.30000
     49458 MEOH     3245     MEOH     DO1      DRUD    -2.488300        0.4000           0   0.00000   0.00000
     49459 MEOH     3245     MEOH     HO1      HDP1A    0.360000        1.0080           0   0.00000   0.00000
     49460 MEOH     3245     MEOH     HO2      DUMH     0.000000        1.0080           0   0.00000   0.00000
     49461 MEOH     3245     MEOH     H1A      HDA3B    0.080000        1.0080           0   0.00000   0.00000
     49462 MEOH     3245     MEOH     H1B      HDA3B    0.080000        1.0080           0   0.00000   0.00000
     49463 MEOH     3245     MEOH     H1C      HDA3B    0.080000        1.0080           0   0.00000   0.00000
     49464 MEOH     3245     MEOH     LP1A     LPD     -0.230000        0.0000           -1   0.00000   0.00000
     49465 MEOH     3245     MEOH     LP1B     LPD     -0.230000        0.0000           -1   0.00000   0.00000
     49466 MEOH     3246     MEOH     C1       CD33B    2.314100       11.6110           0   -1.00000   1.30000
     49467 MEOH     3246     MEOH     DC1      DRUD    -2.454100        0.4000           0   0.00000   0.00000
     49468 MEOH     3246     MEOH     O1       OD31H    2.488300       15.5990           0   -1.02800   1.30000
     49469 MEOH     3246     MEOH     DO1      DRUD    -2.488300        0.4000           0   0.00000   0.00000
     49470 MEOH     3246     MEOH     HO1      HDP1A    0.360000        1.0080           0   0.00000   0.00000
     49471 MEOH     3246     MEOH     HO2      DUMH     0.000000        1.0080           0   0.00000   0.00000
     49472 MEOH     3246     MEOH     H1A      HDA3B    0.080000        1.0080           0   0.00000   0.00000
     49473 MEOH     3246     MEOH     H1B      HDA3B    0.080000        1.0080           0   0.00000   0.00000
     49474 MEOH     3246     MEOH     H1C      HDA3B    0.080000        1.0080           0   0.00000   0.00000
     49475 MEOH     3246     MEOH     LP1A     LPD     -0.230000        0.0000           -1   0.00000   0.00000
     49476 MEOH     3246     MEOH     LP1B     LPD     -0.230000        0.0000           -1   0.00000   0.00000
     49477 MEOH     3247     MEOH     C1       CD33B    2.314100       11.6110           0   -1.00000   1.30000
     49478 MEOH     3247     MEOH     DC1      DRUD    -2.454100        0.4000           0   0.00000   0.00000
     49479 MEOH     3247     MEOH     O1       OD31H    2.488300       15.5990           0   -1.02800   1.30000
     49480 MEOH     3247     MEOH     DO1      DRUD    -2.488300        0.4000           0   0.00000   0.00000
     49481 MEOH     3247     MEOH     HO1      HDP1A    0.360000        1.0080           0   0.00000   0.00000
     49482 MEOH     3247     MEOH     HO2      DUMH     0.000000        1.0080           0   0.00000   0.00000
     49483 MEOH     3247     MEOH     H1A      HDA3B    0.080000        1.0080           0   0.00000   0.00000
     49484 MEOH     3247     MEOH     H1B      HDA3B    0.080000        1.0080           0   0.00000   0.00000
     49485 MEOH     3247     MEOH     H1C      HDA3B    0.080000        1.0080           0   0.00000   0.00000
     49486 MEOH     3247     MEOH     LP1A     LPD     -0.230000        0.0000           -1   0.00000   0.00000
     49487 MEOH     3247     MEOH     LP1B     LPD     -0.230000        0.0000           -1   0.00000   0.00000
     49488 MEOH     3248     MEOH     C1       CD33B    2.314100       11.6110           0   -1.00000   1.30000
     49489 MEOH     3248     MEOH     DC1      DRUD    -2.454100        0.4000           0   0.00000   0.00000
     49490 MEOH     3248     MEOH     O1       OD31H    2.488300       15.5990           0   -1.02800   1.30000
     49491 MEOH     3248     MEOH     DO1      DRUD    -2.488300        0.4000           0   0.00000   0.00000
     49492 MEOH     3248     MEOH     HO1      HDP1A    0.360000        1.0080           0   0.00000   0.00000
     49493 MEOH     3248     MEOH     HO2      DUMH     0.000000        1.0080           0   0.00000   0.00000
     49494 MEOH     3248     MEOH     H1A      HDA3B    0.080000        1.0080           0   0.00000   0.00000
     49495 MEOH     3248     MEOH     H1B      HDA3B    0.080000        1.0080           0   0.00000   0.00000
     49496 MEOH     3248     MEOH     H1C      HDA3B    0.080000        1.0080           0   0.00000   0.00000
     49497 MEOH     3248     MEOH     LP1A     LPD     -0.230000        0.0000           -1   0.00000   0.00000
     49498 MEOH     3248     MEOH     LP1B     LPD     -0.230000        0.0000           -1   0.00000   0.00000
     49499 MEOH     3249     MEOH     C1       CD33B    2.314100       11.6110           0   -1.00000   1.30000
     49500 MEOH     3249     MEOH     DC1      DRUD    -2.454100        0.4000           0   0.00000   0.00000
     49501 MEOH     3249     MEOH     O1       OD31H    2.488300       15.5990           0   -1.02800   1.30000
     49502 MEOH     3249     MEOH     DO1      DRUD    -2.488300        0.4000           0   0.00000   0.00000
     49503 MEOH     3249     MEOH     HO1      HDP1A    0.360000        1.0080           0   0.00000   0.00000
     49504 MEOH     3249     MEOH     HO2      DUMH     0.000000        1.0080           0   0.00000   0.00000
     49505 MEOH     3249     MEOH     H1A      HDA3B    0.080000        1.0080           0   0.00000   0.00000
     49506 MEOH     3249     MEOH     H1B      HDA3B    0.080000        1.0080           0   0.00000   0.00000
     49507 MEOH     3249     MEOH     H1C      HDA3B    0.080000        1.0080           0   0.00000   0.00000
     49508 MEOH     3249     MEOH     LP1A     LPD     -0.230000        0.0000           -1   0.00000   0.00000
     49509 MEOH     3249     MEOH     LP1B     LPD     -0.230000        0.0000           -1   0.00000   0.00000
     49510 MEOH     3250     MEOH     C1       CD33B    2.314100       11.6110           0   -1.00000   1.30000
     49511 MEOH     3250     MEOH     DC1      DRUD    -2.454100        0.4000           0   0.00000   0.00000
     49512 MEOH     3250     MEOH     O1       OD31H    2.488300       15.5990           0   -1.02800   1.30000
     49513 MEOH     3250     MEOH     DO1      DRUD    -2.488300        0.4000           0   0.00000   0.00000
     49514 MEOH     3250     MEOH     HO1      HDP1A    0.360000        1.0080           0   0.00000   0.00000
     49515 MEOH     3250     MEOH     HO2      DUMH     0.000000        1.0080           0   0.00000   0.00000
     49516 MEOH     3250     MEOH     H1A      HDA3B    0.080000        1.0080           0   0.00000   0.00000
     49517 MEOH     3250     MEOH     H1B      HDA3B    0.080000        1.0080           0   0.00000   0.00000
     49518 MEOH     3250     MEOH     H1C      HDA3B    0.080000        1.0080           0   0.00000   0.00000
     49519 MEOH     3250     MEOH     LP1A     LPD     -0.230000        0.0000           -1   0.00000   0.00000
     49520 MEOH     3250     MEOH     LP1B     LPD     -0.230000        0.0000           -1   0.00000   0.00000
     49521 MEOH     3251     MEOH     C1       CD33B    2.314100       11.6110           0   -1.00000   1.30000
     49522 MEOH     3251     MEOH     DC1      DRUD    -2.454100        0.4000           0   0.00000   0.00000
     49523 MEOH     3251     MEOH     O1       OD31H    2.488300       15.5990           0   -1.02800   1.30000
     49524 MEOH     3251     MEOH     DO1      DRUD    -2.488300        0.4000           0   0.00000   0.00000
     49525 MEOH     3251     MEOH     HO1      HDP1A    0.360000        1.0080           0   0.00000   0.00000
     49526 MEOH     3251     MEOH     HO2      DUMH     0.000000        1.0080           0   0.00000   0.00000
     49527 MEOH     3251     MEOH     H1A      HDA3B    0.080000        1.0080           0   0.00000   0.00000
     49528 MEOH     3251     MEOH     H1B      HDA3B    0.080000        1.0080           0   0.00000   0.00000
     49529 MEOH     3251     MEOH     H1C      HDA3B    0.080000        1.0080           0   0.00000   0.00000
     49530 MEOH     3251     MEOH     LP1A     LPD     -0.230000        0.0000           -1   0.00000   0.00000
     49531 MEOH     3251     MEOH     LP1B     LPD     -0.230000        0.0000           -1   0.00000   0.00000
     49532 MEOH     3252     MEOH     C1       CD33B    2.314100       11.6110           0   -1.00000   1.30000
     49533 MEOH     3252     MEOH     DC1      DRUD    -2.454100        0.4000           0   0.00000   0.00000
     49534 MEOH     3252     MEOH     O1       OD31H    2.488300       15.5990           0   -1.02800   1.30000
     49535 MEOH     3252     MEOH     DO1      DRUD    -2.488300        0.4000           0   0.00000   0.00000
     49536 MEOH     3252     MEOH     HO1      HDP1A    0.360000        1.0080           0   0.00000   0.00000
     49537 MEOH     3252     MEOH     HO2      DUMH     0.000000        1.0080           0   0.00000   0.00000
     49538 MEOH     3252     MEOH     H1A      HDA3B    0.080000        1.0080           0   0.00000   0.00000
     49539 MEOH     3252     MEOH     H1B      HDA3B    0.080000        1.0080           0   0.00000   0.00000
     49540 MEOH     3252     MEOH     H1C      HDA3B    0.080000        1.0080           0   0.00000   0.00000
     49541 MEOH     3252     MEOH     LP1A     LPD     -0.230000        0.0000           -1   0.00000   0.00000
     49542 MEOH     3252     MEOH     LP1B     LPD     -0.230000        0.0000           -1   0.00000   0.00000
     49543 MEOH     3253     MEOH     C1       CD33B    2.314100       11.6110           0   -1.00000   1.30000
     49544 MEOH     3253     MEOH     DC1      DRUD    -2.454100        0.4000           0   0.00000   0.00000
     49545 MEOH     3253     MEOH     O1       OD31H    2.488300       15.5990           0   -1.02800   1.30000
     49546 MEOH     3253     MEOH     DO1      DRUD    -2.488300        0.4000           0   0.00000   0.00000
     49547 MEOH     3253     MEOH     HO1      HDP1A    0.360000        1.0080           0   0.00000   0.00000
     49548 MEOH     3253     MEOH     HO2      DUMH     0.000000        1.0080           0   0.00000   0.00000
     49549 MEOH     3253     MEOH     H1A      HDA3B    0.080000        1.0080           0   0.00000   0.00000
     49550 MEOH     3253     MEOH     H1B      HDA3B    0.080000        1.0080           0   0.00000   0.00000
     49551 MEOH     3253     MEOH     H1C      HDA3B    0.080000        1.0080           0   0.00000   0.00000
     49552 MEOH     3253     MEOH     LP1A     LPD     -0.230000        0.0000           -1   0.00000   0.00000
     49553 MEOH     3253     MEOH     LP1B     LPD     -0.230000        0.0000           -1   0.00000   0.00000
     49554 MEOH     3254     MEOH     C1       CD33B    2.314100       11.6110           0   -1.00000   1.30000
     49555 MEOH     3254     MEOH     DC1      DRUD    -2.454100        0.4000           0   0.00000   0.00000
     49556 MEOH     3254     MEOH     O1       OD31H    2.488300       15.5990           0   -1.02800   1.30000
     49557 MEOH     3254     MEOH     DO1      DRUD    -2.488300        0.4000           0   0.00000   0.00000
     49558 MEOH     3254     MEOH     HO1      HDP1A    0.360000        1.0080           0   0.00000   0.00000
     49559 MEOH     3254     MEOH     HO2      DUMH     0.000000        1.0080           0   0.00000   0.00000
     49560 MEOH     3254     MEOH     H1A      HDA3B    0.080000        1.0080           0   0.00000   0.00000
     49561 MEOH     3254     MEOH     H1B      HDA3B    0.080000        1.0080           0   0.00000   0.00000
     49562 MEOH     3254     MEOH     H1C      HDA3B    0.080000        1.0080           0   0.00000   0.00000
     49563 MEOH     3254     MEOH     LP1A     LPD     -0.230000        0.0000           -1   0.00000   0.00000
     49564 MEOH     3254     MEOH     LP1B     LPD     -0.230000        0.0000           -1   0.00000   0.00000
     49565 MEOH     3255     MEOH     C1       CD33B    2.314100       11.6110           0   -1.00000   1.30000
     49566 MEOH     3255     MEOH     DC1      DRUD    -2.454100        0.4000           0   0.00000   0.00000
     49567 MEOH     3255     MEOH     O1       OD31H    2.488300       15.5990           0   -1.02800   1.30000
     49568 MEOH     3255     MEOH     DO1      DRUD    -2.488300        0.4000           0   0.00000   0.00000
     49569 MEOH     3255     MEOH     HO1      HDP1A    0.360000        1.0080           0   0.00000   0.00000
     49570 MEOH     3255     MEOH     HO2      DUMH     0.000000        1.0080           0   0.00000   0.00000
     49571 MEOH     3255     MEOH     H1A      HDA3B    0.080000        1.0080           0   0.00000   0.00000
     49572 MEOH     3255     MEOH     H1B      HDA3B    0.080000        1.0080           0   0.00000   0.00000
     49573 MEOH     3255     MEOH     H1C      HDA3B    0.080000        1.0080           0   0.00000   0.00000
     49574 MEOH     3255     MEOH     LP1A     LPD     -0.230000        0.0000           -1   0.00000   0.00000
     49575 MEOH     3255     MEOH     LP1B     LPD     -0.230000        0.0000           -1   0.00000   0.00000
     49576 MEOH     3256     MEOH     C1       CD33B    2.314100       11.6110           0   -1.00000   1.30000
     49577 MEOH     3256     MEOH     DC1      DRUD    -2.454100        0.4000           0   0.00000   0.00000
     49578 MEOH     3256     MEOH     O1       OD31H    2.488300       15.5990           0   -1.02800   1.30000
     49579 MEOH     3256     MEOH     DO1      DRUD    -2.488300        0.4000           0   0.00000   0.00000
     49580 MEOH     3256     MEOH     HO1      HDP1A    0.360000        1.0080           0   0.00000   0.00000
     49581 MEOH     3256     MEOH     HO2      DUMH     0.000000        1.0080           0   0.00000   0.00000
     49582 MEOH     3256     MEOH     H1A      HDA3B    0.080000        1.0080           0   0.00000   0.00000
     49583 MEOH     3256     MEOH     H1B      HDA3B    0.080000        1.0080           0   0.00000   0.00000
     49584 MEOH     3256     MEOH     H1C      HDA3B    0.080000        1.0080           0   0.00000   0.00000
     49585 MEOH     3256     MEOH     LP1A     LPD     -0.230000        0.0000           -1   0.00000   0.00000
     49586 MEOH     3256     MEOH     LP1B     LPD     -0.230000        0.0000           -1   0.00000   0.00000
     49587 MEOH     3257     MEOH     C1       CD33B    2.314100       11.6110           0   -1.00000   1.30000
     49588 MEOH     3257     MEOH     DC1      DRUD    -2.454100        0.4000           0   0.00000   0.00000
     49589 MEOH     3257     MEOH     O1       OD31H    2.488300       15.5990           0   -1.02800   1.30000
     49590 MEOH     3257     MEOH     DO1      DRUD    -2.488300        0.4000           0   0.00000   0.00000
     49591 MEOH     3257     MEOH     HO1      HDP1A    0.360000        1.0080           0   0.00000   0.00000
     49592 MEOH     3257     MEOH     HO2      DUMH     0.000000        1.0080           0   0.00000   0.00000
     49593 MEOH     3257     MEOH     H1A      HDA3B    0.080000        1.0080           0   0.00000   0.00000
     49594 MEOH     3257     MEOH     H1B      HDA3B    0.080000        1.0080           0   0.00000   0.00000
     49595 MEOH     3257     MEOH     H1C      HDA3B    0.080000        1.0080           0   0.00000   0.00000
     49596 MEOH     3257     MEOH     LP1A     LPD     -0.230000        0.0000           -1   0.00000   0.00000
     49597 MEOH     3257     MEOH     LP1B     LPD     -0.230000        0.0000           -1   0.00000   0.00000
     49598 MEOH     3258     MEOH     C1       CD33B    2.314100       11.6110           0   -1.00000   1.30000
     49599 MEOH     3258     MEOH     DC1      DRUD    -2.454100        0.4000           0   0.00000   0.00000
     49600 MEOH     3258     MEOH     O1       OD31H    2.488300       15.5990           0   -1.02800   1.30000
     49601 MEOH     3258     MEOH     DO1      DRUD    -2.488300        0.4000           0   0.00000   0.00000
     49602 MEOH     3258     MEOH     HO1      HDP1A    0.360000        1.0080           0   0.00000   0.00000
     49603 MEOH     3258     MEOH     HO2      DUMH     0.000000        1.0080           0   0.00000   0.00000
     49604 MEOH     3258     MEOH     H1A      HDA3B    0.080000        1.0080           0   0.00000   0.00000
     49605 MEOH     3258     MEOH     H1B      HDA3B    0.080000        1.0080           0   0.00000   0.00000
     49606 MEOH     3258     MEOH     H1C      HDA3B    0.080000        1.0080           0   0.00000   0.00000
     49607 MEOH     3258     MEOH     LP1A     LPD     -0.230000        0.0000           -1   0.00000   0.00000
     49608 MEOH     3258     MEOH     LP1B     LPD     -0.230000        0.0000           -1   0.00000   0.00000
     49609 MEOH     3259     MEOH     C1       CD33B    2.314100       11.6110           0   -1.00000   1.30000
     49610 MEOH     3259     MEOH     DC1      DRUD    -2.454100        0.4000           0   0.00000   0.00000
     49611 MEOH     3259     MEOH     O1       OD31H    2.488300       15.5990           0   -1.02800   1.30000
     49612 MEOH     3259     MEOH     DO1      DRUD    -2.488300        0.4000           0   0.00000   0.00000
     49613 MEOH     3259     MEOH     HO1      HDP1A    0.360000        1.0080           0   0.00000   0.00000
     49614 MEOH     3259     MEOH     HO2      DUMH     0.000000        1.0080           0   0.00000   0.00000
     49615 MEOH     3259     MEOH     H1A      HDA3B    0.080000        1.0080           0   0.00000   0.00000
     49616 MEOH     3259     MEOH     H1B      HDA3B    0.080000        1.0080           0   0.00000   0.00000
     49617 MEOH     3259     MEOH     H1C      HDA3B    0.080000        1.0080           0   0.00000   0.00000
     49618 MEOH     3259     MEOH     LP1A     LPD     -0.230000        0.0000           -1   0.00000   0.00000
     49619 MEOH     3259     MEOH     LP1B     LPD     -0.230000        0.0000           -1   0.00000   0.00000
     49620 MEOH     3260     MEOH     C1       CD33B    2.314100       11.6110           0   -1.00000   1.30000
     49621 MEOH     3260     MEOH     DC1      DRUD    -2.454100        0.4000           0   0.00000   0.00000
     49622 MEOH     3260     MEOH     O1       OD31H    2.488300       15.5990           0   -1.02800   1.30000
     49623 MEOH     3260     MEOH     DO1      DRUD    -2.488300        0.4000           0   0.00000   0.00000
     49624 MEOH     3260     MEOH     HO1      HDP1A    0.360000        1.0080           0   0.00000   0.00000
     49625 MEOH     3260     MEOH     HO2      DUMH     0.000000        1.0080           0   0.00000   0.00000
     49626 MEOH     3260     MEOH     H1A      HDA3B    0.080000        1.0080           0   0.00000   0.00000
     49627 MEOH     3260     MEOH     H1B      HDA3B    0.080000        1.0080           0   0.00000   0.00000
     49628 MEOH     3260     MEOH     H1C      HDA3B    0.080000        1.0080           0   0.00000   0.00000
     49629 MEOH     3260     MEOH     LP1A     LPD     -0.230000        0.0000           -1   0.00000   0.00000
     49630 MEOH     3260     MEOH     LP1B     LPD     -0.230000        0.0000           -1   0.00000   0.00000
     49631 MEOH     3261     MEOH     C1       CD33B    2.314100       11.6110           0   -1.00000   1.30000
     49632 MEOH     3261     MEOH     DC1      DRUD    -2.454100        0.4000           0   0.00000   0.00000
     49633 MEOH     3261     MEOH     O1       OD31H    2.488300       15.5990           0   -1.02800   1.30000
     49634 MEOH     3261     MEOH     DO1      DRUD    -2.488300        0.4000           0   0.00000   0.00000
     49635 MEOH     3261     MEOH     HO1      HDP1A    0.360000        1.0080           0   0.00000   0.00000
     49636 MEOH     3261     MEOH     HO2      DUMH     0.000000        1.0080           0   0.00000   0.00000
     49637 MEOH     3261     MEOH     H1A      HDA3B    0.080000        1.0080           0   0.00000   0.00000
     49638 MEOH     3261     MEOH     H1B      HDA3B    0.080000        1.0080           0   0.00000   0.00000
     49639 MEOH     3261     MEOH     H1C      HDA3B    0.080000        1.0080           0   0.00000   0.00000
     49640 MEOH     3261     MEOH     LP1A     LPD     -0.230000        0.0000           -1   0.00000   0.00000
     49641 MEOH     3261     MEOH     LP1B     LPD     -0.230000        0.0000           -1   0.00000   0.00000
     49642 MEOH     3262     MEOH     C1       CD33B    2.314100       11.6110           0   -1.00000   1.30000
     49643 MEOH     3262     MEOH     DC1      DRUD    -2.454100        0.4000           0   0.00000   0.00000
     49644 MEOH     3262     MEOH     O1       OD31H    2.488300       15.5990           0   -1.02800   1.30000
     49645 MEOH     3262     MEOH     DO1      DRUD    -2.488300        0.4000           0   0.00000   0.00000
     49646 MEOH     3262     MEOH     HO1      HDP1A    0.360000        1.0080           0   0.00000   0.00000
     49647 MEOH     3262     MEOH     HO2      DUMH     0.000000        1.0080           0   0.00000   0.00000
     49648 MEOH     3262     MEOH     H1A      HDA3B    0.080000        1.0080           0   0.00000   0.00000
     49649 MEOH     3262     MEOH     H1B      HDA3B    0.080000        1.0080           0   0.00000   0.00000
     49650 MEOH     3262     MEOH     H1C      HDA3B    0.080000        1.0080           0   0.00000   0.00000
     49651 MEOH     3262     MEOH     LP1A     LPD     -0.230000        0.0000           -1   0.00000   0.00000
     49652 MEOH     3262     MEOH     LP1B     LPD     -0.230000        0.0000           -1   0.00000   0.00000
     49653 MEOH     3263     MEOH     C1       CD33B    2.314100       11.6110           0   -1.00000   1.30000
     49654 MEOH     3263     MEOH     DC1      DRUD    -2.454100        0.4000           0   0.00000   0.00000
     49655 MEOH     3263     MEOH     O1       OD31H    2.488300       15.5990           0   -1.02800   1.30000
     49656 MEOH     3263     MEOH     DO1      DRUD    -2.488300        0.4000           0   0.00000   0.00000
     49657 MEOH     3263     MEOH     HO1      HDP1A    0.360000        1.0080           0   0.00000   0.00000
     49658 MEOH     3263     MEOH     HO2      DUMH     0.000000        1.0080           0   0.00000   0.00000
     49659 MEOH     3263     MEOH     H1A      HDA3B    0.080000        1.0080           0   0.00000   0.00000
     49660 MEOH     3263     MEOH     H1B      HDA3B    0.080000        1.0080           0   0.00000   0.00000
     49661 MEOH     3263     MEOH     H1C      HDA3B    0.080000        1.0080           0   0.00000   0.00000
     49662 MEOH     3263     MEOH     LP1A     LPD     -0.230000        0.0000           -1   0.00000   0.00000
     49663 MEOH     3263     MEOH     LP1B     LPD     -0.230000        0.0000           -1   0.00000   0.00000
     49664 MEOH     3264     MEOH     C1       CD33B    2.314100       11.6110           0   -1.00000   1.30000
     49665 MEOH     3264     MEOH     DC1      DRUD    -2.454100        0.4000           0   0.00000   0.00000
     49666 MEOH     3264     MEOH     O1       OD31H    2.488300       15.5990           0   -1.02800   1.30000
     49667 MEOH     3264     MEOH     DO1      DRUD    -2.488300        0.4000           0   0.00000   0.00000
     49668 MEOH     3264     MEOH     HO1      HDP1A    0.360000        1.0080           0   0.00000   0.00000
     49669 MEOH     3264     MEOH     HO2      DUMH     0.000000        1.0080           0   0.00000   0.00000
     49670 MEOH     3264     MEOH     H1A      HDA3B    0.080000        1.0080           0   0.00000   0.00000
     49671 MEOH     3264     MEOH     H1B      HDA3B    0.080000        1.0080           0   0.00000   0.00000
     49672 MEOH     3264     MEOH     H1C      HDA3B    0.080000        1.0080           0   0.00000   0.00000
     49673 MEOH     3264     MEOH     LP1A     LPD     -0.230000        0.0000           -1   0.00000   0.00000
     49674 MEOH     3264     MEOH     LP1B     LPD     -0.230000        0.0000           -1   0.00000   0.00000
     49675 MEOH     3265     MEOH     C1       CD33B    2.314100       11.6110           0   -1.00000   1.30000
     49676 MEOH     3265     MEOH     DC1      DRUD    -2.454100        0.4000           0   0.00000   0.00000
     49677 MEOH     3265     MEOH     O1       OD31H    2.488300       15.5990           0   -1.02800   1.30000
     49678 MEOH     3265     MEOH     DO1      DRUD    -2.488300        0.4000           0   0.00000   0.00000
     49679 MEOH     3265     MEOH     HO1      HDP1A    0.360000        1.0080           0   0.00000   0.00000
     49680 MEOH     3265     MEOH     HO2      DUMH     0.000000        1.0080           0   0.00000   0.00000
     49681 MEOH     3265     MEOH     H1A      HDA3B    0.080000        1.0080           0   0.00000   0.00000
     49682 MEOH     3265     MEOH     H1B      HDA3B    0.080000        1.0080           0   0.00000   0.00000
     49683 MEOH     3265     MEOH     H1C      HDA3B    0.080000        1.0080           0   0.00000   0.00000
     49684 MEOH     3265     MEOH     LP1A     LPD     -0.230000        0.0000           -1   0.00000   0.00000
     49685 MEOH     3265     MEOH     LP1B     LPD     -0.230000        0.0000           -1   0.00000   0.00000
     49686 MEOH     3266     MEOH     C1       CD33B    2.314100       11.6110           0   -1.00000   1.30000
     49687 MEOH     3266     MEOH     DC1      DRUD    -2.454100        0.4000           0   0.00000   0.00000
     49688 MEOH     3266     MEOH     O1       OD31H    2.488300       15.5990           0   -1.02800   1.30000
     49689 MEOH     3266     MEOH     DO1      DRUD    -2.488300        0.4000           0   0.00000   0.00000
     49690 MEOH     3266     MEOH     HO1      HDP1A    0.360000        1.0080           0   0.00000   0.00000
     49691 MEOH     3266     MEOH     HO2      DUMH     0.000000        1.0080           0   0.00000   0.00000
     49692 MEOH     3266     MEOH     H1A      HDA3B    0.080000        1.0080           0   0.00000   0.00000
     49693 MEOH     3266     MEOH     H1B      HDA3B    0.080000        1.0080           0   0.00000   0.00000
     49694 MEOH     3266     MEOH     H1C      HDA3B    0.080000        1.0080           0   0.00000   0.00000
     49695 MEOH     3266     MEOH     LP1A     LPD     -0.230000        0.0000           -1   0.00000   0.00000
     49696 MEOH     3266     MEOH     LP1B     LPD     -0.230000        0.0000           -1   0.00000   0.00000
     49697 MEOH     3267     MEOH     C1       CD33B    2.314100       11.6110           0   -1.00000   1.30000
     49698 MEOH     3267     MEOH     DC1      DRUD    -2.454100        0.4000           0   0.00000   0.00000
     49699 MEOH     3267     MEOH     O1       OD31H    2.488300       15.5990           0   -1.02800   1.30000
     49700 MEOH     3267     MEOH     DO1      DRUD    -2.488300        0.4000           0   0.00000   0.00000
     49701 MEOH     3267     MEOH     HO1      HDP1A    0.360000        1.0080           0   0.00000   0.00000
     49702 MEOH     3267     MEOH     HO2      DUMH     0.000000        1.0080           0   0.00000   0.00000
     49703 MEOH     3267     MEOH     H1A      HDA3B    0.080000        1.0080           0   0.00000   0.00000
     49704 MEOH     3267     MEOH     H1B      HDA3B    0.080000        1.0080           0   0.00000   0.00000
     49705 MEOH     3267     MEOH     H1C      HDA3B    0.080000        1.0080           0   0.00000   0.00000
     49706 MEOH     3267     MEOH     LP1A     LPD     -0.230000        0.0000           -1   0.00000   0.00000
     49707 MEOH     3267     MEOH     LP1B     LPD     -0.230000        0.0000           -1   0.00000   0.00000
     49708 MEOH     3268     MEOH     C1       CD33B    2.314100       11.6110           0   -1.00000   1.30000
     49709 MEOH     3268     MEOH     DC1      DRUD    -2.454100        0.4000           0   0.00000   0.00000
     49710 MEOH     3268     MEOH     O1       OD31H    2.488300       15.5990           0   -1.02800   1.30000
     49711 MEOH     3268     MEOH     DO1      DRUD    -2.488300        0.4000           0   0.00000   0.00000
     49712 MEOH     3268     MEOH     HO1      HDP1A    0.360000        1.0080           0   0.00000   0.00000
     49713 MEOH     3268     MEOH     HO2      DUMH     0.000000        1.0080           0   0.00000   0.00000
     49714 MEOH     3268     MEOH     H1A      HDA3B    0.080000        1.0080           0   0.00000   0.00000
     49715 MEOH     3268     MEOH     H1B      HDA3B    0.080000        1.0080           0   0.00000   0.00000
     49716 MEOH     3268     MEOH     H1C      HDA3B    0.080000        1.0080           0   0.00000   0.00000
     49717 MEOH     3268     MEOH     LP1A     LPD     -0.230000        0.0000           -1   0.00000   0.00000
     49718 MEOH     3268     MEOH     LP1B     LPD     -0.230000        0.0000           -1   0.00000   0.00000
     49719 MEOH     3269     MEOH     C1       CD33B    2.314100       11.6110           0   -1.00000   1.30000
     49720 MEOH     3269     MEOH     DC1      DRUD    -2.454100        0.4000           0   0.00000   0.00000
     49721 MEOH     3269     MEOH     O1       OD31H    2.488300       15.5990           0   -1.02800   1.30000
     49722 MEOH     3269     MEOH     DO1      DRUD    -2.488300        0.4000           0   0.00000   0.00000
     49723 MEOH     3269     MEOH     HO1      HDP1A    0.360000        1.0080           0   0.00000   0.00000
     49724 MEOH     3269     MEOH     HO2      DUMH     0.000000        1.0080           0   0.00000   0.00000
     49725 MEOH     3269     MEOH     H1A      HDA3B    0.080000        1.0080           0   0.00000   0.00000
     49726 MEOH     3269     MEOH     H1B      HDA3B    0.080000        1.0080           0   0.00000   0.00000
     49727 MEOH     3269     MEOH     H1C      HDA3B    0.080000        1.0080           0   0.00000   0.00000
     49728 MEOH     3269     MEOH     LP1A     LPD     -0.230000        0.0000           -1   0.00000   0.00000
     49729 MEOH     3269     MEOH     LP1B     LPD     -0.230000        0.0000           -1   0.00000   0.00000
     49730 MEOH     3270     MEOH     C1       CD33B    2.314100       11.6110           0   -1.00000   1.30000
     49731 MEOH     3270     MEOH     DC1      DRUD    -2.454100        0.4000           0   0.00000   0.00000
     49732 MEOH     3270     MEOH     O1       OD31H    2.488300       15.5990           0   -1.02800   1.30000
     49733 MEOH     3270     MEOH     DO1      DRUD    -2.488300        0.4000           0   0.00000   0.00000
     49734 MEOH     3270     MEOH     HO1      HDP1A    0.360000        1.0080           0   0.00000   0.00000
     49735 MEOH     3270     MEOH     HO2      DUMH     0.000000        1.0080           0   0.00000   0.00000
     49736 MEOH     3270     MEOH     H1A      HDA3B    0.080000        1.0080           0   0.00000   0.00000
     49737 MEOH     3270     MEOH     H1B      HDA3B    0.080000        1.0080           0   0.00000   0.00000
     49738 MEOH     3270     MEOH     H1C      HDA3B    0.080000        1.0080           0   0.00000   0.00000
     49739 MEOH     3270     MEOH     LP1A     LPD     -0.230000        0.0000           -1   0.00000   0.00000
     49740 MEOH     3270     MEOH     LP1B     LPD     -0.230000        0.0000           -1   0.00000   0.00000
     49741 MEOH     3271     MEOH     C1       CD33B    2.314100       11.6110           0   -1.00000   1.30000
     49742 MEOH     3271     MEOH     DC1      DRUD    -2.454100        0.4000           0   0.00000   0.00000
     49743 MEOH     3271     MEOH     O1       OD31H    2.488300       15.5990           0   -1.02800   1.30000
     49744 MEOH     3271     MEOH     DO1      DRUD    -2.488300        0.4000           0   0.00000   0.00000
     49745 MEOH     3271     MEOH     HO1      HDP1A    0.360000        1.0080           0   0.00000   0.00000
     49746 MEOH     3271     MEOH     HO2      DUMH     0.000000        1.0080           0   0.00000   0.00000
     49747 MEOH     3271     MEOH     H1A      HDA3B    0.080000        1.0080           0   0.00000   0.00000
     49748 MEOH     3271     MEOH     H1B      HDA3B    0.080000        1.0080           0   0.00000   0.00000
     49749 MEOH     3271     MEOH     H1C      HDA3B    0.080000        1.0080           0   0.00000   0.00000
     49750 MEOH     3271     MEOH     LP1A     LPD     -0.230000        0.0000           -1   0.00000   0.00000
     49751 MEOH     3271     MEOH     LP1B     LPD     -0.230000        0.0000           -1   0.00000   0.00000
     49752 MEOH     3272     MEOH     C1       CD33B    2.314100       11.6110           0   -1.00000   1.30000
     49753 MEOH     3272     MEOH     DC1      DRUD    -2.454100        0.4000           0   0.00000   0.00000
     49754 MEOH     3272     MEOH     O1       OD31H    2.488300       15.5990           0   -1.02800   1.30000
     49755 MEOH     3272     MEOH     DO1      DRUD    -2.488300        0.4000           0   0.00000   0.00000
     49756 MEOH     3272     MEOH     HO1      HDP1A    0.360000        1.0080           0   0.00000   0.00000
     49757 MEOH     3272     MEOH     HO2      DUMH     0.000000        1.0080           0   0.00000   0.00000
     49758 MEOH     3272     MEOH     H1A      HDA3B    0.080000        1.0080           0   0.00000   0.00000
     49759 MEOH     3272     MEOH     H1B      HDA3B    0.080000        1.0080           0   0.00000   0.00000
     49760 MEOH     3272     MEOH     H1C      HDA3B    0.080000        1.0080           0   0.00000   0.00000
     49761 MEOH     3272     MEOH     LP1A     LPD     -0.230000        0.0000           -1   0.00000   0.00000
     49762 MEOH     3272     MEOH     LP1B     LPD     -0.230000        0.0000           -1   0.00000   0.00000
     49763 MEOH     3273     MEOH     C1       CD33B    2.314100       11.6110           0   -1.00000   1.30000
     49764 MEOH     3273     MEOH     DC1      DRUD    -2.454100        0.4000           0   0.00000   0.00000
     49765 MEOH     3273     MEOH     O1       OD31H    2.488300       15.5990           0   -1.02800   1.30000
     49766 MEOH     3273     MEOH     DO1      DRUD    -2.488300        0.4000           0   0.00000   0.00000
     49767 MEOH     3273     MEOH     HO1      HDP1A    0.360000        1.0080           0   0.00000   0.00000
     49768 MEOH     3273     MEOH     HO2      DUMH     0.000000        1.0080           0   0.00000   0.00000
     49769 MEOH     3273     MEOH     H1A      HDA3B    0.080000        1.0080           0   0.00000   0.00000
     49770 MEOH     3273     MEOH     H1B      HDA3B    0.080000        1.0080           0   0.00000   0.00000
     49771 MEOH     3273     MEOH     H1C      HDA3B    0.080000        1.0080           0   0.00000   0.00000
     49772 MEOH     3273     MEOH     LP1A     LPD     -0.230000        0.0000           -1   0.00000   0.00000
     49773 MEOH     3273     MEOH     LP1B     LPD     -0.230000        0.0000           -1   0.00000   0.00000
     49774 MEOH     3274     MEOH     C1       CD33B    2.314100       11.6110           0   -1.00000   1.30000
     49775 MEOH     3274     MEOH     DC1      DRUD    -2.454100        0.4000           0   0.00000   0.00000
     49776 MEOH     3274     MEOH     O1       OD31H    2.488300       15.5990           0   -1.02800   1.30000
     49777 MEOH     3274     MEOH     DO1      DRUD    -2.488300        0.4000           0   0.00000   0.00000
     49778 MEOH     3274     MEOH     HO1      HDP1A    0.360000        1.0080           0   0.00000   0.00000
     49779 MEOH     3274     MEOH     HO2      DUMH     0.000000        1.0080           0   0.00000   0.00000
     49780 MEOH     3274     MEOH     H1A      HDA3B    0.080000        1.0080           0   0.00000   0.00000
     49781 MEOH     3274     MEOH     H1B      HDA3B    0.080000        1.0080           0   0.00000   0.00000
     49782 MEOH     3274     MEOH     H1C      HDA3B    0.080000        1.0080           0   0.00000   0.00000
     49783 MEOH     3274     MEOH     LP1A     LPD     -0.230000        0.0000           -1   0.00000   0.00000
     49784 MEOH     3274     MEOH     LP1B     LPD     -0.230000        0.0000           -1   0.00000   0.00000
     49785 MEOH     3275     MEOH     C1       CD33B    2.314100       11.6110           0   -1.00000   1.30000
     49786 MEOH     3275     MEOH     DC1      DRUD    -2.454100        0.4000           0   0.00000   0.00000
     49787 MEOH     3275     MEOH     O1       OD31H    2.488300       15.5990           0   -1.02800   1.30000
     49788 MEOH     3275     MEOH     DO1      DRUD    -2.488300        0.4000           0   0.00000   0.00000
     49789 MEOH     3275     MEOH     HO1      HDP1A    0.360000        1.0080           0   0.00000   0.00000
     49790 MEOH     3275     MEOH     HO2      DUMH     0.000000        1.0080           0   0.00000   0.00000
     49791 MEOH     3275     MEOH     H1A      HDA3B    0.080000        1.0080           0   0.00000   0.00000
     49792 MEOH     3275     MEOH     H1B      HDA3B    0.080000        1.0080           0   0.00000   0.00000
     49793 MEOH     3275     MEOH     H1C      HDA3B    0.080000        1.0080           0   0.00000   0.00000
     49794 MEOH     3275     MEOH     LP1A     LPD     -0.230000        0.0000           -1   0.00000   0.00000
     49795 MEOH     3275     MEOH     LP1B     LPD     -0.230000        0.0000           -1   0.00000   0.00000
     49796 MEOH     3276     MEOH     C1       CD33B    2.314100       11.6110           0   -1.00000   1.30000
     49797 MEOH     3276     MEOH     DC1      DRUD    -2.454100        0.4000           0   0.00000   0.00000
     49798 MEOH     3276     MEOH     O1       OD31H    2.488300       15.5990           0   -1.02800   1.30000
     49799 MEOH     3276     MEOH     DO1      DRUD    -2.488300        0.4000           0   0.00000   0.00000
     49800 MEOH     3276     MEOH     HO1      HDP1A    0.360000        1.0080           0   0.00000   0.00000
     49801 MEOH     3276     MEOH     HO2      DUMH     0.000000        1.0080           0   0.00000   0.00000
     49802 MEOH     3276     MEOH     H1A      HDA3B    0.080000        1.0080           0   0.00000   0.00000
     49803 MEOH     3276     MEOH     H1B      HDA3B    0.080000        1.0080           0   0.00000   0.00000
     49804 MEOH     3276     MEOH     H1C      HDA3B    0.080000        1.0080           0   0.00000   0.00000
     49805 MEOH     3276     MEOH     LP1A     LPD     -0.230000        0.0000           -1   0.00000   0.00000
     49806 MEOH     3276     MEOH     LP1B     LPD     -0.230000        0.0000           -1   0.00000   0.00000
     49807 MEOH     3277     MEOH     C1       CD33B    2.314100       11.6110           0   -1.00000   1.30000
     49808 MEOH     3277     MEOH     DC1      DRUD    -2.454100        0.4000           0   0.00000   0.00000
     49809 MEOH     3277     MEOH     O1       OD31H    2.488300       15.5990           0   -1.02800   1.30000
     49810 MEOH     3277     MEOH     DO1      DRUD    -2.488300        0.4000           0   0.00000   0.00000
     49811 MEOH     3277     MEOH     HO1      HDP1A    0.360000        1.0080           0   0.00000   0.00000
     49812 MEOH     3277     MEOH     HO2      DUMH     0.000000        1.0080           0   0.00000   0.00000
     49813 MEOH     3277     MEOH     H1A      HDA3B    0.080000        1.0080           0   0.00000   0.00000
     49814 MEOH     3277     MEOH     H1B      HDA3B    0.080000        1.0080           0   0.00000   0.00000
     49815 MEOH     3277     MEOH     H1C      HDA3B    0.080000        1.0080           0   0.00000   0.00000
     49816 MEOH     3277     MEOH     LP1A     LPD     -0.230000        0.0000           -1   0.00000   0.00000
     49817 MEOH     3277     MEOH     LP1B     LPD     -0.230000        0.0000           -1   0.00000   0.00000
     49818 MEOH     3278     MEOH     C1       CD33B    2.314100       11.6110           0   -1.00000   1.30000
     49819 MEOH     3278     MEOH     DC1      DRUD    -2.454100        0.4000           0   0.00000   0.00000
     49820 MEOH     3278     MEOH     O1       OD31H    2.488300       15.5990           0   -1.02800   1.30000
     49821 MEOH     3278     MEOH     DO1      DRUD    -2.488300        0.4000           0   0.00000   0.00000
     49822 MEOH     3278     MEOH     HO1      HDP1A    0.360000        1.0080           0   0.00000   0.00000
     49823 MEOH     3278     MEOH     HO2      DUMH     0.000000        1.0080           0   0.00000   0.00000
     49824 MEOH     3278     MEOH     H1A      HDA3B    0.080000        1.0080           0   0.00000   0.00000
     49825 MEOH     3278     MEOH     H1B      HDA3B    0.080000        1.0080           0   0.00000   0.00000
     49826 MEOH     3278     MEOH     H1C      HDA3B    0.080000        1.0080           0   0.00000   0.00000
     49827 MEOH     3278     MEOH     LP1A     LPD     -0.230000        0.0000           -1   0.00000   0.00000
     49828 MEOH     3278     MEOH     LP1B     LPD     -0.230000        0.0000           -1   0.00000   0.00000
     49829 MEOH     3279     MEOH     C1       CD33B    2.314100       11.6110           0   -1.00000   1.30000
     49830 MEOH     3279     MEOH     DC1      DRUD    -2.454100        0.4000           0   0.00000   0.00000
     49831 MEOH     3279     MEOH     O1       OD31H    2.488300       15.5990           0   -1.02800   1.30000
     49832 MEOH     3279     MEOH     DO1      DRUD    -2.488300        0.4000           0   0.00000   0.00000
     49833 MEOH     3279     MEOH     HO1      HDP1A    0.360000        1.0080           0   0.00000   0.00000
     49834 MEOH     3279     MEOH     HO2      DUMH     0.000000        1.0080           0   0.00000   0.00000
     49835 MEOH     3279     MEOH     H1A      HDA3B    0.080000        1.0080           0   0.00000   0.00000
     49836 MEOH     3279     MEOH     H1B      HDA3B    0.080000        1.0080           0   0.00000   0.00000
     49837 MEOH     3279     MEOH     H1C      HDA3B    0.080000        1.0080           0   0.00000   0.00000
     49838 MEOH     3279     MEOH     LP1A     LPD     -0.230000        0.0000           -1   0.00000   0.00000
     49839 MEOH     3279     MEOH     LP1B     LPD     -0.230000        0.0000           -1   0.00000   0.00000
     49840 MEOH     3280     MEOH     C1       CD33B    2.314100       11.6110           0   -1.00000   1.30000
     49841 MEOH     3280     MEOH     DC1      DRUD    -2.454100        0.4000           0   0.00000   0.00000
     49842 MEOH     3280     MEOH     O1       OD31H    2.488300       15.5990           0   -1.02800   1.30000
     49843 MEOH     3280     MEOH     DO1      DRUD    -2.488300        0.4000           0   0.00000   0.00000
     49844 MEOH     3280     MEOH     HO1      HDP1A    0.360000        1.0080           0   0.00000   0.00000
     49845 MEOH     3280     MEOH     HO2      DUMH     0.000000        1.0080           0   0.00000   0.00000
     49846 MEOH     3280     MEOH     H1A      HDA3B    0.080000        1.0080           0   0.00000   0.00000
     49847 MEOH     3280     MEOH     H1B      HDA3B    0.080000        1.0080           0   0.00000   0.00000
     49848 MEOH     3280     MEOH     H1C      HDA3B    0.080000        1.0080           0   0.00000   0.00000
     49849 MEOH     3280     MEOH     LP1A     LPD     -0.230000        0.0000           -1   0.00000   0.00000
     49850 MEOH     3280     MEOH     LP1B     LPD     -0.230000        0.0000           -1   0.00000   0.00000
     49851 MEOH     3281     MEOH     C1       CD33B    2.314100       11.6110           0   -1.00000   1.30000
     49852 MEOH     3281     MEOH     DC1      DRUD    -2.454100        0.4000           0   0.00000   0.00000
     49853 MEOH     3281     MEOH     O1       OD31H    2.488300       15.5990           0   -1.02800   1.30000
     49854 MEOH     3281     MEOH     DO1      DRUD    -2.488300        0.4000           0   0.00000   0.00000
     49855 MEOH     3281     MEOH     HO1      HDP1A    0.360000        1.0080           0   0.00000   0.00000
     49856 MEOH     3281     MEOH     HO2      DUMH     0.000000        1.0080           0   0.00000   0.00000
     49857 MEOH     3281     MEOH     H1A      HDA3B    0.080000        1.0080           0   0.00000   0.00000
     49858 MEOH     3281     MEOH     H1B      HDA3B    0.080000        1.0080           0   0.00000   0.00000
     49859 MEOH     3281     MEOH     H1C      HDA3B    0.080000        1.0080           0   0.00000   0.00000
     49860 MEOH     3281     MEOH     LP1A     LPD     -0.230000        0.0000           -1   0.00000   0.00000
     49861 MEOH     3281     MEOH     LP1B     LPD     -0.230000        0.0000           -1   0.00000   0.00000
     49862 MEOH     3282     MEOH     C1       CD33B    2.314100       11.6110           0   -1.00000   1.30000
     49863 MEOH     3282     MEOH     DC1      DRUD    -2.454100        0.4000           0   0.00000   0.00000
     49864 MEOH     3282     MEOH     O1       OD31H    2.488300       15.5990           0   -1.02800   1.30000
     49865 MEOH     3282     MEOH     DO1      DRUD    -2.488300        0.4000           0   0.00000   0.00000
     49866 MEOH     3282     MEOH     HO1      HDP1A    0.360000        1.0080           0   0.00000   0.00000
     49867 MEOH     3282     MEOH     HO2      DUMH     0.000000        1.0080           0   0.00000   0.00000
     49868 MEOH     3282     MEOH     H1A      HDA3B    0.080000        1.0080           0   0.00000   0.00000
     49869 MEOH     3282     MEOH     H1B      HDA3B    0.080000        1.0080           0   0.00000   0.00000
     49870 MEOH     3282     MEOH     H1C      HDA3B    0.080000        1.0080           0   0.00000   0.00000
     49871 MEOH     3282     MEOH     LP1A     LPD     -0.230000        0.0000           -1   0.00000   0.00000
     49872 MEOH     3282     MEOH     LP1B     LPD     -0.230000        0.0000           -1   0.00000   0.00000
     49873 MEOH     3283     MEOH     C1       CD33B    2.314100       11.6110           0   -1.00000   1.30000
     49874 MEOH     3283     MEOH     DC1      DRUD    -2.454100        0.4000           0   0.00000   0.00000
     49875 MEOH     3283     MEOH     O1       OD31H    2.488300       15.5990           0   -1.02800   1.30000
     49876 MEOH     3283     MEOH     DO1      DRUD    -2.488300        0.4000           0   0.00000   0.00000
     49877 MEOH     3283     MEOH     HO1      HDP1A    0.360000        1.0080           0   0.00000   0.00000
     49878 MEOH     3283     MEOH     HO2      DUMH     0.000000        1.0080           0   0.00000   0.00000
     49879 MEOH     3283     MEOH     H1A      HDA3B    0.080000        1.0080           0   0.00000   0.00000
     49880 MEOH     3283     MEOH     H1B      HDA3B    0.080000        1.0080           0   0.00000   0.00000
     49881 MEOH     3283     MEOH     H1C      HDA3B    0.080000        1.0080           0   0.00000   0.00000
     49882 MEOH     3283     MEOH     LP1A     LPD     -0.230000        0.0000           -1   0.00000   0.00000
     49883 MEOH     3283     MEOH     LP1B     LPD     -0.230000        0.0000           -1   0.00000   0.00000
     49884 MEOH     3284     MEOH     C1       CD33B    2.314100       11.6110           0   -1.00000   1.30000
     49885 MEOH     3284     MEOH     DC1      DRUD    -2.454100        0.4000           0   0.00000   0.00000
     49886 MEOH     3284     MEOH     O1       OD31H    2.488300       15.5990           0   -1.02800   1.30000
     49887 MEOH     3284     MEOH     DO1      DRUD    -2.488300        0.4000           0   0.00000   0.00000
     49888 MEOH     3284     MEOH     HO1      HDP1A    0.360000        1.0080           0   0.00000   0.00000
     49889 MEOH     3284     MEOH     HO2      DUMH     0.000000        1.0080           0   0.00000   0.00000
     49890 MEOH     3284     MEOH     H1A      HDA3B    0.080000        1.0080           0   0.00000   0.00000
     49891 MEOH     3284     MEOH     H1B      HDA3B    0.080000        1.0080           0   0.00000   0.00000
     49892 MEOH     3284     MEOH     H1C      HDA3B    0.080000        1.0080           0   0.00000   0.00000
     49893 MEOH     3284     MEOH     LP1A     LPD     -0.230000        0.0000           -1   0.00000   0.00000
     49894 MEOH     3284     MEOH     LP1B     LPD     -0.230000        0.0000           -1   0.00000   0.00000
     49895 MEOH     3285     MEOH     C1       CD33B    2.314100       11.6110           0   -1.00000   1.30000
     49896 MEOH     3285     MEOH     DC1      DRUD    -2.454100        0.4000           0   0.00000   0.00000
     49897 MEOH     3285     MEOH     O1       OD31H    2.488300       15.5990           0   -1.02800   1.30000
     49898 MEOH     3285     MEOH     DO1      DRUD    -2.488300        0.4000           0   0.00000   0.00000
     49899 MEOH     3285     MEOH     HO1      HDP1A    0.360000        1.0080           0   0.00000   0.00000
     49900 MEOH     3285     MEOH     HO2      DUMH     0.000000        1.0080           0   0.00000   0.00000
     49901 MEOH     3285     MEOH     H1A      HDA3B    0.080000        1.0080           0   0.00000   0.00000
     49902 MEOH     3285     MEOH     H1B      HDA3B    0.080000        1.0080           0   0.00000   0.00000
     49903 MEOH     3285     MEOH     H1C      HDA3B    0.080000        1.0080           0   0.00000   0.00000
     49904 MEOH     3285     MEOH     LP1A     LPD     -0.230000        0.0000           -1   0.00000   0.00000
     49905 MEOH     3285     MEOH     LP1B     LPD     -0.230000        0.0000           -1   0.00000   0.00000
     49906 MEOH     3286     MEOH     C1       CD33B    2.314100       11.6110           0   -1.00000   1.30000
     49907 MEOH     3286     MEOH     DC1      DRUD    -2.454100        0.4000           0   0.00000   0.00000
     49908 MEOH     3286     MEOH     O1       OD31H    2.488300       15.5990           0   -1.02800   1.30000
     49909 MEOH     3286     MEOH     DO1      DRUD    -2.488300        0.4000           0   0.00000   0.00000
     49910 MEOH     3286     MEOH     HO1      HDP1A    0.360000        1.0080           0   0.00000   0.00000
     49911 MEOH     3286     MEOH     HO2      DUMH     0.000000        1.0080           0   0.00000   0.00000
     49912 MEOH     3286     MEOH     H1A      HDA3B    0.080000        1.0080           0   0.00000   0.00000
     49913 MEOH     3286     MEOH     H1B      HDA3B    0.080000        1.0080           0   0.00000   0.00000
     49914 MEOH     3286     MEOH     H1C      HDA3B    0.080000        1.0080           0   0.00000   0.00000
     49915 MEOH     3286     MEOH     LP1A     LPD     -0.230000        0.0000           -1   0.00000   0.00000
     49916 MEOH     3286     MEOH     LP1B     LPD     -0.230000        0.0000           -1   0.00000   0.00000
     49917 MEOH     3287     MEOH     C1       CD33B    2.314100       11.6110           0   -1.00000   1.30000
     49918 MEOH     3287     MEOH     DC1      DRUD    -2.454100        0.4000           0   0.00000   0.00000
     49919 MEOH     3287     MEOH     O1       OD31H    2.488300       15.5990           0   -1.02800   1.30000
     49920 MEOH     3287     MEOH     DO1      DRUD    -2.488300        0.4000           0   0.00000   0.00000
     49921 MEOH     3287     MEOH     HO1      HDP1A    0.360000        1.0080           0   0.00000   0.00000
     49922 MEOH     3287     MEOH     HO2      DUMH     0.000000        1.0080           0   0.00000   0.00000
     49923 MEOH     3287     MEOH     H1A      HDA3B    0.080000        1.0080           0   0.00000   0.00000
     49924 MEOH     3287     MEOH     H1B      HDA3B    0.080000        1.0080           0   0.00000   0.00000
     49925 MEOH     3287     MEOH     H1C      HDA3B    0.080000        1.0080           0   0.00000   0.00000
     49926 MEOH     3287     MEOH     LP1A     LPD     -0.230000        0.0000           -1   0.00000   0.00000
     49927 MEOH     3287     MEOH     LP1B     LPD     -0.230000        0.0000           -1   0.00000   0.00000
     49928 MEOH     3288     MEOH     C1       CD33B    2.314100       11.6110           0   -1.00000   1.30000
     49929 MEOH     3288     MEOH     DC1      DRUD    -2.454100        0.4000           0   0.00000   0.00000
     49930 MEOH     3288     MEOH     O1       OD31H    2.488300       15.5990           0   -1.02800   1.30000
     49931 MEOH     3288     MEOH     DO1      DRUD    -2.488300        0.4000           0   0.00000   0.00000
     49932 MEOH     3288     MEOH     HO1      HDP1A    0.360000        1.0080           0   0.00000   0.00000
     49933 MEOH     3288     MEOH     HO2      DUMH     0.000000        1.0080           0   0.00000   0.00000
     49934 MEOH     3288     MEOH     H1A      HDA3B    0.080000        1.0080           0   0.00000   0.00000
     49935 MEOH     3288     MEOH     H1B      HDA3B    0.080000        1.0080           0   0.00000   0.00000
     49936 MEOH     3288     MEOH     H1C      HDA3B    0.080000        1.0080           0   0.00000   0.00000
     49937 MEOH     3288     MEOH     LP1A     LPD     -0.230000        0.0000           -1   0.00000   0.00000
     49938 MEOH     3288     MEOH     LP1B     LPD     -0.230000        0.0000           -1   0.00000   0.00000
     49939 MEOH     3289     MEOH     C1       CD33B    2.314100       11.6110           0   -1.00000   1.30000
     49940 MEOH     3289     MEOH     DC1      DRUD    -2.454100        0.4000           0   0.00000   0.00000
     49941 MEOH     3289     MEOH     O1       OD31H    2.488300       15.5990           0   -1.02800   1.30000
     49942 MEOH     3289     MEOH     DO1      DRUD    -2.488300        0.4000           0   0.00000   0.00000
     49943 MEOH     3289     MEOH     HO1      HDP1A    0.360000        1.0080           0   0.00000   0.00000
     49944 MEOH     3289     MEOH     HO2      DUMH     0.000000        1.0080           0   0.00000   0.00000
     49945 MEOH     3289     MEOH     H1A      HDA3B    0.080000        1.0080           0   0.00000   0.00000
     49946 MEOH     3289     MEOH     H1B      HDA3B    0.080000        1.0080           0   0.00000   0.00000
     49947 MEOH     3289     MEOH     H1C      HDA3B    0.080000        1.0080           0   0.00000   0.00000
     49948 MEOH     3289     MEOH     LP1A     LPD     -0.230000        0.0000           -1   0.00000   0.00000
     49949 MEOH     3289     MEOH     LP1B     LPD     -0.230000        0.0000           -1   0.00000   0.00000
     49950 MEOH     3290     MEOH     C1       CD33B    2.314100       11.6110           0   -1.00000   1.30000
     49951 MEOH     3290     MEOH     DC1      DRUD    -2.454100        0.4000           0   0.00000   0.00000
     49952 MEOH     3290     MEOH     O1       OD31H    2.488300       15.5990           0   -1.02800   1.30000
     49953 MEOH     3290     MEOH     DO1      DRUD    -2.488300        0.4000           0   0.00000   0.00000
     49954 MEOH     3290     MEOH     HO1      HDP1A    0.360000        1.0080           0   0.00000   0.00000
     49955 MEOH     3290     MEOH     HO2      DUMH     0.000000        1.0080           0   0.00000   0.00000
     49956 MEOH     3290     MEOH     H1A      HDA3B    0.080000        1.0080           0   0.00000   0.00000
     49957 MEOH     3290     MEOH     H1B      HDA3B    0.080000        1.0080           0   0.00000   0.00000
     49958 MEOH     3290     MEOH     H1C      HDA3B    0.080000        1.0080           0   0.00000   0.00000
     49959 MEOH     3290     MEOH     LP1A     LPD     -0.230000        0.0000           -1   0.00000   0.00000
     49960 MEOH     3290     MEOH     LP1B     LPD     -0.230000        0.0000           -1   0.00000   0.00000
     49961 MEOH     3291     MEOH     C1       CD33B    2.314100       11.6110           0   -1.00000   1.30000
     49962 MEOH     3291     MEOH     DC1      DRUD    -2.454100        0.4000           0   0.00000   0.00000
     49963 MEOH     3291     MEOH     O1       OD31H    2.488300       15.5990           0   -1.02800   1.30000
     49964 MEOH     3291     MEOH     DO1      DRUD    -2.488300        0.4000           0   0.00000   0.00000
     49965 MEOH     3291     MEOH     HO1      HDP1A    0.360000        1.0080           0   0.00000   0.00000
     49966 MEOH     3291     MEOH     HO2      DUMH     0.000000        1.0080           0   0.00000   0.00000
     49967 MEOH     3291     MEOH     H1A      HDA3B    0.080000        1.0080           0   0.00000   0.00000
     49968 MEOH     3291     MEOH     H1B      HDA3B    0.080000        1.0080           0   0.00000   0.00000
     49969 MEOH     3291     MEOH     H1C      HDA3B    0.080000        1.0080           0   0.00000   0.00000
     49970 MEOH     3291     MEOH     LP1A     LPD     -0.230000        0.0000           -1   0.00000   0.00000
     49971 MEOH     3291     MEOH     LP1B     LPD     -0.230000        0.0000           -1   0.00000   0.00000
     49972 MEOH     3292     MEOH     C1       CD33B    2.314100       11.6110           0   -1.00000   1.30000
     49973 MEOH     3292     MEOH     DC1      DRUD    -2.454100        0.4000           0   0.00000   0.00000
     49974 MEOH     3292     MEOH     O1       OD31H    2.488300       15.5990           0   -1.02800   1.30000
     49975 MEOH     3292     MEOH     DO1      DRUD    -2.488300        0.4000           0   0.00000   0.00000
     49976 MEOH     3292     MEOH     HO1      HDP1A    0.360000        1.0080           0   0.00000   0.00000
     49977 MEOH     3292     MEOH     HO2      DUMH     0.000000        1.0080           0   0.00000   0.00000
     49978 MEOH     3292     MEOH     H1A      HDA3B    0.080000        1.0080           0   0.00000   0.00000
     49979 MEOH     3292     MEOH     H1B      HDA3B    0.080000        1.0080           0   0.00000   0.00000
     49980 MEOH     3292     MEOH     H1C      HDA3B    0.080000        1.0080           0   0.00000   0.00000
     49981 MEOH     3292     MEOH     LP1A     LPD     -0.230000        0.0000           -1   0.00000   0.00000
     49982 MEOH     3292     MEOH     LP1B     LPD     -0.230000        0.0000           -1   0.00000   0.00000
     49983 MEOH     3293     MEOH     C1       CD33B    2.314100       11.6110           0   -1.00000   1.30000
     49984 MEOH     3293     MEOH     DC1      DRUD    -2.454100        0.4000           0   0.00000   0.00000
     49985 MEOH     3293     MEOH     O1       OD31H    2.488300       15.5990           0   -1.02800   1.30000
     49986 MEOH     3293     MEOH     DO1      DRUD    -2.488300        0.4000           0   0.00000   0.00000
     49987 MEOH     3293     MEOH     HO1      HDP1A    0.360000        1.0080           0   0.00000   0.00000
     49988 MEOH     3293     MEOH     HO2      DUMH     0.000000        1.0080           0   0.00000   0.00000
     49989 MEOH     3293     MEOH     H1A      HDA3B    0.080000        1.0080           0   0.00000   0.00000
     49990 MEOH     3293     MEOH     H1B      HDA3B    0.080000        1.0080           0   0.00000   0.00000
     49991 MEOH     3293     MEOH     H1C      HDA3B    0.080000        1.0080           0   0.00000   0.00000
     49992 MEOH     3293     MEOH     LP1A     LPD     -0.230000        0.0000           -1   0.00000   0.00000
     49993 MEOH     3293     MEOH     LP1B     LPD     -0.230000        0.0000           -1   0.00000   0.00000
     49994 MEOH     3294     MEOH     C1       CD33B    2.314100       11.6110           0   -1.00000   1.30000
     49995 MEOH     3294     MEOH     DC1      DRUD    -2.454100        0.4000           0   0.00000   0.00000
     49996 MEOH     3294     MEOH     O1       OD31H    2.488300       15.5990           0   -1.02800   1.30000
     49997 MEOH     3294     MEOH     DO1      DRUD    -2.488300        0.4000           0   0.00000   0.00000
     49998 MEOH     3294     MEOH     HO1      HDP1A    0.360000        1.0080           0   0.00000   0.00000
     49999 MEOH     3294     MEOH     HO2      DUMH     0.000000        1.0080           0   0.00000   0.00000
     50000 MEOH     3294     MEOH     H1A      HDA3B    0.080000        1.0080           0   0.00000   0.00000
     50001 MEOH     3294     MEOH     H1B      HDA3B    0.080000        1.0080           0   0.00000   0.00000
     50002 MEOH     3294     MEOH     H1C      HDA3B    0.080000        1.0080           0   0.00000   0.00000
     50003 MEOH     3294     MEOH     LP1A     LPD     -0.230000        0.0000           -1   0.00000   0.00000
     50004 MEOH     3294     MEOH     LP1B     LPD     -0.230000        0.0000           -1   0.00000   0.00000
     50005 MEOH     3295     MEOH     C1       CD33B    2.314100       11.6110           0   -1.00000   1.30000
     50006 MEOH     3295     MEOH     DC1      DRUD    -2.454100        0.4000           0   0.00000   0.00000
     50007 MEOH     3295     MEOH     O1       OD31H    2.488300       15.5990           0   -1.02800   1.30000
     50008 MEOH     3295     MEOH     DO1      DRUD    -2.488300        0.4000           0   0.00000   0.00000
     50009 MEOH     3295     MEOH     HO1      HDP1A    0.360000        1.0080           0   0.00000   0.00000
     50010 MEOH     3295     MEOH     HO2      DUMH     0.000000        1.0080           0   0.00000   0.00000
     50011 MEOH     3295     MEOH     H1A      HDA3B    0.080000        1.0080           0   0.00000   0.00000
     50012 MEOH     3295     MEOH     H1B      HDA3B    0.080000        1.0080           0   0.00000   0.00000
     50013 MEOH     3295     MEOH     H1C      HDA3B    0.080000        1.0080           0   0.00000   0.00000
     50014 MEOH     3295     MEOH     LP1A     LPD     -0.230000        0.0000           -1   0.00000   0.00000
     50015 MEOH     3295     MEOH     LP1B     LPD     -0.230000        0.0000           -1   0.00000   0.00000
     50016 MEOH     3296     MEOH     C1       CD33B    2.314100       11.6110           0   -1.00000   1.30000
     50017 MEOH     3296     MEOH     DC1      DRUD    -2.454100        0.4000           0   0.00000   0.00000
     50018 MEOH     3296     MEOH     O1       OD31H    2.488300       15.5990           0   -1.02800   1.30000
     50019 MEOH     3296     MEOH     DO1      DRUD    -2.488300        0.4000           0   0.00000   0.00000
     50020 MEOH     3296     MEOH     HO1      HDP1A    0.360000        1.0080           0   0.00000   0.00000
     50021 MEOH     3296     MEOH     HO2      DUMH     0.000000        1.0080           0   0.00000   0.00000
     50022 MEOH     3296     MEOH     H1A      HDA3B    0.080000        1.0080           0   0.00000   0.00000
     50023 MEOH     3296     MEOH     H1B      HDA3B    0.080000        1.0080           0   0.00000   0.00000
     50024 MEOH     3296     MEOH     H1C      HDA3B    0.080000        1.0080           0   0.00000   0.00000
     50025 MEOH     3296     MEOH     LP1A     LPD     -0.230000        0.0000           -1   0.00000   0.00000
     50026 MEOH     3296     MEOH     LP1B     LPD     -0.230000        0.0000           -1   0.00000   0.00000
     50027 MEOH     3297     MEOH     C1       CD33B    2.314100       11.6110           0   -1.00000   1.30000
     50028 MEOH     3297     MEOH     DC1      DRUD    -2.454100        0.4000           0   0.00000   0.00000
     50029 MEOH     3297     MEOH     O1       OD31H    2.488300       15.5990           0   -1.02800   1.30000
     50030 MEOH     3297     MEOH     DO1      DRUD    -2.488300        0.4000           0   0.00000   0.00000
     50031 MEOH     3297     MEOH     HO1      HDP1A    0.360000        1.0080           0   0.00000   0.00000
     50032 MEOH     3297     MEOH     HO2      DUMH     0.000000        1.0080           0   0.00000   0.00000
     50033 MEOH     3297     MEOH     H1A      HDA3B    0.080000        1.0080           0   0.00000   0.00000
     50034 MEOH     3297     MEOH     H1B      HDA3B    0.080000        1.0080           0   0.00000   0.00000
     50035 MEOH     3297     MEOH     H1C      HDA3B    0.080000        1.0080           0   0.00000   0.00000
     50036 MEOH     3297     MEOH     LP1A     LPD     -0.230000        0.0000           -1   0.00000   0.00000
     50037 MEOH     3297     MEOH     LP1B     LPD     -0.230000        0.0000           -1   0.00000   0.00000
     50038 MEOH     3298     MEOH     C1       CD33B    2.314100       11.6110           0   -1.00000   1.30000
     50039 MEOH     3298     MEOH     DC1      DRUD    -2.454100        0.4000           0   0.00000   0.00000
     50040 MEOH     3298     MEOH     O1       OD31H    2.488300       15.5990           0   -1.02800   1.30000
     50041 MEOH     3298     MEOH     DO1      DRUD    -2.488300        0.4000           0   0.00000   0.00000
     50042 MEOH     3298     MEOH     HO1      HDP1A    0.360000        1.0080           0   0.00000   0.00000
     50043 MEOH     3298     MEOH     HO2      DUMH     0.000000        1.0080           0   0.00000   0.00000
     50044 MEOH     3298     MEOH     H1A      HDA3B    0.080000        1.0080           0   0.00000   0.00000
     50045 MEOH     3298     MEOH     H1B      HDA3B    0.080000        1.0080           0   0.00000   0.00000
     50046 MEOH     3298     MEOH     H1C      HDA3B    0.080000        1.0080           0   0.00000   0.00000
     50047 MEOH     3298     MEOH     LP1A     LPD     -0.230000        0.0000           -1   0.00000   0.00000
     50048 MEOH     3298     MEOH     LP1B     LPD     -0.230000        0.0000           -1   0.00000   0.00000
     50049 MEOH     3299     MEOH     C1       CD33B    2.314100       11.6110           0   -1.00000   1.30000
     50050 MEOH     3299     MEOH     DC1      DRUD    -2.454100        0.4000           0   0.00000   0.00000
     50051 MEOH     3299     MEOH     O1       OD31H    2.488300       15.5990           0   -1.02800   1.30000
     50052 MEOH     3299     MEOH     DO1      DRUD    -2.488300        0.4000           0   0.00000   0.00000
     50053 MEOH     3299     MEOH     HO1      HDP1A    0.360000        1.0080           0   0.00000   0.00000
     50054 MEOH     3299     MEOH     HO2      DUMH     0.000000        1.0080           0   0.00000   0.00000
     50055 MEOH     3299     MEOH     H1A      HDA3B    0.080000        1.0080           0   0.00000   0.00000
     50056 MEOH     3299     MEOH     H1B      HDA3B    0.080000        1.0080           0   0.00000   0.00000
     50057 MEOH     3299     MEOH     H1C      HDA3B    0.080000        1.0080           0   0.00000   0.00000
     50058 MEOH     3299     MEOH     LP1A     LPD     -0.230000        0.0000           -1   0.00000   0.00000
     50059 MEOH     3299     MEOH     LP1B     LPD     -0.230000        0.0000           -1   0.00000   0.00000
     50060 MEOH     3300     MEOH     C1       CD33B    2.314100       11.6110           0   -1.00000   1.30000
     50061 MEOH     3300     MEOH     DC1      DRUD    -2.454100        0.4000           0   0.00000   0.00000
     50062 MEOH     3300     MEOH     O1       OD31H    2.488300       15.5990           0   -1.02800   1.30000
     50063 MEOH     3300     MEOH     DO1      DRUD    -2.488300        0.4000           0   0.00000   0.00000
     50064 MEOH     3300     MEOH     HO1      HDP1A    0.360000        1.0080           0   0.00000   0.00000
     50065 MEOH     3300     MEOH     HO2      DUMH     0.000000        1.0080           0   0.00000   0.00000
     50066 MEOH     3300     MEOH     H1A      HDA3B    0.080000        1.0080           0   0.00000   0.00000
     50067 MEOH     3300     MEOH     H1B      HDA3B    0.080000        1.0080           0   0.00000   0.00000
     50068 MEOH     3300     MEOH     H1C      HDA3B    0.080000        1.0080           0   0.00000   0.00000
     50069 MEOH     3300     MEOH     LP1A     LPD     -0.230000        0.0000           -1   0.00000   0.00000
     50070 MEOH     3300     MEOH     LP1B     LPD     -0.230000        0.0000           -1   0.00000   0.00000
     50071 MEOH     3301     MEOH     C1       CD33B    2.314100       11.6110           0   -1.00000   1.30000
     50072 MEOH     3301     MEOH     DC1      DRUD    -2.454100        0.4000           0   0.00000   0.00000
     50073 MEOH     3301     MEOH     O1       OD31H    2.488300       15.5990           0   -1.02800   1.30000
     50074 MEOH     3301     MEOH     DO1      DRUD    -2.488300        0.4000           0   0.00000   0.00000
     50075 MEOH     3301     MEOH     HO1      HDP1A    0.360000        1.0080           0   0.00000   0.00000
     50076 MEOH     3301     MEOH     HO2      DUMH     0.000000        1.0080           0   0.00000   0.00000
     50077 MEOH     3301     MEOH     H1A      HDA3B    0.080000        1.0080           0   0.00000   0.00000
     50078 MEOH     3301     MEOH     H1B      HDA3B    0.080000        1.0080           0   0.00000   0.00000
     50079 MEOH     3301     MEOH     H1C      HDA3B    0.080000        1.0080           0   0.00000   0.00000
     50080 MEOH     3301     MEOH     LP1A     LPD     -0.230000        0.0000           -1   0.00000   0.00000
     50081 MEOH     3301     MEOH     LP1B     LPD     -0.230000        0.0000           -1   0.00000   0.00000
     50082 MEOH     3302     MEOH     C1       CD33B    2.314100       11.6110           0   -1.00000   1.30000
     50083 MEOH     3302     MEOH     DC1      DRUD    -2.454100        0.4000           0   0.00000   0.00000
     50084 MEOH     3302     MEOH     O1       OD31H    2.488300       15.5990           0   -1.02800   1.30000
     50085 MEOH     3302     MEOH     DO1      DRUD    -2.488300        0.4000           0   0.00000   0.00000
     50086 MEOH     3302     MEOH     HO1      HDP1A    0.360000        1.0080           0   0.00000   0.00000
     50087 MEOH     3302     MEOH     HO2      DUMH     0.000000        1.0080           0   0.00000   0.00000
     50088 MEOH     3302     MEOH     H1A      HDA3B    0.080000        1.0080           0   0.00000   0.00000
     50089 MEOH     3302     MEOH     H1B      HDA3B    0.080000        1.0080           0   0.00000   0.00000
     50090 MEOH     3302     MEOH     H1C      HDA3B    0.080000        1.0080           0   0.00000   0.00000
     50091 MEOH     3302     MEOH     LP1A     LPD     -0.230000        0.0000           -1   0.00000   0.00000
     50092 MEOH     3302     MEOH     LP1B     LPD     -0.230000        0.0000           -1   0.00000   0.00000
     50093 MEOH     3303     MEOH     C1       CD33B    2.314100       11.6110           0   -1.00000   1.30000
     50094 MEOH     3303     MEOH     DC1      DRUD    -2.454100        0.4000           0   0.00000   0.00000
     50095 MEOH     3303     MEOH     O1       OD31H    2.488300       15.5990           0   -1.02800   1.30000
     50096 MEOH     3303     MEOH     DO1      DRUD    -2.488300        0.4000           0   0.00000   0.00000
     50097 MEOH     3303     MEOH     HO1      HDP1A    0.360000        1.0080           0   0.00000   0.00000
     50098 MEOH     3303     MEOH     HO2      DUMH     0.000000        1.0080           0   0.00000   0.00000
     50099 MEOH     3303     MEOH     H1A      HDA3B    0.080000        1.0080           0   0.00000   0.00000
     50100 MEOH     3303     MEOH     H1B      HDA3B    0.080000        1.0080           0   0.00000   0.00000
     50101 MEOH     3303     MEOH     H1C      HDA3B    0.080000        1.0080           0   0.00000   0.00000
     50102 MEOH     3303     MEOH     LP1A     LPD     -0.230000        0.0000           -1   0.00000   0.00000
     50103 MEOH     3303     MEOH     LP1B     LPD     -0.230000        0.0000           -1   0.00000   0.00000
     50104 MEOH     3304     MEOH     C1       CD33B    2.314100       11.6110           0   -1.00000   1.30000
     50105 MEOH     3304     MEOH     DC1      DRUD    -2.454100        0.4000           0   0.00000   0.00000
     50106 MEOH     3304     MEOH     O1       OD31H    2.488300       15.5990           0   -1.02800   1.30000
     50107 MEOH     3304     MEOH     DO1      DRUD    -2.488300        0.4000           0   0.00000   0.00000
     50108 MEOH     3304     MEOH     HO1      HDP1A    0.360000        1.0080           0   0.00000   0.00000
     50109 MEOH     3304     MEOH     HO2      DUMH     0.000000        1.0080           0   0.00000   0.00000
     50110 MEOH     3304     MEOH     H1A      HDA3B    0.080000        1.0080           0   0.00000   0.00000
     50111 MEOH     3304     MEOH     H1B      HDA3B    0.080000        1.0080           0   0.00000   0.00000
     50112 MEOH     3304     MEOH     H1C      HDA3B    0.080000        1.0080           0   0.00000   0.00000
     50113 MEOH     3304     MEOH     LP1A     LPD     -0.230000        0.0000           -1   0.00000   0.00000
     50114 MEOH     3304     MEOH     LP1B     LPD     -0.230000        0.0000           -1   0.00000   0.00000
     50115 MEOH     3305     MEOH     C1       CD33B    2.314100       11.6110           0   -1.00000   1.30000
     50116 MEOH     3305     MEOH     DC1      DRUD    -2.454100        0.4000           0   0.00000   0.00000
     50117 MEOH     3305     MEOH     O1       OD31H    2.488300       15.5990           0   -1.02800   1.30000
     50118 MEOH     3305     MEOH     DO1      DRUD    -2.488300        0.4000           0   0.00000   0.00000
     50119 MEOH     3305     MEOH     HO1      HDP1A    0.360000        1.0080           0   0.00000   0.00000
     50120 MEOH     3305     MEOH     HO2      DUMH     0.000000        1.0080           0   0.00000   0.00000
     50121 MEOH     3305     MEOH     H1A      HDA3B    0.080000        1.0080           0   0.00000   0.00000
     50122 MEOH     3305     MEOH     H1B      HDA3B    0.080000        1.0080           0   0.00000   0.00000
     50123 MEOH     3305     MEOH     H1C      HDA3B    0.080000        1.0080           0   0.00000   0.00000
     50124 MEOH     3305     MEOH     LP1A     LPD     -0.230000        0.0000           -1   0.00000   0.00000
     50125 MEOH     3305     MEOH     LP1B     LPD     -0.230000        0.0000           -1   0.00000   0.00000
     50126 MEOH     3306     MEOH     C1       CD33B    2.314100       11.6110           0   -1.00000   1.30000
     50127 MEOH     3306     MEOH     DC1      DRUD    -2.454100        0.4000           0   0.00000   0.00000
     50128 MEOH     3306     MEOH     O1       OD31H    2.488300       15.5990           0   -1.02800   1.30000
     50129 MEOH     3306     MEOH     DO1      DRUD    -2.488300        0.4000           0   0.00000   0.00000
     50130 MEOH     3306     MEOH     HO1      HDP1A    0.360000        1.0080           0   0.00000   0.00000
     50131 MEOH     3306     MEOH     HO2      DUMH     0.000000        1.0080           0   0.00000   0.00000
     50132 MEOH     3306     MEOH     H1A      HDA3B    0.080000        1.0080           0   0.00000   0.00000
     50133 MEOH     3306     MEOH     H1B      HDA3B    0.080000        1.0080           0   0.00000   0.00000
     50134 MEOH     3306     MEOH     H1C      HDA3B    0.080000        1.0080           0   0.00000   0.00000
     50135 MEOH     3306     MEOH     LP1A     LPD     -0.230000        0.0000           -1   0.00000   0.00000
     50136 MEOH     3306     MEOH     LP1B     LPD     -0.230000        0.0000           -1   0.00000   0.00000
     50137 MEOH     3307     MEOH     C1       CD33B    2.314100       11.6110           0   -1.00000   1.30000
     50138 MEOH     3307     MEOH     DC1      DRUD    -2.454100        0.4000           0   0.00000   0.00000
     50139 MEOH     3307     MEOH     O1       OD31H    2.488300       15.5990           0   -1.02800   1.30000
     50140 MEOH     3307     MEOH     DO1      DRUD    -2.488300        0.4000           0   0.00000   0.00000
     50141 MEOH     3307     MEOH     HO1      HDP1A    0.360000        1.0080           0   0.00000   0.00000
     50142 MEOH     3307     MEOH     HO2      DUMH     0.000000        1.0080           0   0.00000   0.00000
     50143 MEOH     3307     MEOH     H1A      HDA3B    0.080000        1.0080           0   0.00000   0.00000
     50144 MEOH     3307     MEOH     H1B      HDA3B    0.080000        1.0080           0   0.00000   0.00000
     50145 MEOH     3307     MEOH     H1C      HDA3B    0.080000        1.0080           0   0.00000   0.00000
     50146 MEOH     3307     MEOH     LP1A     LPD     -0.230000        0.0000           -1   0.00000   0.00000
     50147 MEOH     3307     MEOH     LP1B     LPD     -0.230000        0.0000           -1   0.00000   0.00000
     50148 MEOH     3308     MEOH     C1       CD33B    2.314100       11.6110           0   -1.00000   1.30000
     50149 MEOH     3308     MEOH     DC1      DRUD    -2.454100        0.4000           0   0.00000   0.00000
     50150 MEOH     3308     MEOH     O1       OD31H    2.488300       15.5990           0   -1.02800   1.30000
     50151 MEOH     3308     MEOH     DO1      DRUD    -2.488300        0.4000           0   0.00000   0.00000
     50152 MEOH     3308     MEOH     HO1      HDP1A    0.360000        1.0080           0   0.00000   0.00000
     50153 MEOH     3308     MEOH     HO2      DUMH     0.000000        1.0080           0   0.00000   0.00000
     50154 MEOH     3308     MEOH     H1A      HDA3B    0.080000        1.0080           0   0.00000   0.00000
     50155 MEOH     3308     MEOH     H1B      HDA3B    0.080000        1.0080           0   0.00000   0.00000
     50156 MEOH     3308     MEOH     H1C      HDA3B    0.080000        1.0080           0   0.00000   0.00000
     50157 MEOH     3308     MEOH     LP1A     LPD     -0.230000        0.0000           -1   0.00000   0.00000
     50158 MEOH     3308     MEOH     LP1B     LPD     -0.230000        0.0000           -1   0.00000   0.00000
     50159 MEOH     3309     MEOH     C1       CD33B    2.314100       11.6110           0   -1.00000   1.30000
     50160 MEOH     3309     MEOH     DC1      DRUD    -2.454100        0.4000           0   0.00000   0.00000
     50161 MEOH     3309     MEOH     O1       OD31H    2.488300       15.5990           0   -1.02800   1.30000
     50162 MEOH     3309     MEOH     DO1      DRUD    -2.488300        0.4000           0   0.00000   0.00000
     50163 MEOH     3309     MEOH     HO1      HDP1A    0.360000        1.0080           0   0.00000   0.00000
     50164 MEOH     3309     MEOH     HO2      DUMH     0.000000        1.0080           0   0.00000   0.00000
     50165 MEOH     3309     MEOH     H1A      HDA3B    0.080000        1.0080           0   0.00000   0.00000
     50166 MEOH     3309     MEOH     H1B      HDA3B    0.080000        1.0080           0   0.00000   0.00000
     50167 MEOH     3309     MEOH     H1C      HDA3B    0.080000        1.0080           0   0.00000   0.00000
     50168 MEOH     3309     MEOH     LP1A     LPD     -0.230000        0.0000           -1   0.00000   0.00000
     50169 MEOH     3309     MEOH     LP1B     LPD     -0.230000        0.0000           -1   0.00000   0.00000
     50170 MEOH     3310     MEOH     C1       CD33B    2.314100       11.6110           0   -1.00000   1.30000
     50171 MEOH     3310     MEOH     DC1      DRUD    -2.454100        0.4000           0   0.00000   0.00000
     50172 MEOH     3310     MEOH     O1       OD31H    2.488300       15.5990           0   -1.02800   1.30000
     50173 MEOH     3310     MEOH     DO1      DRUD    -2.488300        0.4000           0   0.00000   0.00000
     50174 MEOH     3310     MEOH     HO1      HDP1A    0.360000        1.0080           0   0.00000   0.00000
     50175 MEOH     3310     MEOH     HO2      DUMH     0.000000        1.0080           0   0.00000   0.00000
     50176 MEOH     3310     MEOH     H1A      HDA3B    0.080000        1.0080           0   0.00000   0.00000
     50177 MEOH     3310     MEOH     H1B      HDA3B    0.080000        1.0080           0   0.00000   0.00000
     50178 MEOH     3310     MEOH     H1C      HDA3B    0.080000        1.0080           0   0.00000   0.00000
     50179 MEOH     3310     MEOH     LP1A     LPD     -0.230000        0.0000           -1   0.00000   0.00000
     50180 MEOH     3310     MEOH     LP1B     LPD     -0.230000        0.0000           -1   0.00000   0.00000
     50181 MEOH     3311     MEOH     C1       CD33B    2.314100       11.6110           0   -1.00000   1.30000
     50182 MEOH     3311     MEOH     DC1      DRUD    -2.454100        0.4000           0   0.00000   0.00000
     50183 MEOH     3311     MEOH     O1       OD31H    2.488300       15.5990           0   -1.02800   1.30000
     50184 MEOH     3311     MEOH     DO1      DRUD    -2.488300        0.4000           0   0.00000   0.00000
     50185 MEOH     3311     MEOH     HO1      HDP1A    0.360000        1.0080           0   0.00000   0.00000
     50186 MEOH     3311     MEOH     HO2      DUMH     0.000000        1.0080           0   0.00000   0.00000
     50187 MEOH     3311     MEOH     H1A      HDA3B    0.080000        1.0080           0   0.00000   0.00000
     50188 MEOH     3311     MEOH     H1B      HDA3B    0.080000        1.0080           0   0.00000   0.00000
     50189 MEOH     3311     MEOH     H1C      HDA3B    0.080000        1.0080           0   0.00000   0.00000
     50190 MEOH     3311     MEOH     LP1A     LPD     -0.230000        0.0000           -1   0.00000   0.00000
     50191 MEOH     3311     MEOH     LP1B     LPD     -0.230000        0.0000           -1   0.00000   0.00000
     50192 MEOH     3312     MEOH     C1       CD33B    2.314100       11.6110           0   -1.00000   1.30000
     50193 MEOH     3312     MEOH     DC1      DRUD    -2.454100        0.4000           0   0.00000   0.00000
     50194 MEOH     3312     MEOH     O1       OD31H    2.488300       15.5990           0   -1.02800   1.30000
     50195 MEOH     3312     MEOH     DO1      DRUD    -2.488300        0.4000           0   0.00000   0.00000
     50196 MEOH     3312     MEOH     HO1      HDP1A    0.360000        1.0080           0   0.00000   0.00000
     50197 MEOH     3312     MEOH     HO2      DUMH     0.000000        1.0080           0   0.00000   0.00000
     50198 MEOH     3312     MEOH     H1A      HDA3B    0.080000        1.0080           0   0.00000   0.00000
     50199 MEOH     3312     MEOH     H1B      HDA3B    0.080000        1.0080           0   0.00000   0.00000
     50200 MEOH     3312     MEOH     H1C      HDA3B    0.080000        1.0080           0   0.00000   0.00000
     50201 MEOH     3312     MEOH     LP1A     LPD     -0.230000        0.0000           -1   0.00000   0.00000
     50202 MEOH     3312     MEOH     LP1B     LPD     -0.230000        0.0000           -1   0.00000   0.00000
     50203 MEOH     3313     MEOH     C1       CD33B    2.314100       11.6110           0   -1.00000   1.30000
     50204 MEOH     3313     MEOH     DC1      DRUD    -2.454100        0.4000           0   0.00000   0.00000
     50205 MEOH     3313     MEOH     O1       OD31H    2.488300       15.5990           0   -1.02800   1.30000
     50206 MEOH     3313     MEOH     DO1      DRUD    -2.488300        0.4000           0   0.00000   0.00000
     50207 MEOH     3313     MEOH     HO1      HDP1A    0.360000        1.0080           0   0.00000   0.00000
     50208 MEOH     3313     MEOH     HO2      DUMH     0.000000        1.0080           0   0.00000   0.00000
     50209 MEOH     3313     MEOH     H1A      HDA3B    0.080000        1.0080           0   0.00000   0.00000
     50210 MEOH     3313     MEOH     H1B      HDA3B    0.080000        1.0080           0   0.00000   0.00000
     50211 MEOH     3313     MEOH     H1C      HDA3B    0.080000        1.0080           0   0.00000   0.00000
     50212 MEOH     3313     MEOH     LP1A     LPD     -0.230000        0.0000           -1   0.00000   0.00000
     50213 MEOH     3313     MEOH     LP1B     LPD     -0.230000        0.0000           -1   0.00000   0.00000
     50214 MEOH     3314     MEOH     C1       CD33B    2.314100       11.6110           0   -1.00000   1.30000
     50215 MEOH     3314     MEOH     DC1      DRUD    -2.454100        0.4000           0   0.00000   0.00000
     50216 MEOH     3314     MEOH     O1       OD31H    2.488300       15.5990           0   -1.02800   1.30000
     50217 MEOH     3314     MEOH     DO1      DRUD    -2.488300        0.4000           0   0.00000   0.00000
     50218 MEOH     3314     MEOH     HO1      HDP1A    0.360000        1.0080           0   0.00000   0.00000
     50219 MEOH     3314     MEOH     HO2      DUMH     0.000000        1.0080           0   0.00000   0.00000
     50220 MEOH     3314     MEOH     H1A      HDA3B    0.080000        1.0080           0   0.00000   0.00000
     50221 MEOH     3314     MEOH     H1B      HDA3B    0.080000        1.0080           0   0.00000   0.00000
     50222 MEOH     3314     MEOH     H1C      HDA3B    0.080000        1.0080           0   0.00000   0.00000
     50223 MEOH     3314     MEOH     LP1A     LPD     -0.230000        0.0000           -1   0.00000   0.00000
     50224 MEOH     3314     MEOH     LP1B     LPD     -0.230000        0.0000           -1   0.00000   0.00000
     50225 MEOH     3315     MEOH     C1       CD33B    2.314100       11.6110           0   -1.00000   1.30000
     50226 MEOH     3315     MEOH     DC1      DRUD    -2.454100        0.4000           0   0.00000   0.00000
     50227 MEOH     3315     MEOH     O1       OD31H    2.488300       15.5990           0   -1.02800   1.30000
     50228 MEOH     3315     MEOH     DO1      DRUD    -2.488300        0.4000           0   0.00000   0.00000
     50229 MEOH     3315     MEOH     HO1      HDP1A    0.360000        1.0080           0   0.00000   0.00000
     50230 MEOH     3315     MEOH     HO2      DUMH     0.000000        1.0080           0   0.00000   0.00000
     50231 MEOH     3315     MEOH     H1A      HDA3B    0.080000        1.0080           0   0.00000   0.00000
     50232 MEOH     3315     MEOH     H1B      HDA3B    0.080000        1.0080           0   0.00000   0.00000
     50233 MEOH     3315     MEOH     H1C      HDA3B    0.080000        1.0080           0   0.00000   0.00000
     50234 MEOH     3315     MEOH     LP1A     LPD     -0.230000        0.0000           -1   0.00000   0.00000
     50235 MEOH     3315     MEOH     LP1B     LPD     -0.230000        0.0000           -1   0.00000   0.00000
     50236 MEOH     3316     MEOH     C1       CD33B    2.314100       11.6110           0   -1.00000   1.30000
     50237 MEOH     3316     MEOH     DC1      DRUD    -2.454100        0.4000           0   0.00000   0.00000
     50238 MEOH     3316     MEOH     O1       OD31H    2.488300       15.5990           0   -1.02800   1.30000
     50239 MEOH     3316     MEOH     DO1      DRUD    -2.488300        0.4000           0   0.00000   0.00000
     50240 MEOH     3316     MEOH     HO1      HDP1A    0.360000        1.0080           0   0.00000   0.00000
     50241 MEOH     3316     MEOH     HO2      DUMH     0.000000        1.0080           0   0.00000   0.00000
     50242 MEOH     3316     MEOH     H1A      HDA3B    0.080000        1.0080           0   0.00000   0.00000
     50243 MEOH     3316     MEOH     H1B      HDA3B    0.080000        1.0080           0   0.00000   0.00000
     50244 MEOH     3316     MEOH     H1C      HDA3B    0.080000        1.0080           0   0.00000   0.00000
     50245 MEOH     3316     MEOH     LP1A     LPD     -0.230000        0.0000           -1   0.00000   0.00000
     50246 MEOH     3316     MEOH     LP1B     LPD     -0.230000        0.0000           -1   0.00000   0.00000
     50247 MEOH     3317     MEOH     C1       CD33B    2.314100       11.6110           0   -1.00000   1.30000
     50248 MEOH     3317     MEOH     DC1      DRUD    -2.454100        0.4000           0   0.00000   0.00000
     50249 MEOH     3317     MEOH     O1       OD31H    2.488300       15.5990           0   -1.02800   1.30000
     50250 MEOH     3317     MEOH     DO1      DRUD    -2.488300        0.4000           0   0.00000   0.00000
     50251 MEOH     3317     MEOH     HO1      HDP1A    0.360000        1.0080           0   0.00000   0.00000
     50252 MEOH     3317     MEOH     HO2      DUMH     0.000000        1.0080           0   0.00000   0.00000
     50253 MEOH     3317     MEOH     H1A      HDA3B    0.080000        1.0080           0   0.00000   0.00000
     50254 MEOH     3317     MEOH     H1B      HDA3B    0.080000        1.0080           0   0.00000   0.00000
     50255 MEOH     3317     MEOH     H1C      HDA3B    0.080000        1.0080           0   0.00000   0.00000
     50256 MEOH     3317     MEOH     LP1A     LPD     -0.230000        0.0000           -1   0.00000   0.00000
     50257 MEOH     3317     MEOH     LP1B     LPD     -0.230000        0.0000           -1   0.00000   0.00000
     50258 MEOH     3318     MEOH     C1       CD33B    2.314100       11.6110           0   -1.00000   1.30000
     50259 MEOH     3318     MEOH     DC1      DRUD    -2.454100        0.4000           0   0.00000   0.00000
     50260 MEOH     3318     MEOH     O1       OD31H    2.488300       15.5990           0   -1.02800   1.30000
     50261 MEOH     3318     MEOH     DO1      DRUD    -2.488300        0.4000           0   0.00000   0.00000
     50262 MEOH     3318     MEOH     HO1      HDP1A    0.360000        1.0080           0   0.00000   0.00000
     50263 MEOH     3318     MEOH     HO2      DUMH     0.000000        1.0080           0   0.00000   0.00000
     50264 MEOH     3318     MEOH     H1A      HDA3B    0.080000        1.0080           0   0.00000   0.00000
     50265 MEOH     3318     MEOH     H1B      HDA3B    0.080000        1.0080           0   0.00000   0.00000
     50266 MEOH     3318     MEOH     H1C      HDA3B    0.080000        1.0080           0   0.00000   0.00000
     50267 MEOH     3318     MEOH     LP1A     LPD     -0.230000        0.0000           -1   0.00000   0.00000
     50268 MEOH     3318     MEOH     LP1B     LPD     -0.230000        0.0000           -1   0.00000   0.00000
     50269 MEOH     3319     MEOH     C1       CD33B    2.314100       11.6110           0   -1.00000   1.30000
     50270 MEOH     3319     MEOH     DC1      DRUD    -2.454100        0.4000           0   0.00000   0.00000
     50271 MEOH     3319     MEOH     O1       OD31H    2.488300       15.5990           0   -1.02800   1.30000
     50272 MEOH     3319     MEOH     DO1      DRUD    -2.488300        0.4000           0   0.00000   0.00000
     50273 MEOH     3319     MEOH     HO1      HDP1A    0.360000        1.0080           0   0.00000   0.00000
     50274 MEOH     3319     MEOH     HO2      DUMH     0.000000        1.0080           0   0.00000   0.00000
     50275 MEOH     3319     MEOH     H1A      HDA3B    0.080000        1.0080           0   0.00000   0.00000
     50276 MEOH     3319     MEOH     H1B      HDA3B    0.080000        1.0080           0   0.00000   0.00000
     50277 MEOH     3319     MEOH     H1C      HDA3B    0.080000        1.0080           0   0.00000   0.00000
     50278 MEOH     3319     MEOH     LP1A     LPD     -0.230000        0.0000           -1   0.00000   0.00000
     50279 MEOH     3319     MEOH     LP1B     LPD     -0.230000        0.0000           -1   0.00000   0.00000
     50280 MEOH     3320     MEOH     C1       CD33B    2.314100       11.6110           0   -1.00000   1.30000
     50281 MEOH     3320     MEOH     DC1      DRUD    -2.454100        0.4000           0   0.00000   0.00000
     50282 MEOH     3320     MEOH     O1       OD31H    2.488300       15.5990           0   -1.02800   1.30000
     50283 MEOH     3320     MEOH     DO1      DRUD    -2.488300        0.4000           0   0.00000   0.00000
     50284 MEOH     3320     MEOH     HO1      HDP1A    0.360000        1.0080           0   0.00000   0.00000
     50285 MEOH     3320     MEOH     HO2      DUMH     0.000000        1.0080           0   0.00000   0.00000
     50286 MEOH     3320     MEOH     H1A      HDA3B    0.080000        1.0080           0   0.00000   0.00000
     50287 MEOH     3320     MEOH     H1B      HDA3B    0.080000        1.0080           0   0.00000   0.00000
     50288 MEOH     3320     MEOH     H1C      HDA3B    0.080000        1.0080           0   0.00000   0.00000
     50289 MEOH     3320     MEOH     LP1A     LPD     -0.230000        0.0000           -1   0.00000   0.00000
     50290 MEOH     3320     MEOH     LP1B     LPD     -0.230000        0.0000           -1   0.00000   0.00000
     50291 MEOH     3321     MEOH     C1       CD33B    2.314100       11.6110           0   -1.00000   1.30000
     50292 MEOH     3321     MEOH     DC1      DRUD    -2.454100        0.4000           0   0.00000   0.00000
     50293 MEOH     3321     MEOH     O1       OD31H    2.488300       15.5990           0   -1.02800   1.30000
     50294 MEOH     3321     MEOH     DO1      DRUD    -2.488300        0.4000           0   0.00000   0.00000
     50295 MEOH     3321     MEOH     HO1      HDP1A    0.360000        1.0080           0   0.00000   0.00000
     50296 MEOH     3321     MEOH     HO2      DUMH     0.000000        1.0080           0   0.00000   0.00000
     50297 MEOH     3321     MEOH     H1A      HDA3B    0.080000        1.0080           0   0.00000   0.00000
     50298 MEOH     3321     MEOH     H1B      HDA3B    0.080000        1.0080           0   0.00000   0.00000
     50299 MEOH     3321     MEOH     H1C      HDA3B    0.080000        1.0080           0   0.00000   0.00000
     50300 MEOH     3321     MEOH     LP1A     LPD     -0.230000        0.0000           -1   0.00000   0.00000
     50301 MEOH     3321     MEOH     LP1B     LPD     -0.230000        0.0000           -1   0.00000   0.00000
     50302 MEOH     3322     MEOH     C1       CD33B    2.314100       11.6110           0   -1.00000   1.30000
     50303 MEOH     3322     MEOH     DC1      DRUD    -2.454100        0.4000           0   0.00000   0.00000
     50304 MEOH     3322     MEOH     O1       OD31H    2.488300       15.5990           0   -1.02800   1.30000
     50305 MEOH     3322     MEOH     DO1      DRUD    -2.488300        0.4000           0   0.00000   0.00000
     50306 MEOH     3322     MEOH     HO1      HDP1A    0.360000        1.0080           0   0.00000   0.00000
     50307 MEOH     3322     MEOH     HO2      DUMH     0.000000        1.0080           0   0.00000   0.00000
     50308 MEOH     3322     MEOH     H1A      HDA3B    0.080000        1.0080           0   0.00000   0.00000
     50309 MEOH     3322     MEOH     H1B      HDA3B    0.080000        1.0080           0   0.00000   0.00000
     50310 MEOH     3322     MEOH     H1C      HDA3B    0.080000        1.0080           0   0.00000   0.00000
     50311 MEOH     3322     MEOH     LP1A     LPD     -0.230000        0.0000           -1   0.00000   0.00000
     50312 MEOH     3322     MEOH     LP1B     LPD     -0.230000        0.0000           -1   0.00000   0.00000
     50313 MEOH     3323     MEOH     C1       CD33B    2.314100       11.6110           0   -1.00000   1.30000
     50314 MEOH     3323     MEOH     DC1      DRUD    -2.454100        0.4000           0   0.00000   0.00000
     50315 MEOH     3323     MEOH     O1       OD31H    2.488300       15.5990           0   -1.02800   1.30000
     50316 MEOH     3323     MEOH     DO1      DRUD    -2.488300        0.4000           0   0.00000   0.00000
     50317 MEOH     3323     MEOH     HO1      HDP1A    0.360000        1.0080           0   0.00000   0.00000
     50318 MEOH     3323     MEOH     HO2      DUMH     0.000000        1.0080           0   0.00000   0.00000
     50319 MEOH     3323     MEOH     H1A      HDA3B    0.080000        1.0080           0   0.00000   0.00000
     50320 MEOH     3323     MEOH     H1B      HDA3B    0.080000        1.0080           0   0.00000   0.00000
     50321 MEOH     3323     MEOH     H1C      HDA3B    0.080000        1.0080           0   0.00000   0.00000
     50322 MEOH     3323     MEOH     LP1A     LPD     -0.230000        0.0000           -1   0.00000   0.00000
     50323 MEOH     3323     MEOH     LP1B     LPD     -0.230000        0.0000           -1   0.00000   0.00000
     50324 MEOH     3324     MEOH     C1       CD33B    2.314100       11.6110           0   -1.00000   1.30000
     50325 MEOH     3324     MEOH     DC1      DRUD    -2.454100        0.4000           0   0.00000   0.00000
     50326 MEOH     3324     MEOH     O1       OD31H    2.488300       15.5990           0   -1.02800   1.30000
     50327 MEOH     3324     MEOH     DO1      DRUD    -2.488300        0.4000           0   0.00000   0.00000
     50328 MEOH     3324     MEOH     HO1      HDP1A    0.360000        1.0080           0   0.00000   0.00000
     50329 MEOH     3324     MEOH     HO2      DUMH     0.000000        1.0080           0   0.00000   0.00000
     50330 MEOH     3324     MEOH     H1A      HDA3B    0.080000        1.0080           0   0.00000   0.00000
     50331 MEOH     3324     MEOH     H1B      HDA3B    0.080000        1.0080           0   0.00000   0.00000
     50332 MEOH     3324     MEOH     H1C      HDA3B    0.080000        1.0080           0   0.00000   0.00000
     50333 MEOH     3324     MEOH     LP1A     LPD     -0.230000        0.0000           -1   0.00000   0.00000
     50334 MEOH     3324     MEOH     LP1B     LPD     -0.230000        0.0000           -1   0.00000   0.00000
     50335 MEOH     3325     MEOH     C1       CD33B    2.314100       11.6110           0   -1.00000   1.30000
     50336 MEOH     3325     MEOH     DC1      DRUD    -2.454100        0.4000           0   0.00000   0.00000
     50337 MEOH     3325     MEOH     O1       OD31H    2.488300       15.5990           0   -1.02800   1.30000
     50338 MEOH     3325     MEOH     DO1      DRUD    -2.488300        0.4000           0   0.00000   0.00000
     50339 MEOH     3325     MEOH     HO1      HDP1A    0.360000        1.0080           0   0.00000   0.00000
     50340 MEOH     3325     MEOH     HO2      DUMH     0.000000        1.0080           0   0.00000   0.00000
     50341 MEOH     3325     MEOH     H1A      HDA3B    0.080000        1.0080           0   0.00000   0.00000
     50342 MEOH     3325     MEOH     H1B      HDA3B    0.080000        1.0080           0   0.00000   0.00000
     50343 MEOH     3325     MEOH     H1C      HDA3B    0.080000        1.0080           0   0.00000   0.00000
     50344 MEOH     3325     MEOH     LP1A     LPD     -0.230000        0.0000           -1   0.00000   0.00000
     50345 MEOH     3325     MEOH     LP1B     LPD     -0.230000        0.0000           -1   0.00000   0.00000
     50346 MEOH     3326     MEOH     C1       CD33B    2.314100       11.6110           0   -1.00000   1.30000
     50347 MEOH     3326     MEOH     DC1      DRUD    -2.454100        0.4000           0   0.00000   0.00000
     50348 MEOH     3326     MEOH     O1       OD31H    2.488300       15.5990           0   -1.02800   1.30000
     50349 MEOH     3326     MEOH     DO1      DRUD    -2.488300        0.4000           0   0.00000   0.00000
     50350 MEOH     3326     MEOH     HO1      HDP1A    0.360000        1.0080           0   0.00000   0.00000
     50351 MEOH     3326     MEOH     HO2      DUMH     0.000000        1.0080           0   0.00000   0.00000
     50352 MEOH     3326     MEOH     H1A      HDA3B    0.080000        1.0080           0   0.00000   0.00000
     50353 MEOH     3326     MEOH     H1B      HDA3B    0.080000        1.0080           0   0.00000   0.00000
     50354 MEOH     3326     MEOH     H1C      HDA3B    0.080000        1.0080           0   0.00000   0.00000
     50355 MEOH     3326     MEOH     LP1A     LPD     -0.230000        0.0000           -1   0.00000   0.00000
     50356 MEOH     3326     MEOH     LP1B     LPD     -0.230000        0.0000           -1   0.00000   0.00000
     50357 MEOH     3327     MEOH     C1       CD33B    2.314100       11.6110           0   -1.00000   1.30000
     50358 MEOH     3327     MEOH     DC1      DRUD    -2.454100        0.4000           0   0.00000   0.00000
     50359 MEOH     3327     MEOH     O1       OD31H    2.488300       15.5990           0   -1.02800   1.30000
     50360 MEOH     3327     MEOH     DO1      DRUD    -2.488300        0.4000           0   0.00000   0.00000
     50361 MEOH     3327     MEOH     HO1      HDP1A    0.360000        1.0080           0   0.00000   0.00000
     50362 MEOH     3327     MEOH     HO2      DUMH     0.000000        1.0080           0   0.00000   0.00000
     50363 MEOH     3327     MEOH     H1A      HDA3B    0.080000        1.0080           0   0.00000   0.00000
     50364 MEOH     3327     MEOH     H1B      HDA3B    0.080000        1.0080           0   0.00000   0.00000
     50365 MEOH     3327     MEOH     H1C      HDA3B    0.080000        1.0080           0   0.00000   0.00000
     50366 MEOH     3327     MEOH     LP1A     LPD     -0.230000        0.0000           -1   0.00000   0.00000
     50367 MEOH     3327     MEOH     LP1B     LPD     -0.230000        0.0000           -1   0.00000   0.00000
     50368 MEOH     3328     MEOH     C1       CD33B    2.314100       11.6110           0   -1.00000   1.30000
     50369 MEOH     3328     MEOH     DC1      DRUD    -2.454100        0.4000           0   0.00000   0.00000
     50370 MEOH     3328     MEOH     O1       OD31H    2.488300       15.5990           0   -1.02800   1.30000
     50371 MEOH     3328     MEOH     DO1      DRUD    -2.488300        0.4000           0   0.00000   0.00000
     50372 MEOH     3328     MEOH     HO1      HDP1A    0.360000        1.0080           0   0.00000   0.00000
     50373 MEOH     3328     MEOH     HO2      DUMH     0.000000        1.0080           0   0.00000   0.00000
     50374 MEOH     3328     MEOH     H1A      HDA3B    0.080000        1.0080           0   0.00000   0.00000
     50375 MEOH     3328     MEOH     H1B      HDA3B    0.080000        1.0080           0   0.00000   0.00000
     50376 MEOH     3328     MEOH     H1C      HDA3B    0.080000        1.0080           0   0.00000   0.00000
     50377 MEOH     3328     MEOH     LP1A     LPD     -0.230000        0.0000           -1   0.00000   0.00000
     50378 MEOH     3328     MEOH     LP1B     LPD     -0.230000        0.0000           -1   0.00000   0.00000
     50379 MEOH     3329     MEOH     C1       CD33B    2.314100       11.6110           0   -1.00000   1.30000
     50380 MEOH     3329     MEOH     DC1      DRUD    -2.454100        0.4000           0   0.00000   0.00000
     50381 MEOH     3329     MEOH     O1       OD31H    2.488300       15.5990           0   -1.02800   1.30000
     50382 MEOH     3329     MEOH     DO1      DRUD    -2.488300        0.4000           0   0.00000   0.00000
     50383 MEOH     3329     MEOH     HO1      HDP1A    0.360000        1.0080           0   0.00000   0.00000
     50384 MEOH     3329     MEOH     HO2      DUMH     0.000000        1.0080           0   0.00000   0.00000
     50385 MEOH     3329     MEOH     H1A      HDA3B    0.080000        1.0080           0   0.00000   0.00000
     50386 MEOH     3329     MEOH     H1B      HDA3B    0.080000        1.0080           0   0.00000   0.00000
     50387 MEOH     3329     MEOH     H1C      HDA3B    0.080000        1.0080           0   0.00000   0.00000
     50388 MEOH     3329     MEOH     LP1A     LPD     -0.230000        0.0000           -1   0.00000   0.00000
     50389 MEOH     3329     MEOH     LP1B     LPD     -0.230000        0.0000           -1   0.00000   0.00000
     50390 MEOH     3330     MEOH     C1       CD33B    2.314100       11.6110           0   -1.00000   1.30000
     50391 MEOH     3330     MEOH     DC1      DRUD    -2.454100        0.4000           0   0.00000   0.00000
     50392 MEOH     3330     MEOH     O1       OD31H    2.488300       15.5990           0   -1.02800   1.30000
     50393 MEOH     3330     MEOH     DO1      DRUD    -2.488300        0.4000           0   0.00000   0.00000
     50394 MEOH     3330     MEOH     HO1      HDP1A    0.360000        1.0080           0   0.00000   0.00000
     50395 MEOH     3330     MEOH     HO2      DUMH     0.000000        1.0080           0   0.00000   0.00000
     50396 MEOH     3330     MEOH     H1A      HDA3B    0.080000        1.0080           0   0.00000   0.00000
     50397 MEOH     3330     MEOH     H1B      HDA3B    0.080000        1.0080           0   0.00000   0.00000
     50398 MEOH     3330     MEOH     H1C      HDA3B    0.080000        1.0080           0   0.00000   0.00000
     50399 MEOH     3330     MEOH     LP1A     LPD     -0.230000        0.0000           -1   0.00000   0.00000
     50400 MEOH     3330     MEOH     LP1B     LPD     -0.230000        0.0000           -1   0.00000   0.00000
     50401 MEOH     3331     MEOH     C1       CD33B    2.314100       11.6110           0   -1.00000   1.30000
     50402 MEOH     3331     MEOH     DC1      DRUD    -2.454100        0.4000           0   0.00000   0.00000
     50403 MEOH     3331     MEOH     O1       OD31H    2.488300       15.5990           0   -1.02800   1.30000
     50404 MEOH     3331     MEOH     DO1      DRUD    -2.488300        0.4000           0   0.00000   0.00000
     50405 MEOH     3331     MEOH     HO1      HDP1A    0.360000        1.0080           0   0.00000   0.00000
     50406 MEOH     3331     MEOH     HO2      DUMH     0.000000        1.0080           0   0.00000   0.00000
     50407 MEOH     3331     MEOH     H1A      HDA3B    0.080000        1.0080           0   0.00000   0.00000
     50408 MEOH     3331     MEOH     H1B      HDA3B    0.080000        1.0080           0   0.00000   0.00000
     50409 MEOH     3331     MEOH     H1C      HDA3B    0.080000        1.0080           0   0.00000   0.00000
     50410 MEOH     3331     MEOH     LP1A     LPD     -0.230000        0.0000           -1   0.00000   0.00000
     50411 MEOH     3331     MEOH     LP1B     LPD     -0.230000        0.0000           -1   0.00000   0.00000
     50412 MEOH     3332     MEOH     C1       CD33B    2.314100       11.6110           0   -1.00000   1.30000
     50413 MEOH     3332     MEOH     DC1      DRUD    -2.454100        0.4000           0   0.00000   0.00000
     50414 MEOH     3332     MEOH     O1       OD31H    2.488300       15.5990           0   -1.02800   1.30000
     50415 MEOH     3332     MEOH     DO1      DRUD    -2.488300        0.4000           0   0.00000   0.00000
     50416 MEOH     3332     MEOH     HO1      HDP1A    0.360000        1.0080           0   0.00000   0.00000
     50417 MEOH     3332     MEOH     HO2      DUMH     0.000000        1.0080           0   0.00000   0.00000
     50418 MEOH     3332     MEOH     H1A      HDA3B    0.080000        1.0080           0   0.00000   0.00000
     50419 MEOH     3332     MEOH     H1B      HDA3B    0.080000        1.0080           0   0.00000   0.00000
     50420 MEOH     3332     MEOH     H1C      HDA3B    0.080000        1.0080           0   0.00000   0.00000
     50421 MEOH     3332     MEOH     LP1A     LPD     -0.230000        0.0000           -1   0.00000   0.00000
     50422 MEOH     3332     MEOH     LP1B     LPD     -0.230000        0.0000           -1   0.00000   0.00000
     50423 MEOH     3333     MEOH     C1       CD33B    2.314100       11.6110           0   -1.00000   1.30000
     50424 MEOH     3333     MEOH     DC1      DRUD    -2.454100        0.4000           0   0.00000   0.00000
     50425 MEOH     3333     MEOH     O1       OD31H    2.488300       15.5990           0   -1.02800   1.30000
     50426 MEOH     3333     MEOH     DO1      DRUD    -2.488300        0.4000           0   0.00000   0.00000
     50427 MEOH     3333     MEOH     HO1      HDP1A    0.360000        1.0080           0   0.00000   0.00000
     50428 MEOH     3333     MEOH     HO2      DUMH     0.000000        1.0080           0   0.00000   0.00000
     50429 MEOH     3333     MEOH     H1A      HDA3B    0.080000        1.0080           0   0.00000   0.00000
     50430 MEOH     3333     MEOH     H1B      HDA3B    0.080000        1.0080           0   0.00000   0.00000
     50431 MEOH     3333     MEOH     H1C      HDA3B    0.080000        1.0080           0   0.00000   0.00000
     50432 MEOH     3333     MEOH     LP1A     LPD     -0.230000        0.0000           -1   0.00000   0.00000
     50433 MEOH     3333     MEOH     LP1B     LPD     -0.230000        0.0000           -1   0.00000   0.00000
     50434 MEOH     3334     MEOH     C1       CD33B    2.314100       11.6110           0   -1.00000   1.30000
     50435 MEOH     3334     MEOH     DC1      DRUD    -2.454100        0.4000           0   0.00000   0.00000
     50436 MEOH     3334     MEOH     O1       OD31H    2.488300       15.5990           0   -1.02800   1.30000
     50437 MEOH     3334     MEOH     DO1      DRUD    -2.488300        0.4000           0   0.00000   0.00000
     50438 MEOH     3334     MEOH     HO1      HDP1A    0.360000        1.0080           0   0.00000   0.00000
     50439 MEOH     3334     MEOH     HO2      DUMH     0.000000        1.0080           0   0.00000   0.00000
     50440 MEOH     3334     MEOH     H1A      HDA3B    0.080000        1.0080           0   0.00000   0.00000
     50441 MEOH     3334     MEOH     H1B      HDA3B    0.080000        1.0080           0   0.00000   0.00000
     50442 MEOH     3334     MEOH     H1C      HDA3B    0.080000        1.0080           0   0.00000   0.00000
     50443 MEOH     3334     MEOH     LP1A     LPD     -0.230000        0.0000           -1   0.00000   0.00000
     50444 MEOH     3334     MEOH     LP1B     LPD     -0.230000        0.0000           -1   0.00000   0.00000
     50445 MEOH     3335     MEOH     C1       CD33B    2.314100       11.6110           0   -1.00000   1.30000
     50446 MEOH     3335     MEOH     DC1      DRUD    -2.454100        0.4000           0   0.00000   0.00000
     50447 MEOH     3335     MEOH     O1       OD31H    2.488300       15.5990           0   -1.02800   1.30000
     50448 MEOH     3335     MEOH     DO1      DRUD    -2.488300        0.4000           0   0.00000   0.00000
     50449 MEOH     3335     MEOH     HO1      HDP1A    0.360000        1.0080           0   0.00000   0.00000
     50450 MEOH     3335     MEOH     HO2      DUMH     0.000000        1.0080           0   0.00000   0.00000
     50451 MEOH     3335     MEOH     H1A      HDA3B    0.080000        1.0080           0   0.00000   0.00000
     50452 MEOH     3335     MEOH     H1B      HDA3B    0.080000        1.0080           0   0.00000   0.00000
     50453 MEOH     3335     MEOH     H1C      HDA3B    0.080000        1.0080           0   0.00000   0.00000
     50454 MEOH     3335     MEOH     LP1A     LPD     -0.230000        0.0000           -1   0.00000   0.00000
     50455 MEOH     3335     MEOH     LP1B     LPD     -0.230000        0.0000           -1   0.00000   0.00000
     50456 MEOH     3336     MEOH     C1       CD33B    2.314100       11.6110           0   -1.00000   1.30000
     50457 MEOH     3336     MEOH     DC1      DRUD    -2.454100        0.4000           0   0.00000   0.00000
     50458 MEOH     3336     MEOH     O1       OD31H    2.488300       15.5990           0   -1.02800   1.30000
     50459 MEOH     3336     MEOH     DO1      DRUD    -2.488300        0.4000           0   0.00000   0.00000
     50460 MEOH     3336     MEOH     HO1      HDP1A    0.360000        1.0080           0   0.00000   0.00000
     50461 MEOH     3336     MEOH     HO2      DUMH     0.000000        1.0080           0   0.00000   0.00000
     50462 MEOH     3336     MEOH     H1A      HDA3B    0.080000        1.0080           0   0.00000   0.00000
     50463 MEOH     3336     MEOH     H1B      HDA3B    0.080000        1.0080           0   0.00000   0.00000
     50464 MEOH     3336     MEOH     H1C      HDA3B    0.080000        1.0080           0   0.00000   0.00000
     50465 MEOH     3336     MEOH     LP1A     LPD     -0.230000        0.0000           -1   0.00000   0.00000
     50466 MEOH     3336     MEOH     LP1B     LPD     -0.230000        0.0000           -1   0.00000   0.00000
     50467 MEOH     3337     MEOH     C1       CD33B    2.314100       11.6110           0   -1.00000   1.30000
     50468 MEOH     3337     MEOH     DC1      DRUD    -2.454100        0.4000           0   0.00000   0.00000
     50469 MEOH     3337     MEOH     O1       OD31H    2.488300       15.5990           0   -1.02800   1.30000
     50470 MEOH     3337     MEOH     DO1      DRUD    -2.488300        0.4000           0   0.00000   0.00000
     50471 MEOH     3337     MEOH     HO1      HDP1A    0.360000        1.0080           0   0.00000   0.00000
     50472 MEOH     3337     MEOH     HO2      DUMH     0.000000        1.0080           0   0.00000   0.00000
     50473 MEOH     3337     MEOH     H1A      HDA3B    0.080000        1.0080           0   0.00000   0.00000
     50474 MEOH     3337     MEOH     H1B      HDA3B    0.080000        1.0080           0   0.00000   0.00000
     50475 MEOH     3337     MEOH     H1C      HDA3B    0.080000        1.0080           0   0.00000   0.00000
     50476 MEOH     3337     MEOH     LP1A     LPD     -0.230000        0.0000           -1   0.00000   0.00000
     50477 MEOH     3337     MEOH     LP1B     LPD     -0.230000        0.0000           -1   0.00000   0.00000
     50478 MEOH     3338     MEOH     C1       CD33B    2.314100       11.6110           0   -1.00000   1.30000
     50479 MEOH     3338     MEOH     DC1      DRUD    -2.454100        0.4000           0   0.00000   0.00000
     50480 MEOH     3338     MEOH     O1       OD31H    2.488300       15.5990           0   -1.02800   1.30000
     50481 MEOH     3338     MEOH     DO1      DRUD    -2.488300        0.4000           0   0.00000   0.00000
     50482 MEOH     3338     MEOH     HO1      HDP1A    0.360000        1.0080           0   0.00000   0.00000
     50483 MEOH     3338     MEOH     HO2      DUMH     0.000000        1.0080           0   0.00000   0.00000
     50484 MEOH     3338     MEOH     H1A      HDA3B    0.080000        1.0080           0   0.00000   0.00000
     50485 MEOH     3338     MEOH     H1B      HDA3B    0.080000        1.0080           0   0.00000   0.00000
     50486 MEOH     3338     MEOH     H1C      HDA3B    0.080000        1.0080           0   0.00000   0.00000
     50487 MEOH     3338     MEOH     LP1A     LPD     -0.230000        0.0000           -1   0.00000   0.00000
     50488 MEOH     3338     MEOH     LP1B     LPD     -0.230000        0.0000           -1   0.00000   0.00000
     50489 MEOH     3339     MEOH     C1       CD33B    2.314100       11.6110           0   -1.00000   1.30000
     50490 MEOH     3339     MEOH     DC1      DRUD    -2.454100        0.4000           0   0.00000   0.00000
     50491 MEOH     3339     MEOH     O1       OD31H    2.488300       15.5990           0   -1.02800   1.30000
     50492 MEOH     3339     MEOH     DO1      DRUD    -2.488300        0.4000           0   0.00000   0.00000
     50493 MEOH     3339     MEOH     HO1      HDP1A    0.360000        1.0080           0   0.00000   0.00000
     50494 MEOH     3339     MEOH     HO2      DUMH     0.000000        1.0080           0   0.00000   0.00000
     50495 MEOH     3339     MEOH     H1A      HDA3B    0.080000        1.0080           0   0.00000   0.00000
     50496 MEOH     3339     MEOH     H1B      HDA3B    0.080000        1.0080           0   0.00000   0.00000
     50497 MEOH     3339     MEOH     H1C      HDA3B    0.080000        1.0080           0   0.00000   0.00000
     50498 MEOH     3339     MEOH     LP1A     LPD     -0.230000        0.0000           -1   0.00000   0.00000
     50499 MEOH     3339     MEOH     LP1B     LPD     -0.230000        0.0000           -1   0.00000   0.00000
     50500 MEOH     3340     MEOH     C1       CD33B    2.314100       11.6110           0   -1.00000   1.30000
     50501 MEOH     3340     MEOH     DC1      DRUD    -2.454100        0.4000           0   0.00000   0.00000
     50502 MEOH     3340     MEOH     O1       OD31H    2.488300       15.5990           0   -1.02800   1.30000
     50503 MEOH     3340     MEOH     DO1      DRUD    -2.488300        0.4000           0   0.00000   0.00000
     50504 MEOH     3340     MEOH     HO1      HDP1A    0.360000        1.0080           0   0.00000   0.00000
     50505 MEOH     3340     MEOH     HO2      DUMH     0.000000        1.0080           0   0.00000   0.00000
     50506 MEOH     3340     MEOH     H1A      HDA3B    0.080000        1.0080           0   0.00000   0.00000
     50507 MEOH     3340     MEOH     H1B      HDA3B    0.080000        1.0080           0   0.00000   0.00000
     50508 MEOH     3340     MEOH     H1C      HDA3B    0.080000        1.0080           0   0.00000   0.00000
     50509 MEOH     3340     MEOH     LP1A     LPD     -0.230000        0.0000           -1   0.00000   0.00000
     50510 MEOH     3340     MEOH     LP1B     LPD     -0.230000        0.0000           -1   0.00000   0.00000
     50511 MEOH     3341     MEOH     C1       CD33B    2.314100       11.6110           0   -1.00000   1.30000
     50512 MEOH     3341     MEOH     DC1      DRUD    -2.454100        0.4000           0   0.00000   0.00000
     50513 MEOH     3341     MEOH     O1       OD31H    2.488300       15.5990           0   -1.02800   1.30000
     50514 MEOH     3341     MEOH     DO1      DRUD    -2.488300        0.4000           0   0.00000   0.00000
     50515 MEOH     3341     MEOH     HO1      HDP1A    0.360000        1.0080           0   0.00000   0.00000
     50516 MEOH     3341     MEOH     HO2      DUMH     0.000000        1.0080           0   0.00000   0.00000
     50517 MEOH     3341     MEOH     H1A      HDA3B    0.080000        1.0080           0   0.00000   0.00000
     50518 MEOH     3341     MEOH     H1B      HDA3B    0.080000        1.0080           0   0.00000   0.00000
     50519 MEOH     3341     MEOH     H1C      HDA3B    0.080000        1.0080           0   0.00000   0.00000
     50520 MEOH     3341     MEOH     LP1A     LPD     -0.230000        0.0000           -1   0.00000   0.00000
     50521 MEOH     3341     MEOH     LP1B     LPD     -0.230000        0.0000           -1   0.00000   0.00000
     50522 MEOH     3342     MEOH     C1       CD33B    2.314100       11.6110           0   -1.00000   1.30000
     50523 MEOH     3342     MEOH     DC1      DRUD    -2.454100        0.4000           0   0.00000   0.00000
     50524 MEOH     3342     MEOH     O1       OD31H    2.488300       15.5990           0   -1.02800   1.30000
     50525 MEOH     3342     MEOH     DO1      DRUD    -2.488300        0.4000           0   0.00000   0.00000
     50526 MEOH     3342     MEOH     HO1      HDP1A    0.360000        1.0080           0   0.00000   0.00000
     50527 MEOH     3342     MEOH     HO2      DUMH     0.000000        1.0080           0   0.00000   0.00000
     50528 MEOH     3342     MEOH     H1A      HDA3B    0.080000        1.0080           0   0.00000   0.00000
     50529 MEOH     3342     MEOH     H1B      HDA3B    0.080000        1.0080           0   0.00000   0.00000
     50530 MEOH     3342     MEOH     H1C      HDA3B    0.080000        1.0080           0   0.00000   0.00000
     50531 MEOH     3342     MEOH     LP1A     LPD     -0.230000        0.0000           -1   0.00000   0.00000
     50532 MEOH     3342     MEOH     LP1B     LPD     -0.230000        0.0000           -1   0.00000   0.00000
     50533 MEOH     3343     MEOH     C1       CD33B    2.314100       11.6110           0   -1.00000   1.30000
     50534 MEOH     3343     MEOH     DC1      DRUD    -2.454100        0.4000           0   0.00000   0.00000
     50535 MEOH     3343     MEOH     O1       OD31H    2.488300       15.5990           0   -1.02800   1.30000
     50536 MEOH     3343     MEOH     DO1      DRUD    -2.488300        0.4000           0   0.00000   0.00000
     50537 MEOH     3343     MEOH     HO1      HDP1A    0.360000        1.0080           0   0.00000   0.00000
     50538 MEOH     3343     MEOH     HO2      DUMH     0.000000        1.0080           0   0.00000   0.00000
     50539 MEOH     3343     MEOH     H1A      HDA3B    0.080000        1.0080           0   0.00000   0.00000
     50540 MEOH     3343     MEOH     H1B      HDA3B    0.080000        1.0080           0   0.00000   0.00000
     50541 MEOH     3343     MEOH     H1C      HDA3B    0.080000        1.0080           0   0.00000   0.00000
     50542 MEOH     3343     MEOH     LP1A     LPD     -0.230000        0.0000           -1   0.00000   0.00000
     50543 MEOH     3343     MEOH     LP1B     LPD     -0.230000        0.0000           -1   0.00000   0.00000
     50544 MEOH     3344     MEOH     C1       CD33B    2.314100       11.6110           0   -1.00000   1.30000
     50545 MEOH     3344     MEOH     DC1      DRUD    -2.454100        0.4000           0   0.00000   0.00000
     50546 MEOH     3344     MEOH     O1       OD31H    2.488300       15.5990           0   -1.02800   1.30000
     50547 MEOH     3344     MEOH     DO1      DRUD    -2.488300        0.4000           0   0.00000   0.00000
     50548 MEOH     3344     MEOH     HO1      HDP1A    0.360000        1.0080           0   0.00000   0.00000
     50549 MEOH     3344     MEOH     HO2      DUMH     0.000000        1.0080           0   0.00000   0.00000
     50550 MEOH     3344     MEOH     H1A      HDA3B    0.080000        1.0080           0   0.00000   0.00000
     50551 MEOH     3344     MEOH     H1B      HDA3B    0.080000        1.0080           0   0.00000   0.00000
     50552 MEOH     3344     MEOH     H1C      HDA3B    0.080000        1.0080           0   0.00000   0.00000
     50553 MEOH     3344     MEOH     LP1A     LPD     -0.230000        0.0000           -1   0.00000   0.00000
     50554 MEOH     3344     MEOH     LP1B     LPD     -0.230000        0.0000           -1   0.00000   0.00000
     50555 MEOH     3345     MEOH     C1       CD33B    2.314100       11.6110           0   -1.00000   1.30000
     50556 MEOH     3345     MEOH     DC1      DRUD    -2.454100        0.4000           0   0.00000   0.00000
     50557 MEOH     3345     MEOH     O1       OD31H    2.488300       15.5990           0   -1.02800   1.30000
     50558 MEOH     3345     MEOH     DO1      DRUD    -2.488300        0.4000           0   0.00000   0.00000
     50559 MEOH     3345     MEOH     HO1      HDP1A    0.360000        1.0080           0   0.00000   0.00000
     50560 MEOH     3345     MEOH     HO2      DUMH     0.000000        1.0080           0   0.00000   0.00000
     50561 MEOH     3345     MEOH     H1A      HDA3B    0.080000        1.0080           0   0.00000   0.00000
     50562 MEOH     3345     MEOH     H1B      HDA3B    0.080000        1.0080           0   0.00000   0.00000
     50563 MEOH     3345     MEOH     H1C      HDA3B    0.080000        1.0080           0   0.00000   0.00000
     50564 MEOH     3345     MEOH     LP1A     LPD     -0.230000        0.0000           -1   0.00000   0.00000
     50565 MEOH     3345     MEOH     LP1B     LPD     -0.230000        0.0000           -1   0.00000   0.00000
     50566 MEOH     3346     MEOH     C1       CD33B    2.314100       11.6110           0   -1.00000   1.30000
     50567 MEOH     3346     MEOH     DC1      DRUD    -2.454100        0.4000           0   0.00000   0.00000
     50568 MEOH     3346     MEOH     O1       OD31H    2.488300       15.5990           0   -1.02800   1.30000
     50569 MEOH     3346     MEOH     DO1      DRUD    -2.488300        0.4000           0   0.00000   0.00000
     50570 MEOH     3346     MEOH     HO1      HDP1A    0.360000        1.0080           0   0.00000   0.00000
     50571 MEOH     3346     MEOH     HO2      DUMH     0.000000        1.0080           0   0.00000   0.00000
     50572 MEOH     3346     MEOH     H1A      HDA3B    0.080000        1.0080           0   0.00000   0.00000
     50573 MEOH     3346     MEOH     H1B      HDA3B    0.080000        1.0080           0   0.00000   0.00000
     50574 MEOH     3346     MEOH     H1C      HDA3B    0.080000        1.0080           0   0.00000   0.00000
     50575 MEOH     3346     MEOH     LP1A     LPD     -0.230000        0.0000           -1   0.00000   0.00000
     50576 MEOH     3346     MEOH     LP1B     LPD     -0.230000        0.0000           -1   0.00000   0.00000
     50577 MEOH     3347     MEOH     C1       CD33B    2.314100       11.6110           0   -1.00000   1.30000
     50578 MEOH     3347     MEOH     DC1      DRUD    -2.454100        0.4000           0   0.00000   0.00000
     50579 MEOH     3347     MEOH     O1       OD31H    2.488300       15.5990           0   -1.02800   1.30000
     50580 MEOH     3347     MEOH     DO1      DRUD    -2.488300        0.4000           0   0.00000   0.00000
     50581 MEOH     3347     MEOH     HO1      HDP1A    0.360000        1.0080           0   0.00000   0.00000
     50582 MEOH     3347     MEOH     HO2      DUMH     0.000000        1.0080           0   0.00000   0.00000
     50583 MEOH     3347     MEOH     H1A      HDA3B    0.080000        1.0080           0   0.00000   0.00000
     50584 MEOH     3347     MEOH     H1B      HDA3B    0.080000        1.0080           0   0.00000   0.00000
     50585 MEOH     3347     MEOH     H1C      HDA3B    0.080000        1.0080           0   0.00000   0.00000
     50586 MEOH     3347     MEOH     LP1A     LPD     -0.230000        0.0000           -1   0.00000   0.00000
     50587 MEOH     3347     MEOH     LP1B     LPD     -0.230000        0.0000           -1   0.00000   0.00000
     50588 MEOH     3348     MEOH     C1       CD33B    2.314100       11.6110           0   -1.00000   1.30000
     50589 MEOH     3348     MEOH     DC1      DRUD    -2.454100        0.4000           0   0.00000   0.00000
     50590 MEOH     3348     MEOH     O1       OD31H    2.488300       15.5990           0   -1.02800   1.30000
     50591 MEOH     3348     MEOH     DO1      DRUD    -2.488300        0.4000           0   0.00000   0.00000
     50592 MEOH     3348     MEOH     HO1      HDP1A    0.360000        1.0080           0   0.00000   0.00000
     50593 MEOH     3348     MEOH     HO2      DUMH     0.000000        1.0080           0   0.00000   0.00000
     50594 MEOH     3348     MEOH     H1A      HDA3B    0.080000        1.0080           0   0.00000   0.00000
     50595 MEOH     3348     MEOH     H1B      HDA3B    0.080000        1.0080           0   0.00000   0.00000
     50596 MEOH     3348     MEOH     H1C      HDA3B    0.080000        1.0080           0   0.00000   0.00000
     50597 MEOH     3348     MEOH     LP1A     LPD     -0.230000        0.0000           -1   0.00000   0.00000
     50598 MEOH     3348     MEOH     LP1B     LPD     -0.230000        0.0000           -1   0.00000   0.00000
     50599 MEOH     3349     MEOH     C1       CD33B    2.314100       11.6110           0   -1.00000   1.30000
     50600 MEOH     3349     MEOH     DC1      DRUD    -2.454100        0.4000           0   0.00000   0.00000
     50601 MEOH     3349     MEOH     O1       OD31H    2.488300       15.5990           0   -1.02800   1.30000
     50602 MEOH     3349     MEOH     DO1      DRUD    -2.488300        0.4000           0   0.00000   0.00000
     50603 MEOH     3349     MEOH     HO1      HDP1A    0.360000        1.0080           0   0.00000   0.00000
     50604 MEOH     3349     MEOH     HO2      DUMH     0.000000        1.0080           0   0.00000   0.00000
     50605 MEOH     3349     MEOH     H1A      HDA3B    0.080000        1.0080           0   0.00000   0.00000
     50606 MEOH     3349     MEOH     H1B      HDA3B    0.080000        1.0080           0   0.00000   0.00000
     50607 MEOH     3349     MEOH     H1C      HDA3B    0.080000        1.0080           0   0.00000   0.00000
     50608 MEOH     3349     MEOH     LP1A     LPD     -0.230000        0.0000           -1   0.00000   0.00000
     50609 MEOH     3349     MEOH     LP1B     LPD     -0.230000        0.0000           -1   0.00000   0.00000
     50610 MEOH     3350     MEOH     C1       CD33B    2.314100       11.6110           0   -1.00000   1.30000
     50611 MEOH     3350     MEOH     DC1      DRUD    -2.454100        0.4000           0   0.00000   0.00000
     50612 MEOH     3350     MEOH     O1       OD31H    2.488300       15.5990           0   -1.02800   1.30000
     50613 MEOH     3350     MEOH     DO1      DRUD    -2.488300        0.4000           0   0.00000   0.00000
     50614 MEOH     3350     MEOH     HO1      HDP1A    0.360000        1.0080           0   0.00000   0.00000
     50615 MEOH     3350     MEOH     HO2      DUMH     0.000000        1.0080           0   0.00000   0.00000
     50616 MEOH     3350     MEOH     H1A      HDA3B    0.080000        1.0080           0   0.00000   0.00000
     50617 MEOH     3350     MEOH     H1B      HDA3B    0.080000        1.0080           0   0.00000   0.00000
     50618 MEOH     3350     MEOH     H1C      HDA3B    0.080000        1.0080           0   0.00000   0.00000
     50619 MEOH     3350     MEOH     LP1A     LPD     -0.230000        0.0000           -1   0.00000   0.00000
     50620 MEOH     3350     MEOH     LP1B     LPD     -0.230000        0.0000           -1   0.00000   0.00000
     50621 MEOH     3351     MEOH     C1       CD33B    2.314100       11.6110           0   -1.00000   1.30000
     50622 MEOH     3351     MEOH     DC1      DRUD    -2.454100        0.4000           0   0.00000   0.00000
     50623 MEOH     3351     MEOH     O1       OD31H    2.488300       15.5990           0   -1.02800   1.30000
     50624 MEOH     3351     MEOH     DO1      DRUD    -2.488300        0.4000           0   0.00000   0.00000
     50625 MEOH     3351     MEOH     HO1      HDP1A    0.360000        1.0080           0   0.00000   0.00000
     50626 MEOH     3351     MEOH     HO2      DUMH     0.000000        1.0080           0   0.00000   0.00000
     50627 MEOH     3351     MEOH     H1A      HDA3B    0.080000        1.0080           0   0.00000   0.00000
     50628 MEOH     3351     MEOH     H1B      HDA3B    0.080000        1.0080           0   0.00000   0.00000
     50629 MEOH     3351     MEOH     H1C      HDA3B    0.080000        1.0080           0   0.00000   0.00000
     50630 MEOH     3351     MEOH     LP1A     LPD     -0.230000        0.0000           -1   0.00000   0.00000
     50631 MEOH     3351     MEOH     LP1B     LPD     -0.230000        0.0000           -1   0.00000   0.00000
     50632 MEOH     3352     MEOH     C1       CD33B    2.314100       11.6110           0   -1.00000   1.30000
     50633 MEOH     3352     MEOH     DC1      DRUD    -2.454100        0.4000           0   0.00000   0.00000
     50634 MEOH     3352     MEOH     O1       OD31H    2.488300       15.5990           0   -1.02800   1.30000
     50635 MEOH     3352     MEOH     DO1      DRUD    -2.488300        0.4000           0   0.00000   0.00000
     50636 MEOH     3352     MEOH     HO1      HDP1A    0.360000        1.0080           0   0.00000   0.00000
     50637 MEOH     3352     MEOH     HO2      DUMH     0.000000        1.0080           0   0.00000   0.00000
     50638 MEOH     3352     MEOH     H1A      HDA3B    0.080000        1.0080           0   0.00000   0.00000
     50639 MEOH     3352     MEOH     H1B      HDA3B    0.080000        1.0080           0   0.00000   0.00000
     50640 MEOH     3352     MEOH     H1C      HDA3B    0.080000        1.0080           0   0.00000   0.00000
     50641 MEOH     3352     MEOH     LP1A     LPD     -0.230000        0.0000           -1   0.00000   0.00000
     50642 MEOH     3352     MEOH     LP1B     LPD     -0.230000        0.0000           -1   0.00000   0.00000
     50643 MEOH     3353     MEOH     C1       CD33B    2.314100       11.6110           0   -1.00000   1.30000
     50644 MEOH     3353     MEOH     DC1      DRUD    -2.454100        0.4000           0   0.00000   0.00000
     50645 MEOH     3353     MEOH     O1       OD31H    2.488300       15.5990           0   -1.02800   1.30000
     50646 MEOH     3353     MEOH     DO1      DRUD    -2.488300        0.4000           0   0.00000   0.00000
     50647 MEOH     3353     MEOH     HO1      HDP1A    0.360000        1.0080           0   0.00000   0.00000
     50648 MEOH     3353     MEOH     HO2      DUMH     0.000000        1.0080           0   0.00000   0.00000
     50649 MEOH     3353     MEOH     H1A      HDA3B    0.080000        1.0080           0   0.00000   0.00000
     50650 MEOH     3353     MEOH     H1B      HDA3B    0.080000        1.0080           0   0.00000   0.00000
     50651 MEOH     3353     MEOH     H1C      HDA3B    0.080000        1.0080           0   0.00000   0.00000
     50652 MEOH     3353     MEOH     LP1A     LPD     -0.230000        0.0000           -1   0.00000   0.00000
     50653 MEOH     3353     MEOH     LP1B     LPD     -0.230000        0.0000           -1   0.00000   0.00000
     50654 MEOH     3354     MEOH     C1       CD33B    2.314100       11.6110           0   -1.00000   1.30000
     50655 MEOH     3354     MEOH     DC1      DRUD    -2.454100        0.4000           0   0.00000   0.00000
     50656 MEOH     3354     MEOH     O1       OD31H    2.488300       15.5990           0   -1.02800   1.30000
     50657 MEOH     3354     MEOH     DO1      DRUD    -2.488300        0.4000           0   0.00000   0.00000
     50658 MEOH     3354     MEOH     HO1      HDP1A    0.360000        1.0080           0   0.00000   0.00000
     50659 MEOH     3354     MEOH     HO2      DUMH     0.000000        1.0080           0   0.00000   0.00000
     50660 MEOH     3354     MEOH     H1A      HDA3B    0.080000        1.0080           0   0.00000   0.00000
     50661 MEOH     3354     MEOH     H1B      HDA3B    0.080000        1.0080           0   0.00000   0.00000
     50662 MEOH     3354     MEOH     H1C      HDA3B    0.080000        1.0080           0   0.00000   0.00000
     50663 MEOH     3354     MEOH     LP1A     LPD     -0.230000        0.0000           -1   0.00000   0.00000
     50664 MEOH     3354     MEOH     LP1B     LPD     -0.230000        0.0000           -1   0.00000   0.00000
     50665 MEOH     3355     MEOH     C1       CD33B    2.314100       11.6110           0   -1.00000   1.30000
     50666 MEOH     3355     MEOH     DC1      DRUD    -2.454100        0.4000           0   0.00000   0.00000
     50667 MEOH     3355     MEOH     O1       OD31H    2.488300       15.5990           0   -1.02800   1.30000
     50668 MEOH     3355     MEOH     DO1      DRUD    -2.488300        0.4000           0   0.00000   0.00000
     50669 MEOH     3355     MEOH     HO1      HDP1A    0.360000        1.0080           0   0.00000   0.00000
     50670 MEOH     3355     MEOH     HO2      DUMH     0.000000        1.0080           0   0.00000   0.00000
     50671 MEOH     3355     MEOH     H1A      HDA3B    0.080000        1.0080           0   0.00000   0.00000
     50672 MEOH     3355     MEOH     H1B      HDA3B    0.080000        1.0080           0   0.00000   0.00000
     50673 MEOH     3355     MEOH     H1C      HDA3B    0.080000        1.0080           0   0.00000   0.00000
     50674 MEOH     3355     MEOH     LP1A     LPD     -0.230000        0.0000           -1   0.00000   0.00000
     50675 MEOH     3355     MEOH     LP1B     LPD     -0.230000        0.0000           -1   0.00000   0.00000
     50676 MEOH     3356     MEOH     C1       CD33B    2.314100       11.6110           0   -1.00000   1.30000
     50677 MEOH     3356     MEOH     DC1      DRUD    -2.454100        0.4000           0   0.00000   0.00000
     50678 MEOH     3356     MEOH     O1       OD31H    2.488300       15.5990           0   -1.02800   1.30000
     50679 MEOH     3356     MEOH     DO1      DRUD    -2.488300        0.4000           0   0.00000   0.00000
     50680 MEOH     3356     MEOH     HO1      HDP1A    0.360000        1.0080           0   0.00000   0.00000
     50681 MEOH     3356     MEOH     HO2      DUMH     0.000000        1.0080           0   0.00000   0.00000
     50682 MEOH     3356     MEOH     H1A      HDA3B    0.080000        1.0080           0   0.00000   0.00000
     50683 MEOH     3356     MEOH     H1B      HDA3B    0.080000        1.0080           0   0.00000   0.00000
     50684 MEOH     3356     MEOH     H1C      HDA3B    0.080000        1.0080           0   0.00000   0.00000
     50685 MEOH     3356     MEOH     LP1A     LPD     -0.230000        0.0000           -1   0.00000   0.00000
     50686 MEOH     3356     MEOH     LP1B     LPD     -0.230000        0.0000           -1   0.00000   0.00000
     50687 MEOH     3357     MEOH     C1       CD33B    2.314100       11.6110           0   -1.00000   1.30000
     50688 MEOH     3357     MEOH     DC1      DRUD    -2.454100        0.4000           0   0.00000   0.00000
     50689 MEOH     3357     MEOH     O1       OD31H    2.488300       15.5990           0   -1.02800   1.30000
     50690 MEOH     3357     MEOH     DO1      DRUD    -2.488300        0.4000           0   0.00000   0.00000
     50691 MEOH     3357     MEOH     HO1      HDP1A    0.360000        1.0080           0   0.00000   0.00000
     50692 MEOH     3357     MEOH     HO2      DUMH     0.000000        1.0080           0   0.00000   0.00000
     50693 MEOH     3357     MEOH     H1A      HDA3B    0.080000        1.0080           0   0.00000   0.00000
     50694 MEOH     3357     MEOH     H1B      HDA3B    0.080000        1.0080           0   0.00000   0.00000
     50695 MEOH     3357     MEOH     H1C      HDA3B    0.080000        1.0080           0   0.00000   0.00000
     50696 MEOH     3357     MEOH     LP1A     LPD     -0.230000        0.0000           -1   0.00000   0.00000
     50697 MEOH     3357     MEOH     LP1B     LPD     -0.230000        0.0000           -1   0.00000   0.00000
     50698 MEOH     3358     MEOH     C1       CD33B    2.314100       11.6110           0   -1.00000   1.30000
     50699 MEOH     3358     MEOH     DC1      DRUD    -2.454100        0.4000           0   0.00000   0.00000
     50700 MEOH     3358     MEOH     O1       OD31H    2.488300       15.5990           0   -1.02800   1.30000
     50701 MEOH     3358     MEOH     DO1      DRUD    -2.488300        0.4000           0   0.00000   0.00000
     50702 MEOH     3358     MEOH     HO1      HDP1A    0.360000        1.0080           0   0.00000   0.00000
     50703 MEOH     3358     MEOH     HO2      DUMH     0.000000        1.0080           0   0.00000   0.00000
     50704 MEOH     3358     MEOH     H1A      HDA3B    0.080000        1.0080           0   0.00000   0.00000
     50705 MEOH     3358     MEOH     H1B      HDA3B    0.080000        1.0080           0   0.00000   0.00000
     50706 MEOH     3358     MEOH     H1C      HDA3B    0.080000        1.0080           0   0.00000   0.00000
     50707 MEOH     3358     MEOH     LP1A     LPD     -0.230000        0.0000           -1   0.00000   0.00000
     50708 MEOH     3358     MEOH     LP1B     LPD     -0.230000        0.0000           -1   0.00000   0.00000
     50709 MEOH     3359     MEOH     C1       CD33B    2.314100       11.6110           0   -1.00000   1.30000
     50710 MEOH     3359     MEOH     DC1      DRUD    -2.454100        0.4000           0   0.00000   0.00000
     50711 MEOH     3359     MEOH     O1       OD31H    2.488300       15.5990           0   -1.02800   1.30000
     50712 MEOH     3359     MEOH     DO1      DRUD    -2.488300        0.4000           0   0.00000   0.00000
     50713 MEOH     3359     MEOH     HO1      HDP1A    0.360000        1.0080           0   0.00000   0.00000
     50714 MEOH     3359     MEOH     HO2      DUMH     0.000000        1.0080           0   0.00000   0.00000
     50715 MEOH     3359     MEOH     H1A      HDA3B    0.080000        1.0080           0   0.00000   0.00000
     50716 MEOH     3359     MEOH     H1B      HDA3B    0.080000        1.0080           0   0.00000   0.00000
     50717 MEOH     3359     MEOH     H1C      HDA3B    0.080000        1.0080           0   0.00000   0.00000
     50718 MEOH     3359     MEOH     LP1A     LPD     -0.230000        0.0000           -1   0.00000   0.00000
     50719 MEOH     3359     MEOH     LP1B     LPD     -0.230000        0.0000           -1   0.00000   0.00000
     50720 MEOH     3360     MEOH     C1       CD33B    2.314100       11.6110           0   -1.00000   1.30000
     50721 MEOH     3360     MEOH     DC1      DRUD    -2.454100        0.4000           0   0.00000   0.00000
     50722 MEOH     3360     MEOH     O1       OD31H    2.488300       15.5990           0   -1.02800   1.30000
     50723 MEOH     3360     MEOH     DO1      DRUD    -2.488300        0.4000           0   0.00000   0.00000
     50724 MEOH     3360     MEOH     HO1      HDP1A    0.360000        1.0080           0   0.00000   0.00000
     50725 MEOH     3360     MEOH     HO2      DUMH     0.000000        1.0080           0   0.00000   0.00000
     50726 MEOH     3360     MEOH     H1A      HDA3B    0.080000        1.0080           0   0.00000   0.00000
     50727 MEOH     3360     MEOH     H1B      HDA3B    0.080000        1.0080           0   0.00000   0.00000
     50728 MEOH     3360     MEOH     H1C      HDA3B    0.080000        1.0080           0   0.00000   0.00000
     50729 MEOH     3360     MEOH     LP1A     LPD     -0.230000        0.0000           -1   0.00000   0.00000
     50730 MEOH     3360     MEOH     LP1B     LPD     -0.230000        0.0000           -1   0.00000   0.00000
     50731 MEOH     3361     MEOH     C1       CD33B    2.314100       11.6110           0   -1.00000   1.30000
     50732 MEOH     3361     MEOH     DC1      DRUD    -2.454100        0.4000           0   0.00000   0.00000
     50733 MEOH     3361     MEOH     O1       OD31H    2.488300       15.5990           0   -1.02800   1.30000
     50734 MEOH     3361     MEOH     DO1      DRUD    -2.488300        0.4000           0   0.00000   0.00000
     50735 MEOH     3361     MEOH     HO1      HDP1A    0.360000        1.0080           0   0.00000   0.00000
     50736 MEOH     3361     MEOH     HO2      DUMH     0.000000        1.0080           0   0.00000   0.00000
     50737 MEOH     3361     MEOH     H1A      HDA3B    0.080000        1.0080           0   0.00000   0.00000
     50738 MEOH     3361     MEOH     H1B      HDA3B    0.080000        1.0080           0   0.00000   0.00000
     50739 MEOH     3361     MEOH     H1C      HDA3B    0.080000        1.0080           0   0.00000   0.00000
     50740 MEOH     3361     MEOH     LP1A     LPD     -0.230000        0.0000           -1   0.00000   0.00000
     50741 MEOH     3361     MEOH     LP1B     LPD     -0.230000        0.0000           -1   0.00000   0.00000
     50742 MEOH     3362     MEOH     C1       CD33B    2.314100       11.6110           0   -1.00000   1.30000
     50743 MEOH     3362     MEOH     DC1      DRUD    -2.454100        0.4000           0   0.00000   0.00000
     50744 MEOH     3362     MEOH     O1       OD31H    2.488300       15.5990           0   -1.02800   1.30000
     50745 MEOH     3362     MEOH     DO1      DRUD    -2.488300        0.4000           0   0.00000   0.00000
     50746 MEOH     3362     MEOH     HO1      HDP1A    0.360000        1.0080           0   0.00000   0.00000
     50747 MEOH     3362     MEOH     HO2      DUMH     0.000000        1.0080           0   0.00000   0.00000
     50748 MEOH     3362     MEOH     H1A      HDA3B    0.080000        1.0080           0   0.00000   0.00000
     50749 MEOH     3362     MEOH     H1B      HDA3B    0.080000        1.0080           0   0.00000   0.00000
     50750 MEOH     3362     MEOH     H1C      HDA3B    0.080000        1.0080           0   0.00000   0.00000
     50751 MEOH     3362     MEOH     LP1A     LPD     -0.230000        0.0000           -1   0.00000   0.00000
     50752 MEOH     3362     MEOH     LP1B     LPD     -0.230000        0.0000           -1   0.00000   0.00000
     50753 MEOH     3363     MEOH     C1       CD33B    2.314100       11.6110           0   -1.00000   1.30000
     50754 MEOH     3363     MEOH     DC1      DRUD    -2.454100        0.4000           0   0.00000   0.00000
     50755 MEOH     3363     MEOH     O1       OD31H    2.488300       15.5990           0   -1.02800   1.30000
     50756 MEOH     3363     MEOH     DO1      DRUD    -2.488300        0.4000           0   0.00000   0.00000
     50757 MEOH     3363     MEOH     HO1      HDP1A    0.360000        1.0080           0   0.00000   0.00000
     50758 MEOH     3363     MEOH     HO2      DUMH     0.000000        1.0080           0   0.00000   0.00000
     50759 MEOH     3363     MEOH     H1A      HDA3B    0.080000        1.0080           0   0.00000   0.00000
     50760 MEOH     3363     MEOH     H1B      HDA3B    0.080000        1.0080           0   0.00000   0.00000
     50761 MEOH     3363     MEOH     H1C      HDA3B    0.080000        1.0080           0   0.00000   0.00000
     50762 MEOH     3363     MEOH     LP1A     LPD     -0.230000        0.0000           -1   0.00000   0.00000
     50763 MEOH     3363     MEOH     LP1B     LPD     -0.230000        0.0000           -1   0.00000   0.00000
     50764 MEOH     3364     MEOH     C1       CD33B    2.314100       11.6110           0   -1.00000   1.30000
     50765 MEOH     3364     MEOH     DC1      DRUD    -2.454100        0.4000           0   0.00000   0.00000
     50766 MEOH     3364     MEOH     O1       OD31H    2.488300       15.5990           0   -1.02800   1.30000
     50767 MEOH     3364     MEOH     DO1      DRUD    -2.488300        0.4000           0   0.00000   0.00000
     50768 MEOH     3364     MEOH     HO1      HDP1A    0.360000        1.0080           0   0.00000   0.00000
     50769 MEOH     3364     MEOH     HO2      DUMH     0.000000        1.0080           0   0.00000   0.00000
     50770 MEOH     3364     MEOH     H1A      HDA3B    0.080000        1.0080           0   0.00000   0.00000
     50771 MEOH     3364     MEOH     H1B      HDA3B    0.080000        1.0080           0   0.00000   0.00000
     50772 MEOH     3364     MEOH     H1C      HDA3B    0.080000        1.0080           0   0.00000   0.00000
     50773 MEOH     3364     MEOH     LP1A     LPD     -0.230000        0.0000           -1   0.00000   0.00000
     50774 MEOH     3364     MEOH     LP1B     LPD     -0.230000        0.0000           -1   0.00000   0.00000
     50775 MEOH     3365     MEOH     C1       CD33B    2.314100       11.6110           0   -1.00000   1.30000
     50776 MEOH     3365     MEOH     DC1      DRUD    -2.454100        0.4000           0   0.00000   0.00000
     50777 MEOH     3365     MEOH     O1       OD31H    2.488300       15.5990           0   -1.02800   1.30000
     50778 MEOH     3365     MEOH     DO1      DRUD    -2.488300        0.4000           0   0.00000   0.00000
     50779 MEOH     3365     MEOH     HO1      HDP1A    0.360000        1.0080           0   0.00000   0.00000
     50780 MEOH     3365     MEOH     HO2      DUMH     0.000000        1.0080           0   0.00000   0.00000
     50781 MEOH     3365     MEOH     H1A      HDA3B    0.080000        1.0080           0   0.00000   0.00000
     50782 MEOH     3365     MEOH     H1B      HDA3B    0.080000        1.0080           0   0.00000   0.00000
     50783 MEOH     3365     MEOH     H1C      HDA3B    0.080000        1.0080           0   0.00000   0.00000
     50784 MEOH     3365     MEOH     LP1A     LPD     -0.230000        0.0000           -1   0.00000   0.00000
     50785 MEOH     3365     MEOH     LP1B     LPD     -0.230000        0.0000           -1   0.00000   0.00000
     50786 MEOH     3366     MEOH     C1       CD33B    2.314100       11.6110           0   -1.00000   1.30000
     50787 MEOH     3366     MEOH     DC1      DRUD    -2.454100        0.4000           0   0.00000   0.00000
     50788 MEOH     3366     MEOH     O1       OD31H    2.488300       15.5990           0   -1.02800   1.30000
     50789 MEOH     3366     MEOH     DO1      DRUD    -2.488300        0.4000           0   0.00000   0.00000
     50790 MEOH     3366     MEOH     HO1      HDP1A    0.360000        1.0080           0   0.00000   0.00000
     50791 MEOH     3366     MEOH     HO2      DUMH     0.000000        1.0080           0   0.00000   0.00000
     50792 MEOH     3366     MEOH     H1A      HDA3B    0.080000        1.0080           0   0.00000   0.00000
     50793 MEOH     3366     MEOH     H1B      HDA3B    0.080000        1.0080           0   0.00000   0.00000
     50794 MEOH     3366     MEOH     H1C      HDA3B    0.080000        1.0080           0   0.00000   0.00000
     50795 MEOH     3366     MEOH     LP1A     LPD     -0.230000        0.0000           -1   0.00000   0.00000
     50796 MEOH     3366     MEOH     LP1B     LPD     -0.230000        0.0000           -1   0.00000   0.00000
     50797 MEOH     3367     MEOH     C1       CD33B    2.314100       11.6110           0   -1.00000   1.30000
     50798 MEOH     3367     MEOH     DC1      DRUD    -2.454100        0.4000           0   0.00000   0.00000
     50799 MEOH     3367     MEOH     O1       OD31H    2.488300       15.5990           0   -1.02800   1.30000
     50800 MEOH     3367     MEOH     DO1      DRUD    -2.488300        0.4000           0   0.00000   0.00000
     50801 MEOH     3367     MEOH     HO1      HDP1A    0.360000        1.0080           0   0.00000   0.00000
     50802 MEOH     3367     MEOH     HO2      DUMH     0.000000        1.0080           0   0.00000   0.00000
     50803 MEOH     3367     MEOH     H1A      HDA3B    0.080000        1.0080           0   0.00000   0.00000
     50804 MEOH     3367     MEOH     H1B      HDA3B    0.080000        1.0080           0   0.00000   0.00000
     50805 MEOH     3367     MEOH     H1C      HDA3B    0.080000        1.0080           0   0.00000   0.00000
     50806 MEOH     3367     MEOH     LP1A     LPD     -0.230000        0.0000           -1   0.00000   0.00000
     50807 MEOH     3367     MEOH     LP1B     LPD     -0.230000        0.0000           -1   0.00000   0.00000
     50808 MEOH     3368     MEOH     C1       CD33B    2.314100       11.6110           0   -1.00000   1.30000
     50809 MEOH     3368     MEOH     DC1      DRUD    -2.454100        0.4000           0   0.00000   0.00000
     50810 MEOH     3368     MEOH     O1       OD31H    2.488300       15.5990           0   -1.02800   1.30000
     50811 MEOH     3368     MEOH     DO1      DRUD    -2.488300        0.4000           0   0.00000   0.00000
     50812 MEOH     3368     MEOH     HO1      HDP1A    0.360000        1.0080           0   0.00000   0.00000
     50813 MEOH     3368     MEOH     HO2      DUMH     0.000000        1.0080           0   0.00000   0.00000
     50814 MEOH     3368     MEOH     H1A      HDA3B    0.080000        1.0080           0   0.00000   0.00000
     50815 MEOH     3368     MEOH     H1B      HDA3B    0.080000        1.0080           0   0.00000   0.00000
     50816 MEOH     3368     MEOH     H1C      HDA3B    0.080000        1.0080           0   0.00000   0.00000
     50817 MEOH     3368     MEOH     LP1A     LPD     -0.230000        0.0000           -1   0.00000   0.00000
     50818 MEOH     3368     MEOH     LP1B     LPD     -0.230000        0.0000           -1   0.00000   0.00000
     50819 MEOH     3369     MEOH     C1       CD33B    2.314100       11.6110           0   -1.00000   1.30000
     50820 MEOH     3369     MEOH     DC1      DRUD    -2.454100        0.4000           0   0.00000   0.00000
     50821 MEOH     3369     MEOH     O1       OD31H    2.488300       15.5990           0   -1.02800   1.30000
     50822 MEOH     3369     MEOH     DO1      DRUD    -2.488300        0.4000           0   0.00000   0.00000
     50823 MEOH     3369     MEOH     HO1      HDP1A    0.360000        1.0080           0   0.00000   0.00000
     50824 MEOH     3369     MEOH     HO2      DUMH     0.000000        1.0080           0   0.00000   0.00000
     50825 MEOH     3369     MEOH     H1A      HDA3B    0.080000        1.0080           0   0.00000   0.00000
     50826 MEOH     3369     MEOH     H1B      HDA3B    0.080000        1.0080           0   0.00000   0.00000
     50827 MEOH     3369     MEOH     H1C      HDA3B    0.080000        1.0080           0   0.00000   0.00000
     50828 MEOH     3369     MEOH     LP1A     LPD     -0.230000        0.0000           -1   0.00000   0.00000
     50829 MEOH     3369     MEOH     LP1B     LPD     -0.230000        0.0000           -1   0.00000   0.00000
     50830 MEOH     3370     MEOH     C1       CD33B    2.314100       11.6110           0   -1.00000   1.30000
     50831 MEOH     3370     MEOH     DC1      DRUD    -2.454100        0.4000           0   0.00000   0.00000
     50832 MEOH     3370     MEOH     O1       OD31H    2.488300       15.5990           0   -1.02800   1.30000
     50833 MEOH     3370     MEOH     DO1      DRUD    -2.488300        0.4000           0   0.00000   0.00000
     50834 MEOH     3370     MEOH     HO1      HDP1A    0.360000        1.0080           0   0.00000   0.00000
     50835 MEOH     3370     MEOH     HO2      DUMH     0.000000        1.0080           0   0.00000   0.00000
     50836 MEOH     3370     MEOH     H1A      HDA3B    0.080000        1.0080           0   0.00000   0.00000
     50837 MEOH     3370     MEOH     H1B      HDA3B    0.080000        1.0080           0   0.00000   0.00000
     50838 MEOH     3370     MEOH     H1C      HDA3B    0.080000        1.0080           0   0.00000   0.00000
     50839 MEOH     3370     MEOH     LP1A     LPD     -0.230000        0.0000           -1   0.00000   0.00000
     50840 MEOH     3370     MEOH     LP1B     LPD     -0.230000        0.0000           -1   0.00000   0.00000
     50841 MEOH     3371     MEOH     C1       CD33B    2.314100       11.6110           0   -1.00000   1.30000
     50842 MEOH     3371     MEOH     DC1      DRUD    -2.454100        0.4000           0   0.00000   0.00000
     50843 MEOH     3371     MEOH     O1       OD31H    2.488300       15.5990           0   -1.02800   1.30000
     50844 MEOH     3371     MEOH     DO1      DRUD    -2.488300        0.4000           0   0.00000   0.00000
     50845 MEOH     3371     MEOH     HO1      HDP1A    0.360000        1.0080           0   0.00000   0.00000
     50846 MEOH     3371     MEOH     HO2      DUMH     0.000000        1.0080           0   0.00000   0.00000
     50847 MEOH     3371     MEOH     H1A      HDA3B    0.080000        1.0080           0   0.00000   0.00000
     50848 MEOH     3371     MEOH     H1B      HDA3B    0.080000        1.0080           0   0.00000   0.00000
     50849 MEOH     3371     MEOH     H1C      HDA3B    0.080000        1.0080           0   0.00000   0.00000
     50850 MEOH     3371     MEOH     LP1A     LPD     -0.230000        0.0000           -1   0.00000   0.00000
     50851 MEOH     3371     MEOH     LP1B     LPD     -0.230000        0.0000           -1   0.00000   0.00000
     50852 MEOH     3372     MEOH     C1       CD33B    2.314100       11.6110           0   -1.00000   1.30000
     50853 MEOH     3372     MEOH     DC1      DRUD    -2.454100        0.4000           0   0.00000   0.00000
     50854 MEOH     3372     MEOH     O1       OD31H    2.488300       15.5990           0   -1.02800   1.30000
     50855 MEOH     3372     MEOH     DO1      DRUD    -2.488300        0.4000           0   0.00000   0.00000
     50856 MEOH     3372     MEOH     HO1      HDP1A    0.360000        1.0080           0   0.00000   0.00000
     50857 MEOH     3372     MEOH     HO2      DUMH     0.000000        1.0080           0   0.00000   0.00000
     50858 MEOH     3372     MEOH     H1A      HDA3B    0.080000        1.0080           0   0.00000   0.00000
     50859 MEOH     3372     MEOH     H1B      HDA3B    0.080000        1.0080           0   0.00000   0.00000
     50860 MEOH     3372     MEOH     H1C      HDA3B    0.080000        1.0080           0   0.00000   0.00000
     50861 MEOH     3372     MEOH     LP1A     LPD     -0.230000        0.0000           -1   0.00000   0.00000
     50862 MEOH     3372     MEOH     LP1B     LPD     -0.230000        0.0000           -1   0.00000   0.00000
     50863 MEOH     3373     MEOH     C1       CD33B    2.314100       11.6110           0   -1.00000   1.30000
     50864 MEOH     3373     MEOH     DC1      DRUD    -2.454100        0.4000           0   0.00000   0.00000
     50865 MEOH     3373     MEOH     O1       OD31H    2.488300       15.5990           0   -1.02800   1.30000
     50866 MEOH     3373     MEOH     DO1      DRUD    -2.488300        0.4000           0   0.00000   0.00000
     50867 MEOH     3373     MEOH     HO1      HDP1A    0.360000        1.0080           0   0.00000   0.00000
     50868 MEOH     3373     MEOH     HO2      DUMH     0.000000        1.0080           0   0.00000   0.00000
     50869 MEOH     3373     MEOH     H1A      HDA3B    0.080000        1.0080           0   0.00000   0.00000
     50870 MEOH     3373     MEOH     H1B      HDA3B    0.080000        1.0080           0   0.00000   0.00000
     50871 MEOH     3373     MEOH     H1C      HDA3B    0.080000        1.0080           0   0.00000   0.00000
     50872 MEOH     3373     MEOH     LP1A     LPD     -0.230000        0.0000           -1   0.00000   0.00000
     50873 MEOH     3373     MEOH     LP1B     LPD     -0.230000        0.0000           -1   0.00000   0.00000
     50874 MEOH     3374     MEOH     C1       CD33B    2.314100       11.6110           0   -1.00000   1.30000
     50875 MEOH     3374     MEOH     DC1      DRUD    -2.454100        0.4000           0   0.00000   0.00000
     50876 MEOH     3374     MEOH     O1       OD31H    2.488300       15.5990           0   -1.02800   1.30000
     50877 MEOH     3374     MEOH     DO1      DRUD    -2.488300        0.4000           0   0.00000   0.00000
     50878 MEOH     3374     MEOH     HO1      HDP1A    0.360000        1.0080           0   0.00000   0.00000
     50879 MEOH     3374     MEOH     HO2      DUMH     0.000000        1.0080           0   0.00000   0.00000
     50880 MEOH     3374     MEOH     H1A      HDA3B    0.080000        1.0080           0   0.00000   0.00000
     50881 MEOH     3374     MEOH     H1B      HDA3B    0.080000        1.0080           0   0.00000   0.00000
     50882 MEOH     3374     MEOH     H1C      HDA3B    0.080000        1.0080           0   0.00000   0.00000
     50883 MEOH     3374     MEOH     LP1A     LPD     -0.230000        0.0000           -1   0.00000   0.00000
     50884 MEOH     3374     MEOH     LP1B     LPD     -0.230000        0.0000           -1   0.00000   0.00000
     50885 MEOH     3375     MEOH     C1       CD33B    2.314100       11.6110           0   -1.00000   1.30000
     50886 MEOH     3375     MEOH     DC1      DRUD    -2.454100        0.4000           0   0.00000   0.00000
     50887 MEOH     3375     MEOH     O1       OD31H    2.488300       15.5990           0   -1.02800   1.30000
     50888 MEOH     3375     MEOH     DO1      DRUD    -2.488300        0.4000           0   0.00000   0.00000
     50889 MEOH     3375     MEOH     HO1      HDP1A    0.360000        1.0080           0   0.00000   0.00000
     50890 MEOH     3375     MEOH     HO2      DUMH     0.000000        1.0080           0   0.00000   0.00000
     50891 MEOH     3375     MEOH     H1A      HDA3B    0.080000        1.0080           0   0.00000   0.00000
     50892 MEOH     3375     MEOH     H1B      HDA3B    0.080000        1.0080           0   0.00000   0.00000
     50893 MEOH     3375     MEOH     H1C      HDA3B    0.080000        1.0080           0   0.00000   0.00000
     50894 MEOH     3375     MEOH     LP1A     LPD     -0.230000        0.0000           -1   0.00000   0.00000
     50895 MEOH     3375     MEOH     LP1B     LPD     -0.230000        0.0000           -1   0.00000   0.00000
     50896 MEOH     3376     MEOH     C1       CD33B    2.314100       11.6110           0   -1.00000   1.30000
     50897 MEOH     3376     MEOH     DC1      DRUD    -2.454100        0.4000           0   0.00000   0.00000
     50898 MEOH     3376     MEOH     O1       OD31H    2.488300       15.5990           0   -1.02800   1.30000
     50899 MEOH     3376     MEOH     DO1      DRUD    -2.488300        0.4000           0   0.00000   0.00000
     50900 MEOH     3376     MEOH     HO1      HDP1A    0.360000        1.0080           0   0.00000   0.00000
     50901 MEOH     3376     MEOH     HO2      DUMH     0.000000        1.0080           0   0.00000   0.00000
     50902 MEOH     3376     MEOH     H1A      HDA3B    0.080000        1.0080           0   0.00000   0.00000
     50903 MEOH     3376     MEOH     H1B      HDA3B    0.080000        1.0080           0   0.00000   0.00000
     50904 MEOH     3376     MEOH     H1C      HDA3B    0.080000        1.0080           0   0.00000   0.00000
     50905 MEOH     3376     MEOH     LP1A     LPD     -0.230000        0.0000           -1   0.00000   0.00000
     50906 MEOH     3376     MEOH     LP1B     LPD     -0.230000        0.0000           -1   0.00000   0.00000
     50907 MEOH     3377     MEOH     C1       CD33B    2.314100       11.6110           0   -1.00000   1.30000
     50908 MEOH     3377     MEOH     DC1      DRUD    -2.454100        0.4000           0   0.00000   0.00000
     50909 MEOH     3377     MEOH     O1       OD31H    2.488300       15.5990           0   -1.02800   1.30000
     50910 MEOH     3377     MEOH     DO1      DRUD    -2.488300        0.4000           0   0.00000   0.00000
     50911 MEOH     3377     MEOH     HO1      HDP1A    0.360000        1.0080           0   0.00000   0.00000
     50912 MEOH     3377     MEOH     HO2      DUMH     0.000000        1.0080           0   0.00000   0.00000
     50913 MEOH     3377     MEOH     H1A      HDA3B    0.080000        1.0080           0   0.00000   0.00000
     50914 MEOH     3377     MEOH     H1B      HDA3B    0.080000        1.0080           0   0.00000   0.00000
     50915 MEOH     3377     MEOH     H1C      HDA3B    0.080000        1.0080           0   0.00000   0.00000
     50916 MEOH     3377     MEOH     LP1A     LPD     -0.230000        0.0000           -1   0.00000   0.00000
     50917 MEOH     3377     MEOH     LP1B     LPD     -0.230000        0.0000           -1   0.00000   0.00000
     50918 MEOH     3378     MEOH     C1       CD33B    2.314100       11.6110           0   -1.00000   1.30000
     50919 MEOH     3378     MEOH     DC1      DRUD    -2.454100        0.4000           0   0.00000   0.00000
     50920 MEOH     3378     MEOH     O1       OD31H    2.488300       15.5990           0   -1.02800   1.30000
     50921 MEOH     3378     MEOH     DO1      DRUD    -2.488300        0.4000           0   0.00000   0.00000
     50922 MEOH     3378     MEOH     HO1      HDP1A    0.360000        1.0080           0   0.00000   0.00000
     50923 MEOH     3378     MEOH     HO2      DUMH     0.000000        1.0080           0   0.00000   0.00000
     50924 MEOH     3378     MEOH     H1A      HDA3B    0.080000        1.0080           0   0.00000   0.00000
     50925 MEOH     3378     MEOH     H1B      HDA3B    0.080000        1.0080           0   0.00000   0.00000
     50926 MEOH     3378     MEOH     H1C      HDA3B    0.080000        1.0080           0   0.00000   0.00000
     50927 MEOH     3378     MEOH     LP1A     LPD     -0.230000        0.0000           -1   0.00000   0.00000
     50928 MEOH     3378     MEOH     LP1B     LPD     -0.230000        0.0000           -1   0.00000   0.00000
     50929 MEOH     3379     MEOH     C1       CD33B    2.314100       11.6110           0   -1.00000   1.30000
     50930 MEOH     3379     MEOH     DC1      DRUD    -2.454100        0.4000           0   0.00000   0.00000
     50931 MEOH     3379     MEOH     O1       OD31H    2.488300       15.5990           0   -1.02800   1.30000
     50932 MEOH     3379     MEOH     DO1      DRUD    -2.488300        0.4000           0   0.00000   0.00000
     50933 MEOH     3379     MEOH     HO1      HDP1A    0.360000        1.0080           0   0.00000   0.00000
     50934 MEOH     3379     MEOH     HO2      DUMH     0.000000        1.0080           0   0.00000   0.00000
     50935 MEOH     3379     MEOH     H1A      HDA3B    0.080000        1.0080           0   0.00000   0.00000
     50936 MEOH     3379     MEOH     H1B      HDA3B    0.080000        1.0080           0   0.00000   0.00000
     50937 MEOH     3379     MEOH     H1C      HDA3B    0.080000        1.0080           0   0.00000   0.00000
     50938 MEOH     3379     MEOH     LP1A     LPD     -0.230000        0.0000           -1   0.00000   0.00000
     50939 MEOH     3379     MEOH     LP1B     LPD     -0.230000        0.0000           -1   0.00000   0.00000
     50940 MEOH     3380     MEOH     C1       CD33B    2.314100       11.6110           0   -1.00000   1.30000
     50941 MEOH     3380     MEOH     DC1      DRUD    -2.454100        0.4000           0   0.00000   0.00000
     50942 MEOH     3380     MEOH     O1       OD31H    2.488300       15.5990           0   -1.02800   1.30000
     50943 MEOH     3380     MEOH     DO1      DRUD    -2.488300        0.4000           0   0.00000   0.00000
     50944 MEOH     3380     MEOH     HO1      HDP1A    0.360000        1.0080           0   0.00000   0.00000
     50945 MEOH     3380     MEOH     HO2      DUMH     0.000000        1.0080           0   0.00000   0.00000
     50946 MEOH     3380     MEOH     H1A      HDA3B    0.080000        1.0080           0   0.00000   0.00000
     50947 MEOH     3380     MEOH     H1B      HDA3B    0.080000        1.0080           0   0.00000   0.00000
     50948 MEOH     3380     MEOH     H1C      HDA3B    0.080000        1.0080           0   0.00000   0.00000
     50949 MEOH     3380     MEOH     LP1A     LPD     -0.230000        0.0000           -1   0.00000   0.00000
     50950 MEOH     3380     MEOH     LP1B     LPD     -0.230000        0.0000           -1   0.00000   0.00000
     50951 MEOH     3381     MEOH     C1       CD33B    2.314100       11.6110           0   -1.00000   1.30000
     50952 MEOH     3381     MEOH     DC1      DRUD    -2.454100        0.4000           0   0.00000   0.00000
     50953 MEOH     3381     MEOH     O1       OD31H    2.488300       15.5990           0   -1.02800   1.30000
     50954 MEOH     3381     MEOH     DO1      DRUD    -2.488300        0.4000           0   0.00000   0.00000
     50955 MEOH     3381     MEOH     HO1      HDP1A    0.360000        1.0080           0   0.00000   0.00000
     50956 MEOH     3381     MEOH     HO2      DUMH     0.000000        1.0080           0   0.00000   0.00000
     50957 MEOH     3381     MEOH     H1A      HDA3B    0.080000        1.0080           0   0.00000   0.00000
     50958 MEOH     3381     MEOH     H1B      HDA3B    0.080000        1.0080           0   0.00000   0.00000
     50959 MEOH     3381     MEOH     H1C      HDA3B    0.080000        1.0080           0   0.00000   0.00000
     50960 MEOH     3381     MEOH     LP1A     LPD     -0.230000        0.0000           -1   0.00000   0.00000
     50961 MEOH     3381     MEOH     LP1B     LPD     -0.230000        0.0000           -1   0.00000   0.00000
     50962 MEOH     3382     MEOH     C1       CD33B    2.314100       11.6110           0   -1.00000   1.30000
     50963 MEOH     3382     MEOH     DC1      DRUD    -2.454100        0.4000           0   0.00000   0.00000
     50964 MEOH     3382     MEOH     O1       OD31H    2.488300       15.5990           0   -1.02800   1.30000
     50965 MEOH     3382     MEOH     DO1      DRUD    -2.488300        0.4000           0   0.00000   0.00000
     50966 MEOH     3382     MEOH     HO1      HDP1A    0.360000        1.0080           0   0.00000   0.00000
     50967 MEOH     3382     MEOH     HO2      DUMH     0.000000        1.0080           0   0.00000   0.00000
     50968 MEOH     3382     MEOH     H1A      HDA3B    0.080000        1.0080           0   0.00000   0.00000
     50969 MEOH     3382     MEOH     H1B      HDA3B    0.080000        1.0080           0   0.00000   0.00000
     50970 MEOH     3382     MEOH     H1C      HDA3B    0.080000        1.0080           0   0.00000   0.00000
     50971 MEOH     3382     MEOH     LP1A     LPD     -0.230000        0.0000           -1   0.00000   0.00000
     50972 MEOH     3382     MEOH     LP1B     LPD     -0.230000        0.0000           -1   0.00000   0.00000
     50973 MEOH     3383     MEOH     C1       CD33B    2.314100       11.6110           0   -1.00000   1.30000
     50974 MEOH     3383     MEOH     DC1      DRUD    -2.454100        0.4000           0   0.00000   0.00000
     50975 MEOH     3383     MEOH     O1       OD31H    2.488300       15.5990           0   -1.02800   1.30000
     50976 MEOH     3383     MEOH     DO1      DRUD    -2.488300        0.4000           0   0.00000   0.00000
     50977 MEOH     3383     MEOH     HO1      HDP1A    0.360000        1.0080           0   0.00000   0.00000
     50978 MEOH     3383     MEOH     HO2      DUMH     0.000000        1.0080           0   0.00000   0.00000
     50979 MEOH     3383     MEOH     H1A      HDA3B    0.080000        1.0080           0   0.00000   0.00000
     50980 MEOH     3383     MEOH     H1B      HDA3B    0.080000        1.0080           0   0.00000   0.00000
     50981 MEOH     3383     MEOH     H1C      HDA3B    0.080000        1.0080           0   0.00000   0.00000
     50982 MEOH     3383     MEOH     LP1A     LPD     -0.230000        0.0000           -1   0.00000   0.00000
     50983 MEOH     3383     MEOH     LP1B     LPD     -0.230000        0.0000           -1   0.00000   0.00000
     50984 MEOH     3384     MEOH     C1       CD33B    2.314100       11.6110           0   -1.00000   1.30000
     50985 MEOH     3384     MEOH     DC1      DRUD    -2.454100        0.4000           0   0.00000   0.00000
     50986 MEOH     3384     MEOH     O1       OD31H    2.488300       15.5990           0   -1.02800   1.30000
     50987 MEOH     3384     MEOH     DO1      DRUD    -2.488300        0.4000           0   0.00000   0.00000
     50988 MEOH     3384     MEOH     HO1      HDP1A    0.360000        1.0080           0   0.00000   0.00000
     50989 MEOH     3384     MEOH     HO2      DUMH     0.000000        1.0080           0   0.00000   0.00000
     50990 MEOH     3384     MEOH     H1A      HDA3B    0.080000        1.0080           0   0.00000   0.00000
     50991 MEOH     3384     MEOH     H1B      HDA3B    0.080000        1.0080           0   0.00000   0.00000
     50992 MEOH     3384     MEOH     H1C      HDA3B    0.080000        1.0080           0   0.00000   0.00000
     50993 MEOH     3384     MEOH     LP1A     LPD     -0.230000        0.0000           -1   0.00000   0.00000
     50994 MEOH     3384     MEOH     LP1B     LPD     -0.230000        0.0000           -1   0.00000   0.00000
     50995 MEOH     3385     MEOH     C1       CD33B    2.314100       11.6110           0   -1.00000   1.30000
     50996 MEOH     3385     MEOH     DC1      DRUD    -2.454100        0.4000           0   0.00000   0.00000
     50997 MEOH     3385     MEOH     O1       OD31H    2.488300       15.5990           0   -1.02800   1.30000
     50998 MEOH     3385     MEOH     DO1      DRUD    -2.488300        0.4000           0   0.00000   0.00000
     50999 MEOH     3385     MEOH     HO1      HDP1A    0.360000        1.0080           0   0.00000   0.00000
     51000 MEOH     3385     MEOH     HO2      DUMH     0.000000        1.0080           0   0.00000   0.00000
     51001 MEOH     3385     MEOH     H1A      HDA3B    0.080000        1.0080           0   0.00000   0.00000
     51002 MEOH     3385     MEOH     H1B      HDA3B    0.080000        1.0080           0   0.00000   0.00000
     51003 MEOH     3385     MEOH     H1C      HDA3B    0.080000        1.0080           0   0.00000   0.00000
     51004 MEOH     3385     MEOH     LP1A     LPD     -0.230000        0.0000           -1   0.00000   0.00000
     51005 MEOH     3385     MEOH     LP1B     LPD     -0.230000        0.0000           -1   0.00000   0.00000
     51006 MEOH     3386     MEOH     C1       CD33B    2.314100       11.6110           0   -1.00000   1.30000
     51007 MEOH     3386     MEOH     DC1      DRUD    -2.454100        0.4000           0   0.00000   0.00000
     51008 MEOH     3386     MEOH     O1       OD31H    2.488300       15.5990           0   -1.02800   1.30000
     51009 MEOH     3386     MEOH     DO1      DRUD    -2.488300        0.4000           0   0.00000   0.00000
     51010 MEOH     3386     MEOH     HO1      HDP1A    0.360000        1.0080           0   0.00000   0.00000
     51011 MEOH     3386     MEOH     HO2      DUMH     0.000000        1.0080           0   0.00000   0.00000
     51012 MEOH     3386     MEOH     H1A      HDA3B    0.080000        1.0080           0   0.00000   0.00000
     51013 MEOH     3386     MEOH     H1B      HDA3B    0.080000        1.0080           0   0.00000   0.00000
     51014 MEOH     3386     MEOH     H1C      HDA3B    0.080000        1.0080           0   0.00000   0.00000
     51015 MEOH     3386     MEOH     LP1A     LPD     -0.230000        0.0000           -1   0.00000   0.00000
     51016 MEOH     3386     MEOH     LP1B     LPD     -0.230000        0.0000           -1   0.00000   0.00000
     51017 MEOH     3387     MEOH     C1       CD33B    2.314100       11.6110           0   -1.00000   1.30000
     51018 MEOH     3387     MEOH     DC1      DRUD    -2.454100        0.4000           0   0.00000   0.00000
     51019 MEOH     3387     MEOH     O1       OD31H    2.488300       15.5990           0   -1.02800   1.30000
     51020 MEOH     3387     MEOH     DO1      DRUD    -2.488300        0.4000           0   0.00000   0.00000
     51021 MEOH     3387     MEOH     HO1      HDP1A    0.360000        1.0080           0   0.00000   0.00000
     51022 MEOH     3387     MEOH     HO2      DUMH     0.000000        1.0080           0   0.00000   0.00000
     51023 MEOH     3387     MEOH     H1A      HDA3B    0.080000        1.0080           0   0.00000   0.00000
     51024 MEOH     3387     MEOH     H1B      HDA3B    0.080000        1.0080           0   0.00000   0.00000
     51025 MEOH     3387     MEOH     H1C      HDA3B    0.080000        1.0080           0   0.00000   0.00000
     51026 MEOH     3387     MEOH     LP1A     LPD     -0.230000        0.0000           -1   0.00000   0.00000
     51027 MEOH     3387     MEOH     LP1B     LPD     -0.230000        0.0000           -1   0.00000   0.00000
     51028 MEOH     3388     MEOH     C1       CD33B    2.314100       11.6110           0   -1.00000   1.30000
     51029 MEOH     3388     MEOH     DC1      DRUD    -2.454100        0.4000           0   0.00000   0.00000
     51030 MEOH     3388     MEOH     O1       OD31H    2.488300       15.5990           0   -1.02800   1.30000
     51031 MEOH     3388     MEOH     DO1      DRUD    -2.488300        0.4000           0   0.00000   0.00000
     51032 MEOH     3388     MEOH     HO1      HDP1A    0.360000        1.0080           0   0.00000   0.00000
     51033 MEOH     3388     MEOH     HO2      DUMH     0.000000        1.0080           0   0.00000   0.00000
     51034 MEOH     3388     MEOH     H1A      HDA3B    0.080000        1.0080           0   0.00000   0.00000
     51035 MEOH     3388     MEOH     H1B      HDA3B    0.080000        1.0080           0   0.00000   0.00000
     51036 MEOH     3388     MEOH     H1C      HDA3B    0.080000        1.0080           0   0.00000   0.00000
     51037 MEOH     3388     MEOH     LP1A     LPD     -0.230000        0.0000           -1   0.00000   0.00000
     51038 MEOH     3388     MEOH     LP1B     LPD     -0.230000        0.0000           -1   0.00000   0.00000
     51039 MEOH     3389     MEOH     C1       CD33B    2.314100       11.6110           0   -1.00000   1.30000
     51040 MEOH     3389     MEOH     DC1      DRUD    -2.454100        0.4000           0   0.00000   0.00000
     51041 MEOH     3389     MEOH     O1       OD31H    2.488300       15.5990           0   -1.02800   1.30000
     51042 MEOH     3389     MEOH     DO1      DRUD    -2.488300        0.4000           0   0.00000   0.00000
     51043 MEOH     3389     MEOH     HO1      HDP1A    0.360000        1.0080           0   0.00000   0.00000
     51044 MEOH     3389     MEOH     HO2      DUMH     0.000000        1.0080           0   0.00000   0.00000
     51045 MEOH     3389     MEOH     H1A      HDA3B    0.080000        1.0080           0   0.00000   0.00000
     51046 MEOH     3389     MEOH     H1B      HDA3B    0.080000        1.0080           0   0.00000   0.00000
     51047 MEOH     3389     MEOH     H1C      HDA3B    0.080000        1.0080           0   0.00000   0.00000
     51048 MEOH     3389     MEOH     LP1A     LPD     -0.230000        0.0000           -1   0.00000   0.00000
     51049 MEOH     3389     MEOH     LP1B     LPD     -0.230000        0.0000           -1   0.00000   0.00000
     51050 MEOH     3390     MEOH     C1       CD33B    2.314100       11.6110           0   -1.00000   1.30000
     51051 MEOH     3390     MEOH     DC1      DRUD    -2.454100        0.4000           0   0.00000   0.00000
     51052 MEOH     3390     MEOH     O1       OD31H    2.488300       15.5990           0   -1.02800   1.30000
     51053 MEOH     3390     MEOH     DO1      DRUD    -2.488300        0.4000           0   0.00000   0.00000
     51054 MEOH     3390     MEOH     HO1      HDP1A    0.360000        1.0080           0   0.00000   0.00000
     51055 MEOH     3390     MEOH     HO2      DUMH     0.000000        1.0080           0   0.00000   0.00000
     51056 MEOH     3390     MEOH     H1A      HDA3B    0.080000        1.0080           0   0.00000   0.00000
     51057 MEOH     3390     MEOH     H1B      HDA3B    0.080000        1.0080           0   0.00000   0.00000
     51058 MEOH     3390     MEOH     H1C      HDA3B    0.080000        1.0080           0   0.00000   0.00000
     51059 MEOH     3390     MEOH     LP1A     LPD     -0.230000        0.0000           -1   0.00000   0.00000
     51060 MEOH     3390     MEOH     LP1B     LPD     -0.230000        0.0000           -1   0.00000   0.00000
     51061 MEOH     3391     MEOH     C1       CD33B    2.314100       11.6110           0   -1.00000   1.30000
     51062 MEOH     3391     MEOH     DC1      DRUD    -2.454100        0.4000           0   0.00000   0.00000
     51063 MEOH     3391     MEOH     O1       OD31H    2.488300       15.5990           0   -1.02800   1.30000
     51064 MEOH     3391     MEOH     DO1      DRUD    -2.488300        0.4000           0   0.00000   0.00000
     51065 MEOH     3391     MEOH     HO1      HDP1A    0.360000        1.0080           0   0.00000   0.00000
     51066 MEOH     3391     MEOH     HO2      DUMH     0.000000        1.0080           0   0.00000   0.00000
     51067 MEOH     3391     MEOH     H1A      HDA3B    0.080000        1.0080           0   0.00000   0.00000
     51068 MEOH     3391     MEOH     H1B      HDA3B    0.080000        1.0080           0   0.00000   0.00000
     51069 MEOH     3391     MEOH     H1C      HDA3B    0.080000        1.0080           0   0.00000   0.00000
     51070 MEOH     3391     MEOH     LP1A     LPD     -0.230000        0.0000           -1   0.00000   0.00000
     51071 MEOH     3391     MEOH     LP1B     LPD     -0.230000        0.0000           -1   0.00000   0.00000
     51072 MEOH     3392     MEOH     C1       CD33B    2.314100       11.6110           0   -1.00000   1.30000
     51073 MEOH     3392     MEOH     DC1      DRUD    -2.454100        0.4000           0   0.00000   0.00000
     51074 MEOH     3392     MEOH     O1       OD31H    2.488300       15.5990           0   -1.02800   1.30000
     51075 MEOH     3392     MEOH     DO1      DRUD    -2.488300        0.4000           0   0.00000   0.00000
     51076 MEOH     3392     MEOH     HO1      HDP1A    0.360000        1.0080           0   0.00000   0.00000
     51077 MEOH     3392     MEOH     HO2      DUMH     0.000000        1.0080           0   0.00000   0.00000
     51078 MEOH     3392     MEOH     H1A      HDA3B    0.080000        1.0080           0   0.00000   0.00000
     51079 MEOH     3392     MEOH     H1B      HDA3B    0.080000        1.0080           0   0.00000   0.00000
     51080 MEOH     3392     MEOH     H1C      HDA3B    0.080000        1.0080           0   0.00000   0.00000
     51081 MEOH     3392     MEOH     LP1A     LPD     -0.230000        0.0000           -1   0.00000   0.00000
     51082 MEOH     3392     MEOH     LP1B     LPD     -0.230000        0.0000           -1   0.00000   0.00000
     51083 MEOH     3393     MEOH     C1       CD33B    2.314100       11.6110           0   -1.00000   1.30000
     51084 MEOH     3393     MEOH     DC1      DRUD    -2.454100        0.4000           0   0.00000   0.00000
     51085 MEOH     3393     MEOH     O1       OD31H    2.488300       15.5990           0   -1.02800   1.30000
     51086 MEOH     3393     MEOH     DO1      DRUD    -2.488300        0.4000           0   0.00000   0.00000
     51087 MEOH     3393     MEOH     HO1      HDP1A    0.360000        1.0080           0   0.00000   0.00000
     51088 MEOH     3393     MEOH     HO2      DUMH     0.000000        1.0080           0   0.00000   0.00000
     51089 MEOH     3393     MEOH     H1A      HDA3B    0.080000        1.0080           0   0.00000   0.00000
     51090 MEOH     3393     MEOH     H1B      HDA3B    0.080000        1.0080           0   0.00000   0.00000
     51091 MEOH     3393     MEOH     H1C      HDA3B    0.080000        1.0080           0   0.00000   0.00000
     51092 MEOH     3393     MEOH     LP1A     LPD     -0.230000        0.0000           -1   0.00000   0.00000
     51093 MEOH     3393     MEOH     LP1B     LPD     -0.230000        0.0000           -1   0.00000   0.00000
     51094 MEOH     3394     MEOH     C1       CD33B    2.314100       11.6110           0   -1.00000   1.30000
     51095 MEOH     3394     MEOH     DC1      DRUD    -2.454100        0.4000           0   0.00000   0.00000
     51096 MEOH     3394     MEOH     O1       OD31H    2.488300       15.5990           0   -1.02800   1.30000
     51097 MEOH     3394     MEOH     DO1      DRUD    -2.488300        0.4000           0   0.00000   0.00000
     51098 MEOH     3394     MEOH     HO1      HDP1A    0.360000        1.0080           0   0.00000   0.00000
     51099 MEOH     3394     MEOH     HO2      DUMH     0.000000        1.0080           0   0.00000   0.00000
     51100 MEOH     3394     MEOH     H1A      HDA3B    0.080000        1.0080           0   0.00000   0.00000
     51101 MEOH     3394     MEOH     H1B      HDA3B    0.080000        1.0080           0   0.00000   0.00000
     51102 MEOH     3394     MEOH     H1C      HDA3B    0.080000        1.0080           0   0.00000   0.00000
     51103 MEOH     3394     MEOH     LP1A     LPD     -0.230000        0.0000           -1   0.00000   0.00000
     51104 MEOH     3394     MEOH     LP1B     LPD     -0.230000        0.0000           -1   0.00000   0.00000
     51105 MEOH     3395     MEOH     C1       CD33B    2.314100       11.6110           0   -1.00000   1.30000
     51106 MEOH     3395     MEOH     DC1      DRUD    -2.454100        0.4000           0   0.00000   0.00000
     51107 MEOH     3395     MEOH     O1       OD31H    2.488300       15.5990           0   -1.02800   1.30000
     51108 MEOH     3395     MEOH     DO1      DRUD    -2.488300        0.4000           0   0.00000   0.00000
     51109 MEOH     3395     MEOH     HO1      HDP1A    0.360000        1.0080           0   0.00000   0.00000
     51110 MEOH     3395     MEOH     HO2      DUMH     0.000000        1.0080           0   0.00000   0.00000
     51111 MEOH     3395     MEOH     H1A      HDA3B    0.080000        1.0080           0   0.00000   0.00000
     51112 MEOH     3395     MEOH     H1B      HDA3B    0.080000        1.0080           0   0.00000   0.00000
     51113 MEOH     3395     MEOH     H1C      HDA3B    0.080000        1.0080           0   0.00000   0.00000
     51114 MEOH     3395     MEOH     LP1A     LPD     -0.230000        0.0000           -1   0.00000   0.00000
     51115 MEOH     3395     MEOH     LP1B     LPD     -0.230000        0.0000           -1   0.00000   0.00000
     51116 MEOH     3396     MEOH     C1       CD33B    2.314100       11.6110           0   -1.00000   1.30000
     51117 MEOH     3396     MEOH     DC1      DRUD    -2.454100        0.4000           0   0.00000   0.00000
     51118 MEOH     3396     MEOH     O1       OD31H    2.488300       15.5990           0   -1.02800   1.30000
     51119 MEOH     3396     MEOH     DO1      DRUD    -2.488300        0.4000           0   0.00000   0.00000
     51120 MEOH     3396     MEOH     HO1      HDP1A    0.360000        1.0080           0   0.00000   0.00000
     51121 MEOH     3396     MEOH     HO2      DUMH     0.000000        1.0080           0   0.00000   0.00000
     51122 MEOH     3396     MEOH     H1A      HDA3B    0.080000        1.0080           0   0.00000   0.00000
     51123 MEOH     3396     MEOH     H1B      HDA3B    0.080000        1.0080           0   0.00000   0.00000
     51124 MEOH     3396     MEOH     H1C      HDA3B    0.080000        1.0080           0   0.00000   0.00000
     51125 MEOH     3396     MEOH     LP1A     LPD     -0.230000        0.0000           -1   0.00000   0.00000
     51126 MEOH     3396     MEOH     LP1B     LPD     -0.230000        0.0000           -1   0.00000   0.00000
     51127 MEOH     3397     MEOH     C1       CD33B    2.314100       11.6110           0   -1.00000   1.30000
     51128 MEOH     3397     MEOH     DC1      DRUD    -2.454100        0.4000           0   0.00000   0.00000
     51129 MEOH     3397     MEOH     O1       OD31H    2.488300       15.5990           0   -1.02800   1.30000
     51130 MEOH     3397     MEOH     DO1      DRUD    -2.488300        0.4000           0   0.00000   0.00000
     51131 MEOH     3397     MEOH     HO1      HDP1A    0.360000        1.0080           0   0.00000   0.00000
     51132 MEOH     3397     MEOH     HO2      DUMH     0.000000        1.0080           0   0.00000   0.00000
     51133 MEOH     3397     MEOH     H1A      HDA3B    0.080000        1.0080           0   0.00000   0.00000
     51134 MEOH     3397     MEOH     H1B      HDA3B    0.080000        1.0080           0   0.00000   0.00000
     51135 MEOH     3397     MEOH     H1C      HDA3B    0.080000        1.0080           0   0.00000   0.00000
     51136 MEOH     3397     MEOH     LP1A     LPD     -0.230000        0.0000           -1   0.00000   0.00000
     51137 MEOH     3397     MEOH     LP1B     LPD     -0.230000        0.0000           -1   0.00000   0.00000
     51138 MEOH     3398     MEOH     C1       CD33B    2.314100       11.6110           0   -1.00000   1.30000
     51139 MEOH     3398     MEOH     DC1      DRUD    -2.454100        0.4000           0   0.00000   0.00000
     51140 MEOH     3398     MEOH     O1       OD31H    2.488300       15.5990           0   -1.02800   1.30000
     51141 MEOH     3398     MEOH     DO1      DRUD    -2.488300        0.4000           0   0.00000   0.00000
     51142 MEOH     3398     MEOH     HO1      HDP1A    0.360000        1.0080           0   0.00000   0.00000
     51143 MEOH     3398     MEOH     HO2      DUMH     0.000000        1.0080           0   0.00000   0.00000
     51144 MEOH     3398     MEOH     H1A      HDA3B    0.080000        1.0080           0   0.00000   0.00000
     51145 MEOH     3398     MEOH     H1B      HDA3B    0.080000        1.0080           0   0.00000   0.00000
     51146 MEOH     3398     MEOH     H1C      HDA3B    0.080000        1.0080           0   0.00000   0.00000
     51147 MEOH     3398     MEOH     LP1A     LPD     -0.230000        0.0000           -1   0.00000   0.00000
     51148 MEOH     3398     MEOH     LP1B     LPD     -0.230000        0.0000           -1   0.00000   0.00000
     51149 MEOH     3399     MEOH     C1       CD33B    2.314100       11.6110           0   -1.00000   1.30000
     51150 MEOH     3399     MEOH     DC1      DRUD    -2.454100        0.4000           0   0.00000   0.00000
     51151 MEOH     3399     MEOH     O1       OD31H    2.488300       15.5990           0   -1.02800   1.30000
     51152 MEOH     3399     MEOH     DO1      DRUD    -2.488300        0.4000           0   0.00000   0.00000
     51153 MEOH     3399     MEOH     HO1      HDP1A    0.360000        1.0080           0   0.00000   0.00000
     51154 MEOH     3399     MEOH     HO2      DUMH     0.000000        1.0080           0   0.00000   0.00000
     51155 MEOH     3399     MEOH     H1A      HDA3B    0.080000        1.0080           0   0.00000   0.00000
     51156 MEOH     3399     MEOH     H1B      HDA3B    0.080000        1.0080           0   0.00000   0.00000
     51157 MEOH     3399     MEOH     H1C      HDA3B    0.080000        1.0080           0   0.00000   0.00000
     51158 MEOH     3399     MEOH     LP1A     LPD     -0.230000        0.0000           -1   0.00000   0.00000
     51159 MEOH     3399     MEOH     LP1B     LPD     -0.230000        0.0000           -1   0.00000   0.00000
     51160 MEOH     3400     MEOH     C1       CD33B    2.314100       11.6110           0   -1.00000   1.30000
     51161 MEOH     3400     MEOH     DC1      DRUD    -2.454100        0.4000           0   0.00000   0.00000
     51162 MEOH     3400     MEOH     O1       OD31H    2.488300       15.5990           0   -1.02800   1.30000
     51163 MEOH     3400     MEOH     DO1      DRUD    -2.488300        0.4000           0   0.00000   0.00000
     51164 MEOH     3400     MEOH     HO1      HDP1A    0.360000        1.0080           0   0.00000   0.00000
     51165 MEOH     3400     MEOH     HO2      DUMH     0.000000        1.0080           0   0.00000   0.00000
     51166 MEOH     3400     MEOH     H1A      HDA3B    0.080000        1.0080           0   0.00000   0.00000
     51167 MEOH     3400     MEOH     H1B      HDA3B    0.080000        1.0080           0   0.00000   0.00000
     51168 MEOH     3400     MEOH     H1C      HDA3B    0.080000        1.0080           0   0.00000   0.00000
     51169 MEOH     3400     MEOH     LP1A     LPD     -0.230000        0.0000           -1   0.00000   0.00000
     51170 MEOH     3400     MEOH     LP1B     LPD     -0.230000        0.0000           -1   0.00000   0.00000
     51171 MEOH     3401     MEOH     C1       CD33B    2.314100       11.6110           0   -1.00000   1.30000
     51172 MEOH     3401     MEOH     DC1      DRUD    -2.454100        0.4000           0   0.00000   0.00000
     51173 MEOH     3401     MEOH     O1       OD31H    2.488300       15.5990           0   -1.02800   1.30000
     51174 MEOH     3401     MEOH     DO1      DRUD    -2.488300        0.4000           0   0.00000   0.00000
     51175 MEOH     3401     MEOH     HO1      HDP1A    0.360000        1.0080           0   0.00000   0.00000
     51176 MEOH     3401     MEOH     HO2      DUMH     0.000000        1.0080           0   0.00000   0.00000
     51177 MEOH     3401     MEOH     H1A      HDA3B    0.080000        1.0080           0   0.00000   0.00000
     51178 MEOH     3401     MEOH     H1B      HDA3B    0.080000        1.0080           0   0.00000   0.00000
     51179 MEOH     3401     MEOH     H1C      HDA3B    0.080000        1.0080           0   0.00000   0.00000
     51180 MEOH     3401     MEOH     LP1A     LPD     -0.230000        0.0000           -1   0.00000   0.00000
     51181 MEOH     3401     MEOH     LP1B     LPD     -0.230000        0.0000           -1   0.00000   0.00000
     51182 MEOH     3402     MEOH     C1       CD33B    2.314100       11.6110           0   -1.00000   1.30000
     51183 MEOH     3402     MEOH     DC1      DRUD    -2.454100        0.4000           0   0.00000   0.00000
     51184 MEOH     3402     MEOH     O1       OD31H    2.488300       15.5990           0   -1.02800   1.30000
     51185 MEOH     3402     MEOH     DO1      DRUD    -2.488300        0.4000           0   0.00000   0.00000
     51186 MEOH     3402     MEOH     HO1      HDP1A    0.360000        1.0080           0   0.00000   0.00000
     51187 MEOH     3402     MEOH     HO2      DUMH     0.000000        1.0080           0   0.00000   0.00000
     51188 MEOH     3402     MEOH     H1A      HDA3B    0.080000        1.0080           0   0.00000   0.00000
     51189 MEOH     3402     MEOH     H1B      HDA3B    0.080000        1.0080           0   0.00000   0.00000
     51190 MEOH     3402     MEOH     H1C      HDA3B    0.080000        1.0080           0   0.00000   0.00000
     51191 MEOH     3402     MEOH     LP1A     LPD     -0.230000        0.0000           -1   0.00000   0.00000
     51192 MEOH     3402     MEOH     LP1B     LPD     -0.230000        0.0000           -1   0.00000   0.00000
     51193 MEOH     3403     MEOH     C1       CD33B    2.314100       11.6110           0   -1.00000   1.30000
     51194 MEOH     3403     MEOH     DC1      DRUD    -2.454100        0.4000           0   0.00000   0.00000
     51195 MEOH     3403     MEOH     O1       OD31H    2.488300       15.5990           0   -1.02800   1.30000
     51196 MEOH     3403     MEOH     DO1      DRUD    -2.488300        0.4000           0   0.00000   0.00000
     51197 MEOH     3403     MEOH     HO1      HDP1A    0.360000        1.0080           0   0.00000   0.00000
     51198 MEOH     3403     MEOH     HO2      DUMH     0.000000        1.0080           0   0.00000   0.00000
     51199 MEOH     3403     MEOH     H1A      HDA3B    0.080000        1.0080           0   0.00000   0.00000
     51200 MEOH     3403     MEOH     H1B      HDA3B    0.080000        1.0080           0   0.00000   0.00000
     51201 MEOH     3403     MEOH     H1C      HDA3B    0.080000        1.0080           0   0.00000   0.00000
     51202 MEOH     3403     MEOH     LP1A     LPD     -0.230000        0.0000           -1   0.00000   0.00000
     51203 MEOH     3403     MEOH     LP1B     LPD     -0.230000        0.0000           -1   0.00000   0.00000
     51204 MEOH     3404     MEOH     C1       CD33B    2.314100       11.6110           0   -1.00000   1.30000
     51205 MEOH     3404     MEOH     DC1      DRUD    -2.454100        0.4000           0   0.00000   0.00000
     51206 MEOH     3404     MEOH     O1       OD31H    2.488300       15.5990           0   -1.02800   1.30000
     51207 MEOH     3404     MEOH     DO1      DRUD    -2.488300        0.4000           0   0.00000   0.00000
     51208 MEOH     3404     MEOH     HO1      HDP1A    0.360000        1.0080           0   0.00000   0.00000
     51209 MEOH     3404     MEOH     HO2      DUMH     0.000000        1.0080           0   0.00000   0.00000
     51210 MEOH     3404     MEOH     H1A      HDA3B    0.080000        1.0080           0   0.00000   0.00000
     51211 MEOH     3404     MEOH     H1B      HDA3B    0.080000        1.0080           0   0.00000   0.00000
     51212 MEOH     3404     MEOH     H1C      HDA3B    0.080000        1.0080           0   0.00000   0.00000
     51213 MEOH     3404     MEOH     LP1A     LPD     -0.230000        0.0000           -1   0.00000   0.00000
     51214 MEOH     3404     MEOH     LP1B     LPD     -0.230000        0.0000           -1   0.00000   0.00000
     51215 MEOH     3405     MEOH     C1       CD33B    2.314100       11.6110           0   -1.00000   1.30000
     51216 MEOH     3405     MEOH     DC1      DRUD    -2.454100        0.4000           0   0.00000   0.00000
     51217 MEOH     3405     MEOH     O1       OD31H    2.488300       15.5990           0   -1.02800   1.30000
     51218 MEOH     3405     MEOH     DO1      DRUD    -2.488300        0.4000           0   0.00000   0.00000
     51219 MEOH     3405     MEOH     HO1      HDP1A    0.360000        1.0080           0   0.00000   0.00000
     51220 MEOH     3405     MEOH     HO2      DUMH     0.000000        1.0080           0   0.00000   0.00000
     51221 MEOH     3405     MEOH     H1A      HDA3B    0.080000        1.0080           0   0.00000   0.00000
     51222 MEOH     3405     MEOH     H1B      HDA3B    0.080000        1.0080           0   0.00000   0.00000
     51223 MEOH     3405     MEOH     H1C      HDA3B    0.080000        1.0080           0   0.00000   0.00000
     51224 MEOH     3405     MEOH     LP1A     LPD     -0.230000        0.0000           -1   0.00000   0.00000
     51225 MEOH     3405     MEOH     LP1B     LPD     -0.230000        0.0000           -1   0.00000   0.00000
     51226 MEOH     3406     MEOH     C1       CD33B    2.314100       11.6110           0   -1.00000   1.30000
     51227 MEOH     3406     MEOH     DC1      DRUD    -2.454100        0.4000           0   0.00000   0.00000
     51228 MEOH     3406     MEOH     O1       OD31H    2.488300       15.5990           0   -1.02800   1.30000
     51229 MEOH     3406     MEOH     DO1      DRUD    -2.488300        0.4000           0   0.00000   0.00000
     51230 MEOH     3406     MEOH     HO1      HDP1A    0.360000        1.0080           0   0.00000   0.00000
     51231 MEOH     3406     MEOH     HO2      DUMH     0.000000        1.0080           0   0.00000   0.00000
     51232 MEOH     3406     MEOH     H1A      HDA3B    0.080000        1.0080           0   0.00000   0.00000
     51233 MEOH     3406     MEOH     H1B      HDA3B    0.080000        1.0080           0   0.00000   0.00000
     51234 MEOH     3406     MEOH     H1C      HDA3B    0.080000        1.0080           0   0.00000   0.00000
     51235 MEOH     3406     MEOH     LP1A     LPD     -0.230000        0.0000           -1   0.00000   0.00000
     51236 MEOH     3406     MEOH     LP1B     LPD     -0.230000        0.0000           -1   0.00000   0.00000
     51237 MEOH     3407     MEOH     C1       CD33B    2.314100       11.6110           0   -1.00000   1.30000
     51238 MEOH     3407     MEOH     DC1      DRUD    -2.454100        0.4000           0   0.00000   0.00000
     51239 MEOH     3407     MEOH     O1       OD31H    2.488300       15.5990           0   -1.02800   1.30000
     51240 MEOH     3407     MEOH     DO1      DRUD    -2.488300        0.4000           0   0.00000   0.00000
     51241 MEOH     3407     MEOH     HO1      HDP1A    0.360000        1.0080           0   0.00000   0.00000
     51242 MEOH     3407     MEOH     HO2      DUMH     0.000000        1.0080           0   0.00000   0.00000
     51243 MEOH     3407     MEOH     H1A      HDA3B    0.080000        1.0080           0   0.00000   0.00000
     51244 MEOH     3407     MEOH     H1B      HDA3B    0.080000        1.0080           0   0.00000   0.00000
     51245 MEOH     3407     MEOH     H1C      HDA3B    0.080000        1.0080           0   0.00000   0.00000
     51246 MEOH     3407     MEOH     LP1A     LPD     -0.230000        0.0000           -1   0.00000   0.00000
     51247 MEOH     3407     MEOH     LP1B     LPD     -0.230000        0.0000           -1   0.00000   0.00000
     51248 MEOH     3408     MEOH     C1       CD33B    2.314100       11.6110           0   -1.00000   1.30000
     51249 MEOH     3408     MEOH     DC1      DRUD    -2.454100        0.4000           0   0.00000   0.00000
     51250 MEOH     3408     MEOH     O1       OD31H    2.488300       15.5990           0   -1.02800   1.30000
     51251 MEOH     3408     MEOH     DO1      DRUD    -2.488300        0.4000           0   0.00000   0.00000
     51252 MEOH     3408     MEOH     HO1      HDP1A    0.360000        1.0080           0   0.00000   0.00000
     51253 MEOH     3408     MEOH     HO2      DUMH     0.000000        1.0080           0   0.00000   0.00000
     51254 MEOH     3408     MEOH     H1A      HDA3B    0.080000        1.0080           0   0.00000   0.00000
     51255 MEOH     3408     MEOH     H1B      HDA3B    0.080000        1.0080           0   0.00000   0.00000
     51256 MEOH     3408     MEOH     H1C      HDA3B    0.080000        1.0080           0   0.00000   0.00000
     51257 MEOH     3408     MEOH     LP1A     LPD     -0.230000        0.0000           -1   0.00000   0.00000
     51258 MEOH     3408     MEOH     LP1B     LPD     -0.230000        0.0000           -1   0.00000   0.00000
     51259 MEOH     3409     MEOH     C1       CD33B    2.314100       11.6110           0   -1.00000   1.30000
     51260 MEOH     3409     MEOH     DC1      DRUD    -2.454100        0.4000           0   0.00000   0.00000
     51261 MEOH     3409     MEOH     O1       OD31H    2.488300       15.5990           0   -1.02800   1.30000
     51262 MEOH     3409     MEOH     DO1      DRUD    -2.488300        0.4000           0   0.00000   0.00000
     51263 MEOH     3409     MEOH     HO1      HDP1A    0.360000        1.0080           0   0.00000   0.00000
     51264 MEOH     3409     MEOH     HO2      DUMH     0.000000        1.0080           0   0.00000   0.00000
     51265 MEOH     3409     MEOH     H1A      HDA3B    0.080000        1.0080           0   0.00000   0.00000
     51266 MEOH     3409     MEOH     H1B      HDA3B    0.080000        1.0080           0   0.00000   0.00000
     51267 MEOH     3409     MEOH     H1C      HDA3B    0.080000        1.0080           0   0.00000   0.00000
     51268 MEOH     3409     MEOH     LP1A     LPD     -0.230000        0.0000           -1   0.00000   0.00000
     51269 MEOH     3409     MEOH     LP1B     LPD     -0.230000        0.0000           -1   0.00000   0.00000
     51270 MEOH     3410     MEOH     C1       CD33B    2.314100       11.6110           0   -1.00000   1.30000
     51271 MEOH     3410     MEOH     DC1      DRUD    -2.454100        0.4000           0   0.00000   0.00000
     51272 MEOH     3410     MEOH     O1       OD31H    2.488300       15.5990           0   -1.02800   1.30000
     51273 MEOH     3410     MEOH     DO1      DRUD    -2.488300        0.4000           0   0.00000   0.00000
     51274 MEOH     3410     MEOH     HO1      HDP1A    0.360000        1.0080           0   0.00000   0.00000
     51275 MEOH     3410     MEOH     HO2      DUMH     0.000000        1.0080           0   0.00000   0.00000
     51276 MEOH     3410     MEOH     H1A      HDA3B    0.080000        1.0080           0   0.00000   0.00000
     51277 MEOH     3410     MEOH     H1B      HDA3B    0.080000        1.0080           0   0.00000   0.00000
     51278 MEOH     3410     MEOH     H1C      HDA3B    0.080000        1.0080           0   0.00000   0.00000
     51279 MEOH     3410     MEOH     LP1A     LPD     -0.230000        0.0000           -1   0.00000   0.00000
     51280 MEOH     3410     MEOH     LP1B     LPD     -0.230000        0.0000           -1   0.00000   0.00000
     51281 MEOH     3411     MEOH     C1       CD33B    2.314100       11.6110           0   -1.00000   1.30000
     51282 MEOH     3411     MEOH     DC1      DRUD    -2.454100        0.4000           0   0.00000   0.00000
     51283 MEOH     3411     MEOH     O1       OD31H    2.488300       15.5990           0   -1.02800   1.30000
     51284 MEOH     3411     MEOH     DO1      DRUD    -2.488300        0.4000           0   0.00000   0.00000
     51285 MEOH     3411     MEOH     HO1      HDP1A    0.360000        1.0080           0   0.00000   0.00000
     51286 MEOH     3411     MEOH     HO2      DUMH     0.000000        1.0080           0   0.00000   0.00000
     51287 MEOH     3411     MEOH     H1A      HDA3B    0.080000        1.0080           0   0.00000   0.00000
     51288 MEOH     3411     MEOH     H1B      HDA3B    0.080000        1.0080           0   0.00000   0.00000
     51289 MEOH     3411     MEOH     H1C      HDA3B    0.080000        1.0080           0   0.00000   0.00000
     51290 MEOH     3411     MEOH     LP1A     LPD     -0.230000        0.0000           -1   0.00000   0.00000
     51291 MEOH     3411     MEOH     LP1B     LPD     -0.230000        0.0000           -1   0.00000   0.00000
     51292 MEOH     3412     MEOH     C1       CD33B    2.314100       11.6110           0   -1.00000   1.30000
     51293 MEOH     3412     MEOH     DC1      DRUD    -2.454100        0.4000           0   0.00000   0.00000
     51294 MEOH     3412     MEOH     O1       OD31H    2.488300       15.5990           0   -1.02800   1.30000
     51295 MEOH     3412     MEOH     DO1      DRUD    -2.488300        0.4000           0   0.00000   0.00000
     51296 MEOH     3412     MEOH     HO1      HDP1A    0.360000        1.0080           0   0.00000   0.00000
     51297 MEOH     3412     MEOH     HO2      DUMH     0.000000        1.0080           0   0.00000   0.00000
     51298 MEOH     3412     MEOH     H1A      HDA3B    0.080000        1.0080           0   0.00000   0.00000
     51299 MEOH     3412     MEOH     H1B      HDA3B    0.080000        1.0080           0   0.00000   0.00000
     51300 MEOH     3412     MEOH     H1C      HDA3B    0.080000        1.0080           0   0.00000   0.00000
     51301 MEOH     3412     MEOH     LP1A     LPD     -0.230000        0.0000           -1   0.00000   0.00000
     51302 MEOH     3412     MEOH     LP1B     LPD     -0.230000        0.0000           -1   0.00000   0.00000
     51303 MEOH     3413     MEOH     C1       CD33B    2.314100       11.6110           0   -1.00000   1.30000
     51304 MEOH     3413     MEOH     DC1      DRUD    -2.454100        0.4000           0   0.00000   0.00000
     51305 MEOH     3413     MEOH     O1       OD31H    2.488300       15.5990           0   -1.02800   1.30000
     51306 MEOH     3413     MEOH     DO1      DRUD    -2.488300        0.4000           0   0.00000   0.00000
     51307 MEOH     3413     MEOH     HO1      HDP1A    0.360000        1.0080           0   0.00000   0.00000
     51308 MEOH     3413     MEOH     HO2      DUMH     0.000000        1.0080           0   0.00000   0.00000
     51309 MEOH     3413     MEOH     H1A      HDA3B    0.080000        1.0080           0   0.00000   0.00000
     51310 MEOH     3413     MEOH     H1B      HDA3B    0.080000        1.0080           0   0.00000   0.00000
     51311 MEOH     3413     MEOH     H1C      HDA3B    0.080000        1.0080           0   0.00000   0.00000
     51312 MEOH     3413     MEOH     LP1A     LPD     -0.230000        0.0000           -1   0.00000   0.00000
     51313 MEOH     3413     MEOH     LP1B     LPD     -0.230000        0.0000           -1   0.00000   0.00000
     51314 MEOH     3414     MEOH     C1       CD33B    2.314100       11.6110           0   -1.00000   1.30000
     51315 MEOH     3414     MEOH     DC1      DRUD    -2.454100        0.4000           0   0.00000   0.00000
     51316 MEOH     3414     MEOH     O1       OD31H    2.488300       15.5990           0   -1.02800   1.30000
     51317 MEOH     3414     MEOH     DO1      DRUD    -2.488300        0.4000           0   0.00000   0.00000
     51318 MEOH     3414     MEOH     HO1      HDP1A    0.360000        1.0080           0   0.00000   0.00000
     51319 MEOH     3414     MEOH     HO2      DUMH     0.000000        1.0080           0   0.00000   0.00000
     51320 MEOH     3414     MEOH     H1A      HDA3B    0.080000        1.0080           0   0.00000   0.00000
     51321 MEOH     3414     MEOH     H1B      HDA3B    0.080000        1.0080           0   0.00000   0.00000
     51322 MEOH     3414     MEOH     H1C      HDA3B    0.080000        1.0080           0   0.00000   0.00000
     51323 MEOH     3414     MEOH     LP1A     LPD     -0.230000        0.0000           -1   0.00000   0.00000
     51324 MEOH     3414     MEOH     LP1B     LPD     -0.230000        0.0000           -1   0.00000   0.00000
     51325 MEOH     3415     MEOH     C1       CD33B    2.314100       11.6110           0   -1.00000   1.30000
     51326 MEOH     3415     MEOH     DC1      DRUD    -2.454100        0.4000           0   0.00000   0.00000
     51327 MEOH     3415     MEOH     O1       OD31H    2.488300       15.5990           0   -1.02800   1.30000
     51328 MEOH     3415     MEOH     DO1      DRUD    -2.488300        0.4000           0   0.00000   0.00000
     51329 MEOH     3415     MEOH     HO1      HDP1A    0.360000        1.0080           0   0.00000   0.00000
     51330 MEOH     3415     MEOH     HO2      DUMH     0.000000        1.0080           0   0.00000   0.00000
     51331 MEOH     3415     MEOH     H1A      HDA3B    0.080000        1.0080           0   0.00000   0.00000
     51332 MEOH     3415     MEOH     H1B      HDA3B    0.080000        1.0080           0   0.00000   0.00000
     51333 MEOH     3415     MEOH     H1C      HDA3B    0.080000        1.0080           0   0.00000   0.00000
     51334 MEOH     3415     MEOH     LP1A     LPD     -0.230000        0.0000           -1   0.00000   0.00000
     51335 MEOH     3415     MEOH     LP1B     LPD     -0.230000        0.0000           -1   0.00000   0.00000
     51336 MEOH     3416     MEOH     C1       CD33B    2.314100       11.6110           0   -1.00000   1.30000
     51337 MEOH     3416     MEOH     DC1      DRUD    -2.454100        0.4000           0   0.00000   0.00000
     51338 MEOH     3416     MEOH     O1       OD31H    2.488300       15.5990           0   -1.02800   1.30000
     51339 MEOH     3416     MEOH     DO1      DRUD    -2.488300        0.4000           0   0.00000   0.00000
     51340 MEOH     3416     MEOH     HO1      HDP1A    0.360000        1.0080           0   0.00000   0.00000
     51341 MEOH     3416     MEOH     HO2      DUMH     0.000000        1.0080           0   0.00000   0.00000
     51342 MEOH     3416     MEOH     H1A      HDA3B    0.080000        1.0080           0   0.00000   0.00000
     51343 MEOH     3416     MEOH     H1B      HDA3B    0.080000        1.0080           0   0.00000   0.00000
     51344 MEOH     3416     MEOH     H1C      HDA3B    0.080000        1.0080           0   0.00000   0.00000
     51345 MEOH     3416     MEOH     LP1A     LPD     -0.230000        0.0000           -1   0.00000   0.00000
     51346 MEOH     3416     MEOH     LP1B     LPD     -0.230000        0.0000           -1   0.00000   0.00000
     51347 MEOH     3417     MEOH     C1       CD33B    2.314100       11.6110           0   -1.00000   1.30000
     51348 MEOH     3417     MEOH     DC1      DRUD    -2.454100        0.4000           0   0.00000   0.00000
     51349 MEOH     3417     MEOH     O1       OD31H    2.488300       15.5990           0   -1.02800   1.30000
     51350 MEOH     3417     MEOH     DO1      DRUD    -2.488300        0.4000           0   0.00000   0.00000
     51351 MEOH     3417     MEOH     HO1      HDP1A    0.360000        1.0080           0   0.00000   0.00000
     51352 MEOH     3417     MEOH     HO2      DUMH     0.000000        1.0080           0   0.00000   0.00000
     51353 MEOH     3417     MEOH     H1A      HDA3B    0.080000        1.0080           0   0.00000   0.00000
     51354 MEOH     3417     MEOH     H1B      HDA3B    0.080000        1.0080           0   0.00000   0.00000
     51355 MEOH     3417     MEOH     H1C      HDA3B    0.080000        1.0080           0   0.00000   0.00000
     51356 MEOH     3417     MEOH     LP1A     LPD     -0.230000        0.0000           -1   0.00000   0.00000
     51357 MEOH     3417     MEOH     LP1B     LPD     -0.230000        0.0000           -1   0.00000   0.00000
     51358 MEOH     3418     MEOH     C1       CD33B    2.314100       11.6110           0   -1.00000   1.30000
     51359 MEOH     3418     MEOH     DC1      DRUD    -2.454100        0.4000           0   0.00000   0.00000
     51360 MEOH     3418     MEOH     O1       OD31H    2.488300       15.5990           0   -1.02800   1.30000
     51361 MEOH     3418     MEOH     DO1      DRUD    -2.488300        0.4000           0   0.00000   0.00000
     51362 MEOH     3418     MEOH     HO1      HDP1A    0.360000        1.0080           0   0.00000   0.00000
     51363 MEOH     3418     MEOH     HO2      DUMH     0.000000        1.0080           0   0.00000   0.00000
     51364 MEOH     3418     MEOH     H1A      HDA3B    0.080000        1.0080           0   0.00000   0.00000
     51365 MEOH     3418     MEOH     H1B      HDA3B    0.080000        1.0080           0   0.00000   0.00000
     51366 MEOH     3418     MEOH     H1C      HDA3B    0.080000        1.0080           0   0.00000   0.00000
     51367 MEOH     3418     MEOH     LP1A     LPD     -0.230000        0.0000           -1   0.00000   0.00000
     51368 MEOH     3418     MEOH     LP1B     LPD     -0.230000        0.0000           -1   0.00000   0.00000
     51369 MEOH     3419     MEOH     C1       CD33B    2.314100       11.6110           0   -1.00000   1.30000
     51370 MEOH     3419     MEOH     DC1      DRUD    -2.454100        0.4000           0   0.00000   0.00000
     51371 MEOH     3419     MEOH     O1       OD31H    2.488300       15.5990           0   -1.02800   1.30000
     51372 MEOH     3419     MEOH     DO1      DRUD    -2.488300        0.4000           0   0.00000   0.00000
     51373 MEOH     3419     MEOH     HO1      HDP1A    0.360000        1.0080           0   0.00000   0.00000
     51374 MEOH     3419     MEOH     HO2      DUMH     0.000000        1.0080           0   0.00000   0.00000
     51375 MEOH     3419     MEOH     H1A      HDA3B    0.080000        1.0080           0   0.00000   0.00000
     51376 MEOH     3419     MEOH     H1B      HDA3B    0.080000        1.0080           0   0.00000   0.00000
     51377 MEOH     3419     MEOH     H1C      HDA3B    0.080000        1.0080           0   0.00000   0.00000
     51378 MEOH     3419     MEOH     LP1A     LPD     -0.230000        0.0000           -1   0.00000   0.00000
     51379 MEOH     3419     MEOH     LP1B     LPD     -0.230000        0.0000           -1   0.00000   0.00000
     51380 MEOH     3420     MEOH     C1       CD33B    2.314100       11.6110           0   -1.00000   1.30000
     51381 MEOH     3420     MEOH     DC1      DRUD    -2.454100        0.4000           0   0.00000   0.00000
     51382 MEOH     3420     MEOH     O1       OD31H    2.488300       15.5990           0   -1.02800   1.30000
     51383 MEOH     3420     MEOH     DO1      DRUD    -2.488300        0.4000           0   0.00000   0.00000
     51384 MEOH     3420     MEOH     HO1      HDP1A    0.360000        1.0080           0   0.00000   0.00000
     51385 MEOH     3420     MEOH     HO2      DUMH     0.000000        1.0080           0   0.00000   0.00000
     51386 MEOH     3420     MEOH     H1A      HDA3B    0.080000        1.0080           0   0.00000   0.00000
     51387 MEOH     3420     MEOH     H1B      HDA3B    0.080000        1.0080           0   0.00000   0.00000
     51388 MEOH     3420     MEOH     H1C      HDA3B    0.080000        1.0080           0   0.00000   0.00000
     51389 MEOH     3420     MEOH     LP1A     LPD     -0.230000        0.0000           -1   0.00000   0.00000
     51390 MEOH     3420     MEOH     LP1B     LPD     -0.230000        0.0000           -1   0.00000   0.00000
     51391 MEOH     3421     MEOH     C1       CD33B    2.314100       11.6110           0   -1.00000   1.30000
     51392 MEOH     3421     MEOH     DC1      DRUD    -2.454100        0.4000           0   0.00000   0.00000
     51393 MEOH     3421     MEOH     O1       OD31H    2.488300       15.5990           0   -1.02800   1.30000
     51394 MEOH     3421     MEOH     DO1      DRUD    -2.488300        0.4000           0   0.00000   0.00000
     51395 MEOH     3421     MEOH     HO1      HDP1A    0.360000        1.0080           0   0.00000   0.00000
     51396 MEOH     3421     MEOH     HO2      DUMH     0.000000        1.0080           0   0.00000   0.00000
     51397 MEOH     3421     MEOH     H1A      HDA3B    0.080000        1.0080           0   0.00000   0.00000
     51398 MEOH     3421     MEOH     H1B      HDA3B    0.080000        1.0080           0   0.00000   0.00000
     51399 MEOH     3421     MEOH     H1C      HDA3B    0.080000        1.0080           0   0.00000   0.00000
     51400 MEOH     3421     MEOH     LP1A     LPD     -0.230000        0.0000           -1   0.00000   0.00000
     51401 MEOH     3421     MEOH     LP1B     LPD     -0.230000        0.0000           -1   0.00000   0.00000
     51402 MEOH     3422     MEOH     C1       CD33B    2.314100       11.6110           0   -1.00000   1.30000
     51403 MEOH     3422     MEOH     DC1      DRUD    -2.454100        0.4000           0   0.00000   0.00000
     51404 MEOH     3422     MEOH     O1       OD31H    2.488300       15.5990           0   -1.02800   1.30000
     51405 MEOH     3422     MEOH     DO1      DRUD    -2.488300        0.4000           0   0.00000   0.00000
     51406 MEOH     3422     MEOH     HO1      HDP1A    0.360000        1.0080           0   0.00000   0.00000
     51407 MEOH     3422     MEOH     HO2      DUMH     0.000000        1.0080           0   0.00000   0.00000
     51408 MEOH     3422     MEOH     H1A      HDA3B    0.080000        1.0080           0   0.00000   0.00000
     51409 MEOH     3422     MEOH     H1B      HDA3B    0.080000        1.0080           0   0.00000   0.00000
     51410 MEOH     3422     MEOH     H1C      HDA3B    0.080000        1.0080           0   0.00000   0.00000
     51411 MEOH     3422     MEOH     LP1A     LPD     -0.230000        0.0000           -1   0.00000   0.00000
     51412 MEOH     3422     MEOH     LP1B     LPD     -0.230000        0.0000           -1   0.00000   0.00000
     51413 MEOH     3423     MEOH     C1       CD33B    2.314100       11.6110           0   -1.00000   1.30000
     51414 MEOH     3423     MEOH     DC1      DRUD    -2.454100        0.4000           0   0.00000   0.00000
     51415 MEOH     3423     MEOH     O1       OD31H    2.488300       15.5990           0   -1.02800   1.30000
     51416 MEOH     3423     MEOH     DO1      DRUD    -2.488300        0.4000           0   0.00000   0.00000
     51417 MEOH     3423     MEOH     HO1      HDP1A    0.360000        1.0080           0   0.00000   0.00000
     51418 MEOH     3423     MEOH     HO2      DUMH     0.000000        1.0080           0   0.00000   0.00000
     51419 MEOH     3423     MEOH     H1A      HDA3B    0.080000        1.0080           0   0.00000   0.00000
     51420 MEOH     3423     MEOH     H1B      HDA3B    0.080000        1.0080           0   0.00000   0.00000
     51421 MEOH     3423     MEOH     H1C      HDA3B    0.080000        1.0080           0   0.00000   0.00000
     51422 MEOH     3423     MEOH     LP1A     LPD     -0.230000        0.0000           -1   0.00000   0.00000
     51423 MEOH     3423     MEOH     LP1B     LPD     -0.230000        0.0000           -1   0.00000   0.00000
     51424 MEOH     3424     MEOH     C1       CD33B    2.314100       11.6110           0   -1.00000   1.30000
     51425 MEOH     3424     MEOH     DC1      DRUD    -2.454100        0.4000           0   0.00000   0.00000
     51426 MEOH     3424     MEOH     O1       OD31H    2.488300       15.5990           0   -1.02800   1.30000
     51427 MEOH     3424     MEOH     DO1      DRUD    -2.488300        0.4000           0   0.00000   0.00000
     51428 MEOH     3424     MEOH     HO1      HDP1A    0.360000        1.0080           0   0.00000   0.00000
     51429 MEOH     3424     MEOH     HO2      DUMH     0.000000        1.0080           0   0.00000   0.00000
     51430 MEOH     3424     MEOH     H1A      HDA3B    0.080000        1.0080           0   0.00000   0.00000
     51431 MEOH     3424     MEOH     H1B      HDA3B    0.080000        1.0080           0   0.00000   0.00000
     51432 MEOH     3424     MEOH     H1C      HDA3B    0.080000        1.0080           0   0.00000   0.00000
     51433 MEOH     3424     MEOH     LP1A     LPD     -0.230000        0.0000           -1   0.00000   0.00000
     51434 MEOH     3424     MEOH     LP1B     LPD     -0.230000        0.0000           -1   0.00000   0.00000
     51435 MEOH     3425     MEOH     C1       CD33B    2.314100       11.6110           0   -1.00000   1.30000
     51436 MEOH     3425     MEOH     DC1      DRUD    -2.454100        0.4000           0   0.00000   0.00000
     51437 MEOH     3425     MEOH     O1       OD31H    2.488300       15.5990           0   -1.02800   1.30000
     51438 MEOH     3425     MEOH     DO1      DRUD    -2.488300        0.4000           0   0.00000   0.00000
     51439 MEOH     3425     MEOH     HO1      HDP1A    0.360000        1.0080           0   0.00000   0.00000
     51440 MEOH     3425     MEOH     HO2      DUMH     0.000000        1.0080           0   0.00000   0.00000
     51441 MEOH     3425     MEOH     H1A      HDA3B    0.080000        1.0080           0   0.00000   0.00000
     51442 MEOH     3425     MEOH     H1B      HDA3B    0.080000        1.0080           0   0.00000   0.00000
     51443 MEOH     3425     MEOH     H1C      HDA3B    0.080000        1.0080           0   0.00000   0.00000
     51444 MEOH     3425     MEOH     LP1A     LPD     -0.230000        0.0000           -1   0.00000   0.00000
     51445 MEOH     3425     MEOH     LP1B     LPD     -0.230000        0.0000           -1   0.00000   0.00000
     51446 MEOH     3426     MEOH     C1       CD33B    2.314100       11.6110           0   -1.00000   1.30000
     51447 MEOH     3426     MEOH     DC1      DRUD    -2.454100        0.4000           0   0.00000   0.00000
     51448 MEOH     3426     MEOH     O1       OD31H    2.488300       15.5990           0   -1.02800   1.30000
     51449 MEOH     3426     MEOH     DO1      DRUD    -2.488300        0.4000           0   0.00000   0.00000
     51450 MEOH     3426     MEOH     HO1      HDP1A    0.360000        1.0080           0   0.00000   0.00000
     51451 MEOH     3426     MEOH     HO2      DUMH     0.000000        1.0080           0   0.00000   0.00000
     51452 MEOH     3426     MEOH     H1A      HDA3B    0.080000        1.0080           0   0.00000   0.00000
     51453 MEOH     3426     MEOH     H1B      HDA3B    0.080000        1.0080           0   0.00000   0.00000
     51454 MEOH     3426     MEOH     H1C      HDA3B    0.080000        1.0080           0   0.00000   0.00000
     51455 MEOH     3426     MEOH     LP1A     LPD     -0.230000        0.0000           -1   0.00000   0.00000
     51456 MEOH     3426     MEOH     LP1B     LPD     -0.230000        0.0000           -1   0.00000   0.00000
     51457 MEOH     3427     MEOH     C1       CD33B    2.314100       11.6110           0   -1.00000   1.30000
     51458 MEOH     3427     MEOH     DC1      DRUD    -2.454100        0.4000           0   0.00000   0.00000
     51459 MEOH     3427     MEOH     O1       OD31H    2.488300       15.5990           0   -1.02800   1.30000
     51460 MEOH     3427     MEOH     DO1      DRUD    -2.488300        0.4000           0   0.00000   0.00000
     51461 MEOH     3427     MEOH     HO1      HDP1A    0.360000        1.0080           0   0.00000   0.00000
     51462 MEOH     3427     MEOH     HO2      DUMH     0.000000        1.0080           0   0.00000   0.00000
     51463 MEOH     3427     MEOH     H1A      HDA3B    0.080000        1.0080           0   0.00000   0.00000
     51464 MEOH     3427     MEOH     H1B      HDA3B    0.080000        1.0080           0   0.00000   0.00000
     51465 MEOH     3427     MEOH     H1C      HDA3B    0.080000        1.0080           0   0.00000   0.00000
     51466 MEOH     3427     MEOH     LP1A     LPD     -0.230000        0.0000           -1   0.00000   0.00000
     51467 MEOH     3427     MEOH     LP1B     LPD     -0.230000        0.0000           -1   0.00000   0.00000
     51468 MEOH     3428     MEOH     C1       CD33B    2.314100       11.6110           0   -1.00000   1.30000
     51469 MEOH     3428     MEOH     DC1      DRUD    -2.454100        0.4000           0   0.00000   0.00000
     51470 MEOH     3428     MEOH     O1       OD31H    2.488300       15.5990           0   -1.02800   1.30000
     51471 MEOH     3428     MEOH     DO1      DRUD    -2.488300        0.4000           0   0.00000   0.00000
     51472 MEOH     3428     MEOH     HO1      HDP1A    0.360000        1.0080           0   0.00000   0.00000
     51473 MEOH     3428     MEOH     HO2      DUMH     0.000000        1.0080           0   0.00000   0.00000
     51474 MEOH     3428     MEOH     H1A      HDA3B    0.080000        1.0080           0   0.00000   0.00000
     51475 MEOH     3428     MEOH     H1B      HDA3B    0.080000        1.0080           0   0.00000   0.00000
     51476 MEOH     3428     MEOH     H1C      HDA3B    0.080000        1.0080           0   0.00000   0.00000
     51477 MEOH     3428     MEOH     LP1A     LPD     -0.230000        0.0000           -1   0.00000   0.00000
     51478 MEOH     3428     MEOH     LP1B     LPD     -0.230000        0.0000           -1   0.00000   0.00000
     51479 MEOH     3429     MEOH     C1       CD33B    2.314100       11.6110           0   -1.00000   1.30000
     51480 MEOH     3429     MEOH     DC1      DRUD    -2.454100        0.4000           0   0.00000   0.00000
     51481 MEOH     3429     MEOH     O1       OD31H    2.488300       15.5990           0   -1.02800   1.30000
     51482 MEOH     3429     MEOH     DO1      DRUD    -2.488300        0.4000           0   0.00000   0.00000
     51483 MEOH     3429     MEOH     HO1      HDP1A    0.360000        1.0080           0   0.00000   0.00000
     51484 MEOH     3429     MEOH     HO2      DUMH     0.000000        1.0080           0   0.00000   0.00000
     51485 MEOH     3429     MEOH     H1A      HDA3B    0.080000        1.0080           0   0.00000   0.00000
     51486 MEOH     3429     MEOH     H1B      HDA3B    0.080000        1.0080           0   0.00000   0.00000
     51487 MEOH     3429     MEOH     H1C      HDA3B    0.080000        1.0080           0   0.00000   0.00000
     51488 MEOH     3429     MEOH     LP1A     LPD     -0.230000        0.0000           -1   0.00000   0.00000
     51489 MEOH     3429     MEOH     LP1B     LPD     -0.230000        0.0000           -1   0.00000   0.00000
     51490 MEOH     3430     MEOH     C1       CD33B    2.314100       11.6110           0   -1.00000   1.30000
     51491 MEOH     3430     MEOH     DC1      DRUD    -2.454100        0.4000           0   0.00000   0.00000
     51492 MEOH     3430     MEOH     O1       OD31H    2.488300       15.5990           0   -1.02800   1.30000
     51493 MEOH     3430     MEOH     DO1      DRUD    -2.488300        0.4000           0   0.00000   0.00000
     51494 MEOH     3430     MEOH     HO1      HDP1A    0.360000        1.0080           0   0.00000   0.00000
     51495 MEOH     3430     MEOH     HO2      DUMH     0.000000        1.0080           0   0.00000   0.00000
     51496 MEOH     3430     MEOH     H1A      HDA3B    0.080000        1.0080           0   0.00000   0.00000
     51497 MEOH     3430     MEOH     H1B      HDA3B    0.080000        1.0080           0   0.00000   0.00000
     51498 MEOH     3430     MEOH     H1C      HDA3B    0.080000        1.0080           0   0.00000   0.00000
     51499 MEOH     3430     MEOH     LP1A     LPD     -0.230000        0.0000           -1   0.00000   0.00000
     51500 MEOH     3430     MEOH     LP1B     LPD     -0.230000        0.0000           -1   0.00000   0.00000
     51501 MEOH     3431     MEOH     C1       CD33B    2.314100       11.6110           0   -1.00000   1.30000
     51502 MEOH     3431     MEOH     DC1      DRUD    -2.454100        0.4000           0   0.00000   0.00000
     51503 MEOH     3431     MEOH     O1       OD31H    2.488300       15.5990           0   -1.02800   1.30000
     51504 MEOH     3431     MEOH     DO1      DRUD    -2.488300        0.4000           0   0.00000   0.00000
     51505 MEOH     3431     MEOH     HO1      HDP1A    0.360000        1.0080           0   0.00000   0.00000
     51506 MEOH     3431     MEOH     HO2      DUMH     0.000000        1.0080           0   0.00000   0.00000
     51507 MEOH     3431     MEOH     H1A      HDA3B    0.080000        1.0080           0   0.00000   0.00000
     51508 MEOH     3431     MEOH     H1B      HDA3B    0.080000        1.0080           0   0.00000   0.00000
     51509 MEOH     3431     MEOH     H1C      HDA3B    0.080000        1.0080           0   0.00000   0.00000
     51510 MEOH     3431     MEOH     LP1A     LPD     -0.230000        0.0000           -1   0.00000   0.00000
     51511 MEOH     3431     MEOH     LP1B     LPD     -0.230000        0.0000           -1   0.00000   0.00000
     51512 MEOH     3432     MEOH     C1       CD33B    2.314100       11.6110           0   -1.00000   1.30000
     51513 MEOH     3432     MEOH     DC1      DRUD    -2.454100        0.4000           0   0.00000   0.00000
     51514 MEOH     3432     MEOH     O1       OD31H    2.488300       15.5990           0   -1.02800   1.30000
     51515 MEOH     3432     MEOH     DO1      DRUD    -2.488300        0.4000           0   0.00000   0.00000
     51516 MEOH     3432     MEOH     HO1      HDP1A    0.360000        1.0080           0   0.00000   0.00000
     51517 MEOH     3432     MEOH     HO2      DUMH     0.000000        1.0080           0   0.00000   0.00000
     51518 MEOH     3432     MEOH     H1A      HDA3B    0.080000        1.0080           0   0.00000   0.00000
     51519 MEOH     3432     MEOH     H1B      HDA3B    0.080000        1.0080           0   0.00000   0.00000
     51520 MEOH     3432     MEOH     H1C      HDA3B    0.080000        1.0080           0   0.00000   0.00000
     51521 MEOH     3432     MEOH     LP1A     LPD     -0.230000        0.0000           -1   0.00000   0.00000
     51522 MEOH     3432     MEOH     LP1B     LPD     -0.230000        0.0000           -1   0.00000   0.00000
     51523 MEOH     3433     MEOH     C1       CD33B    2.314100       11.6110           0   -1.00000   1.30000
     51524 MEOH     3433     MEOH     DC1      DRUD    -2.454100        0.4000           0   0.00000   0.00000
     51525 MEOH     3433     MEOH     O1       OD31H    2.488300       15.5990           0   -1.02800   1.30000
     51526 MEOH     3433     MEOH     DO1      DRUD    -2.488300        0.4000           0   0.00000   0.00000
     51527 MEOH     3433     MEOH     HO1      HDP1A    0.360000        1.0080           0   0.00000   0.00000
     51528 MEOH     3433     MEOH     HO2      DUMH     0.000000        1.0080           0   0.00000   0.00000
     51529 MEOH     3433     MEOH     H1A      HDA3B    0.080000        1.0080           0   0.00000   0.00000
     51530 MEOH     3433     MEOH     H1B      HDA3B    0.080000        1.0080           0   0.00000   0.00000
     51531 MEOH     3433     MEOH     H1C      HDA3B    0.080000        1.0080           0   0.00000   0.00000
     51532 MEOH     3433     MEOH     LP1A     LPD     -0.230000        0.0000           -1   0.00000   0.00000
     51533 MEOH     3433     MEOH     LP1B     LPD     -0.230000        0.0000           -1   0.00000   0.00000
     51534 MEOH     3434     MEOH     C1       CD33B    2.314100       11.6110           0   -1.00000   1.30000
     51535 MEOH     3434     MEOH     DC1      DRUD    -2.454100        0.4000           0   0.00000   0.00000
     51536 MEOH     3434     MEOH     O1       OD31H    2.488300       15.5990           0   -1.02800   1.30000
     51537 MEOH     3434     MEOH     DO1      DRUD    -2.488300        0.4000           0   0.00000   0.00000
     51538 MEOH     3434     MEOH     HO1      HDP1A    0.360000        1.0080           0   0.00000   0.00000
     51539 MEOH     3434     MEOH     HO2      DUMH     0.000000        1.0080           0   0.00000   0.00000
     51540 MEOH     3434     MEOH     H1A      HDA3B    0.080000        1.0080           0   0.00000   0.00000
     51541 MEOH     3434     MEOH     H1B      HDA3B    0.080000        1.0080           0   0.00000   0.00000
     51542 MEOH     3434     MEOH     H1C      HDA3B    0.080000        1.0080           0   0.00000   0.00000
     51543 MEOH     3434     MEOH     LP1A     LPD     -0.230000        0.0000           -1   0.00000   0.00000
     51544 MEOH     3434     MEOH     LP1B     LPD     -0.230000        0.0000           -1   0.00000   0.00000
     51545 MEOH     3435     MEOH     C1       CD33B    2.314100       11.6110           0   -1.00000   1.30000
     51546 MEOH     3435     MEOH     DC1      DRUD    -2.454100        0.4000           0   0.00000   0.00000
     51547 MEOH     3435     MEOH     O1       OD31H    2.488300       15.5990           0   -1.02800   1.30000
     51548 MEOH     3435     MEOH     DO1      DRUD    -2.488300        0.4000           0   0.00000   0.00000
     51549 MEOH     3435     MEOH     HO1      HDP1A    0.360000        1.0080           0   0.00000   0.00000
     51550 MEOH     3435     MEOH     HO2      DUMH     0.000000        1.0080           0   0.00000   0.00000
     51551 MEOH     3435     MEOH     H1A      HDA3B    0.080000        1.0080           0   0.00000   0.00000
     51552 MEOH     3435     MEOH     H1B      HDA3B    0.080000        1.0080           0   0.00000   0.00000
     51553 MEOH     3435     MEOH     H1C      HDA3B    0.080000        1.0080           0   0.00000   0.00000
     51554 MEOH     3435     MEOH     LP1A     LPD     -0.230000        0.0000           -1   0.00000   0.00000
     51555 MEOH     3435     MEOH     LP1B     LPD     -0.230000        0.0000           -1   0.00000   0.00000
     51556 MEOH     3436     MEOH     C1       CD33B    2.314100       11.6110           0   -1.00000   1.30000
     51557 MEOH     3436     MEOH     DC1      DRUD    -2.454100        0.4000           0   0.00000   0.00000
     51558 MEOH     3436     MEOH     O1       OD31H    2.488300       15.5990           0   -1.02800   1.30000
     51559 MEOH     3436     MEOH     DO1      DRUD    -2.488300        0.4000           0   0.00000   0.00000
     51560 MEOH     3436     MEOH     HO1      HDP1A    0.360000        1.0080           0   0.00000   0.00000
     51561 MEOH     3436     MEOH     HO2      DUMH     0.000000        1.0080           0   0.00000   0.00000
     51562 MEOH     3436     MEOH     H1A      HDA3B    0.080000        1.0080           0   0.00000   0.00000
     51563 MEOH     3436     MEOH     H1B      HDA3B    0.080000        1.0080           0   0.00000   0.00000
     51564 MEOH     3436     MEOH     H1C      HDA3B    0.080000        1.0080           0   0.00000   0.00000
     51565 MEOH     3436     MEOH     LP1A     LPD     -0.230000        0.0000           -1   0.00000   0.00000
     51566 MEOH     3436     MEOH     LP1B     LPD     -0.230000        0.0000           -1   0.00000   0.00000
     51567 MEOH     3437     MEOH     C1       CD33B    2.314100       11.6110           0   -1.00000   1.30000
     51568 MEOH     3437     MEOH     DC1      DRUD    -2.454100        0.4000           0   0.00000   0.00000
     51569 MEOH     3437     MEOH     O1       OD31H    2.488300       15.5990           0   -1.02800   1.30000
     51570 MEOH     3437     MEOH     DO1      DRUD    -2.488300        0.4000           0   0.00000   0.00000
     51571 MEOH     3437     MEOH     HO1      HDP1A    0.360000        1.0080           0   0.00000   0.00000
     51572 MEOH     3437     MEOH     HO2      DUMH     0.000000        1.0080           0   0.00000   0.00000
     51573 MEOH     3437     MEOH     H1A      HDA3B    0.080000        1.0080           0   0.00000   0.00000
     51574 MEOH     3437     MEOH     H1B      HDA3B    0.080000        1.0080           0   0.00000   0.00000
     51575 MEOH     3437     MEOH     H1C      HDA3B    0.080000        1.0080           0   0.00000   0.00000
     51576 MEOH     3437     MEOH     LP1A     LPD     -0.230000        0.0000           -1   0.00000   0.00000
     51577 MEOH     3437     MEOH     LP1B     LPD     -0.230000        0.0000           -1   0.00000   0.00000
     51578 MEOH     3438     MEOH     C1       CD33B    2.314100       11.6110           0   -1.00000   1.30000
     51579 MEOH     3438     MEOH     DC1      DRUD    -2.454100        0.4000           0   0.00000   0.00000
     51580 MEOH     3438     MEOH     O1       OD31H    2.488300       15.5990           0   -1.02800   1.30000
     51581 MEOH     3438     MEOH     DO1      DRUD    -2.488300        0.4000           0   0.00000   0.00000
     51582 MEOH     3438     MEOH     HO1      HDP1A    0.360000        1.0080           0   0.00000   0.00000
     51583 MEOH     3438     MEOH     HO2      DUMH     0.000000        1.0080           0   0.00000   0.00000
     51584 MEOH     3438     MEOH     H1A      HDA3B    0.080000        1.0080           0   0.00000   0.00000
     51585 MEOH     3438     MEOH     H1B      HDA3B    0.080000        1.0080           0   0.00000   0.00000
     51586 MEOH     3438     MEOH     H1C      HDA3B    0.080000        1.0080           0   0.00000   0.00000
     51587 MEOH     3438     MEOH     LP1A     LPD     -0.230000        0.0000           -1   0.00000   0.00000
     51588 MEOH     3438     MEOH     LP1B     LPD     -0.230000        0.0000           -1   0.00000   0.00000
     51589 MEOH     3439     MEOH     C1       CD33B    2.314100       11.6110           0   -1.00000   1.30000
     51590 MEOH     3439     MEOH     DC1      DRUD    -2.454100        0.4000           0   0.00000   0.00000
     51591 MEOH     3439     MEOH     O1       OD31H    2.488300       15.5990           0   -1.02800   1.30000
     51592 MEOH     3439     MEOH     DO1      DRUD    -2.488300        0.4000           0   0.00000   0.00000
     51593 MEOH     3439     MEOH     HO1      HDP1A    0.360000        1.0080           0   0.00000   0.00000
     51594 MEOH     3439     MEOH     HO2      DUMH     0.000000        1.0080           0   0.00000   0.00000
     51595 MEOH     3439     MEOH     H1A      HDA3B    0.080000        1.0080           0   0.00000   0.00000
     51596 MEOH     3439     MEOH     H1B      HDA3B    0.080000        1.0080           0   0.00000   0.00000
     51597 MEOH     3439     MEOH     H1C      HDA3B    0.080000        1.0080           0   0.00000   0.00000
     51598 MEOH     3439     MEOH     LP1A     LPD     -0.230000        0.0000           -1   0.00000   0.00000
     51599 MEOH     3439     MEOH     LP1B     LPD     -0.230000        0.0000           -1   0.00000   0.00000
     51600 MEOH     3440     MEOH     C1       CD33B    2.314100       11.6110           0   -1.00000   1.30000
     51601 MEOH     3440     MEOH     DC1      DRUD    -2.454100        0.4000           0   0.00000   0.00000
     51602 MEOH     3440     MEOH     O1       OD31H    2.488300       15.5990           0   -1.02800   1.30000
     51603 MEOH     3440     MEOH     DO1      DRUD    -2.488300        0.4000           0   0.00000   0.00000
     51604 MEOH     3440     MEOH     HO1      HDP1A    0.360000        1.0080           0   0.00000   0.00000
     51605 MEOH     3440     MEOH     HO2      DUMH     0.000000        1.0080           0   0.00000   0.00000
     51606 MEOH     3440     MEOH     H1A      HDA3B    0.080000        1.0080           0   0.00000   0.00000
     51607 MEOH     3440     MEOH     H1B      HDA3B    0.080000        1.0080           0   0.00000   0.00000
     51608 MEOH     3440     MEOH     H1C      HDA3B    0.080000        1.0080           0   0.00000   0.00000
     51609 MEOH     3440     MEOH     LP1A     LPD     -0.230000        0.0000           -1   0.00000   0.00000
     51610 MEOH     3440     MEOH     LP1B     LPD     -0.230000        0.0000           -1   0.00000   0.00000
     51611 MEOH     3441     MEOH     C1       CD33B    2.314100       11.6110           0   -1.00000   1.30000
     51612 MEOH     3441     MEOH     DC1      DRUD    -2.454100        0.4000           0   0.00000   0.00000
     51613 MEOH     3441     MEOH     O1       OD31H    2.488300       15.5990           0   -1.02800   1.30000
     51614 MEOH     3441     MEOH     DO1      DRUD    -2.488300        0.4000           0   0.00000   0.00000
     51615 MEOH     3441     MEOH     HO1      HDP1A    0.360000        1.0080           0   0.00000   0.00000
     51616 MEOH     3441     MEOH     HO2      DUMH     0.000000        1.0080           0   0.00000   0.00000
     51617 MEOH     3441     MEOH     H1A      HDA3B    0.080000        1.0080           0   0.00000   0.00000
     51618 MEOH     3441     MEOH     H1B      HDA3B    0.080000        1.0080           0   0.00000   0.00000
     51619 MEOH     3441     MEOH     H1C      HDA3B    0.080000        1.0080           0   0.00000   0.00000
     51620 MEOH     3441     MEOH     LP1A     LPD     -0.230000        0.0000           -1   0.00000   0.00000
     51621 MEOH     3441     MEOH     LP1B     LPD     -0.230000        0.0000           -1   0.00000   0.00000
     51622 MEOH     3442     MEOH     C1       CD33B    2.314100       11.6110           0   -1.00000   1.30000
     51623 MEOH     3442     MEOH     DC1      DRUD    -2.454100        0.4000           0   0.00000   0.00000
     51624 MEOH     3442     MEOH     O1       OD31H    2.488300       15.5990           0   -1.02800   1.30000
     51625 MEOH     3442     MEOH     DO1      DRUD    -2.488300        0.4000           0   0.00000   0.00000
     51626 MEOH     3442     MEOH     HO1      HDP1A    0.360000        1.0080           0   0.00000   0.00000
     51627 MEOH     3442     MEOH     HO2      DUMH     0.000000        1.0080           0   0.00000   0.00000
     51628 MEOH     3442     MEOH     H1A      HDA3B    0.080000        1.0080           0   0.00000   0.00000
     51629 MEOH     3442     MEOH     H1B      HDA3B    0.080000        1.0080           0   0.00000   0.00000
     51630 MEOH     3442     MEOH     H1C      HDA3B    0.080000        1.0080           0   0.00000   0.00000
     51631 MEOH     3442     MEOH     LP1A     LPD     -0.230000        0.0000           -1   0.00000   0.00000
     51632 MEOH     3442     MEOH     LP1B     LPD     -0.230000        0.0000           -1   0.00000   0.00000
     51633 MEOH     3443     MEOH     C1       CD33B    2.314100       11.6110           0   -1.00000   1.30000
     51634 MEOH     3443     MEOH     DC1      DRUD    -2.454100        0.4000           0   0.00000   0.00000
     51635 MEOH     3443     MEOH     O1       OD31H    2.488300       15.5990           0   -1.02800   1.30000
     51636 MEOH     3443     MEOH     DO1      DRUD    -2.488300        0.4000           0   0.00000   0.00000
     51637 MEOH     3443     MEOH     HO1      HDP1A    0.360000        1.0080           0   0.00000   0.00000
     51638 MEOH     3443     MEOH     HO2      DUMH     0.000000        1.0080           0   0.00000   0.00000
     51639 MEOH     3443     MEOH     H1A      HDA3B    0.080000        1.0080           0   0.00000   0.00000
     51640 MEOH     3443     MEOH     H1B      HDA3B    0.080000        1.0080           0   0.00000   0.00000
     51641 MEOH     3443     MEOH     H1C      HDA3B    0.080000        1.0080           0   0.00000   0.00000
     51642 MEOH     3443     MEOH     LP1A     LPD     -0.230000        0.0000           -1   0.00000   0.00000
     51643 MEOH     3443     MEOH     LP1B     LPD     -0.230000        0.0000           -1   0.00000   0.00000
     51644 MEOH     3444     MEOH     C1       CD33B    2.314100       11.6110           0   -1.00000   1.30000
     51645 MEOH     3444     MEOH     DC1      DRUD    -2.454100        0.4000           0   0.00000   0.00000
     51646 MEOH     3444     MEOH     O1       OD31H    2.488300       15.5990           0   -1.02800   1.30000
     51647 MEOH     3444     MEOH     DO1      DRUD    -2.488300        0.4000           0   0.00000   0.00000
     51648 MEOH     3444     MEOH     HO1      HDP1A    0.360000        1.0080           0   0.00000   0.00000
     51649 MEOH     3444     MEOH     HO2      DUMH     0.000000        1.0080           0   0.00000   0.00000
     51650 MEOH     3444     MEOH     H1A      HDA3B    0.080000        1.0080           0   0.00000   0.00000
     51651 MEOH     3444     MEOH     H1B      HDA3B    0.080000        1.0080           0   0.00000   0.00000
     51652 MEOH     3444     MEOH     H1C      HDA3B    0.080000        1.0080           0   0.00000   0.00000
     51653 MEOH     3444     MEOH     LP1A     LPD     -0.230000        0.0000           -1   0.00000   0.00000
     51654 MEOH     3444     MEOH     LP1B     LPD     -0.230000        0.0000           -1   0.00000   0.00000
     51655 MEOH     3445     MEOH     C1       CD33B    2.314100       11.6110           0   -1.00000   1.30000
     51656 MEOH     3445     MEOH     DC1      DRUD    -2.454100        0.4000           0   0.00000   0.00000
     51657 MEOH     3445     MEOH     O1       OD31H    2.488300       15.5990           0   -1.02800   1.30000
     51658 MEOH     3445     MEOH     DO1      DRUD    -2.488300        0.4000           0   0.00000   0.00000
     51659 MEOH     3445     MEOH     HO1      HDP1A    0.360000        1.0080           0   0.00000   0.00000
     51660 MEOH     3445     MEOH     HO2      DUMH     0.000000        1.0080           0   0.00000   0.00000
     51661 MEOH     3445     MEOH     H1A      HDA3B    0.080000        1.0080           0   0.00000   0.00000
     51662 MEOH     3445     MEOH     H1B      HDA3B    0.080000        1.0080           0   0.00000   0.00000
     51663 MEOH     3445     MEOH     H1C      HDA3B    0.080000        1.0080           0   0.00000   0.00000
     51664 MEOH     3445     MEOH     LP1A     LPD     -0.230000        0.0000           -1   0.00000   0.00000
     51665 MEOH     3445     MEOH     LP1B     LPD     -0.230000        0.0000           -1   0.00000   0.00000
     51666 MEOH     3446     MEOH     C1       CD33B    2.314100       11.6110           0   -1.00000   1.30000
     51667 MEOH     3446     MEOH     DC1      DRUD    -2.454100        0.4000           0   0.00000   0.00000
     51668 MEOH     3446     MEOH     O1       OD31H    2.488300       15.5990           0   -1.02800   1.30000
     51669 MEOH     3446     MEOH     DO1      DRUD    -2.488300        0.4000           0   0.00000   0.00000
     51670 MEOH     3446     MEOH     HO1      HDP1A    0.360000        1.0080           0   0.00000   0.00000
     51671 MEOH     3446     MEOH     HO2      DUMH     0.000000        1.0080           0   0.00000   0.00000
     51672 MEOH     3446     MEOH     H1A      HDA3B    0.080000        1.0080           0   0.00000   0.00000
     51673 MEOH     3446     MEOH     H1B      HDA3B    0.080000        1.0080           0   0.00000   0.00000
     51674 MEOH     3446     MEOH     H1C      HDA3B    0.080000        1.0080           0   0.00000   0.00000
     51675 MEOH     3446     MEOH     LP1A     LPD     -0.230000        0.0000           -1   0.00000   0.00000
     51676 MEOH     3446     MEOH     LP1B     LPD     -0.230000        0.0000           -1   0.00000   0.00000
     51677 MEOH     3447     MEOH     C1       CD33B    2.314100       11.6110           0   -1.00000   1.30000
     51678 MEOH     3447     MEOH     DC1      DRUD    -2.454100        0.4000           0   0.00000   0.00000
     51679 MEOH     3447     MEOH     O1       OD31H    2.488300       15.5990           0   -1.02800   1.30000
     51680 MEOH     3447     MEOH     DO1      DRUD    -2.488300        0.4000           0   0.00000   0.00000
     51681 MEOH     3447     MEOH     HO1      HDP1A    0.360000        1.0080           0   0.00000   0.00000
     51682 MEOH     3447     MEOH     HO2      DUMH     0.000000        1.0080           0   0.00000   0.00000
     51683 MEOH     3447     MEOH     H1A      HDA3B    0.080000        1.0080           0   0.00000   0.00000
     51684 MEOH     3447     MEOH     H1B      HDA3B    0.080000        1.0080           0   0.00000   0.00000
     51685 MEOH     3447     MEOH     H1C      HDA3B    0.080000        1.0080           0   0.00000   0.00000
     51686 MEOH     3447     MEOH     LP1A     LPD     -0.230000        0.0000           -1   0.00000   0.00000
     51687 MEOH     3447     MEOH     LP1B     LPD     -0.230000        0.0000           -1   0.00000   0.00000
     51688 MEOH     3448     MEOH     C1       CD33B    2.314100       11.6110           0   -1.00000   1.30000
     51689 MEOH     3448     MEOH     DC1      DRUD    -2.454100        0.4000           0   0.00000   0.00000
     51690 MEOH     3448     MEOH     O1       OD31H    2.488300       15.5990           0   -1.02800   1.30000
     51691 MEOH     3448     MEOH     DO1      DRUD    -2.488300        0.4000           0   0.00000   0.00000
     51692 MEOH     3448     MEOH     HO1      HDP1A    0.360000        1.0080           0   0.00000   0.00000
     51693 MEOH     3448     MEOH     HO2      DUMH     0.000000        1.0080           0   0.00000   0.00000
     51694 MEOH     3448     MEOH     H1A      HDA3B    0.080000        1.0080           0   0.00000   0.00000
     51695 MEOH     3448     MEOH     H1B      HDA3B    0.080000        1.0080           0   0.00000   0.00000
     51696 MEOH     3448     MEOH     H1C      HDA3B    0.080000        1.0080           0   0.00000   0.00000
     51697 MEOH     3448     MEOH     LP1A     LPD     -0.230000        0.0000           -1   0.00000   0.00000
     51698 MEOH     3448     MEOH     LP1B     LPD     -0.230000        0.0000           -1   0.00000   0.00000
     51699 MEOH     3449     MEOH     C1       CD33B    2.314100       11.6110           0   -1.00000   1.30000
     51700 MEOH     3449     MEOH     DC1      DRUD    -2.454100        0.4000           0   0.00000   0.00000
     51701 MEOH     3449     MEOH     O1       OD31H    2.488300       15.5990           0   -1.02800   1.30000
     51702 MEOH     3449     MEOH     DO1      DRUD    -2.488300        0.4000           0   0.00000   0.00000
     51703 MEOH     3449     MEOH     HO1      HDP1A    0.360000        1.0080           0   0.00000   0.00000
     51704 MEOH     3449     MEOH     HO2      DUMH     0.000000        1.0080           0   0.00000   0.00000
     51705 MEOH     3449     MEOH     H1A      HDA3B    0.080000        1.0080           0   0.00000   0.00000
     51706 MEOH     3449     MEOH     H1B      HDA3B    0.080000        1.0080           0   0.00000   0.00000
     51707 MEOH     3449     MEOH     H1C      HDA3B    0.080000        1.0080           0   0.00000   0.00000
     51708 MEOH     3449     MEOH     LP1A     LPD     -0.230000        0.0000           -1   0.00000   0.00000
     51709 MEOH     3449     MEOH     LP1B     LPD     -0.230000        0.0000           -1   0.00000   0.00000
     51710 MEOH     3450     MEOH     C1       CD33B    2.314100       11.6110           0   -1.00000   1.30000
     51711 MEOH     3450     MEOH     DC1      DRUD    -2.454100        0.4000           0   0.00000   0.00000
     51712 MEOH     3450     MEOH     O1       OD31H    2.488300       15.5990           0   -1.02800   1.30000
     51713 MEOH     3450     MEOH     DO1      DRUD    -2.488300        0.4000           0   0.00000   0.00000
     51714 MEOH     3450     MEOH     HO1      HDP1A    0.360000        1.0080           0   0.00000   0.00000
     51715 MEOH     3450     MEOH     HO2      DUMH     0.000000        1.0080           0   0.00000   0.00000
     51716 MEOH     3450     MEOH     H1A      HDA3B    0.080000        1.0080           0   0.00000   0.00000
     51717 MEOH     3450     MEOH     H1B      HDA3B    0.080000        1.0080           0   0.00000   0.00000
     51718 MEOH     3450     MEOH     H1C      HDA3B    0.080000        1.0080           0   0.00000   0.00000
     51719 MEOH     3450     MEOH     LP1A     LPD     -0.230000        0.0000           -1   0.00000   0.00000
     51720 MEOH     3450     MEOH     LP1B     LPD     -0.230000        0.0000           -1   0.00000   0.00000
     51721 MEOH     3451     MEOH     C1       CD33B    2.314100       11.6110           0   -1.00000   1.30000
     51722 MEOH     3451     MEOH     DC1      DRUD    -2.454100        0.4000           0   0.00000   0.00000
     51723 MEOH     3451     MEOH     O1       OD31H    2.488300       15.5990           0   -1.02800   1.30000
     51724 MEOH     3451     MEOH     DO1      DRUD    -2.488300        0.4000           0   0.00000   0.00000
     51725 MEOH     3451     MEOH     HO1      HDP1A    0.360000        1.0080           0   0.00000   0.00000
     51726 MEOH     3451     MEOH     HO2      DUMH     0.000000        1.0080           0   0.00000   0.00000
     51727 MEOH     3451     MEOH     H1A      HDA3B    0.080000        1.0080           0   0.00000   0.00000
     51728 MEOH     3451     MEOH     H1B      HDA3B    0.080000        1.0080           0   0.00000   0.00000
     51729 MEOH     3451     MEOH     H1C      HDA3B    0.080000        1.0080           0   0.00000   0.00000
     51730 MEOH     3451     MEOH     LP1A     LPD     -0.230000        0.0000           -1   0.00000   0.00000
     51731 MEOH     3451     MEOH     LP1B     LPD     -0.230000        0.0000           -1   0.00000   0.00000
     51732 MEOH     3452     MEOH     C1       CD33B    2.314100       11.6110           0   -1.00000   1.30000
     51733 MEOH     3452     MEOH     DC1      DRUD    -2.454100        0.4000           0   0.00000   0.00000
     51734 MEOH     3452     MEOH     O1       OD31H    2.488300       15.5990           0   -1.02800   1.30000
     51735 MEOH     3452     MEOH     DO1      DRUD    -2.488300        0.4000           0   0.00000   0.00000
     51736 MEOH     3452     MEOH     HO1      HDP1A    0.360000        1.0080           0   0.00000   0.00000
     51737 MEOH     3452     MEOH     HO2      DUMH     0.000000        1.0080           0   0.00000   0.00000
     51738 MEOH     3452     MEOH     H1A      HDA3B    0.080000        1.0080           0   0.00000   0.00000
     51739 MEOH     3452     MEOH     H1B      HDA3B    0.080000        1.0080           0   0.00000   0.00000
     51740 MEOH     3452     MEOH     H1C      HDA3B    0.080000        1.0080           0   0.00000   0.00000
     51741 MEOH     3452     MEOH     LP1A     LPD     -0.230000        0.0000           -1   0.00000   0.00000
     51742 MEOH     3452     MEOH     LP1B     LPD     -0.230000        0.0000           -1   0.00000   0.00000
     51743 MEOH     3453     MEOH     C1       CD33B    2.314100       11.6110           0   -1.00000   1.30000
     51744 MEOH     3453     MEOH     DC1      DRUD    -2.454100        0.4000           0   0.00000   0.00000
     51745 MEOH     3453     MEOH     O1       OD31H    2.488300       15.5990           0   -1.02800   1.30000
     51746 MEOH     3453     MEOH     DO1      DRUD    -2.488300        0.4000           0   0.00000   0.00000
     51747 MEOH     3453     MEOH     HO1      HDP1A    0.360000        1.0080           0   0.00000   0.00000
     51748 MEOH     3453     MEOH     HO2      DUMH     0.000000        1.0080           0   0.00000   0.00000
     51749 MEOH     3453     MEOH     H1A      HDA3B    0.080000        1.0080           0   0.00000   0.00000
     51750 MEOH     3453     MEOH     H1B      HDA3B    0.080000        1.0080           0   0.00000   0.00000
     51751 MEOH     3453     MEOH     H1C      HDA3B    0.080000        1.0080           0   0.00000   0.00000
     51752 MEOH     3453     MEOH     LP1A     LPD     -0.230000        0.0000           -1   0.00000   0.00000
     51753 MEOH     3453     MEOH     LP1B     LPD     -0.230000        0.0000           -1   0.00000   0.00000
     51754 MEOH     3454     MEOH     C1       CD33B    2.314100       11.6110           0   -1.00000   1.30000
     51755 MEOH     3454     MEOH     DC1      DRUD    -2.454100        0.4000           0   0.00000   0.00000
     51756 MEOH     3454     MEOH     O1       OD31H    2.488300       15.5990           0   -1.02800   1.30000
     51757 MEOH     3454     MEOH     DO1      DRUD    -2.488300        0.4000           0   0.00000   0.00000
     51758 MEOH     3454     MEOH     HO1      HDP1A    0.360000        1.0080           0   0.00000   0.00000
     51759 MEOH     3454     MEOH     HO2      DUMH     0.000000        1.0080           0   0.00000   0.00000
     51760 MEOH     3454     MEOH     H1A      HDA3B    0.080000        1.0080           0   0.00000   0.00000
     51761 MEOH     3454     MEOH     H1B      HDA3B    0.080000        1.0080           0   0.00000   0.00000
     51762 MEOH     3454     MEOH     H1C      HDA3B    0.080000        1.0080           0   0.00000   0.00000
     51763 MEOH     3454     MEOH     LP1A     LPD     -0.230000        0.0000           -1   0.00000   0.00000
     51764 MEOH     3454     MEOH     LP1B     LPD     -0.230000        0.0000           -1   0.00000   0.00000
     51765 MEOH     3455     MEOH     C1       CD33B    2.314100       11.6110           0   -1.00000   1.30000
     51766 MEOH     3455     MEOH     DC1      DRUD    -2.454100        0.4000           0   0.00000   0.00000
     51767 MEOH     3455     MEOH     O1       OD31H    2.488300       15.5990           0   -1.02800   1.30000
     51768 MEOH     3455     MEOH     DO1      DRUD    -2.488300        0.4000           0   0.00000   0.00000
     51769 MEOH     3455     MEOH     HO1      HDP1A    0.360000        1.0080           0   0.00000   0.00000
     51770 MEOH     3455     MEOH     HO2      DUMH     0.000000        1.0080           0   0.00000   0.00000
     51771 MEOH     3455     MEOH     H1A      HDA3B    0.080000        1.0080           0   0.00000   0.00000
     51772 MEOH     3455     MEOH     H1B      HDA3B    0.080000        1.0080           0   0.00000   0.00000
     51773 MEOH     3455     MEOH     H1C      HDA3B    0.080000        1.0080           0   0.00000   0.00000
     51774 MEOH     3455     MEOH     LP1A     LPD     -0.230000        0.0000           -1   0.00000   0.00000
     51775 MEOH     3455     MEOH     LP1B     LPD     -0.230000        0.0000           -1   0.00000   0.00000
     51776 MEOH     3456     MEOH     C1       CD33B    2.314100       11.6110           0   -1.00000   1.30000
     51777 MEOH     3456     MEOH     DC1      DRUD    -2.454100        0.4000           0   0.00000   0.00000
     51778 MEOH     3456     MEOH     O1       OD31H    2.488300       15.5990           0   -1.02800   1.30000
     51779 MEOH     3456     MEOH     DO1      DRUD    -2.488300        0.4000           0   0.00000   0.00000
     51780 MEOH     3456     MEOH     HO1      HDP1A    0.360000        1.0080           0   0.00000   0.00000
     51781 MEOH     3456     MEOH     HO2      DUMH     0.000000        1.0080           0   0.00000   0.00000
     51782 MEOH     3456     MEOH     H1A      HDA3B    0.080000        1.0080           0   0.00000   0.00000
     51783 MEOH     3456     MEOH     H1B      HDA3B    0.080000        1.0080           0   0.00000   0.00000
     51784 MEOH     3456     MEOH     H1C      HDA3B    0.080000        1.0080           0   0.00000   0.00000
     51785 MEOH     3456     MEOH     LP1A     LPD     -0.230000        0.0000           -1   0.00000   0.00000
     51786 MEOH     3456     MEOH     LP1B     LPD     -0.230000        0.0000           -1   0.00000   0.00000
     51787 MEOH     3457     MEOH     C1       CD33B    2.314100       11.6110           0   -1.00000   1.30000
     51788 MEOH     3457     MEOH     DC1      DRUD    -2.454100        0.4000           0   0.00000   0.00000
     51789 MEOH     3457     MEOH     O1       OD31H    2.488300       15.5990           0   -1.02800   1.30000
     51790 MEOH     3457     MEOH     DO1      DRUD    -2.488300        0.4000           0   0.00000   0.00000
     51791 MEOH     3457     MEOH     HO1      HDP1A    0.360000        1.0080           0   0.00000   0.00000
     51792 MEOH     3457     MEOH     HO2      DUMH     0.000000        1.0080           0   0.00000   0.00000
     51793 MEOH     3457     MEOH     H1A      HDA3B    0.080000        1.0080           0   0.00000   0.00000
     51794 MEOH     3457     MEOH     H1B      HDA3B    0.080000        1.0080           0   0.00000   0.00000
     51795 MEOH     3457     MEOH     H1C      HDA3B    0.080000        1.0080           0   0.00000   0.00000
     51796 MEOH     3457     MEOH     LP1A     LPD     -0.230000        0.0000           -1   0.00000   0.00000
     51797 MEOH     3457     MEOH     LP1B     LPD     -0.230000        0.0000           -1   0.00000   0.00000
     51798 MEOH     3458     MEOH     C1       CD33B    2.314100       11.6110           0   -1.00000   1.30000
     51799 MEOH     3458     MEOH     DC1      DRUD    -2.454100        0.4000           0   0.00000   0.00000
     51800 MEOH     3458     MEOH     O1       OD31H    2.488300       15.5990           0   -1.02800   1.30000
     51801 MEOH     3458     MEOH     DO1      DRUD    -2.488300        0.4000           0   0.00000   0.00000
     51802 MEOH     3458     MEOH     HO1      HDP1A    0.360000        1.0080           0   0.00000   0.00000
     51803 MEOH     3458     MEOH     HO2      DUMH     0.000000        1.0080           0   0.00000   0.00000
     51804 MEOH     3458     MEOH     H1A      HDA3B    0.080000        1.0080           0   0.00000   0.00000
     51805 MEOH     3458     MEOH     H1B      HDA3B    0.080000        1.0080           0   0.00000   0.00000
     51806 MEOH     3458     MEOH     H1C      HDA3B    0.080000        1.0080           0   0.00000   0.00000
     51807 MEOH     3458     MEOH     LP1A     LPD     -0.230000        0.0000           -1   0.00000   0.00000
     51808 MEOH     3458     MEOH     LP1B     LPD     -0.230000        0.0000           -1   0.00000   0.00000
     51809 MEOH     3459     MEOH     C1       CD33B    2.314100       11.6110           0   -1.00000   1.30000
     51810 MEOH     3459     MEOH     DC1      DRUD    -2.454100        0.4000           0   0.00000   0.00000
     51811 MEOH     3459     MEOH     O1       OD31H    2.488300       15.5990           0   -1.02800   1.30000
     51812 MEOH     3459     MEOH     DO1      DRUD    -2.488300        0.4000           0   0.00000   0.00000
     51813 MEOH     3459     MEOH     HO1      HDP1A    0.360000        1.0080           0   0.00000   0.00000
     51814 MEOH     3459     MEOH     HO2      DUMH     0.000000        1.0080           0   0.00000   0.00000
     51815 MEOH     3459     MEOH     H1A      HDA3B    0.080000        1.0080           0   0.00000   0.00000
     51816 MEOH     3459     MEOH     H1B      HDA3B    0.080000        1.0080           0   0.00000   0.00000
     51817 MEOH     3459     MEOH     H1C      HDA3B    0.080000        1.0080           0   0.00000   0.00000
     51818 MEOH     3459     MEOH     LP1A     LPD     -0.230000        0.0000           -1   0.00000   0.00000
     51819 MEOH     3459     MEOH     LP1B     LPD     -0.230000        0.0000           -1   0.00000   0.00000
     51820 MEOH     3460     MEOH     C1       CD33B    2.314100       11.6110           0   -1.00000   1.30000
     51821 MEOH     3460     MEOH     DC1      DRUD    -2.454100        0.4000           0   0.00000   0.00000
     51822 MEOH     3460     MEOH     O1       OD31H    2.488300       15.5990           0   -1.02800   1.30000
     51823 MEOH     3460     MEOH     DO1      DRUD    -2.488300        0.4000           0   0.00000   0.00000
     51824 MEOH     3460     MEOH     HO1      HDP1A    0.360000        1.0080           0   0.00000   0.00000
     51825 MEOH     3460     MEOH     HO2      DUMH     0.000000        1.0080           0   0.00000   0.00000
     51826 MEOH     3460     MEOH     H1A      HDA3B    0.080000        1.0080           0   0.00000   0.00000
     51827 MEOH     3460     MEOH     H1B      HDA3B    0.080000        1.0080           0   0.00000   0.00000
     51828 MEOH     3460     MEOH     H1C      HDA3B    0.080000        1.0080           0   0.00000   0.00000
     51829 MEOH     3460     MEOH     LP1A     LPD     -0.230000        0.0000           -1   0.00000   0.00000
     51830 MEOH     3460     MEOH     LP1B     LPD     -0.230000        0.0000           -1   0.00000   0.00000
     51831 MEOH     3461     MEOH     C1       CD33B    2.314100       11.6110           0   -1.00000   1.30000
     51832 MEOH     3461     MEOH     DC1      DRUD    -2.454100        0.4000           0   0.00000   0.00000
     51833 MEOH     3461     MEOH     O1       OD31H    2.488300       15.5990           0   -1.02800   1.30000
     51834 MEOH     3461     MEOH     DO1      DRUD    -2.488300        0.4000           0   0.00000   0.00000
     51835 MEOH     3461     MEOH     HO1      HDP1A    0.360000        1.0080           0   0.00000   0.00000
     51836 MEOH     3461     MEOH     HO2      DUMH     0.000000        1.0080           0   0.00000   0.00000
     51837 MEOH     3461     MEOH     H1A      HDA3B    0.080000        1.0080           0   0.00000   0.00000
     51838 MEOH     3461     MEOH     H1B      HDA3B    0.080000        1.0080           0   0.00000   0.00000
     51839 MEOH     3461     MEOH     H1C      HDA3B    0.080000        1.0080           0   0.00000   0.00000
     51840 MEOH     3461     MEOH     LP1A     LPD     -0.230000        0.0000           -1   0.00000   0.00000
     51841 MEOH     3461     MEOH     LP1B     LPD     -0.230000        0.0000           -1   0.00000   0.00000
     51842 MEOH     3462     MEOH     C1       CD33B    2.314100       11.6110           0   -1.00000   1.30000
     51843 MEOH     3462     MEOH     DC1      DRUD    -2.454100        0.4000           0   0.00000   0.00000
     51844 MEOH     3462     MEOH     O1       OD31H    2.488300       15.5990           0   -1.02800   1.30000
     51845 MEOH     3462     MEOH     DO1      DRUD    -2.488300        0.4000           0   0.00000   0.00000
     51846 MEOH     3462     MEOH     HO1      HDP1A    0.360000        1.0080           0   0.00000   0.00000
     51847 MEOH     3462     MEOH     HO2      DUMH     0.000000        1.0080           0   0.00000   0.00000
     51848 MEOH     3462     MEOH     H1A      HDA3B    0.080000        1.0080           0   0.00000   0.00000
     51849 MEOH     3462     MEOH     H1B      HDA3B    0.080000        1.0080           0   0.00000   0.00000
     51850 MEOH     3462     MEOH     H1C      HDA3B    0.080000        1.0080           0   0.00000   0.00000
     51851 MEOH     3462     MEOH     LP1A     LPD     -0.230000        0.0000           -1   0.00000   0.00000
     51852 MEOH     3462     MEOH     LP1B     LPD     -0.230000        0.0000           -1   0.00000   0.00000
     51853 MEOH     3463     MEOH     C1       CD33B    2.314100       11.6110           0   -1.00000   1.30000
     51854 MEOH     3463     MEOH     DC1      DRUD    -2.454100        0.4000           0   0.00000   0.00000
     51855 MEOH     3463     MEOH     O1       OD31H    2.488300       15.5990           0   -1.02800   1.30000
     51856 MEOH     3463     MEOH     DO1      DRUD    -2.488300        0.4000           0   0.00000   0.00000
     51857 MEOH     3463     MEOH     HO1      HDP1A    0.360000        1.0080           0   0.00000   0.00000
     51858 MEOH     3463     MEOH     HO2      DUMH     0.000000        1.0080           0   0.00000   0.00000
     51859 MEOH     3463     MEOH     H1A      HDA3B    0.080000        1.0080           0   0.00000   0.00000
     51860 MEOH     3463     MEOH     H1B      HDA3B    0.080000        1.0080           0   0.00000   0.00000
     51861 MEOH     3463     MEOH     H1C      HDA3B    0.080000        1.0080           0   0.00000   0.00000
     51862 MEOH     3463     MEOH     LP1A     LPD     -0.230000        0.0000           -1   0.00000   0.00000
     51863 MEOH     3463     MEOH     LP1B     LPD     -0.230000        0.0000           -1   0.00000   0.00000
     51864 MEOH     3464     MEOH     C1       CD33B    2.314100       11.6110           0   -1.00000   1.30000
     51865 MEOH     3464     MEOH     DC1      DRUD    -2.454100        0.4000           0   0.00000   0.00000
     51866 MEOH     3464     MEOH     O1       OD31H    2.488300       15.5990           0   -1.02800   1.30000
     51867 MEOH     3464     MEOH     DO1      DRUD    -2.488300        0.4000           0   0.00000   0.00000
     51868 MEOH     3464     MEOH     HO1      HDP1A    0.360000        1.0080           0   0.00000   0.00000
     51869 MEOH     3464     MEOH     HO2      DUMH     0.000000        1.0080           0   0.00000   0.00000
     51870 MEOH     3464     MEOH     H1A      HDA3B    0.080000        1.0080           0   0.00000   0.00000
     51871 MEOH     3464     MEOH     H1B      HDA3B    0.080000        1.0080           0   0.00000   0.00000
     51872 MEOH     3464     MEOH     H1C      HDA3B    0.080000        1.0080           0   0.00000   0.00000
     51873 MEOH     3464     MEOH     LP1A     LPD     -0.230000        0.0000           -1   0.00000   0.00000
     51874 MEOH     3464     MEOH     LP1B     LPD     -0.230000        0.0000           -1   0.00000   0.00000
     51875 MEOH     3465     MEOH     C1       CD33B    2.314100       11.6110           0   -1.00000   1.30000
     51876 MEOH     3465     MEOH     DC1      DRUD    -2.454100        0.4000           0   0.00000   0.00000
     51877 MEOH     3465     MEOH     O1       OD31H    2.488300       15.5990           0   -1.02800   1.30000
     51878 MEOH     3465     MEOH     DO1      DRUD    -2.488300        0.4000           0   0.00000   0.00000
     51879 MEOH     3465     MEOH     HO1      HDP1A    0.360000        1.0080           0   0.00000   0.00000
     51880 MEOH     3465     MEOH     HO2      DUMH     0.000000        1.0080           0   0.00000   0.00000
     51881 MEOH     3465     MEOH     H1A      HDA3B    0.080000        1.0080           0   0.00000   0.00000
     51882 MEOH     3465     MEOH     H1B      HDA3B    0.080000        1.0080           0   0.00000   0.00000
     51883 MEOH     3465     MEOH     H1C      HDA3B    0.080000        1.0080           0   0.00000   0.00000
     51884 MEOH     3465     MEOH     LP1A     LPD     -0.230000        0.0000           -1   0.00000   0.00000
     51885 MEOH     3465     MEOH     LP1B     LPD     -0.230000        0.0000           -1   0.00000   0.00000
     51886 MEOH     3466     MEOH     C1       CD33B    2.314100       11.6110           0   -1.00000   1.30000
     51887 MEOH     3466     MEOH     DC1      DRUD    -2.454100        0.4000           0   0.00000   0.00000
     51888 MEOH     3466     MEOH     O1       OD31H    2.488300       15.5990           0   -1.02800   1.30000
     51889 MEOH     3466     MEOH     DO1      DRUD    -2.488300        0.4000           0   0.00000   0.00000
     51890 MEOH     3466     MEOH     HO1      HDP1A    0.360000        1.0080           0   0.00000   0.00000
     51891 MEOH     3466     MEOH     HO2      DUMH     0.000000        1.0080           0   0.00000   0.00000
     51892 MEOH     3466     MEOH     H1A      HDA3B    0.080000        1.0080           0   0.00000   0.00000
     51893 MEOH     3466     MEOH     H1B      HDA3B    0.080000        1.0080           0   0.00000   0.00000
     51894 MEOH     3466     MEOH     H1C      HDA3B    0.080000        1.0080           0   0.00000   0.00000
     51895 MEOH     3466     MEOH     LP1A     LPD     -0.230000        0.0000           -1   0.00000   0.00000
     51896 MEOH     3466     MEOH     LP1B     LPD     -0.230000        0.0000           -1   0.00000   0.00000
     51897 MEOH     3467     MEOH     C1       CD33B    2.314100       11.6110           0   -1.00000   1.30000
     51898 MEOH     3467     MEOH     DC1      DRUD    -2.454100        0.4000           0   0.00000   0.00000
     51899 MEOH     3467     MEOH     O1       OD31H    2.488300       15.5990           0   -1.02800   1.30000
     51900 MEOH     3467     MEOH     DO1      DRUD    -2.488300        0.4000           0   0.00000   0.00000
     51901 MEOH     3467     MEOH     HO1      HDP1A    0.360000        1.0080           0   0.00000   0.00000
     51902 MEOH     3467     MEOH     HO2      DUMH     0.000000        1.0080           0   0.00000   0.00000
     51903 MEOH     3467     MEOH     H1A      HDA3B    0.080000        1.0080           0   0.00000   0.00000
     51904 MEOH     3467     MEOH     H1B      HDA3B    0.080000        1.0080           0   0.00000   0.00000
     51905 MEOH     3467     MEOH     H1C      HDA3B    0.080000        1.0080           0   0.00000   0.00000
     51906 MEOH     3467     MEOH     LP1A     LPD     -0.230000        0.0000           -1   0.00000   0.00000
     51907 MEOH     3467     MEOH     LP1B     LPD     -0.230000        0.0000           -1   0.00000   0.00000
     51908 MEOH     3468     MEOH     C1       CD33B    2.314100       11.6110           0   -1.00000   1.30000
     51909 MEOH     3468     MEOH     DC1      DRUD    -2.454100        0.4000           0   0.00000   0.00000
     51910 MEOH     3468     MEOH     O1       OD31H    2.488300       15.5990           0   -1.02800   1.30000
     51911 MEOH     3468     MEOH     DO1      DRUD    -2.488300        0.4000           0   0.00000   0.00000
     51912 MEOH     3468     MEOH     HO1      HDP1A    0.360000        1.0080           0   0.00000   0.00000
     51913 MEOH     3468     MEOH     HO2      DUMH     0.000000        1.0080           0   0.00000   0.00000
     51914 MEOH     3468     MEOH     H1A      HDA3B    0.080000        1.0080           0   0.00000   0.00000
     51915 MEOH     3468     MEOH     H1B      HDA3B    0.080000        1.0080           0   0.00000   0.00000
     51916 MEOH     3468     MEOH     H1C      HDA3B    0.080000        1.0080           0   0.00000   0.00000
     51917 MEOH     3468     MEOH     LP1A     LPD     -0.230000        0.0000           -1   0.00000   0.00000
     51918 MEOH     3468     MEOH     LP1B     LPD     -0.230000        0.0000           -1   0.00000   0.00000
     51919 MEOH     3469     MEOH     C1       CD33B    2.314100       11.6110           0   -1.00000   1.30000
     51920 MEOH     3469     MEOH     DC1      DRUD    -2.454100        0.4000           0   0.00000   0.00000
     51921 MEOH     3469     MEOH     O1       OD31H    2.488300       15.5990           0   -1.02800   1.30000
     51922 MEOH     3469     MEOH     DO1      DRUD    -2.488300        0.4000           0   0.00000   0.00000
     51923 MEOH     3469     MEOH     HO1      HDP1A    0.360000        1.0080           0   0.00000   0.00000
     51924 MEOH     3469     MEOH     HO2      DUMH     0.000000        1.0080           0   0.00000   0.00000
     51925 MEOH     3469     MEOH     H1A      HDA3B    0.080000        1.0080           0   0.00000   0.00000
     51926 MEOH     3469     MEOH     H1B      HDA3B    0.080000        1.0080           0   0.00000   0.00000
     51927 MEOH     3469     MEOH     H1C      HDA3B    0.080000        1.0080           0   0.00000   0.00000
     51928 MEOH     3469     MEOH     LP1A     LPD     -0.230000        0.0000           -1   0.00000   0.00000
     51929 MEOH     3469     MEOH     LP1B     LPD     -0.230000        0.0000           -1   0.00000   0.00000
     51930 MEOH     3470     MEOH     C1       CD33B    2.314100       11.6110           0   -1.00000   1.30000
     51931 MEOH     3470     MEOH     DC1      DRUD    -2.454100        0.4000           0   0.00000   0.00000
     51932 MEOH     3470     MEOH     O1       OD31H    2.488300       15.5990           0   -1.02800   1.30000
     51933 MEOH     3470     MEOH     DO1      DRUD    -2.488300        0.4000           0   0.00000   0.00000
     51934 MEOH     3470     MEOH     HO1      HDP1A    0.360000        1.0080           0   0.00000   0.00000
     51935 MEOH     3470     MEOH     HO2      DUMH     0.000000        1.0080           0   0.00000   0.00000
     51936 MEOH     3470     MEOH     H1A      HDA3B    0.080000        1.0080           0   0.00000   0.00000
     51937 MEOH     3470     MEOH     H1B      HDA3B    0.080000        1.0080           0   0.00000   0.00000
     51938 MEOH     3470     MEOH     H1C      HDA3B    0.080000        1.0080           0   0.00000   0.00000
     51939 MEOH     3470     MEOH     LP1A     LPD     -0.230000        0.0000           -1   0.00000   0.00000
     51940 MEOH     3470     MEOH     LP1B     LPD     -0.230000        0.0000           -1   0.00000   0.00000
     51941 MEOH     3471     MEOH     C1       CD33B    2.314100       11.6110           0   -1.00000   1.30000
     51942 MEOH     3471     MEOH     DC1      DRUD    -2.454100        0.4000           0   0.00000   0.00000
     51943 MEOH     3471     MEOH     O1       OD31H    2.488300       15.5990           0   -1.02800   1.30000
     51944 MEOH     3471     MEOH     DO1      DRUD    -2.488300        0.4000           0   0.00000   0.00000
     51945 MEOH     3471     MEOH     HO1      HDP1A    0.360000        1.0080           0   0.00000   0.00000
     51946 MEOH     3471     MEOH     HO2      DUMH     0.000000        1.0080           0   0.00000   0.00000
     51947 MEOH     3471     MEOH     H1A      HDA3B    0.080000        1.0080           0   0.00000   0.00000
     51948 MEOH     3471     MEOH     H1B      HDA3B    0.080000        1.0080           0   0.00000   0.00000
     51949 MEOH     3471     MEOH     H1C      HDA3B    0.080000        1.0080           0   0.00000   0.00000
     51950 MEOH     3471     MEOH     LP1A     LPD     -0.230000        0.0000           -1   0.00000   0.00000
     51951 MEOH     3471     MEOH     LP1B     LPD     -0.230000        0.0000           -1   0.00000   0.00000
     51952 MEOH     3472     MEOH     C1       CD33B    2.314100       11.6110           0   -1.00000   1.30000
     51953 MEOH     3472     MEOH     DC1      DRUD    -2.454100        0.4000           0   0.00000   0.00000
     51954 MEOH     3472     MEOH     O1       OD31H    2.488300       15.5990           0   -1.02800   1.30000
     51955 MEOH     3472     MEOH     DO1      DRUD    -2.488300        0.4000           0   0.00000   0.00000
     51956 MEOH     3472     MEOH     HO1      HDP1A    0.360000        1.0080           0   0.00000   0.00000
     51957 MEOH     3472     MEOH     HO2      DUMH     0.000000        1.0080           0   0.00000   0.00000
     51958 MEOH     3472     MEOH     H1A      HDA3B    0.080000        1.0080           0   0.00000   0.00000
     51959 MEOH     3472     MEOH     H1B      HDA3B    0.080000        1.0080           0   0.00000   0.00000
     51960 MEOH     3472     MEOH     H1C      HDA3B    0.080000        1.0080           0   0.00000   0.00000
     51961 MEOH     3472     MEOH     LP1A     LPD     -0.230000        0.0000           -1   0.00000   0.00000
     51962 MEOH     3472     MEOH     LP1B     LPD     -0.230000        0.0000           -1   0.00000   0.00000
     51963 MEOH     3473     MEOH     C1       CD33B    2.314100       11.6110           0   -1.00000   1.30000
     51964 MEOH     3473     MEOH     DC1      DRUD    -2.454100        0.4000           0   0.00000   0.00000
     51965 MEOH     3473     MEOH     O1       OD31H    2.488300       15.5990           0   -1.02800   1.30000
     51966 MEOH     3473     MEOH     DO1      DRUD    -2.488300        0.4000           0   0.00000   0.00000
     51967 MEOH     3473     MEOH     HO1      HDP1A    0.360000        1.0080           0   0.00000   0.00000
     51968 MEOH     3473     MEOH     HO2      DUMH     0.000000        1.0080           0   0.00000   0.00000
     51969 MEOH     3473     MEOH     H1A      HDA3B    0.080000        1.0080           0   0.00000   0.00000
     51970 MEOH     3473     MEOH     H1B      HDA3B    0.080000        1.0080           0   0.00000   0.00000
     51971 MEOH     3473     MEOH     H1C      HDA3B    0.080000        1.0080           0   0.00000   0.00000
     51972 MEOH     3473     MEOH     LP1A     LPD     -0.230000        0.0000           -1   0.00000   0.00000
     51973 MEOH     3473     MEOH     LP1B     LPD     -0.230000        0.0000           -1   0.00000   0.00000
     51974 MEOH     3474     MEOH     C1       CD33B    2.314100       11.6110           0   -1.00000   1.30000
     51975 MEOH     3474     MEOH     DC1      DRUD    -2.454100        0.4000           0   0.00000   0.00000
     51976 MEOH     3474     MEOH     O1       OD31H    2.488300       15.5990           0   -1.02800   1.30000
     51977 MEOH     3474     MEOH     DO1      DRUD    -2.488300        0.4000           0   0.00000   0.00000
     51978 MEOH     3474     MEOH     HO1      HDP1A    0.360000        1.0080           0   0.00000   0.00000
     51979 MEOH     3474     MEOH     HO2      DUMH     0.000000        1.0080           0   0.00000   0.00000
     51980 MEOH     3474     MEOH     H1A      HDA3B    0.080000        1.0080           0   0.00000   0.00000
     51981 MEOH     3474     MEOH     H1B      HDA3B    0.080000        1.0080           0   0.00000   0.00000
     51982 MEOH     3474     MEOH     H1C      HDA3B    0.080000        1.0080           0   0.00000   0.00000
     51983 MEOH     3474     MEOH     LP1A     LPD     -0.230000        0.0000           -1   0.00000   0.00000
     51984 MEOH     3474     MEOH     LP1B     LPD     -0.230000        0.0000           -1   0.00000   0.00000
     51985 MEOH     3475     MEOH     C1       CD33B    2.314100       11.6110           0   -1.00000   1.30000
     51986 MEOH     3475     MEOH     DC1      DRUD    -2.454100        0.4000           0   0.00000   0.00000
     51987 MEOH     3475     MEOH     O1       OD31H    2.488300       15.5990           0   -1.02800   1.30000
     51988 MEOH     3475     MEOH     DO1      DRUD    -2.488300        0.4000           0   0.00000   0.00000
     51989 MEOH     3475     MEOH     HO1      HDP1A    0.360000        1.0080           0   0.00000   0.00000
     51990 MEOH     3475     MEOH     HO2      DUMH     0.000000        1.0080           0   0.00000   0.00000
     51991 MEOH     3475     MEOH     H1A      HDA3B    0.080000        1.0080           0   0.00000   0.00000
     51992 MEOH     3475     MEOH     H1B      HDA3B    0.080000        1.0080           0   0.00000   0.00000
     51993 MEOH     3475     MEOH     H1C      HDA3B    0.080000        1.0080           0   0.00000   0.00000
     51994 MEOH     3475     MEOH     LP1A     LPD     -0.230000        0.0000           -1   0.00000   0.00000
     51995 MEOH     3475     MEOH     LP1B     LPD     -0.230000        0.0000           -1   0.00000   0.00000
     51996 MEOH     3476     MEOH     C1       CD33B    2.314100       11.6110           0   -1.00000   1.30000
     51997 MEOH     3476     MEOH     DC1      DRUD    -2.454100        0.4000           0   0.00000   0.00000
     51998 MEOH     3476     MEOH     O1       OD31H    2.488300       15.5990           0   -1.02800   1.30000
     51999 MEOH     3476     MEOH     DO1      DRUD    -2.488300        0.4000           0   0.00000   0.00000
     52000 MEOH     3476     MEOH     HO1      HDP1A    0.360000        1.0080           0   0.00000   0.00000
     52001 MEOH     3476     MEOH     HO2      DUMH     0.000000        1.0080           0   0.00000   0.00000
     52002 MEOH     3476     MEOH     H1A      HDA3B    0.080000        1.0080           0   0.00000   0.00000
     52003 MEOH     3476     MEOH     H1B      HDA3B    0.080000        1.0080           0   0.00000   0.00000
     52004 MEOH     3476     MEOH     H1C      HDA3B    0.080000        1.0080           0   0.00000   0.00000
     52005 MEOH     3476     MEOH     LP1A     LPD     -0.230000        0.0000           -1   0.00000   0.00000
     52006 MEOH     3476     MEOH     LP1B     LPD     -0.230000        0.0000           -1   0.00000   0.00000
     52007 MEOH     3477     MEOH     C1       CD33B    2.314100       11.6110           0   -1.00000   1.30000
     52008 MEOH     3477     MEOH     DC1      DRUD    -2.454100        0.4000           0   0.00000   0.00000
     52009 MEOH     3477     MEOH     O1       OD31H    2.488300       15.5990           0   -1.02800   1.30000
     52010 MEOH     3477     MEOH     DO1      DRUD    -2.488300        0.4000           0   0.00000   0.00000
     52011 MEOH     3477     MEOH     HO1      HDP1A    0.360000        1.0080           0   0.00000   0.00000
     52012 MEOH     3477     MEOH     HO2      DUMH     0.000000        1.0080           0   0.00000   0.00000
     52013 MEOH     3477     MEOH     H1A      HDA3B    0.080000        1.0080           0   0.00000   0.00000
     52014 MEOH     3477     MEOH     H1B      HDA3B    0.080000        1.0080           0   0.00000   0.00000
     52015 MEOH     3477     MEOH     H1C      HDA3B    0.080000        1.0080           0   0.00000   0.00000
     52016 MEOH     3477     MEOH     LP1A     LPD     -0.230000        0.0000           -1   0.00000   0.00000
     52017 MEOH     3477     MEOH     LP1B     LPD     -0.230000        0.0000           -1   0.00000   0.00000
     52018 MEOH     3478     MEOH     C1       CD33B    2.314100       11.6110           0   -1.00000   1.30000
     52019 MEOH     3478     MEOH     DC1      DRUD    -2.454100        0.4000           0   0.00000   0.00000
     52020 MEOH     3478     MEOH     O1       OD31H    2.488300       15.5990           0   -1.02800   1.30000
     52021 MEOH     3478     MEOH     DO1      DRUD    -2.488300        0.4000           0   0.00000   0.00000
     52022 MEOH     3478     MEOH     HO1      HDP1A    0.360000        1.0080           0   0.00000   0.00000
     52023 MEOH     3478     MEOH     HO2      DUMH     0.000000        1.0080           0   0.00000   0.00000
     52024 MEOH     3478     MEOH     H1A      HDA3B    0.080000        1.0080           0   0.00000   0.00000
     52025 MEOH     3478     MEOH     H1B      HDA3B    0.080000        1.0080           0   0.00000   0.00000
     52026 MEOH     3478     MEOH     H1C      HDA3B    0.080000        1.0080           0   0.00000   0.00000
     52027 MEOH     3478     MEOH     LP1A     LPD     -0.230000        0.0000           -1   0.00000   0.00000
     52028 MEOH     3478     MEOH     LP1B     LPD     -0.230000        0.0000           -1   0.00000   0.00000
     52029 MEOH     3479     MEOH     C1       CD33B    2.314100       11.6110           0   -1.00000   1.30000
     52030 MEOH     3479     MEOH     DC1      DRUD    -2.454100        0.4000           0   0.00000   0.00000
     52031 MEOH     3479     MEOH     O1       OD31H    2.488300       15.5990           0   -1.02800   1.30000
     52032 MEOH     3479     MEOH     DO1      DRUD    -2.488300        0.4000           0   0.00000   0.00000
     52033 MEOH     3479     MEOH     HO1      HDP1A    0.360000        1.0080           0   0.00000   0.00000
     52034 MEOH     3479     MEOH     HO2      DUMH     0.000000        1.0080           0   0.00000   0.00000
     52035 MEOH     3479     MEOH     H1A      HDA3B    0.080000        1.0080           0   0.00000   0.00000
     52036 MEOH     3479     MEOH     H1B      HDA3B    0.080000        1.0080           0   0.00000   0.00000
     52037 MEOH     3479     MEOH     H1C      HDA3B    0.080000        1.0080           0   0.00000   0.00000
     52038 MEOH     3479     MEOH     LP1A     LPD     -0.230000        0.0000           -1   0.00000   0.00000
     52039 MEOH     3479     MEOH     LP1B     LPD     -0.230000        0.0000           -1   0.00000   0.00000
     52040 MEOH     3480     MEOH     C1       CD33B    2.314100       11.6110           0   -1.00000   1.30000
     52041 MEOH     3480     MEOH     DC1      DRUD    -2.454100        0.4000           0   0.00000   0.00000
     52042 MEOH     3480     MEOH     O1       OD31H    2.488300       15.5990           0   -1.02800   1.30000
     52043 MEOH     3480     MEOH     DO1      DRUD    -2.488300        0.4000           0   0.00000   0.00000
     52044 MEOH     3480     MEOH     HO1      HDP1A    0.360000        1.0080           0   0.00000   0.00000
     52045 MEOH     3480     MEOH     HO2      DUMH     0.000000        1.0080           0   0.00000   0.00000
     52046 MEOH     3480     MEOH     H1A      HDA3B    0.080000        1.0080           0   0.00000   0.00000
     52047 MEOH     3480     MEOH     H1B      HDA3B    0.080000        1.0080           0   0.00000   0.00000
     52048 MEOH     3480     MEOH     H1C      HDA3B    0.080000        1.0080           0   0.00000   0.00000
     52049 MEOH     3480     MEOH     LP1A     LPD     -0.230000        0.0000           -1   0.00000   0.00000
     52050 MEOH     3480     MEOH     LP1B     LPD     -0.230000        0.0000           -1   0.00000   0.00000
     52051 MEOH     3481     MEOH     C1       CD33B    2.314100       11.6110           0   -1.00000   1.30000
     52052 MEOH     3481     MEOH     DC1      DRUD    -2.454100        0.4000           0   0.00000   0.00000
     52053 MEOH     3481     MEOH     O1       OD31H    2.488300       15.5990           0   -1.02800   1.30000
     52054 MEOH     3481     MEOH     DO1      DRUD    -2.488300        0.4000           0   0.00000   0.00000
     52055 MEOH     3481     MEOH     HO1      HDP1A    0.360000        1.0080           0   0.00000   0.00000
     52056 MEOH     3481     MEOH     HO2      DUMH     0.000000        1.0080           0   0.00000   0.00000
     52057 MEOH     3481     MEOH     H1A      HDA3B    0.080000        1.0080           0   0.00000   0.00000
     52058 MEOH     3481     MEOH     H1B      HDA3B    0.080000        1.0080           0   0.00000   0.00000
     52059 MEOH     3481     MEOH     H1C      HDA3B    0.080000        1.0080           0   0.00000   0.00000
     52060 MEOH     3481     MEOH     LP1A     LPD     -0.230000        0.0000           -1   0.00000   0.00000
     52061 MEOH     3481     MEOH     LP1B     LPD     -0.230000        0.0000           -1   0.00000   0.00000
     52062 MEOH     3482     MEOH     C1       CD33B    2.314100       11.6110           0   -1.00000   1.30000
     52063 MEOH     3482     MEOH     DC1      DRUD    -2.454100        0.4000           0   0.00000   0.00000
     52064 MEOH     3482     MEOH     O1       OD31H    2.488300       15.5990           0   -1.02800   1.30000
     52065 MEOH     3482     MEOH     DO1      DRUD    -2.488300        0.4000           0   0.00000   0.00000
     52066 MEOH     3482     MEOH     HO1      HDP1A    0.360000        1.0080           0   0.00000   0.00000
     52067 MEOH     3482     MEOH     HO2      DUMH     0.000000        1.0080           0   0.00000   0.00000
     52068 MEOH     3482     MEOH     H1A      HDA3B    0.080000        1.0080           0   0.00000   0.00000
     52069 MEOH     3482     MEOH     H1B      HDA3B    0.080000        1.0080           0   0.00000   0.00000
     52070 MEOH     3482     MEOH     H1C      HDA3B    0.080000        1.0080           0   0.00000   0.00000
     52071 MEOH     3482     MEOH     LP1A     LPD     -0.230000        0.0000           -1   0.00000   0.00000
     52072 MEOH     3482     MEOH     LP1B     LPD     -0.230000        0.0000           -1   0.00000   0.00000
     52073 MEOH     3483     MEOH     C1       CD33B    2.314100       11.6110           0   -1.00000   1.30000
     52074 MEOH     3483     MEOH     DC1      DRUD    -2.454100        0.4000           0   0.00000   0.00000
     52075 MEOH     3483     MEOH     O1       OD31H    2.488300       15.5990           0   -1.02800   1.30000
     52076 MEOH     3483     MEOH     DO1      DRUD    -2.488300        0.4000           0   0.00000   0.00000
     52077 MEOH     3483     MEOH     HO1      HDP1A    0.360000        1.0080           0   0.00000   0.00000
     52078 MEOH     3483     MEOH     HO2      DUMH     0.000000        1.0080           0   0.00000   0.00000
     52079 MEOH     3483     MEOH     H1A      HDA3B    0.080000        1.0080           0   0.00000   0.00000
     52080 MEOH     3483     MEOH     H1B      HDA3B    0.080000        1.0080           0   0.00000   0.00000
     52081 MEOH     3483     MEOH     H1C      HDA3B    0.080000        1.0080           0   0.00000   0.00000
     52082 MEOH     3483     MEOH     LP1A     LPD     -0.230000        0.0000           -1   0.00000   0.00000
     52083 MEOH     3483     MEOH     LP1B     LPD     -0.230000        0.0000           -1   0.00000   0.00000
     52084 MEOH     3484     MEOH     C1       CD33B    2.314100       11.6110           0   -1.00000   1.30000
     52085 MEOH     3484     MEOH     DC1      DRUD    -2.454100        0.4000           0   0.00000   0.00000
     52086 MEOH     3484     MEOH     O1       OD31H    2.488300       15.5990           0   -1.02800   1.30000
     52087 MEOH     3484     MEOH     DO1      DRUD    -2.488300        0.4000           0   0.00000   0.00000
     52088 MEOH     3484     MEOH     HO1      HDP1A    0.360000        1.0080           0   0.00000   0.00000
     52089 MEOH     3484     MEOH     HO2      DUMH     0.000000        1.0080           0   0.00000   0.00000
     52090 MEOH     3484     MEOH     H1A      HDA3B    0.080000        1.0080           0   0.00000   0.00000
     52091 MEOH     3484     MEOH     H1B      HDA3B    0.080000        1.0080           0   0.00000   0.00000
     52092 MEOH     3484     MEOH     H1C      HDA3B    0.080000        1.0080           0   0.00000   0.00000
     52093 MEOH     3484     MEOH     LP1A     LPD     -0.230000        0.0000           -1   0.00000   0.00000
     52094 MEOH     3484     MEOH     LP1B     LPD     -0.230000        0.0000           -1   0.00000   0.00000
     52095 MEOH     3485     MEOH     C1       CD33B    2.314100       11.6110           0   -1.00000   1.30000
     52096 MEOH     3485     MEOH     DC1      DRUD    -2.454100        0.4000           0   0.00000   0.00000
     52097 MEOH     3485     MEOH     O1       OD31H    2.488300       15.5990           0   -1.02800   1.30000
     52098 MEOH     3485     MEOH     DO1      DRUD    -2.488300        0.4000           0   0.00000   0.00000
     52099 MEOH     3485     MEOH     HO1      HDP1A    0.360000        1.0080           0   0.00000   0.00000
     52100 MEOH     3485     MEOH     HO2      DUMH     0.000000        1.0080           0   0.00000   0.00000
     52101 MEOH     3485     MEOH     H1A      HDA3B    0.080000        1.0080           0   0.00000   0.00000
     52102 MEOH     3485     MEOH     H1B      HDA3B    0.080000        1.0080           0   0.00000   0.00000
     52103 MEOH     3485     MEOH     H1C      HDA3B    0.080000        1.0080           0   0.00000   0.00000
     52104 MEOH     3485     MEOH     LP1A     LPD     -0.230000        0.0000           -1   0.00000   0.00000
     52105 MEOH     3485     MEOH     LP1B     LPD     -0.230000        0.0000           -1   0.00000   0.00000
     52106 MEOH     3486     MEOH     C1       CD33B    2.314100       11.6110           0   -1.00000   1.30000
     52107 MEOH     3486     MEOH     DC1      DRUD    -2.454100        0.4000           0   0.00000   0.00000
     52108 MEOH     3486     MEOH     O1       OD31H    2.488300       15.5990           0   -1.02800   1.30000
     52109 MEOH     3486     MEOH     DO1      DRUD    -2.488300        0.4000           0   0.00000   0.00000
     52110 MEOH     3486     MEOH     HO1      HDP1A    0.360000        1.0080           0   0.00000   0.00000
     52111 MEOH     3486     MEOH     HO2      DUMH     0.000000        1.0080           0   0.00000   0.00000
     52112 MEOH     3486     MEOH     H1A      HDA3B    0.080000        1.0080           0   0.00000   0.00000
     52113 MEOH     3486     MEOH     H1B      HDA3B    0.080000        1.0080           0   0.00000   0.00000
     52114 MEOH     3486     MEOH     H1C      HDA3B    0.080000        1.0080           0   0.00000   0.00000
     52115 MEOH     3486     MEOH     LP1A     LPD     -0.230000        0.0000           -1   0.00000   0.00000
     52116 MEOH     3486     MEOH     LP1B     LPD     -0.230000        0.0000           -1   0.00000   0.00000
     52117 MEOH     3487     MEOH     C1       CD33B    2.314100       11.6110           0   -1.00000   1.30000
     52118 MEOH     3487     MEOH     DC1      DRUD    -2.454100        0.4000           0   0.00000   0.00000
     52119 MEOH     3487     MEOH     O1       OD31H    2.488300       15.5990           0   -1.02800   1.30000
     52120 MEOH     3487     MEOH     DO1      DRUD    -2.488300        0.4000           0   0.00000   0.00000
     52121 MEOH     3487     MEOH     HO1      HDP1A    0.360000        1.0080           0   0.00000   0.00000
     52122 MEOH     3487     MEOH     HO2      DUMH     0.000000        1.0080           0   0.00000   0.00000
     52123 MEOH     3487     MEOH     H1A      HDA3B    0.080000        1.0080           0   0.00000   0.00000
     52124 MEOH     3487     MEOH     H1B      HDA3B    0.080000        1.0080           0   0.00000   0.00000
     52125 MEOH     3487     MEOH     H1C      HDA3B    0.080000        1.0080           0   0.00000   0.00000
     52126 MEOH     3487     MEOH     LP1A     LPD     -0.230000        0.0000           -1   0.00000   0.00000
     52127 MEOH     3487     MEOH     LP1B     LPD     -0.230000        0.0000           -1   0.00000   0.00000
     52128 MEOH     3488     MEOH     C1       CD33B    2.314100       11.6110           0   -1.00000   1.30000
     52129 MEOH     3488     MEOH     DC1      DRUD    -2.454100        0.4000           0   0.00000   0.00000
     52130 MEOH     3488     MEOH     O1       OD31H    2.488300       15.5990           0   -1.02800   1.30000
     52131 MEOH     3488     MEOH     DO1      DRUD    -2.488300        0.4000           0   0.00000   0.00000
     52132 MEOH     3488     MEOH     HO1      HDP1A    0.360000        1.0080           0   0.00000   0.00000
     52133 MEOH     3488     MEOH     HO2      DUMH     0.000000        1.0080           0   0.00000   0.00000
     52134 MEOH     3488     MEOH     H1A      HDA3B    0.080000        1.0080           0   0.00000   0.00000
     52135 MEOH     3488     MEOH     H1B      HDA3B    0.080000        1.0080           0   0.00000   0.00000
     52136 MEOH     3488     MEOH     H1C      HDA3B    0.080000        1.0080           0   0.00000   0.00000
     52137 MEOH     3488     MEOH     LP1A     LPD     -0.230000        0.0000           -1   0.00000   0.00000
     52138 MEOH     3488     MEOH     LP1B     LPD     -0.230000        0.0000           -1   0.00000   0.00000
     52139 MEOH     3489     MEOH     C1       CD33B    2.314100       11.6110           0   -1.00000   1.30000
     52140 MEOH     3489     MEOH     DC1      DRUD    -2.454100        0.4000           0   0.00000   0.00000
     52141 MEOH     3489     MEOH     O1       OD31H    2.488300       15.5990           0   -1.02800   1.30000
     52142 MEOH     3489     MEOH     DO1      DRUD    -2.488300        0.4000           0   0.00000   0.00000
     52143 MEOH     3489     MEOH     HO1      HDP1A    0.360000        1.0080           0   0.00000   0.00000
     52144 MEOH     3489     MEOH     HO2      DUMH     0.000000        1.0080           0   0.00000   0.00000
     52145 MEOH     3489     MEOH     H1A      HDA3B    0.080000        1.0080           0   0.00000   0.00000
     52146 MEOH     3489     MEOH     H1B      HDA3B    0.080000        1.0080           0   0.00000   0.00000
     52147 MEOH     3489     MEOH     H1C      HDA3B    0.080000        1.0080           0   0.00000   0.00000
     52148 MEOH     3489     MEOH     LP1A     LPD     -0.230000        0.0000           -1   0.00000   0.00000
     52149 MEOH     3489     MEOH     LP1B     LPD     -0.230000        0.0000           -1   0.00000   0.00000
     52150 MEOH     3490     MEOH     C1       CD33B    2.314100       11.6110           0   -1.00000   1.30000
     52151 MEOH     3490     MEOH     DC1      DRUD    -2.454100        0.4000           0   0.00000   0.00000
     52152 MEOH     3490     MEOH     O1       OD31H    2.488300       15.5990           0   -1.02800   1.30000
     52153 MEOH     3490     MEOH     DO1      DRUD    -2.488300        0.4000           0   0.00000   0.00000
     52154 MEOH     3490     MEOH     HO1      HDP1A    0.360000        1.0080           0   0.00000   0.00000
     52155 MEOH     3490     MEOH     HO2      DUMH     0.000000        1.0080           0   0.00000   0.00000
     52156 MEOH     3490     MEOH     H1A      HDA3B    0.080000        1.0080           0   0.00000   0.00000
     52157 MEOH     3490     MEOH     H1B      HDA3B    0.080000        1.0080           0   0.00000   0.00000
     52158 MEOH     3490     MEOH     H1C      HDA3B    0.080000        1.0080           0   0.00000   0.00000
     52159 MEOH     3490     MEOH     LP1A     LPD     -0.230000        0.0000           -1   0.00000   0.00000
     52160 MEOH     3490     MEOH     LP1B     LPD     -0.230000        0.0000           -1   0.00000   0.00000
     52161 MEOH     3491     MEOH     C1       CD33B    2.314100       11.6110           0   -1.00000   1.30000
     52162 MEOH     3491     MEOH     DC1      DRUD    -2.454100        0.4000           0   0.00000   0.00000
     52163 MEOH     3491     MEOH     O1       OD31H    2.488300       15.5990           0   -1.02800   1.30000
     52164 MEOH     3491     MEOH     DO1      DRUD    -2.488300        0.4000           0   0.00000   0.00000
     52165 MEOH     3491     MEOH     HO1      HDP1A    0.360000        1.0080           0   0.00000   0.00000
     52166 MEOH     3491     MEOH     HO2      DUMH     0.000000        1.0080           0   0.00000   0.00000
     52167 MEOH     3491     MEOH     H1A      HDA3B    0.080000        1.0080           0   0.00000   0.00000
     52168 MEOH     3491     MEOH     H1B      HDA3B    0.080000        1.0080           0   0.00000   0.00000
     52169 MEOH     3491     MEOH     H1C      HDA3B    0.080000        1.0080           0   0.00000   0.00000
     52170 MEOH     3491     MEOH     LP1A     LPD     -0.230000        0.0000           -1   0.00000   0.00000
     52171 MEOH     3491     MEOH     LP1B     LPD     -0.230000        0.0000           -1   0.00000   0.00000
     52172 MEOH     3492     MEOH     C1       CD33B    2.314100       11.6110           0   -1.00000   1.30000
     52173 MEOH     3492     MEOH     DC1      DRUD    -2.454100        0.4000           0   0.00000   0.00000
     52174 MEOH     3492     MEOH     O1       OD31H    2.488300       15.5990           0   -1.02800   1.30000
     52175 MEOH     3492     MEOH     DO1      DRUD    -2.488300        0.4000           0   0.00000   0.00000
     52176 MEOH     3492     MEOH     HO1      HDP1A    0.360000        1.0080           0   0.00000   0.00000
     52177 MEOH     3492     MEOH     HO2      DUMH     0.000000        1.0080           0   0.00000   0.00000
     52178 MEOH     3492     MEOH     H1A      HDA3B    0.080000        1.0080           0   0.00000   0.00000
     52179 MEOH     3492     MEOH     H1B      HDA3B    0.080000        1.0080           0   0.00000   0.00000
     52180 MEOH     3492     MEOH     H1C      HDA3B    0.080000        1.0080           0   0.00000   0.00000
     52181 MEOH     3492     MEOH     LP1A     LPD     -0.230000        0.0000           -1   0.00000   0.00000
     52182 MEOH     3492     MEOH     LP1B     LPD     -0.230000        0.0000           -1   0.00000   0.00000
     52183 MEOH     3493     MEOH     C1       CD33B    2.314100       11.6110           0   -1.00000   1.30000
     52184 MEOH     3493     MEOH     DC1      DRUD    -2.454100        0.4000           0   0.00000   0.00000
     52185 MEOH     3493     MEOH     O1       OD31H    2.488300       15.5990           0   -1.02800   1.30000
     52186 MEOH     3493     MEOH     DO1      DRUD    -2.488300        0.4000           0   0.00000   0.00000
     52187 MEOH     3493     MEOH     HO1      HDP1A    0.360000        1.0080           0   0.00000   0.00000
     52188 MEOH     3493     MEOH     HO2      DUMH     0.000000        1.0080           0   0.00000   0.00000
     52189 MEOH     3493     MEOH     H1A      HDA3B    0.080000        1.0080           0   0.00000   0.00000
     52190 MEOH     3493     MEOH     H1B      HDA3B    0.080000        1.0080           0   0.00000   0.00000
     52191 MEOH     3493     MEOH     H1C      HDA3B    0.080000        1.0080           0   0.00000   0.00000
     52192 MEOH     3493     MEOH     LP1A     LPD     -0.230000        0.0000           -1   0.00000   0.00000
     52193 MEOH     3493     MEOH     LP1B     LPD     -0.230000        0.0000           -1   0.00000   0.00000
     52194 MEOH     3494     MEOH     C1       CD33B    2.314100       11.6110           0   -1.00000   1.30000
     52195 MEOH     3494     MEOH     DC1      DRUD    -2.454100        0.4000           0   0.00000   0.00000
     52196 MEOH     3494     MEOH     O1       OD31H    2.488300       15.5990           0   -1.02800   1.30000
     52197 MEOH     3494     MEOH     DO1      DRUD    -2.488300        0.4000           0   0.00000   0.00000
     52198 MEOH     3494     MEOH     HO1      HDP1A    0.360000        1.0080           0   0.00000   0.00000
     52199 MEOH     3494     MEOH     HO2      DUMH     0.000000        1.0080           0   0.00000   0.00000
     52200 MEOH     3494     MEOH     H1A      HDA3B    0.080000        1.0080           0   0.00000   0.00000
     52201 MEOH     3494     MEOH     H1B      HDA3B    0.080000        1.0080           0   0.00000   0.00000
     52202 MEOH     3494     MEOH     H1C      HDA3B    0.080000        1.0080           0   0.00000   0.00000
     52203 MEOH     3494     MEOH     LP1A     LPD     -0.230000        0.0000           -1   0.00000   0.00000
     52204 MEOH     3494     MEOH     LP1B     LPD     -0.230000        0.0000           -1   0.00000   0.00000
     52205 MEOH     3495     MEOH     C1       CD33B    2.314100       11.6110           0   -1.00000   1.30000
     52206 MEOH     3495     MEOH     DC1      DRUD    -2.454100        0.4000           0   0.00000   0.00000
     52207 MEOH     3495     MEOH     O1       OD31H    2.488300       15.5990           0   -1.02800   1.30000
     52208 MEOH     3495     MEOH     DO1      DRUD    -2.488300        0.4000           0   0.00000   0.00000
     52209 MEOH     3495     MEOH     HO1      HDP1A    0.360000        1.0080           0   0.00000   0.00000
     52210 MEOH     3495     MEOH     HO2      DUMH     0.000000        1.0080           0   0.00000   0.00000
     52211 MEOH     3495     MEOH     H1A      HDA3B    0.080000        1.0080           0   0.00000   0.00000
     52212 MEOH     3495     MEOH     H1B      HDA3B    0.080000        1.0080           0   0.00000   0.00000
     52213 MEOH     3495     MEOH     H1C      HDA3B    0.080000        1.0080           0   0.00000   0.00000
     52214 MEOH     3495     MEOH     LP1A     LPD     -0.230000        0.0000           -1   0.00000   0.00000
     52215 MEOH     3495     MEOH     LP1B     LPD     -0.230000        0.0000           -1   0.00000   0.00000
     52216 MEOH     3496     MEOH     C1       CD33B    2.314100       11.6110           0   -1.00000   1.30000
     52217 MEOH     3496     MEOH     DC1      DRUD    -2.454100        0.4000           0   0.00000   0.00000
     52218 MEOH     3496     MEOH     O1       OD31H    2.488300       15.5990           0   -1.02800   1.30000
     52219 MEOH     3496     MEOH     DO1      DRUD    -2.488300        0.4000           0   0.00000   0.00000
     52220 MEOH     3496     MEOH     HO1      HDP1A    0.360000        1.0080           0   0.00000   0.00000
     52221 MEOH     3496     MEOH     HO2      DUMH     0.000000        1.0080           0   0.00000   0.00000
     52222 MEOH     3496     MEOH     H1A      HDA3B    0.080000        1.0080           0   0.00000   0.00000
     52223 MEOH     3496     MEOH     H1B      HDA3B    0.080000        1.0080           0   0.00000   0.00000
     52224 MEOH     3496     MEOH     H1C      HDA3B    0.080000        1.0080           0   0.00000   0.00000
     52225 MEOH     3496     MEOH     LP1A     LPD     -0.230000        0.0000           -1   0.00000   0.00000
     52226 MEOH     3496     MEOH     LP1B     LPD     -0.230000        0.0000           -1   0.00000   0.00000
     52227 MEOH     3497     MEOH     C1       CD33B    2.314100       11.6110           0   -1.00000   1.30000
     52228 MEOH     3497     MEOH     DC1      DRUD    -2.454100        0.4000           0   0.00000   0.00000
     52229 MEOH     3497     MEOH     O1       OD31H    2.488300       15.5990           0   -1.02800   1.30000
     52230 MEOH     3497     MEOH     DO1      DRUD    -2.488300        0.4000           0   0.00000   0.00000
     52231 MEOH     3497     MEOH     HO1      HDP1A    0.360000        1.0080           0   0.00000   0.00000
     52232 MEOH     3497     MEOH     HO2      DUMH     0.000000        1.0080           0   0.00000   0.00000
     52233 MEOH     3497     MEOH     H1A      HDA3B    0.080000        1.0080           0   0.00000   0.00000
     52234 MEOH     3497     MEOH     H1B      HDA3B    0.080000        1.0080           0   0.00000   0.00000
     52235 MEOH     3497     MEOH     H1C      HDA3B    0.080000        1.0080           0   0.00000   0.00000
     52236 MEOH     3497     MEOH     LP1A     LPD     -0.230000        0.0000           -1   0.00000   0.00000
     52237 MEOH     3497     MEOH     LP1B     LPD     -0.230000        0.0000           -1   0.00000   0.00000
     52238 MEOH     3498     MEOH     C1       CD33B    2.314100       11.6110           0   -1.00000   1.30000
     52239 MEOH     3498     MEOH     DC1      DRUD    -2.454100        0.4000           0   0.00000   0.00000
     52240 MEOH     3498     MEOH     O1       OD31H    2.488300       15.5990           0   -1.02800   1.30000
     52241 MEOH     3498     MEOH     DO1      DRUD    -2.488300        0.4000           0   0.00000   0.00000
     52242 MEOH     3498     MEOH     HO1      HDP1A    0.360000        1.0080           0   0.00000   0.00000
     52243 MEOH     3498     MEOH     HO2      DUMH     0.000000        1.0080           0   0.00000   0.00000
     52244 MEOH     3498     MEOH     H1A      HDA3B    0.080000        1.0080           0   0.00000   0.00000
     52245 MEOH     3498     MEOH     H1B      HDA3B    0.080000        1.0080           0   0.00000   0.00000
     52246 MEOH     3498     MEOH     H1C      HDA3B    0.080000        1.0080           0   0.00000   0.00000
     52247 MEOH     3498     MEOH     LP1A     LPD     -0.230000        0.0000           -1   0.00000   0.00000
     52248 MEOH     3498     MEOH     LP1B     LPD     -0.230000        0.0000           -1   0.00000   0.00000
     52249 MEOH     3499     MEOH     C1       CD33B    2.314100       11.6110           0   -1.00000   1.30000
     52250 MEOH     3499     MEOH     DC1      DRUD    -2.454100        0.4000           0   0.00000   0.00000
     52251 MEOH     3499     MEOH     O1       OD31H    2.488300       15.5990           0   -1.02800   1.30000
     52252 MEOH     3499     MEOH     DO1      DRUD    -2.488300        0.4000           0   0.00000   0.00000
     52253 MEOH     3499     MEOH     HO1      HDP1A    0.360000        1.0080           0   0.00000   0.00000
     52254 MEOH     3499     MEOH     HO2      DUMH     0.000000        1.0080           0   0.00000   0.00000
     52255 MEOH     3499     MEOH     H1A      HDA3B    0.080000        1.0080           0   0.00000   0.00000
     52256 MEOH     3499     MEOH     H1B      HDA3B    0.080000        1.0080           0   0.00000   0.00000
     52257 MEOH     3499     MEOH     H1C      HDA3B    0.080000        1.0080           0   0.00000   0.00000
     52258 MEOH     3499     MEOH     LP1A     LPD     -0.230000        0.0000           -1   0.00000   0.00000
     52259 MEOH     3499     MEOH     LP1B     LPD     -0.230000        0.0000           -1   0.00000   0.00000
     52260 MEOH     3500     MEOH     C1       CD33B    2.314100       11.6110           0   -1.00000   1.30000
     52261 MEOH     3500     MEOH     DC1      DRUD    -2.454100        0.4000           0   0.00000   0.00000
     52262 MEOH     3500     MEOH     O1       OD31H    2.488300       15.5990           0   -1.02800   1.30000
     52263 MEOH     3500     MEOH     DO1      DRUD    -2.488300        0.4000           0   0.00000   0.00000
     52264 MEOH     3500     MEOH     HO1      HDP1A    0.360000        1.0080           0   0.00000   0.00000
     52265 MEOH     3500     MEOH     HO2      DUMH     0.000000        1.0080           0   0.00000   0.00000
     52266 MEOH     3500     MEOH     H1A      HDA3B    0.080000        1.0080           0   0.00000   0.00000
     52267 MEOH     3500     MEOH     H1B      HDA3B    0.080000        1.0080           0   0.00000   0.00000
     52268 MEOH     3500     MEOH     H1C      HDA3B    0.080000        1.0080           0   0.00000   0.00000
     52269 MEOH     3500     MEOH     LP1A     LPD     -0.230000        0.0000           -1   0.00000   0.00000
     52270 MEOH     3500     MEOH     LP1B     LPD     -0.230000        0.0000           -1   0.00000   0.00000
     52271 MEOH     3501     MEOH     C1       CD33B    2.314100       11.6110           0   -1.00000   1.30000
     52272 MEOH     3501     MEOH     DC1      DRUD    -2.454100        0.4000           0   0.00000   0.00000
     52273 MEOH     3501     MEOH     O1       OD31H    2.488300       15.5990           0   -1.02800   1.30000
     52274 MEOH     3501     MEOH     DO1      DRUD    -2.488300        0.4000           0   0.00000   0.00000
     52275 MEOH     3501     MEOH     HO1      HDP1A    0.360000        1.0080           0   0.00000   0.00000
     52276 MEOH     3501     MEOH     HO2      DUMH     0.000000        1.0080           0   0.00000   0.00000
     52277 MEOH     3501     MEOH     H1A      HDA3B    0.080000        1.0080           0   0.00000   0.00000
     52278 MEOH     3501     MEOH     H1B      HDA3B    0.080000        1.0080           0   0.00000   0.00000
     52279 MEOH     3501     MEOH     H1C      HDA3B    0.080000        1.0080           0   0.00000   0.00000
     52280 MEOH     3501     MEOH     LP1A     LPD     -0.230000        0.0000           -1   0.00000   0.00000
     52281 MEOH     3501     MEOH     LP1B     LPD     -0.230000        0.0000           -1   0.00000   0.00000
     52282 MEOH     3502     MEOH     C1       CD33B    2.314100       11.6110           0   -1.00000   1.30000
     52283 MEOH     3502     MEOH     DC1      DRUD    -2.454100        0.4000           0   0.00000   0.00000
     52284 MEOH     3502     MEOH     O1       OD31H    2.488300       15.5990           0   -1.02800   1.30000
     52285 MEOH     3502     MEOH     DO1      DRUD    -2.488300        0.4000           0   0.00000   0.00000
     52286 MEOH     3502     MEOH     HO1      HDP1A    0.360000        1.0080           0   0.00000   0.00000
     52287 MEOH     3502     MEOH     HO2      DUMH     0.000000        1.0080           0   0.00000   0.00000
     52288 MEOH     3502     MEOH     H1A      HDA3B    0.080000        1.0080           0   0.00000   0.00000
     52289 MEOH     3502     MEOH     H1B      HDA3B    0.080000        1.0080           0   0.00000   0.00000
     52290 MEOH     3502     MEOH     H1C      HDA3B    0.080000        1.0080           0   0.00000   0.00000
     52291 MEOH     3502     MEOH     LP1A     LPD     -0.230000        0.0000           -1   0.00000   0.00000
     52292 MEOH     3502     MEOH     LP1B     LPD     -0.230000        0.0000           -1   0.00000   0.00000
     52293 MEOH     3503     MEOH     C1       CD33B    2.314100       11.6110           0   -1.00000   1.30000
     52294 MEOH     3503     MEOH     DC1      DRUD    -2.454100        0.4000           0   0.00000   0.00000
     52295 MEOH     3503     MEOH     O1       OD31H    2.488300       15.5990           0   -1.02800   1.30000
     52296 MEOH     3503     MEOH     DO1      DRUD    -2.488300        0.4000           0   0.00000   0.00000
     52297 MEOH     3503     MEOH     HO1      HDP1A    0.360000        1.0080           0   0.00000   0.00000
     52298 MEOH     3503     MEOH     HO2      DUMH     0.000000        1.0080           0   0.00000   0.00000
     52299 MEOH     3503     MEOH     H1A      HDA3B    0.080000        1.0080           0   0.00000   0.00000
     52300 MEOH     3503     MEOH     H1B      HDA3B    0.080000        1.0080           0   0.00000   0.00000
     52301 MEOH     3503     MEOH     H1C      HDA3B    0.080000        1.0080           0   0.00000   0.00000
     52302 MEOH     3503     MEOH     LP1A     LPD     -0.230000        0.0000           -1   0.00000   0.00000
     52303 MEOH     3503     MEOH     LP1B     LPD     -0.230000        0.0000           -1   0.00000   0.00000
     52304 MEOH     3504     MEOH     C1       CD33B    2.314100       11.6110           0   -1.00000   1.30000
     52305 MEOH     3504     MEOH     DC1      DRUD    -2.454100        0.4000           0   0.00000   0.00000
     52306 MEOH     3504     MEOH     O1       OD31H    2.488300       15.5990           0   -1.02800   1.30000
     52307 MEOH     3504     MEOH     DO1      DRUD    -2.488300        0.4000           0   0.00000   0.00000
     52308 MEOH     3504     MEOH     HO1      HDP1A    0.360000        1.0080           0   0.00000   0.00000
     52309 MEOH     3504     MEOH     HO2      DUMH     0.000000        1.0080           0   0.00000   0.00000
     52310 MEOH     3504     MEOH     H1A      HDA3B    0.080000        1.0080           0   0.00000   0.00000
     52311 MEOH     3504     MEOH     H1B      HDA3B    0.080000        1.0080           0   0.00000   0.00000
     52312 MEOH     3504     MEOH     H1C      HDA3B    0.080000        1.0080           0   0.00000   0.00000
     52313 MEOH     3504     MEOH     LP1A     LPD     -0.230000        0.0000           -1   0.00000   0.00000
     52314 MEOH     3504     MEOH     LP1B     LPD     -0.230000        0.0000           -1   0.00000   0.00000
     52315 MEOH     3505     MEOH     C1       CD33B    2.314100       11.6110           0   -1.00000   1.30000
     52316 MEOH     3505     MEOH     DC1      DRUD    -2.454100        0.4000           0   0.00000   0.00000
     52317 MEOH     3505     MEOH     O1       OD31H    2.488300       15.5990           0   -1.02800   1.30000
     52318 MEOH     3505     MEOH     DO1      DRUD    -2.488300        0.4000           0   0.00000   0.00000
     52319 MEOH     3505     MEOH     HO1      HDP1A    0.360000        1.0080           0   0.00000   0.00000
     52320 MEOH     3505     MEOH     HO2      DUMH     0.000000        1.0080           0   0.00000   0.00000
     52321 MEOH     3505     MEOH     H1A      HDA3B    0.080000        1.0080           0   0.00000   0.00000
     52322 MEOH     3505     MEOH     H1B      HDA3B    0.080000        1.0080           0   0.00000   0.00000
     52323 MEOH     3505     MEOH     H1C      HDA3B    0.080000        1.0080           0   0.00000   0.00000
     52324 MEOH     3505     MEOH     LP1A     LPD     -0.230000        0.0000           -1   0.00000   0.00000
     52325 MEOH     3505     MEOH     LP1B     LPD     -0.230000        0.0000           -1   0.00000   0.00000
     52326 MEOH     3506     MEOH     C1       CD33B    2.314100       11.6110           0   -1.00000   1.30000
     52327 MEOH     3506     MEOH     DC1      DRUD    -2.454100        0.4000           0   0.00000   0.00000
     52328 MEOH     3506     MEOH     O1       OD31H    2.488300       15.5990           0   -1.02800   1.30000
     52329 MEOH     3506     MEOH     DO1      DRUD    -2.488300        0.4000           0   0.00000   0.00000
     52330 MEOH     3506     MEOH     HO1      HDP1A    0.360000        1.0080           0   0.00000   0.00000
     52331 MEOH     3506     MEOH     HO2      DUMH     0.000000        1.0080           0   0.00000   0.00000
     52332 MEOH     3506     MEOH     H1A      HDA3B    0.080000        1.0080           0   0.00000   0.00000
     52333 MEOH     3506     MEOH     H1B      HDA3B    0.080000        1.0080           0   0.00000   0.00000
     52334 MEOH     3506     MEOH     H1C      HDA3B    0.080000        1.0080           0   0.00000   0.00000
     52335 MEOH     3506     MEOH     LP1A     LPD     -0.230000        0.0000           -1   0.00000   0.00000
     52336 MEOH     3506     MEOH     LP1B     LPD     -0.230000        0.0000           -1   0.00000   0.00000
     52337 MEOH     3507     MEOH     C1       CD33B    2.314100       11.6110           0   -1.00000   1.30000
     52338 MEOH     3507     MEOH     DC1      DRUD    -2.454100        0.4000           0   0.00000   0.00000
     52339 MEOH     3507     MEOH     O1       OD31H    2.488300       15.5990           0   -1.02800   1.30000
     52340 MEOH     3507     MEOH     DO1      DRUD    -2.488300        0.4000           0   0.00000   0.00000
     52341 MEOH     3507     MEOH     HO1      HDP1A    0.360000        1.0080           0   0.00000   0.00000
     52342 MEOH     3507     MEOH     HO2      DUMH     0.000000        1.0080           0   0.00000   0.00000
     52343 MEOH     3507     MEOH     H1A      HDA3B    0.080000        1.0080           0   0.00000   0.00000
     52344 MEOH     3507     MEOH     H1B      HDA3B    0.080000        1.0080           0   0.00000   0.00000
     52345 MEOH     3507     MEOH     H1C      HDA3B    0.080000        1.0080           0   0.00000   0.00000
     52346 MEOH     3507     MEOH     LP1A     LPD     -0.230000        0.0000           -1   0.00000   0.00000
     52347 MEOH     3507     MEOH     LP1B     LPD     -0.230000        0.0000           -1   0.00000   0.00000
     52348 MEOH     3508     MEOH     C1       CD33B    2.314100       11.6110           0   -1.00000   1.30000
     52349 MEOH     3508     MEOH     DC1      DRUD    -2.454100        0.4000           0   0.00000   0.00000
     52350 MEOH     3508     MEOH     O1       OD31H    2.488300       15.5990           0   -1.02800   1.30000
     52351 MEOH     3508     MEOH     DO1      DRUD    -2.488300        0.4000           0   0.00000   0.00000
     52352 MEOH     3508     MEOH     HO1      HDP1A    0.360000        1.0080           0   0.00000   0.00000
     52353 MEOH     3508     MEOH     HO2      DUMH     0.000000        1.0080           0   0.00000   0.00000
     52354 MEOH     3508     MEOH     H1A      HDA3B    0.080000        1.0080           0   0.00000   0.00000
     52355 MEOH     3508     MEOH     H1B      HDA3B    0.080000        1.0080           0   0.00000   0.00000
     52356 MEOH     3508     MEOH     H1C      HDA3B    0.080000        1.0080           0   0.00000   0.00000
     52357 MEOH     3508     MEOH     LP1A     LPD     -0.230000        0.0000           -1   0.00000   0.00000
     52358 MEOH     3508     MEOH     LP1B     LPD     -0.230000        0.0000           -1   0.00000   0.00000
     52359 MEOH     3509     MEOH     C1       CD33B    2.314100       11.6110           0   -1.00000   1.30000
     52360 MEOH     3509     MEOH     DC1      DRUD    -2.454100        0.4000           0   0.00000   0.00000
     52361 MEOH     3509     MEOH     O1       OD31H    2.488300       15.5990           0   -1.02800   1.30000
     52362 MEOH     3509     MEOH     DO1      DRUD    -2.488300        0.4000           0   0.00000   0.00000
     52363 MEOH     3509     MEOH     HO1      HDP1A    0.360000        1.0080           0   0.00000   0.00000
     52364 MEOH     3509     MEOH     HO2      DUMH     0.000000        1.0080           0   0.00000   0.00000
     52365 MEOH     3509     MEOH     H1A      HDA3B    0.080000        1.0080           0   0.00000   0.00000
     52366 MEOH     3509     MEOH     H1B      HDA3B    0.080000        1.0080           0   0.00000   0.00000
     52367 MEOH     3509     MEOH     H1C      HDA3B    0.080000        1.0080           0   0.00000   0.00000
     52368 MEOH     3509     MEOH     LP1A     LPD     -0.230000        0.0000           -1   0.00000   0.00000
     52369 MEOH     3509     MEOH     LP1B     LPD     -0.230000        0.0000           -1   0.00000   0.00000
     52370 MEOH     3510     MEOH     C1       CD33B    2.314100       11.6110           0   -1.00000   1.30000
     52371 MEOH     3510     MEOH     DC1      DRUD    -2.454100        0.4000           0   0.00000   0.00000
     52372 MEOH     3510     MEOH     O1       OD31H    2.488300       15.5990           0   -1.02800   1.30000
     52373 MEOH     3510     MEOH     DO1      DRUD    -2.488300        0.4000           0   0.00000   0.00000
     52374 MEOH     3510     MEOH     HO1      HDP1A    0.360000        1.0080           0   0.00000   0.00000
     52375 MEOH     3510     MEOH     HO2      DUMH     0.000000        1.0080           0   0.00000   0.00000
     52376 MEOH     3510     MEOH     H1A      HDA3B    0.080000        1.0080           0   0.00000   0.00000
     52377 MEOH     3510     MEOH     H1B      HDA3B    0.080000        1.0080           0   0.00000   0.00000
     52378 MEOH     3510     MEOH     H1C      HDA3B    0.080000        1.0080           0   0.00000   0.00000
     52379 MEOH     3510     MEOH     LP1A     LPD     -0.230000        0.0000           -1   0.00000   0.00000
     52380 MEOH     3510     MEOH     LP1B     LPD     -0.230000        0.0000           -1   0.00000   0.00000
     52381 MEOH     3511     MEOH     C1       CD33B    2.314100       11.6110           0   -1.00000   1.30000
     52382 MEOH     3511     MEOH     DC1      DRUD    -2.454100        0.4000           0   0.00000   0.00000
     52383 MEOH     3511     MEOH     O1       OD31H    2.488300       15.5990           0   -1.02800   1.30000
     52384 MEOH     3511     MEOH     DO1      DRUD    -2.488300        0.4000           0   0.00000   0.00000
     52385 MEOH     3511     MEOH     HO1      HDP1A    0.360000        1.0080           0   0.00000   0.00000
     52386 MEOH     3511     MEOH     HO2      DUMH     0.000000        1.0080           0   0.00000   0.00000
     52387 MEOH     3511     MEOH     H1A      HDA3B    0.080000        1.0080           0   0.00000   0.00000
     52388 MEOH     3511     MEOH     H1B      HDA3B    0.080000        1.0080           0   0.00000   0.00000
     52389 MEOH     3511     MEOH     H1C      HDA3B    0.080000        1.0080           0   0.00000   0.00000
     52390 MEOH     3511     MEOH     LP1A     LPD     -0.230000        0.0000           -1   0.00000   0.00000
     52391 MEOH     3511     MEOH     LP1B     LPD     -0.230000        0.0000           -1   0.00000   0.00000
     52392 MEOH     3512     MEOH     C1       CD33B    2.314100       11.6110           0   -1.00000   1.30000
     52393 MEOH     3512     MEOH     DC1      DRUD    -2.454100        0.4000           0   0.00000   0.00000
     52394 MEOH     3512     MEOH     O1       OD31H    2.488300       15.5990           0   -1.02800   1.30000
     52395 MEOH     3512     MEOH     DO1      DRUD    -2.488300        0.4000           0   0.00000   0.00000
     52396 MEOH     3512     MEOH     HO1      HDP1A    0.360000        1.0080           0   0.00000   0.00000
     52397 MEOH     3512     MEOH     HO2      DUMH     0.000000        1.0080           0   0.00000   0.00000
     52398 MEOH     3512     MEOH     H1A      HDA3B    0.080000        1.0080           0   0.00000   0.00000
     52399 MEOH     3512     MEOH     H1B      HDA3B    0.080000        1.0080           0   0.00000   0.00000
     52400 MEOH     3512     MEOH     H1C      HDA3B    0.080000        1.0080           0   0.00000   0.00000
     52401 MEOH     3512     MEOH     LP1A     LPD     -0.230000        0.0000           -1   0.00000   0.00000
     52402 MEOH     3512     MEOH     LP1B     LPD     -0.230000        0.0000           -1   0.00000   0.00000
     52403 MEOH     3513     MEOH     C1       CD33B    2.314100       11.6110           0   -1.00000   1.30000
     52404 MEOH     3513     MEOH     DC1      DRUD    -2.454100        0.4000           0   0.00000   0.00000
     52405 MEOH     3513     MEOH     O1       OD31H    2.488300       15.5990           0   -1.02800   1.30000
     52406 MEOH     3513     MEOH     DO1      DRUD    -2.488300        0.4000           0   0.00000   0.00000
     52407 MEOH     3513     MEOH     HO1      HDP1A    0.360000        1.0080           0   0.00000   0.00000
     52408 MEOH     3513     MEOH     HO2      DUMH     0.000000        1.0080           0   0.00000   0.00000
     52409 MEOH     3513     MEOH     H1A      HDA3B    0.080000        1.0080           0   0.00000   0.00000
     52410 MEOH     3513     MEOH     H1B      HDA3B    0.080000        1.0080           0   0.00000   0.00000
     52411 MEOH     3513     MEOH     H1C      HDA3B    0.080000        1.0080           0   0.00000   0.00000
     52412 MEOH     3513     MEOH     LP1A     LPD     -0.230000        0.0000           -1   0.00000   0.00000
     52413 MEOH     3513     MEOH     LP1B     LPD     -0.230000        0.0000           -1   0.00000   0.00000
     52414 MEOH     3514     MEOH     C1       CD33B    2.314100       11.6110           0   -1.00000   1.30000
     52415 MEOH     3514     MEOH     DC1      DRUD    -2.454100        0.4000           0   0.00000   0.00000
     52416 MEOH     3514     MEOH     O1       OD31H    2.488300       15.5990           0   -1.02800   1.30000
     52417 MEOH     3514     MEOH     DO1      DRUD    -2.488300        0.4000           0   0.00000   0.00000
     52418 MEOH     3514     MEOH     HO1      HDP1A    0.360000        1.0080           0   0.00000   0.00000
     52419 MEOH     3514     MEOH     HO2      DUMH     0.000000        1.0080           0   0.00000   0.00000
     52420 MEOH     3514     MEOH     H1A      HDA3B    0.080000        1.0080           0   0.00000   0.00000
     52421 MEOH     3514     MEOH     H1B      HDA3B    0.080000        1.0080           0   0.00000   0.00000
     52422 MEOH     3514     MEOH     H1C      HDA3B    0.080000        1.0080           0   0.00000   0.00000
     52423 MEOH     3514     MEOH     LP1A     LPD     -0.230000        0.0000           -1   0.00000   0.00000
     52424 MEOH     3514     MEOH     LP1B     LPD     -0.230000        0.0000           -1   0.00000   0.00000
     52425 MEOH     3515     MEOH     C1       CD33B    2.314100       11.6110           0   -1.00000   1.30000
     52426 MEOH     3515     MEOH     DC1      DRUD    -2.454100        0.4000           0   0.00000   0.00000
     52427 MEOH     3515     MEOH     O1       OD31H    2.488300       15.5990           0   -1.02800   1.30000
     52428 MEOH     3515     MEOH     DO1      DRUD    -2.488300        0.4000           0   0.00000   0.00000
     52429 MEOH     3515     MEOH     HO1      HDP1A    0.360000        1.0080           0   0.00000   0.00000
     52430 MEOH     3515     MEOH     HO2      DUMH     0.000000        1.0080           0   0.00000   0.00000
     52431 MEOH     3515     MEOH     H1A      HDA3B    0.080000        1.0080           0   0.00000   0.00000
     52432 MEOH     3515     MEOH     H1B      HDA3B    0.080000        1.0080           0   0.00000   0.00000
     52433 MEOH     3515     MEOH     H1C      HDA3B    0.080000        1.0080           0   0.00000   0.00000
     52434 MEOH     3515     MEOH     LP1A     LPD     -0.230000        0.0000           -1   0.00000   0.00000
     52435 MEOH     3515     MEOH     LP1B     LPD     -0.230000        0.0000           -1   0.00000   0.00000
     52436 MEOH     3516     MEOH     C1       CD33B    2.314100       11.6110           0   -1.00000   1.30000
     52437 MEOH     3516     MEOH     DC1      DRUD    -2.454100        0.4000           0   0.00000   0.00000
     52438 MEOH     3516     MEOH     O1       OD31H    2.488300       15.5990           0   -1.02800   1.30000
     52439 MEOH     3516     MEOH     DO1      DRUD    -2.488300        0.4000           0   0.00000   0.00000
     52440 MEOH     3516     MEOH     HO1      HDP1A    0.360000        1.0080           0   0.00000   0.00000
     52441 MEOH     3516     MEOH     HO2      DUMH     0.000000        1.0080           0   0.00000   0.00000
     52442 MEOH     3516     MEOH     H1A      HDA3B    0.080000        1.0080           0   0.00000   0.00000
     52443 MEOH     3516     MEOH     H1B      HDA3B    0.080000        1.0080           0   0.00000   0.00000
     52444 MEOH     3516     MEOH     H1C      HDA3B    0.080000        1.0080           0   0.00000   0.00000
     52445 MEOH     3516     MEOH     LP1A     LPD     -0.230000        0.0000           -1   0.00000   0.00000
     52446 MEOH     3516     MEOH     LP1B     LPD     -0.230000        0.0000           -1   0.00000   0.00000
     52447 MEOH     3517     MEOH     C1       CD33B    2.314100       11.6110           0   -1.00000   1.30000
     52448 MEOH     3517     MEOH     DC1      DRUD    -2.454100        0.4000           0   0.00000   0.00000
     52449 MEOH     3517     MEOH     O1       OD31H    2.488300       15.5990           0   -1.02800   1.30000
     52450 MEOH     3517     MEOH     DO1      DRUD    -2.488300        0.4000           0   0.00000   0.00000
     52451 MEOH     3517     MEOH     HO1      HDP1A    0.360000        1.0080           0   0.00000   0.00000
     52452 MEOH     3517     MEOH     HO2      DUMH     0.000000        1.0080           0   0.00000   0.00000
     52453 MEOH     3517     MEOH     H1A      HDA3B    0.080000        1.0080           0   0.00000   0.00000
     52454 MEOH     3517     MEOH     H1B      HDA3B    0.080000        1.0080           0   0.00000   0.00000
     52455 MEOH     3517     MEOH     H1C      HDA3B    0.080000        1.0080           0   0.00000   0.00000
     52456 MEOH     3517     MEOH     LP1A     LPD     -0.230000        0.0000           -1   0.00000   0.00000
     52457 MEOH     3517     MEOH     LP1B     LPD     -0.230000        0.0000           -1   0.00000   0.00000
     52458 MEOH     3518     MEOH     C1       CD33B    2.314100       11.6110           0   -1.00000   1.30000
     52459 MEOH     3518     MEOH     DC1      DRUD    -2.454100        0.4000           0   0.00000   0.00000
     52460 MEOH     3518     MEOH     O1       OD31H    2.488300       15.5990           0   -1.02800   1.30000
     52461 MEOH     3518     MEOH     DO1      DRUD    -2.488300        0.4000           0   0.00000   0.00000
     52462 MEOH     3518     MEOH     HO1      HDP1A    0.360000        1.0080           0   0.00000   0.00000
     52463 MEOH     3518     MEOH     HO2      DUMH     0.000000        1.0080           0   0.00000   0.00000
     52464 MEOH     3518     MEOH     H1A      HDA3B    0.080000        1.0080           0   0.00000   0.00000
     52465 MEOH     3518     MEOH     H1B      HDA3B    0.080000        1.0080           0   0.00000   0.00000
     52466 MEOH     3518     MEOH     H1C      HDA3B    0.080000        1.0080           0   0.00000   0.00000
     52467 MEOH     3518     MEOH     LP1A     LPD     -0.230000        0.0000           -1   0.00000   0.00000
     52468 MEOH     3518     MEOH     LP1B     LPD     -0.230000        0.0000           -1   0.00000   0.00000
     52469 MEOH     3519     MEOH     C1       CD33B    2.314100       11.6110           0   -1.00000   1.30000
     52470 MEOH     3519     MEOH     DC1      DRUD    -2.454100        0.4000           0   0.00000   0.00000
     52471 MEOH     3519     MEOH     O1       OD31H    2.488300       15.5990           0   -1.02800   1.30000
     52472 MEOH     3519     MEOH     DO1      DRUD    -2.488300        0.4000           0   0.00000   0.00000
     52473 MEOH     3519     MEOH     HO1      HDP1A    0.360000        1.0080           0   0.00000   0.00000
     52474 MEOH     3519     MEOH     HO2      DUMH     0.000000        1.0080           0   0.00000   0.00000
     52475 MEOH     3519     MEOH     H1A      HDA3B    0.080000        1.0080           0   0.00000   0.00000
     52476 MEOH     3519     MEOH     H1B      HDA3B    0.080000        1.0080           0   0.00000   0.00000
     52477 MEOH     3519     MEOH     H1C      HDA3B    0.080000        1.0080           0   0.00000   0.00000
     52478 MEOH     3519     MEOH     LP1A     LPD     -0.230000        0.0000           -1   0.00000   0.00000
     52479 MEOH     3519     MEOH     LP1B     LPD     -0.230000        0.0000           -1   0.00000   0.00000
     52480 MEOH     3520     MEOH     C1       CD33B    2.314100       11.6110           0   -1.00000   1.30000
     52481 MEOH     3520     MEOH     DC1      DRUD    -2.454100        0.4000           0   0.00000   0.00000
     52482 MEOH     3520     MEOH     O1       OD31H    2.488300       15.5990           0   -1.02800   1.30000
     52483 MEOH     3520     MEOH     DO1      DRUD    -2.488300        0.4000           0   0.00000   0.00000
     52484 MEOH     3520     MEOH     HO1      HDP1A    0.360000        1.0080           0   0.00000   0.00000
     52485 MEOH     3520     MEOH     HO2      DUMH     0.000000        1.0080           0   0.00000   0.00000
     52486 MEOH     3520     MEOH     H1A      HDA3B    0.080000        1.0080           0   0.00000   0.00000
     52487 MEOH     3520     MEOH     H1B      HDA3B    0.080000        1.0080           0   0.00000   0.00000
     52488 MEOH     3520     MEOH     H1C      HDA3B    0.080000        1.0080           0   0.00000   0.00000
     52489 MEOH     3520     MEOH     LP1A     LPD     -0.230000        0.0000           -1   0.00000   0.00000
     52490 MEOH     3520     MEOH     LP1B     LPD     -0.230000        0.0000           -1   0.00000   0.00000
     52491 MEOH     3521     MEOH     C1       CD33B    2.314100       11.6110           0   -1.00000   1.30000
     52492 MEOH     3521     MEOH     DC1      DRUD    -2.454100        0.4000           0   0.00000   0.00000
     52493 MEOH     3521     MEOH     O1       OD31H    2.488300       15.5990           0   -1.02800   1.30000
     52494 MEOH     3521     MEOH     DO1      DRUD    -2.488300        0.4000           0   0.00000   0.00000
     52495 MEOH     3521     MEOH     HO1      HDP1A    0.360000        1.0080           0   0.00000   0.00000
     52496 MEOH     3521     MEOH     HO2      DUMH     0.000000        1.0080           0   0.00000   0.00000
     52497 MEOH     3521     MEOH     H1A      HDA3B    0.080000        1.0080           0   0.00000   0.00000
     52498 MEOH     3521     MEOH     H1B      HDA3B    0.080000        1.0080           0   0.00000   0.00000
     52499 MEOH     3521     MEOH     H1C      HDA3B    0.080000        1.0080           0   0.00000   0.00000
     52500 MEOH     3521     MEOH     LP1A     LPD     -0.230000        0.0000           -1   0.00000   0.00000
     52501 MEOH     3521     MEOH     LP1B     LPD     -0.230000        0.0000           -1   0.00000   0.00000
     52502 MEOH     3522     MEOH     C1       CD33B    2.314100       11.6110           0   -1.00000   1.30000
     52503 MEOH     3522     MEOH     DC1      DRUD    -2.454100        0.4000           0   0.00000   0.00000
     52504 MEOH     3522     MEOH     O1       OD31H    2.488300       15.5990           0   -1.02800   1.30000
     52505 MEOH     3522     MEOH     DO1      DRUD    -2.488300        0.4000           0   0.00000   0.00000
     52506 MEOH     3522     MEOH     HO1      HDP1A    0.360000        1.0080           0   0.00000   0.00000
     52507 MEOH     3522     MEOH     HO2      DUMH     0.000000        1.0080           0   0.00000   0.00000
     52508 MEOH     3522     MEOH     H1A      HDA3B    0.080000        1.0080           0   0.00000   0.00000
     52509 MEOH     3522     MEOH     H1B      HDA3B    0.080000        1.0080           0   0.00000   0.00000
     52510 MEOH     3522     MEOH     H1C      HDA3B    0.080000        1.0080           0   0.00000   0.00000
     52511 MEOH     3522     MEOH     LP1A     LPD     -0.230000        0.0000           -1   0.00000   0.00000
     52512 MEOH     3522     MEOH     LP1B     LPD     -0.230000        0.0000           -1   0.00000   0.00000
     52513 MEOH     3523     MEOH     C1       CD33B    2.314100       11.6110           0   -1.00000   1.30000
     52514 MEOH     3523     MEOH     DC1      DRUD    -2.454100        0.4000           0   0.00000   0.00000
     52515 MEOH     3523     MEOH     O1       OD31H    2.488300       15.5990           0   -1.02800   1.30000
     52516 MEOH     3523     MEOH     DO1      DRUD    -2.488300        0.4000           0   0.00000   0.00000
     52517 MEOH     3523     MEOH     HO1      HDP1A    0.360000        1.0080           0   0.00000   0.00000
     52518 MEOH     3523     MEOH     HO2      DUMH     0.000000        1.0080           0   0.00000   0.00000
     52519 MEOH     3523     MEOH     H1A      HDA3B    0.080000        1.0080           0   0.00000   0.00000
     52520 MEOH     3523     MEOH     H1B      HDA3B    0.080000        1.0080           0   0.00000   0.00000
     52521 MEOH     3523     MEOH     H1C      HDA3B    0.080000        1.0080           0   0.00000   0.00000
     52522 MEOH     3523     MEOH     LP1A     LPD     -0.230000        0.0000           -1   0.00000   0.00000
     52523 MEOH     3523     MEOH     LP1B     LPD     -0.230000        0.0000           -1   0.00000   0.00000
     52524 MEOH     3524     MEOH     C1       CD33B    2.314100       11.6110           0   -1.00000   1.30000
     52525 MEOH     3524     MEOH     DC1      DRUD    -2.454100        0.4000           0   0.00000   0.00000
     52526 MEOH     3524     MEOH     O1       OD31H    2.488300       15.5990           0   -1.02800   1.30000
     52527 MEOH     3524     MEOH     DO1      DRUD    -2.488300        0.4000           0   0.00000   0.00000
     52528 MEOH     3524     MEOH     HO1      HDP1A    0.360000        1.0080           0   0.00000   0.00000
     52529 MEOH     3524     MEOH     HO2      DUMH     0.000000        1.0080           0   0.00000   0.00000
     52530 MEOH     3524     MEOH     H1A      HDA3B    0.080000        1.0080           0   0.00000   0.00000
     52531 MEOH     3524     MEOH     H1B      HDA3B    0.080000        1.0080           0   0.00000   0.00000
     52532 MEOH     3524     MEOH     H1C      HDA3B    0.080000        1.0080           0   0.00000   0.00000
     52533 MEOH     3524     MEOH     LP1A     LPD     -0.230000        0.0000           -1   0.00000   0.00000
     52534 MEOH     3524     MEOH     LP1B     LPD     -0.230000        0.0000           -1   0.00000   0.00000
     52535 MEOH     3525     MEOH     C1       CD33B    2.314100       11.6110           0   -1.00000   1.30000
     52536 MEOH     3525     MEOH     DC1      DRUD    -2.454100        0.4000           0   0.00000   0.00000
     52537 MEOH     3525     MEOH     O1       OD31H    2.488300       15.5990           0   -1.02800   1.30000
     52538 MEOH     3525     MEOH     DO1      DRUD    -2.488300        0.4000           0   0.00000   0.00000
     52539 MEOH     3525     MEOH     HO1      HDP1A    0.360000        1.0080           0   0.00000   0.00000
     52540 MEOH     3525     MEOH     HO2      DUMH     0.000000        1.0080           0   0.00000   0.00000
     52541 MEOH     3525     MEOH     H1A      HDA3B    0.080000        1.0080           0   0.00000   0.00000
     52542 MEOH     3525     MEOH     H1B      HDA3B    0.080000        1.0080           0   0.00000   0.00000
     52543 MEOH     3525     MEOH     H1C      HDA3B    0.080000        1.0080           0   0.00000   0.00000
     52544 MEOH     3525     MEOH     LP1A     LPD     -0.230000        0.0000           -1   0.00000   0.00000
     52545 MEOH     3525     MEOH     LP1B     LPD     -0.230000        0.0000           -1   0.00000   0.00000
     52546 MEOH     3526     MEOH     C1       CD33B    2.314100       11.6110           0   -1.00000   1.30000
     52547 MEOH     3526     MEOH     DC1      DRUD    -2.454100        0.4000           0   0.00000   0.00000
     52548 MEOH     3526     MEOH     O1       OD31H    2.488300       15.5990           0   -1.02800   1.30000
     52549 MEOH     3526     MEOH     DO1      DRUD    -2.488300        0.4000           0   0.00000   0.00000
     52550 MEOH     3526     MEOH     HO1      HDP1A    0.360000        1.0080           0   0.00000   0.00000
     52551 MEOH     3526     MEOH     HO2      DUMH     0.000000        1.0080           0   0.00000   0.00000
     52552 MEOH     3526     MEOH     H1A      HDA3B    0.080000        1.0080           0   0.00000   0.00000
     52553 MEOH     3526     MEOH     H1B      HDA3B    0.080000        1.0080           0   0.00000   0.00000
     52554 MEOH     3526     MEOH     H1C      HDA3B    0.080000        1.0080           0   0.00000   0.00000
     52555 MEOH     3526     MEOH     LP1A     LPD     -0.230000        0.0000           -1   0.00000   0.00000
     52556 MEOH     3526     MEOH     LP1B     LPD     -0.230000        0.0000           -1   0.00000   0.00000
     52557 MEOH     3527     MEOH     C1       CD33B    2.314100       11.6110           0   -1.00000   1.30000
     52558 MEOH     3527     MEOH     DC1      DRUD    -2.454100        0.4000           0   0.00000   0.00000
     52559 MEOH     3527     MEOH     O1       OD31H    2.488300       15.5990           0   -1.02800   1.30000
     52560 MEOH     3527     MEOH     DO1      DRUD    -2.488300        0.4000           0   0.00000   0.00000
     52561 MEOH     3527     MEOH     HO1      HDP1A    0.360000        1.0080           0   0.00000   0.00000
     52562 MEOH     3527     MEOH     HO2      DUMH     0.000000        1.0080           0   0.00000   0.00000
     52563 MEOH     3527     MEOH     H1A      HDA3B    0.080000        1.0080           0   0.00000   0.00000
     52564 MEOH     3527     MEOH     H1B      HDA3B    0.080000        1.0080           0   0.00000   0.00000
     52565 MEOH     3527     MEOH     H1C      HDA3B    0.080000        1.0080           0   0.00000   0.00000
     52566 MEOH     3527     MEOH     LP1A     LPD     -0.230000        0.0000           -1   0.00000   0.00000
     52567 MEOH     3527     MEOH     LP1B     LPD     -0.230000        0.0000           -1   0.00000   0.00000
     52568 MEOH     3528     MEOH     C1       CD33B    2.314100       11.6110           0   -1.00000   1.30000
     52569 MEOH     3528     MEOH     DC1      DRUD    -2.454100        0.4000           0   0.00000   0.00000
     52570 MEOH     3528     MEOH     O1       OD31H    2.488300       15.5990           0   -1.02800   1.30000
     52571 MEOH     3528     MEOH     DO1      DRUD    -2.488300        0.4000           0   0.00000   0.00000
     52572 MEOH     3528     MEOH     HO1      HDP1A    0.360000        1.0080           0   0.00000   0.00000
     52573 MEOH     3528     MEOH     HO2      DUMH     0.000000        1.0080           0   0.00000   0.00000
     52574 MEOH     3528     MEOH     H1A      HDA3B    0.080000        1.0080           0   0.00000   0.00000
     52575 MEOH     3528     MEOH     H1B      HDA3B    0.080000        1.0080           0   0.00000   0.00000
     52576 MEOH     3528     MEOH     H1C      HDA3B    0.080000        1.0080           0   0.00000   0.00000
     52577 MEOH     3528     MEOH     LP1A     LPD     -0.230000        0.0000           -1   0.00000   0.00000
     52578 MEOH     3528     MEOH     LP1B     LPD     -0.230000        0.0000           -1   0.00000   0.00000
     52579 MEOH     3529     MEOH     C1       CD33B    2.314100       11.6110           0   -1.00000   1.30000
     52580 MEOH     3529     MEOH     DC1      DRUD    -2.454100        0.4000           0   0.00000   0.00000
     52581 MEOH     3529     MEOH     O1       OD31H    2.488300       15.5990           0   -1.02800   1.30000
     52582 MEOH     3529     MEOH     DO1      DRUD    -2.488300        0.4000           0   0.00000   0.00000
     52583 MEOH     3529     MEOH     HO1      HDP1A    0.360000        1.0080           0   0.00000   0.00000
     52584 MEOH     3529     MEOH     HO2      DUMH     0.000000        1.0080           0   0.00000   0.00000
     52585 MEOH     3529     MEOH     H1A      HDA3B    0.080000        1.0080           0   0.00000   0.00000
     52586 MEOH     3529     MEOH     H1B      HDA3B    0.080000        1.0080           0   0.00000   0.00000
     52587 MEOH     3529     MEOH     H1C      HDA3B    0.080000        1.0080           0   0.00000   0.00000
     52588 MEOH     3529     MEOH     LP1A     LPD     -0.230000        0.0000           -1   0.00000   0.00000
     52589 MEOH     3529     MEOH     LP1B     LPD     -0.230000        0.0000           -1   0.00000   0.00000
     52590 MEOH     3530     MEOH     C1       CD33B    2.314100       11.6110           0   -1.00000   1.30000
     52591 MEOH     3530     MEOH     DC1      DRUD    -2.454100        0.4000           0   0.00000   0.00000
     52592 MEOH     3530     MEOH     O1       OD31H    2.488300       15.5990           0   -1.02800   1.30000
     52593 MEOH     3530     MEOH     DO1      DRUD    -2.488300        0.4000           0   0.00000   0.00000
     52594 MEOH     3530     MEOH     HO1      HDP1A    0.360000        1.0080           0   0.00000   0.00000
     52595 MEOH     3530     MEOH     HO2      DUMH     0.000000        1.0080           0   0.00000   0.00000
     52596 MEOH     3530     MEOH     H1A      HDA3B    0.080000        1.0080           0   0.00000   0.00000
     52597 MEOH     3530     MEOH     H1B      HDA3B    0.080000        1.0080           0   0.00000   0.00000
     52598 MEOH     3530     MEOH     H1C      HDA3B    0.080000        1.0080           0   0.00000   0.00000
     52599 MEOH     3530     MEOH     LP1A     LPD     -0.230000        0.0000           -1   0.00000   0.00000
     52600 MEOH     3530     MEOH     LP1B     LPD     -0.230000        0.0000           -1   0.00000   0.00000
     52601 MEOH     3531     MEOH     C1       CD33B    2.314100       11.6110           0   -1.00000   1.30000
     52602 MEOH     3531     MEOH     DC1      DRUD    -2.454100        0.4000           0   0.00000   0.00000
     52603 MEOH     3531     MEOH     O1       OD31H    2.488300       15.5990           0   -1.02800   1.30000
     52604 MEOH     3531     MEOH     DO1      DRUD    -2.488300        0.4000           0   0.00000   0.00000
     52605 MEOH     3531     MEOH     HO1      HDP1A    0.360000        1.0080           0   0.00000   0.00000
     52606 MEOH     3531     MEOH     HO2      DUMH     0.000000        1.0080           0   0.00000   0.00000
     52607 MEOH     3531     MEOH     H1A      HDA3B    0.080000        1.0080           0   0.00000   0.00000
     52608 MEOH     3531     MEOH     H1B      HDA3B    0.080000        1.0080           0   0.00000   0.00000
     52609 MEOH     3531     MEOH     H1C      HDA3B    0.080000        1.0080           0   0.00000   0.00000
     52610 MEOH     3531     MEOH     LP1A     LPD     -0.230000        0.0000           -1   0.00000   0.00000
     52611 MEOH     3531     MEOH     LP1B     LPD     -0.230000        0.0000           -1   0.00000   0.00000
     52612 MEOH     3532     MEOH     C1       CD33B    2.314100       11.6110           0   -1.00000   1.30000
     52613 MEOH     3532     MEOH     DC1      DRUD    -2.454100        0.4000           0   0.00000   0.00000
     52614 MEOH     3532     MEOH     O1       OD31H    2.488300       15.5990           0   -1.02800   1.30000
     52615 MEOH     3532     MEOH     DO1      DRUD    -2.488300        0.4000           0   0.00000   0.00000
     52616 MEOH     3532     MEOH     HO1      HDP1A    0.360000        1.0080           0   0.00000   0.00000
     52617 MEOH     3532     MEOH     HO2      DUMH     0.000000        1.0080           0   0.00000   0.00000
     52618 MEOH     3532     MEOH     H1A      HDA3B    0.080000        1.0080           0   0.00000   0.00000
     52619 MEOH     3532     MEOH     H1B      HDA3B    0.080000        1.0080           0   0.00000   0.00000
     52620 MEOH     3532     MEOH     H1C      HDA3B    0.080000        1.0080           0   0.00000   0.00000
     52621 MEOH     3532     MEOH     LP1A     LPD     -0.230000        0.0000           -1   0.00000   0.00000
     52622 MEOH     3532     MEOH     LP1B     LPD     -0.230000        0.0000           -1   0.00000   0.00000
     52623 MEOH     3533     MEOH     C1       CD33B    2.314100       11.6110           0   -1.00000   1.30000
     52624 MEOH     3533     MEOH     DC1      DRUD    -2.454100        0.4000           0   0.00000   0.00000
     52625 MEOH     3533     MEOH     O1       OD31H    2.488300       15.5990           0   -1.02800   1.30000
     52626 MEOH     3533     MEOH     DO1      DRUD    -2.488300        0.4000           0   0.00000   0.00000
     52627 MEOH     3533     MEOH     HO1      HDP1A    0.360000        1.0080           0   0.00000   0.00000
     52628 MEOH     3533     MEOH     HO2      DUMH     0.000000        1.0080           0   0.00000   0.00000
     52629 MEOH     3533     MEOH     H1A      HDA3B    0.080000        1.0080           0   0.00000   0.00000
     52630 MEOH     3533     MEOH     H1B      HDA3B    0.080000        1.0080           0   0.00000   0.00000
     52631 MEOH     3533     MEOH     H1C      HDA3B    0.080000        1.0080           0   0.00000   0.00000
     52632 MEOH     3533     MEOH     LP1A     LPD     -0.230000        0.0000           -1   0.00000   0.00000
     52633 MEOH     3533     MEOH     LP1B     LPD     -0.230000        0.0000           -1   0.00000   0.00000
     52634 MEOH     3534     MEOH     C1       CD33B    2.314100       11.6110           0   -1.00000   1.30000
     52635 MEOH     3534     MEOH     DC1      DRUD    -2.454100        0.4000           0   0.00000   0.00000
     52636 MEOH     3534     MEOH     O1       OD31H    2.488300       15.5990           0   -1.02800   1.30000
     52637 MEOH     3534     MEOH     DO1      DRUD    -2.488300        0.4000           0   0.00000   0.00000
     52638 MEOH     3534     MEOH     HO1      HDP1A    0.360000        1.0080           0   0.00000   0.00000
     52639 MEOH     3534     MEOH     HO2      DUMH     0.000000        1.0080           0   0.00000   0.00000
     52640 MEOH     3534     MEOH     H1A      HDA3B    0.080000        1.0080           0   0.00000   0.00000
     52641 MEOH     3534     MEOH     H1B      HDA3B    0.080000        1.0080           0   0.00000   0.00000
     52642 MEOH     3534     MEOH     H1C      HDA3B    0.080000        1.0080           0   0.00000   0.00000
     52643 MEOH     3534     MEOH     LP1A     LPD     -0.230000        0.0000           -1   0.00000   0.00000
     52644 MEOH     3534     MEOH     LP1B     LPD     -0.230000        0.0000           -1   0.00000   0.00000
     52645 MEOH     3535     MEOH     C1       CD33B    2.314100       11.6110           0   -1.00000   1.30000
     52646 MEOH     3535     MEOH     DC1      DRUD    -2.454100        0.4000           0   0.00000   0.00000
     52647 MEOH     3535     MEOH     O1       OD31H    2.488300       15.5990           0   -1.02800   1.30000
     52648 MEOH     3535     MEOH     DO1      DRUD    -2.488300        0.4000           0   0.00000   0.00000
     52649 MEOH     3535     MEOH     HO1      HDP1A    0.360000        1.0080           0   0.00000   0.00000
     52650 MEOH     3535     MEOH     HO2      DUMH     0.000000        1.0080           0   0.00000   0.00000
     52651 MEOH     3535     MEOH     H1A      HDA3B    0.080000        1.0080           0   0.00000   0.00000
     52652 MEOH     3535     MEOH     H1B      HDA3B    0.080000        1.0080           0   0.00000   0.00000
     52653 MEOH     3535     MEOH     H1C      HDA3B    0.080000        1.0080           0   0.00000   0.00000
     52654 MEOH     3535     MEOH     LP1A     LPD     -0.230000        0.0000           -1   0.00000   0.00000
     52655 MEOH     3535     MEOH     LP1B     LPD     -0.230000        0.0000           -1   0.00000   0.00000
     52656 MEOH     3536     MEOH     C1       CD33B    2.314100       11.6110           0   -1.00000   1.30000
     52657 MEOH     3536     MEOH     DC1      DRUD    -2.454100        0.4000           0   0.00000   0.00000
     52658 MEOH     3536     MEOH     O1       OD31H    2.488300       15.5990           0   -1.02800   1.30000
     52659 MEOH     3536     MEOH     DO1      DRUD    -2.488300        0.4000           0   0.00000   0.00000
     52660 MEOH     3536     MEOH     HO1      HDP1A    0.360000        1.0080           0   0.00000   0.00000
     52661 MEOH     3536     MEOH     HO2      DUMH     0.000000        1.0080           0   0.00000   0.00000
     52662 MEOH     3536     MEOH     H1A      HDA3B    0.080000        1.0080           0   0.00000   0.00000
     52663 MEOH     3536     MEOH     H1B      HDA3B    0.080000        1.0080           0   0.00000   0.00000
     52664 MEOH     3536     MEOH     H1C      HDA3B    0.080000        1.0080           0   0.00000   0.00000
     52665 MEOH     3536     MEOH     LP1A     LPD     -0.230000        0.0000           -1   0.00000   0.00000
     52666 MEOH     3536     MEOH     LP1B     LPD     -0.230000        0.0000           -1   0.00000   0.00000
     52667 MEOH     3537     MEOH     C1       CD33B    2.314100       11.6110           0   -1.00000   1.30000
     52668 MEOH     3537     MEOH     DC1      DRUD    -2.454100        0.4000           0   0.00000   0.00000
     52669 MEOH     3537     MEOH     O1       OD31H    2.488300       15.5990           0   -1.02800   1.30000
     52670 MEOH     3537     MEOH     DO1      DRUD    -2.488300        0.4000           0   0.00000   0.00000
     52671 MEOH     3537     MEOH     HO1      HDP1A    0.360000        1.0080           0   0.00000   0.00000
     52672 MEOH     3537     MEOH     HO2      DUMH     0.000000        1.0080           0   0.00000   0.00000
     52673 MEOH     3537     MEOH     H1A      HDA3B    0.080000        1.0080           0   0.00000   0.00000
     52674 MEOH     3537     MEOH     H1B      HDA3B    0.080000        1.0080           0   0.00000   0.00000
     52675 MEOH     3537     MEOH     H1C      HDA3B    0.080000        1.0080           0   0.00000   0.00000
     52676 MEOH     3537     MEOH     LP1A     LPD     -0.230000        0.0000           -1   0.00000   0.00000
     52677 MEOH     3537     MEOH     LP1B     LPD     -0.230000        0.0000           -1   0.00000   0.00000
     52678 MEOH     3538     MEOH     C1       CD33B    2.314100       11.6110           0   -1.00000   1.30000
     52679 MEOH     3538     MEOH     DC1      DRUD    -2.454100        0.4000           0   0.00000   0.00000
     52680 MEOH     3538     MEOH     O1       OD31H    2.488300       15.5990           0   -1.02800   1.30000
     52681 MEOH     3538     MEOH     DO1      DRUD    -2.488300        0.4000           0   0.00000   0.00000
     52682 MEOH     3538     MEOH     HO1      HDP1A    0.360000        1.0080           0   0.00000   0.00000
     52683 MEOH     3538     MEOH     HO2      DUMH     0.000000        1.0080           0   0.00000   0.00000
     52684 MEOH     3538     MEOH     H1A      HDA3B    0.080000        1.0080           0   0.00000   0.00000
     52685 MEOH     3538     MEOH     H1B      HDA3B    0.080000        1.0080           0   0.00000   0.00000
     52686 MEOH     3538     MEOH     H1C      HDA3B    0.080000        1.0080           0   0.00000   0.00000
     52687 MEOH     3538     MEOH     LP1A     LPD     -0.230000        0.0000           -1   0.00000   0.00000
     52688 MEOH     3538     MEOH     LP1B     LPD     -0.230000        0.0000           -1   0.00000   0.00000
     52689 MEOH     3539     MEOH     C1       CD33B    2.314100       11.6110           0   -1.00000   1.30000
     52690 MEOH     3539     MEOH     DC1      DRUD    -2.454100        0.4000           0   0.00000   0.00000
     52691 MEOH     3539     MEOH     O1       OD31H    2.488300       15.5990           0   -1.02800   1.30000
     52692 MEOH     3539     MEOH     DO1      DRUD    -2.488300        0.4000           0   0.00000   0.00000
     52693 MEOH     3539     MEOH     HO1      HDP1A    0.360000        1.0080           0   0.00000   0.00000
     52694 MEOH     3539     MEOH     HO2      DUMH     0.000000        1.0080           0   0.00000   0.00000
     52695 MEOH     3539     MEOH     H1A      HDA3B    0.080000        1.0080           0   0.00000   0.00000
     52696 MEOH     3539     MEOH     H1B      HDA3B    0.080000        1.0080           0   0.00000   0.00000
     52697 MEOH     3539     MEOH     H1C      HDA3B    0.080000        1.0080           0   0.00000   0.00000
     52698 MEOH     3539     MEOH     LP1A     LPD     -0.230000        0.0000           -1   0.00000   0.00000
     52699 MEOH     3539     MEOH     LP1B     LPD     -0.230000        0.0000           -1   0.00000   0.00000
     52700 MEOH     3540     MEOH     C1       CD33B    2.314100       11.6110           0   -1.00000   1.30000
     52701 MEOH     3540     MEOH     DC1      DRUD    -2.454100        0.4000           0   0.00000   0.00000
     52702 MEOH     3540     MEOH     O1       OD31H    2.488300       15.5990           0   -1.02800   1.30000
     52703 MEOH     3540     MEOH     DO1      DRUD    -2.488300        0.4000           0   0.00000   0.00000
     52704 MEOH     3540     MEOH     HO1      HDP1A    0.360000        1.0080           0   0.00000   0.00000
     52705 MEOH     3540     MEOH     HO2      DUMH     0.000000        1.0080           0   0.00000   0.00000
     52706 MEOH     3540     MEOH     H1A      HDA3B    0.080000        1.0080           0   0.00000   0.00000
     52707 MEOH     3540     MEOH     H1B      HDA3B    0.080000        1.0080           0   0.00000   0.00000
     52708 MEOH     3540     MEOH     H1C      HDA3B    0.080000        1.0080           0   0.00000   0.00000
     52709 MEOH     3540     MEOH     LP1A     LPD     -0.230000        0.0000           -1   0.00000   0.00000
     52710 MEOH     3540     MEOH     LP1B     LPD     -0.230000        0.0000           -1   0.00000   0.00000
     52711 MEOH     3541     MEOH     C1       CD33B    2.314100       11.6110           0   -1.00000   1.30000
     52712 MEOH     3541     MEOH     DC1      DRUD    -2.454100        0.4000           0   0.00000   0.00000
     52713 MEOH     3541     MEOH     O1       OD31H    2.488300       15.5990           0   -1.02800   1.30000
     52714 MEOH     3541     MEOH     DO1      DRUD    -2.488300        0.4000           0   0.00000   0.00000
     52715 MEOH     3541     MEOH     HO1      HDP1A    0.360000        1.0080           0   0.00000   0.00000
     52716 MEOH     3541     MEOH     HO2      DUMH     0.000000        1.0080           0   0.00000   0.00000
     52717 MEOH     3541     MEOH     H1A      HDA3B    0.080000        1.0080           0   0.00000   0.00000
     52718 MEOH     3541     MEOH     H1B      HDA3B    0.080000        1.0080           0   0.00000   0.00000
     52719 MEOH     3541     MEOH     H1C      HDA3B    0.080000        1.0080           0   0.00000   0.00000
     52720 MEOH     3541     MEOH     LP1A     LPD     -0.230000        0.0000           -1   0.00000   0.00000
     52721 MEOH     3541     MEOH     LP1B     LPD     -0.230000        0.0000           -1   0.00000   0.00000
     52722 MEOH     3542     MEOH     C1       CD33B    2.314100       11.6110           0   -1.00000   1.30000
     52723 MEOH     3542     MEOH     DC1      DRUD    -2.454100        0.4000           0   0.00000   0.00000
     52724 MEOH     3542     MEOH     O1       OD31H    2.488300       15.5990           0   -1.02800   1.30000
     52725 MEOH     3542     MEOH     DO1      DRUD    -2.488300        0.4000           0   0.00000   0.00000
     52726 MEOH     3542     MEOH     HO1      HDP1A    0.360000        1.0080           0   0.00000   0.00000
     52727 MEOH     3542     MEOH     HO2      DUMH     0.000000        1.0080           0   0.00000   0.00000
     52728 MEOH     3542     MEOH     H1A      HDA3B    0.080000        1.0080           0   0.00000   0.00000
     52729 MEOH     3542     MEOH     H1B      HDA3B    0.080000        1.0080           0   0.00000   0.00000
     52730 MEOH     3542     MEOH     H1C      HDA3B    0.080000        1.0080           0   0.00000   0.00000
     52731 MEOH     3542     MEOH     LP1A     LPD     -0.230000        0.0000           -1   0.00000   0.00000
     52732 MEOH     3542     MEOH     LP1B     LPD     -0.230000        0.0000           -1   0.00000   0.00000
     52733 MEOH     3543     MEOH     C1       CD33B    2.314100       11.6110           0   -1.00000   1.30000
     52734 MEOH     3543     MEOH     DC1      DRUD    -2.454100        0.4000           0   0.00000   0.00000
     52735 MEOH     3543     MEOH     O1       OD31H    2.488300       15.5990           0   -1.02800   1.30000
     52736 MEOH     3543     MEOH     DO1      DRUD    -2.488300        0.4000           0   0.00000   0.00000
     52737 MEOH     3543     MEOH     HO1      HDP1A    0.360000        1.0080           0   0.00000   0.00000
     52738 MEOH     3543     MEOH     HO2      DUMH     0.000000        1.0080           0   0.00000   0.00000
     52739 MEOH     3543     MEOH     H1A      HDA3B    0.080000        1.0080           0   0.00000   0.00000
     52740 MEOH     3543     MEOH     H1B      HDA3B    0.080000        1.0080           0   0.00000   0.00000
     52741 MEOH     3543     MEOH     H1C      HDA3B    0.080000        1.0080           0   0.00000   0.00000
     52742 MEOH     3543     MEOH     LP1A     LPD     -0.230000        0.0000           -1   0.00000   0.00000
     52743 MEOH     3543     MEOH     LP1B     LPD     -0.230000        0.0000           -1   0.00000   0.00000
     52744 MEOH     3544     MEOH     C1       CD33B    2.314100       11.6110           0   -1.00000   1.30000
     52745 MEOH     3544     MEOH     DC1      DRUD    -2.454100        0.4000           0   0.00000   0.00000
     52746 MEOH     3544     MEOH     O1       OD31H    2.488300       15.5990           0   -1.02800   1.30000
     52747 MEOH     3544     MEOH     DO1      DRUD    -2.488300        0.4000           0   0.00000   0.00000
     52748 MEOH     3544     MEOH     HO1      HDP1A    0.360000        1.0080           0   0.00000   0.00000
     52749 MEOH     3544     MEOH     HO2      DUMH     0.000000        1.0080           0   0.00000   0.00000
     52750 MEOH     3544     MEOH     H1A      HDA3B    0.080000        1.0080           0   0.00000   0.00000
     52751 MEOH     3544     MEOH     H1B      HDA3B    0.080000        1.0080           0   0.00000   0.00000
     52752 MEOH     3544     MEOH     H1C      HDA3B    0.080000        1.0080           0   0.00000   0.00000
     52753 MEOH     3544     MEOH     LP1A     LPD     -0.230000        0.0000           -1   0.00000   0.00000
     52754 MEOH     3544     MEOH     LP1B     LPD     -0.230000        0.0000           -1   0.00000   0.00000
     52755 MEOH     3545     MEOH     C1       CD33B    2.314100       11.6110           0   -1.00000   1.30000
     52756 MEOH     3545     MEOH     DC1      DRUD    -2.454100        0.4000           0   0.00000   0.00000
     52757 MEOH     3545     MEOH     O1       OD31H    2.488300       15.5990           0   -1.02800   1.30000
     52758 MEOH     3545     MEOH     DO1      DRUD    -2.488300        0.4000           0   0.00000   0.00000
     52759 MEOH     3545     MEOH     HO1      HDP1A    0.360000        1.0080           0   0.00000   0.00000
     52760 MEOH     3545     MEOH     HO2      DUMH     0.000000        1.0080           0   0.00000   0.00000
     52761 MEOH     3545     MEOH     H1A      HDA3B    0.080000        1.0080           0   0.00000   0.00000
     52762 MEOH     3545     MEOH     H1B      HDA3B    0.080000        1.0080           0   0.00000   0.00000
     52763 MEOH     3545     MEOH     H1C      HDA3B    0.080000        1.0080           0   0.00000   0.00000
     52764 MEOH     3545     MEOH     LP1A     LPD     -0.230000        0.0000           -1   0.00000   0.00000
     52765 MEOH     3545     MEOH     LP1B     LPD     -0.230000        0.0000           -1   0.00000   0.00000
     52766 MEOH     3546     MEOH     C1       CD33B    2.314100       11.6110           0   -1.00000   1.30000
     52767 MEOH     3546     MEOH     DC1      DRUD    -2.454100        0.4000           0   0.00000   0.00000
     52768 MEOH     3546     MEOH     O1       OD31H    2.488300       15.5990           0   -1.02800   1.30000
     52769 MEOH     3546     MEOH     DO1      DRUD    -2.488300        0.4000           0   0.00000   0.00000
     52770 MEOH     3546     MEOH     HO1      HDP1A    0.360000        1.0080           0   0.00000   0.00000
     52771 MEOH     3546     MEOH     HO2      DUMH     0.000000        1.0080           0   0.00000   0.00000
     52772 MEOH     3546     MEOH     H1A      HDA3B    0.080000        1.0080           0   0.00000   0.00000
     52773 MEOH     3546     MEOH     H1B      HDA3B    0.080000        1.0080           0   0.00000   0.00000
     52774 MEOH     3546     MEOH     H1C      HDA3B    0.080000        1.0080           0   0.00000   0.00000
     52775 MEOH     3546     MEOH     LP1A     LPD     -0.230000        0.0000           -1   0.00000   0.00000
     52776 MEOH     3546     MEOH     LP1B     LPD     -0.230000        0.0000           -1   0.00000   0.00000
     52777 MEOH     3547     MEOH     C1       CD33B    2.314100       11.6110           0   -1.00000   1.30000
     52778 MEOH     3547     MEOH     DC1      DRUD    -2.454100        0.4000           0   0.00000   0.00000
     52779 MEOH     3547     MEOH     O1       OD31H    2.488300       15.5990           0   -1.02800   1.30000
     52780 MEOH     3547     MEOH     DO1      DRUD    -2.488300        0.4000           0   0.00000   0.00000
     52781 MEOH     3547     MEOH     HO1      HDP1A    0.360000        1.0080           0   0.00000   0.00000
     52782 MEOH     3547     MEOH     HO2      DUMH     0.000000        1.0080           0   0.00000   0.00000
     52783 MEOH     3547     MEOH     H1A      HDA3B    0.080000        1.0080           0   0.00000   0.00000
     52784 MEOH     3547     MEOH     H1B      HDA3B    0.080000        1.0080           0   0.00000   0.00000
     52785 MEOH     3547     MEOH     H1C      HDA3B    0.080000        1.0080           0   0.00000   0.00000
     52786 MEOH     3547     MEOH     LP1A     LPD     -0.230000        0.0000           -1   0.00000   0.00000
     52787 MEOH     3547     MEOH     LP1B     LPD     -0.230000        0.0000           -1   0.00000   0.00000
     52788 MEOH     3548     MEOH     C1       CD33B    2.314100       11.6110           0   -1.00000   1.30000
     52789 MEOH     3548     MEOH     DC1      DRUD    -2.454100        0.4000           0   0.00000   0.00000
     52790 MEOH     3548     MEOH     O1       OD31H    2.488300       15.5990           0   -1.02800   1.30000
     52791 MEOH     3548     MEOH     DO1      DRUD    -2.488300        0.4000           0   0.00000   0.00000
     52792 MEOH     3548     MEOH     HO1      HDP1A    0.360000        1.0080           0   0.00000   0.00000
     52793 MEOH     3548     MEOH     HO2      DUMH     0.000000        1.0080           0   0.00000   0.00000
     52794 MEOH     3548     MEOH     H1A      HDA3B    0.080000        1.0080           0   0.00000   0.00000
     52795 MEOH     3548     MEOH     H1B      HDA3B    0.080000        1.0080           0   0.00000   0.00000
     52796 MEOH     3548     MEOH     H1C      HDA3B    0.080000        1.0080           0   0.00000   0.00000
     52797 MEOH     3548     MEOH     LP1A     LPD     -0.230000        0.0000           -1   0.00000   0.00000
     52798 MEOH     3548     MEOH     LP1B     LPD     -0.230000        0.0000           -1   0.00000   0.00000
     52799 MEOH     3549     MEOH     C1       CD33B    2.314100       11.6110           0   -1.00000   1.30000
     52800 MEOH     3549     MEOH     DC1      DRUD    -2.454100        0.4000           0   0.00000   0.00000
     52801 MEOH     3549     MEOH     O1       OD31H    2.488300       15.5990           0   -1.02800   1.30000
     52802 MEOH     3549     MEOH     DO1      DRUD    -2.488300        0.4000           0   0.00000   0.00000
     52803 MEOH     3549     MEOH     HO1      HDP1A    0.360000        1.0080           0   0.00000   0.00000
     52804 MEOH     3549     MEOH     HO2      DUMH     0.000000        1.0080           0   0.00000   0.00000
     52805 MEOH     3549     MEOH     H1A      HDA3B    0.080000        1.0080           0   0.00000   0.00000
     52806 MEOH     3549     MEOH     H1B      HDA3B    0.080000        1.0080           0   0.00000   0.00000
     52807 MEOH     3549     MEOH     H1C      HDA3B    0.080000        1.0080           0   0.00000   0.00000
     52808 MEOH     3549     MEOH     LP1A     LPD     -0.230000        0.0000           -1   0.00000   0.00000
     52809 MEOH     3549     MEOH     LP1B     LPD     -0.230000        0.0000           -1   0.00000   0.00000
     52810 MEOH     3550     MEOH     C1       CD33B    2.314100       11.6110           0   -1.00000   1.30000
     52811 MEOH     3550     MEOH     DC1      DRUD    -2.454100        0.4000           0   0.00000   0.00000
     52812 MEOH     3550     MEOH     O1       OD31H    2.488300       15.5990           0   -1.02800   1.30000
     52813 MEOH     3550     MEOH     DO1      DRUD    -2.488300        0.4000           0   0.00000   0.00000
     52814 MEOH     3550     MEOH     HO1      HDP1A    0.360000        1.0080           0   0.00000   0.00000
     52815 MEOH     3550     MEOH     HO2      DUMH     0.000000        1.0080           0   0.00000   0.00000
     52816 MEOH     3550     MEOH     H1A      HDA3B    0.080000        1.0080           0   0.00000   0.00000
     52817 MEOH     3550     MEOH     H1B      HDA3B    0.080000        1.0080           0   0.00000   0.00000
     52818 MEOH     3550     MEOH     H1C      HDA3B    0.080000        1.0080           0   0.00000   0.00000
     52819 MEOH     3550     MEOH     LP1A     LPD     -0.230000        0.0000           -1   0.00000   0.00000
     52820 MEOH     3550     MEOH     LP1B     LPD     -0.230000        0.0000           -1   0.00000   0.00000
     52821 MEOH     3551     MEOH     C1       CD33B    2.314100       11.6110           0   -1.00000   1.30000
     52822 MEOH     3551     MEOH     DC1      DRUD    -2.454100        0.4000           0   0.00000   0.00000
     52823 MEOH     3551     MEOH     O1       OD31H    2.488300       15.5990           0   -1.02800   1.30000
     52824 MEOH     3551     MEOH     DO1      DRUD    -2.488300        0.4000           0   0.00000   0.00000
     52825 MEOH     3551     MEOH     HO1      HDP1A    0.360000        1.0080           0   0.00000   0.00000
     52826 MEOH     3551     MEOH     HO2      DUMH     0.000000        1.0080           0   0.00000   0.00000
     52827 MEOH     3551     MEOH     H1A      HDA3B    0.080000        1.0080           0   0.00000   0.00000
     52828 MEOH     3551     MEOH     H1B      HDA3B    0.080000        1.0080           0   0.00000   0.00000
     52829 MEOH     3551     MEOH     H1C      HDA3B    0.080000        1.0080           0   0.00000   0.00000
     52830 MEOH     3551     MEOH     LP1A     LPD     -0.230000        0.0000           -1   0.00000   0.00000
     52831 MEOH     3551     MEOH     LP1B     LPD     -0.230000        0.0000           -1   0.00000   0.00000
     52832 MEOH     3552     MEOH     C1       CD33B    2.314100       11.6110           0   -1.00000   1.30000
     52833 MEOH     3552     MEOH     DC1      DRUD    -2.454100        0.4000           0   0.00000   0.00000
     52834 MEOH     3552     MEOH     O1       OD31H    2.488300       15.5990           0   -1.02800   1.30000
     52835 MEOH     3552     MEOH     DO1      DRUD    -2.488300        0.4000           0   0.00000   0.00000
     52836 MEOH     3552     MEOH     HO1      HDP1A    0.360000        1.0080           0   0.00000   0.00000
     52837 MEOH     3552     MEOH     HO2      DUMH     0.000000        1.0080           0   0.00000   0.00000
     52838 MEOH     3552     MEOH     H1A      HDA3B    0.080000        1.0080           0   0.00000   0.00000
     52839 MEOH     3552     MEOH     H1B      HDA3B    0.080000        1.0080           0   0.00000   0.00000
     52840 MEOH     3552     MEOH     H1C      HDA3B    0.080000        1.0080           0   0.00000   0.00000
     52841 MEOH     3552     MEOH     LP1A     LPD     -0.230000        0.0000           -1   0.00000   0.00000
     52842 MEOH     3552     MEOH     LP1B     LPD     -0.230000        0.0000           -1   0.00000   0.00000
     52843 MEOH     3553     MEOH     C1       CD33B    2.314100       11.6110           0   -1.00000   1.30000
     52844 MEOH     3553     MEOH     DC1      DRUD    -2.454100        0.4000           0   0.00000   0.00000
     52845 MEOH     3553     MEOH     O1       OD31H    2.488300       15.5990           0   -1.02800   1.30000
     52846 MEOH     3553     MEOH     DO1      DRUD    -2.488300        0.4000           0   0.00000   0.00000
     52847 MEOH     3553     MEOH     HO1      HDP1A    0.360000        1.0080           0   0.00000   0.00000
     52848 MEOH     3553     MEOH     HO2      DUMH     0.000000        1.0080           0   0.00000   0.00000
     52849 MEOH     3553     MEOH     H1A      HDA3B    0.080000        1.0080           0   0.00000   0.00000
     52850 MEOH     3553     MEOH     H1B      HDA3B    0.080000        1.0080           0   0.00000   0.00000
     52851 MEOH     3553     MEOH     H1C      HDA3B    0.080000        1.0080           0   0.00000   0.00000
     52852 MEOH     3553     MEOH     LP1A     LPD     -0.230000        0.0000           -1   0.00000   0.00000
     52853 MEOH     3553     MEOH     LP1B     LPD     -0.230000        0.0000           -1   0.00000   0.00000
     52854 MEOH     3554     MEOH     C1       CD33B    2.314100       11.6110           0   -1.00000   1.30000
     52855 MEOH     3554     MEOH     DC1      DRUD    -2.454100        0.4000           0   0.00000   0.00000
     52856 MEOH     3554     MEOH     O1       OD31H    2.488300       15.5990           0   -1.02800   1.30000
     52857 MEOH     3554     MEOH     DO1      DRUD    -2.488300        0.4000           0   0.00000   0.00000
     52858 MEOH     3554     MEOH     HO1      HDP1A    0.360000        1.0080           0   0.00000   0.00000
     52859 MEOH     3554     MEOH     HO2      DUMH     0.000000        1.0080           0   0.00000   0.00000
     52860 MEOH     3554     MEOH     H1A      HDA3B    0.080000        1.0080           0   0.00000   0.00000
     52861 MEOH     3554     MEOH     H1B      HDA3B    0.080000        1.0080           0   0.00000   0.00000
     52862 MEOH     3554     MEOH     H1C      HDA3B    0.080000        1.0080           0   0.00000   0.00000
     52863 MEOH     3554     MEOH     LP1A     LPD     -0.230000        0.0000           -1   0.00000   0.00000
     52864 MEOH     3554     MEOH     LP1B     LPD     -0.230000        0.0000           -1   0.00000   0.00000
     52865 MEOH     3555     MEOH     C1       CD33B    2.314100       11.6110           0   -1.00000   1.30000
     52866 MEOH     3555     MEOH     DC1      DRUD    -2.454100        0.4000           0   0.00000   0.00000
     52867 MEOH     3555     MEOH     O1       OD31H    2.488300       15.5990           0   -1.02800   1.30000
     52868 MEOH     3555     MEOH     DO1      DRUD    -2.488300        0.4000           0   0.00000   0.00000
     52869 MEOH     3555     MEOH     HO1      HDP1A    0.360000        1.0080           0   0.00000   0.00000
     52870 MEOH     3555     MEOH     HO2      DUMH     0.000000        1.0080           0   0.00000   0.00000
     52871 MEOH     3555     MEOH     H1A      HDA3B    0.080000        1.0080           0   0.00000   0.00000
     52872 MEOH     3555     MEOH     H1B      HDA3B    0.080000        1.0080           0   0.00000   0.00000
     52873 MEOH     3555     MEOH     H1C      HDA3B    0.080000        1.0080           0   0.00000   0.00000
     52874 MEOH     3555     MEOH     LP1A     LPD     -0.230000        0.0000           -1   0.00000   0.00000
     52875 MEOH     3555     MEOH     LP1B     LPD     -0.230000        0.0000           -1   0.00000   0.00000
     52876 MEOH     3556     MEOH     C1       CD33B    2.314100       11.6110           0   -1.00000   1.30000
     52877 MEOH     3556     MEOH     DC1      DRUD    -2.454100        0.4000           0   0.00000   0.00000
     52878 MEOH     3556     MEOH     O1       OD31H    2.488300       15.5990           0   -1.02800   1.30000
     52879 MEOH     3556     MEOH     DO1      DRUD    -2.488300        0.4000           0   0.00000   0.00000
     52880 MEOH     3556     MEOH     HO1      HDP1A    0.360000        1.0080           0   0.00000   0.00000
     52881 MEOH     3556     MEOH     HO2      DUMH     0.000000        1.0080           0   0.00000   0.00000
     52882 MEOH     3556     MEOH     H1A      HDA3B    0.080000        1.0080           0   0.00000   0.00000
     52883 MEOH     3556     MEOH     H1B      HDA3B    0.080000        1.0080           0   0.00000   0.00000
     52884 MEOH     3556     MEOH     H1C      HDA3B    0.080000        1.0080           0   0.00000   0.00000
     52885 MEOH     3556     MEOH     LP1A     LPD     -0.230000        0.0000           -1   0.00000   0.00000
     52886 MEOH     3556     MEOH     LP1B     LPD     -0.230000        0.0000           -1   0.00000   0.00000
     52887 MEOH     3557     MEOH     C1       CD33B    2.314100       11.6110           0   -1.00000   1.30000
     52888 MEOH     3557     MEOH     DC1      DRUD    -2.454100        0.4000           0   0.00000   0.00000
     52889 MEOH     3557     MEOH     O1       OD31H    2.488300       15.5990           0   -1.02800   1.30000
     52890 MEOH     3557     MEOH     DO1      DRUD    -2.488300        0.4000           0   0.00000   0.00000
     52891 MEOH     3557     MEOH     HO1      HDP1A    0.360000        1.0080           0   0.00000   0.00000
     52892 MEOH     3557     MEOH     HO2      DUMH     0.000000        1.0080           0   0.00000   0.00000
     52893 MEOH     3557     MEOH     H1A      HDA3B    0.080000        1.0080           0   0.00000   0.00000
     52894 MEOH     3557     MEOH     H1B      HDA3B    0.080000        1.0080           0   0.00000   0.00000
     52895 MEOH     3557     MEOH     H1C      HDA3B    0.080000        1.0080           0   0.00000   0.00000
     52896 MEOH     3557     MEOH     LP1A     LPD     -0.230000        0.0000           -1   0.00000   0.00000
     52897 MEOH     3557     MEOH     LP1B     LPD     -0.230000        0.0000           -1   0.00000   0.00000
     52898 MEOH     3558     MEOH     C1       CD33B    2.314100       11.6110           0   -1.00000   1.30000
     52899 MEOH     3558     MEOH     DC1      DRUD    -2.454100        0.4000           0   0.00000   0.00000
     52900 MEOH     3558     MEOH     O1       OD31H    2.488300       15.5990           0   -1.02800   1.30000
     52901 MEOH     3558     MEOH     DO1      DRUD    -2.488300        0.4000           0   0.00000   0.00000
     52902 MEOH     3558     MEOH     HO1      HDP1A    0.360000        1.0080           0   0.00000   0.00000
     52903 MEOH     3558     MEOH     HO2      DUMH     0.000000        1.0080           0   0.00000   0.00000
     52904 MEOH     3558     MEOH     H1A      HDA3B    0.080000        1.0080           0   0.00000   0.00000
     52905 MEOH     3558     MEOH     H1B      HDA3B    0.080000        1.0080           0   0.00000   0.00000
     52906 MEOH     3558     MEOH     H1C      HDA3B    0.080000        1.0080           0   0.00000   0.00000
     52907 MEOH     3558     MEOH     LP1A     LPD     -0.230000        0.0000           -1   0.00000   0.00000
     52908 MEOH     3558     MEOH     LP1B     LPD     -0.230000        0.0000           -1   0.00000   0.00000
     52909 MEOH     3559     MEOH     C1       CD33B    2.314100       11.6110           0   -1.00000   1.30000
     52910 MEOH     3559     MEOH     DC1      DRUD    -2.454100        0.4000           0   0.00000   0.00000
     52911 MEOH     3559     MEOH     O1       OD31H    2.488300       15.5990           0   -1.02800   1.30000
     52912 MEOH     3559     MEOH     DO1      DRUD    -2.488300        0.4000           0   0.00000   0.00000
     52913 MEOH     3559     MEOH     HO1      HDP1A    0.360000        1.0080           0   0.00000   0.00000
     52914 MEOH     3559     MEOH     HO2      DUMH     0.000000        1.0080           0   0.00000   0.00000
     52915 MEOH     3559     MEOH     H1A      HDA3B    0.080000        1.0080           0   0.00000   0.00000
     52916 MEOH     3559     MEOH     H1B      HDA3B    0.080000        1.0080           0   0.00000   0.00000
     52917 MEOH     3559     MEOH     H1C      HDA3B    0.080000        1.0080           0   0.00000   0.00000
     52918 MEOH     3559     MEOH     LP1A     LPD     -0.230000        0.0000           -1   0.00000   0.00000
     52919 MEOH     3559     MEOH     LP1B     LPD     -0.230000        0.0000           -1   0.00000   0.00000
     52920 MEOH     3560     MEOH     C1       CD33B    2.314100       11.6110           0   -1.00000   1.30000
     52921 MEOH     3560     MEOH     DC1      DRUD    -2.454100        0.4000           0   0.00000   0.00000
     52922 MEOH     3560     MEOH     O1       OD31H    2.488300       15.5990           0   -1.02800   1.30000
     52923 MEOH     3560     MEOH     DO1      DRUD    -2.488300        0.4000           0   0.00000   0.00000
     52924 MEOH     3560     MEOH     HO1      HDP1A    0.360000        1.0080           0   0.00000   0.00000
     52925 MEOH     3560     MEOH     HO2      DUMH     0.000000        1.0080           0   0.00000   0.00000
     52926 MEOH     3560     MEOH     H1A      HDA3B    0.080000        1.0080           0   0.00000   0.00000
     52927 MEOH     3560     MEOH     H1B      HDA3B    0.080000        1.0080           0   0.00000   0.00000
     52928 MEOH     3560     MEOH     H1C      HDA3B    0.080000        1.0080           0   0.00000   0.00000
     52929 MEOH     3560     MEOH     LP1A     LPD     -0.230000        0.0000           -1   0.00000   0.00000
     52930 MEOH     3560     MEOH     LP1B     LPD     -0.230000        0.0000           -1   0.00000   0.00000
     52931 MEOH     3561     MEOH     C1       CD33B    2.314100       11.6110           0   -1.00000   1.30000
     52932 MEOH     3561     MEOH     DC1      DRUD    -2.454100        0.4000           0   0.00000   0.00000
     52933 MEOH     3561     MEOH     O1       OD31H    2.488300       15.5990           0   -1.02800   1.30000
     52934 MEOH     3561     MEOH     DO1      DRUD    -2.488300        0.4000           0   0.00000   0.00000
     52935 MEOH     3561     MEOH     HO1      HDP1A    0.360000        1.0080           0   0.00000   0.00000
     52936 MEOH     3561     MEOH     HO2      DUMH     0.000000        1.0080           0   0.00000   0.00000
     52937 MEOH     3561     MEOH     H1A      HDA3B    0.080000        1.0080           0   0.00000   0.00000
     52938 MEOH     3561     MEOH     H1B      HDA3B    0.080000        1.0080           0   0.00000   0.00000
     52939 MEOH     3561     MEOH     H1C      HDA3B    0.080000        1.0080           0   0.00000   0.00000
     52940 MEOH     3561     MEOH     LP1A     LPD     -0.230000        0.0000           -1   0.00000   0.00000
     52941 MEOH     3561     MEOH     LP1B     LPD     -0.230000        0.0000           -1   0.00000   0.00000
     52942 MEOH     3562     MEOH     C1       CD33B    2.314100       11.6110           0   -1.00000   1.30000
     52943 MEOH     3562     MEOH     DC1      DRUD    -2.454100        0.4000           0   0.00000   0.00000
     52944 MEOH     3562     MEOH     O1       OD31H    2.488300       15.5990           0   -1.02800   1.30000
     52945 MEOH     3562     MEOH     DO1      DRUD    -2.488300        0.4000           0   0.00000   0.00000
     52946 MEOH     3562     MEOH     HO1      HDP1A    0.360000        1.0080           0   0.00000   0.00000
     52947 MEOH     3562     MEOH     HO2      DUMH     0.000000        1.0080           0   0.00000   0.00000
     52948 MEOH     3562     MEOH     H1A      HDA3B    0.080000        1.0080           0   0.00000   0.00000
     52949 MEOH     3562     MEOH     H1B      HDA3B    0.080000        1.0080           0   0.00000   0.00000
     52950 MEOH     3562     MEOH     H1C      HDA3B    0.080000        1.0080           0   0.00000   0.00000
     52951 MEOH     3562     MEOH     LP1A     LPD     -0.230000        0.0000           -1   0.00000   0.00000
     52952 MEOH     3562     MEOH     LP1B     LPD     -0.230000        0.0000           -1   0.00000   0.00000
     52953 MEOH     3563     MEOH     C1       CD33B    2.314100       11.6110           0   -1.00000   1.30000
     52954 MEOH     3563     MEOH     DC1      DRUD    -2.454100        0.4000           0   0.00000   0.00000
     52955 MEOH     3563     MEOH     O1       OD31H    2.488300       15.5990           0   -1.02800   1.30000
     52956 MEOH     3563     MEOH     DO1      DRUD    -2.488300        0.4000           0   0.00000   0.00000
     52957 MEOH     3563     MEOH     HO1      HDP1A    0.360000        1.0080           0   0.00000   0.00000
     52958 MEOH     3563     MEOH     HO2      DUMH     0.000000        1.0080           0   0.00000   0.00000
     52959 MEOH     3563     MEOH     H1A      HDA3B    0.080000        1.0080           0   0.00000   0.00000
     52960 MEOH     3563     MEOH     H1B      HDA3B    0.080000        1.0080           0   0.00000   0.00000
     52961 MEOH     3563     MEOH     H1C      HDA3B    0.080000        1.0080           0   0.00000   0.00000
     52962 MEOH     3563     MEOH     LP1A     LPD     -0.230000        0.0000           -1   0.00000   0.00000
     52963 MEOH     3563     MEOH     LP1B     LPD     -0.230000        0.0000           -1   0.00000   0.00000
     52964 MEOH     3564     MEOH     C1       CD33B    2.314100       11.6110           0   -1.00000   1.30000
     52965 MEOH     3564     MEOH     DC1      DRUD    -2.454100        0.4000           0   0.00000   0.00000
     52966 MEOH     3564     MEOH     O1       OD31H    2.488300       15.5990           0   -1.02800   1.30000
     52967 MEOH     3564     MEOH     DO1      DRUD    -2.488300        0.4000           0   0.00000   0.00000
     52968 MEOH     3564     MEOH     HO1      HDP1A    0.360000        1.0080           0   0.00000   0.00000
     52969 MEOH     3564     MEOH     HO2      DUMH     0.000000        1.0080           0   0.00000   0.00000
     52970 MEOH     3564     MEOH     H1A      HDA3B    0.080000        1.0080           0   0.00000   0.00000
     52971 MEOH     3564     MEOH     H1B      HDA3B    0.080000        1.0080           0   0.00000   0.00000
     52972 MEOH     3564     MEOH     H1C      HDA3B    0.080000        1.0080           0   0.00000   0.00000
     52973 MEOH     3564     MEOH     LP1A     LPD     -0.230000        0.0000           -1   0.00000   0.00000
     52974 MEOH     3564     MEOH     LP1B     LPD     -0.230000        0.0000           -1   0.00000   0.00000
     52975 MEOH     3565     MEOH     C1       CD33B    2.314100       11.6110           0   -1.00000   1.30000
     52976 MEOH     3565     MEOH     DC1      DRUD    -2.454100        0.4000           0   0.00000   0.00000
     52977 MEOH     3565     MEOH     O1       OD31H    2.488300       15.5990           0   -1.02800   1.30000
     52978 MEOH     3565     MEOH     DO1      DRUD    -2.488300        0.4000           0   0.00000   0.00000
     52979 MEOH     3565     MEOH     HO1      HDP1A    0.360000        1.0080           0   0.00000   0.00000
     52980 MEOH     3565     MEOH     HO2      DUMH     0.000000        1.0080           0   0.00000   0.00000
     52981 MEOH     3565     MEOH     H1A      HDA3B    0.080000        1.0080           0   0.00000   0.00000
     52982 MEOH     3565     MEOH     H1B      HDA3B    0.080000        1.0080           0   0.00000   0.00000
     52983 MEOH     3565     MEOH     H1C      HDA3B    0.080000        1.0080           0   0.00000   0.00000
     52984 MEOH     3565     MEOH     LP1A     LPD     -0.230000        0.0000           -1   0.00000   0.00000
     52985 MEOH     3565     MEOH     LP1B     LPD     -0.230000        0.0000           -1   0.00000   0.00000
     52986 MEOH     3566     MEOH     C1       CD33B    2.314100       11.6110           0   -1.00000   1.30000
     52987 MEOH     3566     MEOH     DC1      DRUD    -2.454100        0.4000           0   0.00000   0.00000
     52988 MEOH     3566     MEOH     O1       OD31H    2.488300       15.5990           0   -1.02800   1.30000
     52989 MEOH     3566     MEOH     DO1      DRUD    -2.488300        0.4000           0   0.00000   0.00000
     52990 MEOH     3566     MEOH     HO1      HDP1A    0.360000        1.0080           0   0.00000   0.00000
     52991 MEOH     3566     MEOH     HO2      DUMH     0.000000        1.0080           0   0.00000   0.00000
     52992 MEOH     3566     MEOH     H1A      HDA3B    0.080000        1.0080           0   0.00000   0.00000
     52993 MEOH     3566     MEOH     H1B      HDA3B    0.080000        1.0080           0   0.00000   0.00000
     52994 MEOH     3566     MEOH     H1C      HDA3B    0.080000        1.0080           0   0.00000   0.00000
     52995 MEOH     3566     MEOH     LP1A     LPD     -0.230000        0.0000           -1   0.00000   0.00000
     52996 MEOH     3566     MEOH     LP1B     LPD     -0.230000        0.0000           -1   0.00000   0.00000
     52997 MEOH     3567     MEOH     C1       CD33B    2.314100       11.6110           0   -1.00000   1.30000
     52998 MEOH     3567     MEOH     DC1      DRUD    -2.454100        0.4000           0   0.00000   0.00000
     52999 MEOH     3567     MEOH     O1       OD31H    2.488300       15.5990           0   -1.02800   1.30000
     53000 MEOH     3567     MEOH     DO1      DRUD    -2.488300        0.4000           0   0.00000   0.00000
     53001 MEOH     3567     MEOH     HO1      HDP1A    0.360000        1.0080           0   0.00000   0.00000
     53002 MEOH     3567     MEOH     HO2      DUMH     0.000000        1.0080           0   0.00000   0.00000
     53003 MEOH     3567     MEOH     H1A      HDA3B    0.080000        1.0080           0   0.00000   0.00000
     53004 MEOH     3567     MEOH     H1B      HDA3B    0.080000        1.0080           0   0.00000   0.00000
     53005 MEOH     3567     MEOH     H1C      HDA3B    0.080000        1.0080           0   0.00000   0.00000
     53006 MEOH     3567     MEOH     LP1A     LPD     -0.230000        0.0000           -1   0.00000   0.00000
     53007 MEOH     3567     MEOH     LP1B     LPD     -0.230000        0.0000           -1   0.00000   0.00000
     53008 MEOH     3568     MEOH     C1       CD33B    2.314100       11.6110           0   -1.00000   1.30000
     53009 MEOH     3568     MEOH     DC1      DRUD    -2.454100        0.4000           0   0.00000   0.00000
     53010 MEOH     3568     MEOH     O1       OD31H    2.488300       15.5990           0   -1.02800   1.30000
     53011 MEOH     3568     MEOH     DO1      DRUD    -2.488300        0.4000           0   0.00000   0.00000
     53012 MEOH     3568     MEOH     HO1      HDP1A    0.360000        1.0080           0   0.00000   0.00000
     53013 MEOH     3568     MEOH     HO2      DUMH     0.000000        1.0080           0   0.00000   0.00000
     53014 MEOH     3568     MEOH     H1A      HDA3B    0.080000        1.0080           0   0.00000   0.00000
     53015 MEOH     3568     MEOH     H1B      HDA3B    0.080000        1.0080           0   0.00000   0.00000
     53016 MEOH     3568     MEOH     H1C      HDA3B    0.080000        1.0080           0   0.00000   0.00000
     53017 MEOH     3568     MEOH     LP1A     LPD     -0.230000        0.0000           -1   0.00000   0.00000
     53018 MEOH     3568     MEOH     LP1B     LPD     -0.230000        0.0000           -1   0.00000   0.00000
     53019 MEOH     3569     MEOH     C1       CD33B    2.314100       11.6110           0   -1.00000   1.30000
     53020 MEOH     3569     MEOH     DC1      DRUD    -2.454100        0.4000           0   0.00000   0.00000
     53021 MEOH     3569     MEOH     O1       OD31H    2.488300       15.5990           0   -1.02800   1.30000
     53022 MEOH     3569     MEOH     DO1      DRUD    -2.488300        0.4000           0   0.00000   0.00000
     53023 MEOH     3569     MEOH     HO1      HDP1A    0.360000        1.0080           0   0.00000   0.00000
     53024 MEOH     3569     MEOH     HO2      DUMH     0.000000        1.0080           0   0.00000   0.00000
     53025 MEOH     3569     MEOH     H1A      HDA3B    0.080000        1.0080           0   0.00000   0.00000
     53026 MEOH     3569     MEOH     H1B      HDA3B    0.080000        1.0080           0   0.00000   0.00000
     53027 MEOH     3569     MEOH     H1C      HDA3B    0.080000        1.0080           0   0.00000   0.00000
     53028 MEOH     3569     MEOH     LP1A     LPD     -0.230000        0.0000           -1   0.00000   0.00000
     53029 MEOH     3569     MEOH     LP1B     LPD     -0.230000        0.0000           -1   0.00000   0.00000
     53030 MEOH     3570     MEOH     C1       CD33B    2.314100       11.6110           0   -1.00000   1.30000
     53031 MEOH     3570     MEOH     DC1      DRUD    -2.454100        0.4000           0   0.00000   0.00000
     53032 MEOH     3570     MEOH     O1       OD31H    2.488300       15.5990           0   -1.02800   1.30000
     53033 MEOH     3570     MEOH     DO1      DRUD    -2.488300        0.4000           0   0.00000   0.00000
     53034 MEOH     3570     MEOH     HO1      HDP1A    0.360000        1.0080           0   0.00000   0.00000
     53035 MEOH     3570     MEOH     HO2      DUMH     0.000000        1.0080           0   0.00000   0.00000
     53036 MEOH     3570     MEOH     H1A      HDA3B    0.080000        1.0080           0   0.00000   0.00000
     53037 MEOH     3570     MEOH     H1B      HDA3B    0.080000        1.0080           0   0.00000   0.00000
     53038 MEOH     3570     MEOH     H1C      HDA3B    0.080000        1.0080           0   0.00000   0.00000
     53039 MEOH     3570     MEOH     LP1A     LPD     -0.230000        0.0000           -1   0.00000   0.00000
     53040 MEOH     3570     MEOH     LP1B     LPD     -0.230000        0.0000           -1   0.00000   0.00000
     53041 MEOH     3571     MEOH     C1       CD33B    2.314100       11.6110           0   -1.00000   1.30000
     53042 MEOH     3571     MEOH     DC1      DRUD    -2.454100        0.4000           0   0.00000   0.00000
     53043 MEOH     3571     MEOH     O1       OD31H    2.488300       15.5990           0   -1.02800   1.30000
     53044 MEOH     3571     MEOH     DO1      DRUD    -2.488300        0.4000           0   0.00000   0.00000
     53045 MEOH     3571     MEOH     HO1      HDP1A    0.360000        1.0080           0   0.00000   0.00000
     53046 MEOH     3571     MEOH     HO2      DUMH     0.000000        1.0080           0   0.00000   0.00000
     53047 MEOH     3571     MEOH     H1A      HDA3B    0.080000        1.0080           0   0.00000   0.00000
     53048 MEOH     3571     MEOH     H1B      HDA3B    0.080000        1.0080           0   0.00000   0.00000
     53049 MEOH     3571     MEOH     H1C      HDA3B    0.080000        1.0080           0   0.00000   0.00000
     53050 MEOH     3571     MEOH     LP1A     LPD     -0.230000        0.0000           -1   0.00000   0.00000
     53051 MEOH     3571     MEOH     LP1B     LPD     -0.230000        0.0000           -1   0.00000   0.00000
     53052 MEOH     3572     MEOH     C1       CD33B    2.314100       11.6110           0   -1.00000   1.30000
     53053 MEOH     3572     MEOH     DC1      DRUD    -2.454100        0.4000           0   0.00000   0.00000
     53054 MEOH     3572     MEOH     O1       OD31H    2.488300       15.5990           0   -1.02800   1.30000
     53055 MEOH     3572     MEOH     DO1      DRUD    -2.488300        0.4000           0   0.00000   0.00000
     53056 MEOH     3572     MEOH     HO1      HDP1A    0.360000        1.0080           0   0.00000   0.00000
     53057 MEOH     3572     MEOH     HO2      DUMH     0.000000        1.0080           0   0.00000   0.00000
     53058 MEOH     3572     MEOH     H1A      HDA3B    0.080000        1.0080           0   0.00000   0.00000
     53059 MEOH     3572     MEOH     H1B      HDA3B    0.080000        1.0080           0   0.00000   0.00000
     53060 MEOH     3572     MEOH     H1C      HDA3B    0.080000        1.0080           0   0.00000   0.00000
     53061 MEOH     3572     MEOH     LP1A     LPD     -0.230000        0.0000           -1   0.00000   0.00000
     53062 MEOH     3572     MEOH     LP1B     LPD     -0.230000        0.0000           -1   0.00000   0.00000
     53063 MEOH     3573     MEOH     C1       CD33B    2.314100       11.6110           0   -1.00000   1.30000
     53064 MEOH     3573     MEOH     DC1      DRUD    -2.454100        0.4000           0   0.00000   0.00000
     53065 MEOH     3573     MEOH     O1       OD31H    2.488300       15.5990           0   -1.02800   1.30000
     53066 MEOH     3573     MEOH     DO1      DRUD    -2.488300        0.4000           0   0.00000   0.00000
     53067 MEOH     3573     MEOH     HO1      HDP1A    0.360000        1.0080           0   0.00000   0.00000
     53068 MEOH     3573     MEOH     HO2      DUMH     0.000000        1.0080           0   0.00000   0.00000
     53069 MEOH     3573     MEOH     H1A      HDA3B    0.080000        1.0080           0   0.00000   0.00000
     53070 MEOH     3573     MEOH     H1B      HDA3B    0.080000        1.0080           0   0.00000   0.00000
     53071 MEOH     3573     MEOH     H1C      HDA3B    0.080000        1.0080           0   0.00000   0.00000
     53072 MEOH     3573     MEOH     LP1A     LPD     -0.230000        0.0000           -1   0.00000   0.00000
     53073 MEOH     3573     MEOH     LP1B     LPD     -0.230000        0.0000           -1   0.00000   0.00000
     53074 MEOH     3574     MEOH     C1       CD33B    2.314100       11.6110           0   -1.00000   1.30000
     53075 MEOH     3574     MEOH     DC1      DRUD    -2.454100        0.4000           0   0.00000   0.00000
     53076 MEOH     3574     MEOH     O1       OD31H    2.488300       15.5990           0   -1.02800   1.30000
     53077 MEOH     3574     MEOH     DO1      DRUD    -2.488300        0.4000           0   0.00000   0.00000
     53078 MEOH     3574     MEOH     HO1      HDP1A    0.360000        1.0080           0   0.00000   0.00000
     53079 MEOH     3574     MEOH     HO2      DUMH     0.000000        1.0080           0   0.00000   0.00000
     53080 MEOH     3574     MEOH     H1A      HDA3B    0.080000        1.0080           0   0.00000   0.00000
     53081 MEOH     3574     MEOH     H1B      HDA3B    0.080000        1.0080           0   0.00000   0.00000
     53082 MEOH     3574     MEOH     H1C      HDA3B    0.080000        1.0080           0   0.00000   0.00000
     53083 MEOH     3574     MEOH     LP1A     LPD     -0.230000        0.0000           -1   0.00000   0.00000
     53084 MEOH     3574     MEOH     LP1B     LPD     -0.230000        0.0000           -1   0.00000   0.00000
     53085 MEOH     3575     MEOH     C1       CD33B    2.314100       11.6110           0   -1.00000   1.30000
     53086 MEOH     3575     MEOH     DC1      DRUD    -2.454100        0.4000           0   0.00000   0.00000
     53087 MEOH     3575     MEOH     O1       OD31H    2.488300       15.5990           0   -1.02800   1.30000
     53088 MEOH     3575     MEOH     DO1      DRUD    -2.488300        0.4000           0   0.00000   0.00000
     53089 MEOH     3575     MEOH     HO1      HDP1A    0.360000        1.0080           0   0.00000   0.00000
     53090 MEOH     3575     MEOH     HO2      DUMH     0.000000        1.0080           0   0.00000   0.00000
     53091 MEOH     3575     MEOH     H1A      HDA3B    0.080000        1.0080           0   0.00000   0.00000
     53092 MEOH     3575     MEOH     H1B      HDA3B    0.080000        1.0080           0   0.00000   0.00000
     53093 MEOH     3575     MEOH     H1C      HDA3B    0.080000        1.0080           0   0.00000   0.00000
     53094 MEOH     3575     MEOH     LP1A     LPD     -0.230000        0.0000           -1   0.00000   0.00000
     53095 MEOH     3575     MEOH     LP1B     LPD     -0.230000        0.0000           -1   0.00000   0.00000
     53096 MEOH     3576     MEOH     C1       CD33B    2.314100       11.6110           0   -1.00000   1.30000
     53097 MEOH     3576     MEOH     DC1      DRUD    -2.454100        0.4000           0   0.00000   0.00000
     53098 MEOH     3576     MEOH     O1       OD31H    2.488300       15.5990           0   -1.02800   1.30000
     53099 MEOH     3576     MEOH     DO1      DRUD    -2.488300        0.4000           0   0.00000   0.00000
     53100 MEOH     3576     MEOH     HO1      HDP1A    0.360000        1.0080           0   0.00000   0.00000
     53101 MEOH     3576     MEOH     HO2      DUMH     0.000000        1.0080           0   0.00000   0.00000
     53102 MEOH     3576     MEOH     H1A      HDA3B    0.080000        1.0080           0   0.00000   0.00000
     53103 MEOH     3576     MEOH     H1B      HDA3B    0.080000        1.0080           0   0.00000   0.00000
     53104 MEOH     3576     MEOH     H1C      HDA3B    0.080000        1.0080           0   0.00000   0.00000
     53105 MEOH     3576     MEOH     LP1A     LPD     -0.230000        0.0000           -1   0.00000   0.00000
     53106 MEOH     3576     MEOH     LP1B     LPD     -0.230000        0.0000           -1   0.00000   0.00000
     53107 MEOH     3577     MEOH     C1       CD33B    2.314100       11.6110           0   -1.00000   1.30000
     53108 MEOH     3577     MEOH     DC1      DRUD    -2.454100        0.4000           0   0.00000   0.00000
     53109 MEOH     3577     MEOH     O1       OD31H    2.488300       15.5990           0   -1.02800   1.30000
     53110 MEOH     3577     MEOH     DO1      DRUD    -2.488300        0.4000           0   0.00000   0.00000
     53111 MEOH     3577     MEOH     HO1      HDP1A    0.360000        1.0080           0   0.00000   0.00000
     53112 MEOH     3577     MEOH     HO2      DUMH     0.000000        1.0080           0   0.00000   0.00000
     53113 MEOH     3577     MEOH     H1A      HDA3B    0.080000        1.0080           0   0.00000   0.00000
     53114 MEOH     3577     MEOH     H1B      HDA3B    0.080000        1.0080           0   0.00000   0.00000
     53115 MEOH     3577     MEOH     H1C      HDA3B    0.080000        1.0080           0   0.00000   0.00000
     53116 MEOH     3577     MEOH     LP1A     LPD     -0.230000        0.0000           -1   0.00000   0.00000
     53117 MEOH     3577     MEOH     LP1B     LPD     -0.230000        0.0000           -1   0.00000   0.00000
     53118 MEOH     3578     MEOH     C1       CD33B    2.314100       11.6110           0   -1.00000   1.30000
     53119 MEOH     3578     MEOH     DC1      DRUD    -2.454100        0.4000           0   0.00000   0.00000
     53120 MEOH     3578     MEOH     O1       OD31H    2.488300       15.5990           0   -1.02800   1.30000
     53121 MEOH     3578     MEOH     DO1      DRUD    -2.488300        0.4000           0   0.00000   0.00000
     53122 MEOH     3578     MEOH     HO1      HDP1A    0.360000        1.0080           0   0.00000   0.00000
     53123 MEOH     3578     MEOH     HO2      DUMH     0.000000        1.0080           0   0.00000   0.00000
     53124 MEOH     3578     MEOH     H1A      HDA3B    0.080000        1.0080           0   0.00000   0.00000
     53125 MEOH     3578     MEOH     H1B      HDA3B    0.080000        1.0080           0   0.00000   0.00000
     53126 MEOH     3578     MEOH     H1C      HDA3B    0.080000        1.0080           0   0.00000   0.00000
     53127 MEOH     3578     MEOH     LP1A     LPD     -0.230000        0.0000           -1   0.00000   0.00000
     53128 MEOH     3578     MEOH     LP1B     LPD     -0.230000        0.0000           -1   0.00000   0.00000
     53129 MEOH     3579     MEOH     C1       CD33B    2.314100       11.6110           0   -1.00000   1.30000
     53130 MEOH     3579     MEOH     DC1      DRUD    -2.454100        0.4000           0   0.00000   0.00000
     53131 MEOH     3579     MEOH     O1       OD31H    2.488300       15.5990           0   -1.02800   1.30000
     53132 MEOH     3579     MEOH     DO1      DRUD    -2.488300        0.4000           0   0.00000   0.00000
     53133 MEOH     3579     MEOH     HO1      HDP1A    0.360000        1.0080           0   0.00000   0.00000
     53134 MEOH     3579     MEOH     HO2      DUMH     0.000000        1.0080           0   0.00000   0.00000
     53135 MEOH     3579     MEOH     H1A      HDA3B    0.080000        1.0080           0   0.00000   0.00000
     53136 MEOH     3579     MEOH     H1B      HDA3B    0.080000        1.0080           0   0.00000   0.00000
     53137 MEOH     3579     MEOH     H1C      HDA3B    0.080000        1.0080           0   0.00000   0.00000
     53138 MEOH     3579     MEOH     LP1A     LPD     -0.230000        0.0000           -1   0.00000   0.00000
     53139 MEOH     3579     MEOH     LP1B     LPD     -0.230000        0.0000           -1   0.00000   0.00000
     53140 MEOH     3580     MEOH     C1       CD33B    2.314100       11.6110           0   -1.00000   1.30000
     53141 MEOH     3580     MEOH     DC1      DRUD    -2.454100        0.4000           0   0.00000   0.00000
     53142 MEOH     3580     MEOH     O1       OD31H    2.488300       15.5990           0   -1.02800   1.30000
     53143 MEOH     3580     MEOH     DO1      DRUD    -2.488300        0.4000           0   0.00000   0.00000
     53144 MEOH     3580     MEOH     HO1      HDP1A    0.360000        1.0080           0   0.00000   0.00000
     53145 MEOH     3580     MEOH     HO2      DUMH     0.000000        1.0080           0   0.00000   0.00000
     53146 MEOH     3580     MEOH     H1A      HDA3B    0.080000        1.0080           0   0.00000   0.00000
     53147 MEOH     3580     MEOH     H1B      HDA3B    0.080000        1.0080           0   0.00000   0.00000
     53148 MEOH     3580     MEOH     H1C      HDA3B    0.080000        1.0080           0   0.00000   0.00000
     53149 MEOH     3580     MEOH     LP1A     LPD     -0.230000        0.0000           -1   0.00000   0.00000
     53150 MEOH     3580     MEOH     LP1B     LPD     -0.230000        0.0000           -1   0.00000   0.00000
     53151 MEOH     3581     MEOH     C1       CD33B    2.314100       11.6110           0   -1.00000   1.30000
     53152 MEOH     3581     MEOH     DC1      DRUD    -2.454100        0.4000           0   0.00000   0.00000
     53153 MEOH     3581     MEOH     O1       OD31H    2.488300       15.5990           0   -1.02800   1.30000
     53154 MEOH     3581     MEOH     DO1      DRUD    -2.488300        0.4000           0   0.00000   0.00000
     53155 MEOH     3581     MEOH     HO1      HDP1A    0.360000        1.0080           0   0.00000   0.00000
     53156 MEOH     3581     MEOH     HO2      DUMH     0.000000        1.0080           0   0.00000   0.00000
     53157 MEOH     3581     MEOH     H1A      HDA3B    0.080000        1.0080           0   0.00000   0.00000
     53158 MEOH     3581     MEOH     H1B      HDA3B    0.080000        1.0080           0   0.00000   0.00000
     53159 MEOH     3581     MEOH     H1C      HDA3B    0.080000        1.0080           0   0.00000   0.00000
     53160 MEOH     3581     MEOH     LP1A     LPD     -0.230000        0.0000           -1   0.00000   0.00000
     53161 MEOH     3581     MEOH     LP1B     LPD     -0.230000        0.0000           -1   0.00000   0.00000
     53162 MEOH     3582     MEOH     C1       CD33B    2.314100       11.6110           0   -1.00000   1.30000
     53163 MEOH     3582     MEOH     DC1      DRUD    -2.454100        0.4000           0   0.00000   0.00000
     53164 MEOH     3582     MEOH     O1       OD31H    2.488300       15.5990           0   -1.02800   1.30000
     53165 MEOH     3582     MEOH     DO1      DRUD    -2.488300        0.4000           0   0.00000   0.00000
     53166 MEOH     3582     MEOH     HO1      HDP1A    0.360000        1.0080           0   0.00000   0.00000
     53167 MEOH     3582     MEOH     HO2      DUMH     0.000000        1.0080           0   0.00000   0.00000
     53168 MEOH     3582     MEOH     H1A      HDA3B    0.080000        1.0080           0   0.00000   0.00000
     53169 MEOH     3582     MEOH     H1B      HDA3B    0.080000        1.0080           0   0.00000   0.00000
     53170 MEOH     3582     MEOH     H1C      HDA3B    0.080000        1.0080           0   0.00000   0.00000
     53171 MEOH     3582     MEOH     LP1A     LPD     -0.230000        0.0000           -1   0.00000   0.00000
     53172 MEOH     3582     MEOH     LP1B     LPD     -0.230000        0.0000           -1   0.00000   0.00000
     53173 MEOH     3583     MEOH     C1       CD33B    2.314100       11.6110           0   -1.00000   1.30000
     53174 MEOH     3583     MEOH     DC1      DRUD    -2.454100        0.4000           0   0.00000   0.00000
     53175 MEOH     3583     MEOH     O1       OD31H    2.488300       15.5990           0   -1.02800   1.30000
     53176 MEOH     3583     MEOH     DO1      DRUD    -2.488300        0.4000           0   0.00000   0.00000
     53177 MEOH     3583     MEOH     HO1      HDP1A    0.360000        1.0080           0   0.00000   0.00000
     53178 MEOH     3583     MEOH     HO2      DUMH     0.000000        1.0080           0   0.00000   0.00000
     53179 MEOH     3583     MEOH     H1A      HDA3B    0.080000        1.0080           0   0.00000   0.00000
     53180 MEOH     3583     MEOH     H1B      HDA3B    0.080000        1.0080           0   0.00000   0.00000
     53181 MEOH     3583     MEOH     H1C      HDA3B    0.080000        1.0080           0   0.00000   0.00000
     53182 MEOH     3583     MEOH     LP1A     LPD     -0.230000        0.0000           -1   0.00000   0.00000
     53183 MEOH     3583     MEOH     LP1B     LPD     -0.230000        0.0000           -1   0.00000   0.00000
     53184 MEOH     3584     MEOH     C1       CD33B    2.314100       11.6110           0   -1.00000   1.30000
     53185 MEOH     3584     MEOH     DC1      DRUD    -2.454100        0.4000           0   0.00000   0.00000
     53186 MEOH     3584     MEOH     O1       OD31H    2.488300       15.5990           0   -1.02800   1.30000
     53187 MEOH     3584     MEOH     DO1      DRUD    -2.488300        0.4000           0   0.00000   0.00000
     53188 MEOH     3584     MEOH     HO1      HDP1A    0.360000        1.0080           0   0.00000   0.00000
     53189 MEOH     3584     MEOH     HO2      DUMH     0.000000        1.0080           0   0.00000   0.00000
     53190 MEOH     3584     MEOH     H1A      HDA3B    0.080000        1.0080           0   0.00000   0.00000
     53191 MEOH     3584     MEOH     H1B      HDA3B    0.080000        1.0080           0   0.00000   0.00000
     53192 MEOH     3584     MEOH     H1C      HDA3B    0.080000        1.0080           0   0.00000   0.00000
     53193 MEOH     3584     MEOH     LP1A     LPD     -0.230000        0.0000           -1   0.00000   0.00000
     53194 MEOH     3584     MEOH     LP1B     LPD     -0.230000        0.0000           -1   0.00000   0.00000
     53195 MEOH     3585     MEOH     C1       CD33B    2.314100       11.6110           0   -1.00000   1.30000
     53196 MEOH     3585     MEOH     DC1      DRUD    -2.454100        0.4000           0   0.00000   0.00000
     53197 MEOH     3585     MEOH     O1       OD31H    2.488300       15.5990           0   -1.02800   1.30000
     53198 MEOH     3585     MEOH     DO1      DRUD    -2.488300        0.4000           0   0.00000   0.00000
     53199 MEOH     3585     MEOH     HO1      HDP1A    0.360000        1.0080           0   0.00000   0.00000
     53200 MEOH     3585     MEOH     HO2      DUMH     0.000000        1.0080           0   0.00000   0.00000
     53201 MEOH     3585     MEOH     H1A      HDA3B    0.080000        1.0080           0   0.00000   0.00000
     53202 MEOH     3585     MEOH     H1B      HDA3B    0.080000        1.0080           0   0.00000   0.00000
     53203 MEOH     3585     MEOH     H1C      HDA3B    0.080000        1.0080           0   0.00000   0.00000
     53204 MEOH     3585     MEOH     LP1A     LPD     -0.230000        0.0000           -1   0.00000   0.00000
     53205 MEOH     3585     MEOH     LP1B     LPD     -0.230000        0.0000           -1   0.00000   0.00000
     53206 MEOH     3586     MEOH     C1       CD33B    2.314100       11.6110           0   -1.00000   1.30000
     53207 MEOH     3586     MEOH     DC1      DRUD    -2.454100        0.4000           0   0.00000   0.00000
     53208 MEOH     3586     MEOH     O1       OD31H    2.488300       15.5990           0   -1.02800   1.30000
     53209 MEOH     3586     MEOH     DO1      DRUD    -2.488300        0.4000           0   0.00000   0.00000
     53210 MEOH     3586     MEOH     HO1      HDP1A    0.360000        1.0080           0   0.00000   0.00000
     53211 MEOH     3586     MEOH     HO2      DUMH     0.000000        1.0080           0   0.00000   0.00000
     53212 MEOH     3586     MEOH     H1A      HDA3B    0.080000        1.0080           0   0.00000   0.00000
     53213 MEOH     3586     MEOH     H1B      HDA3B    0.080000        1.0080           0   0.00000   0.00000
     53214 MEOH     3586     MEOH     H1C      HDA3B    0.080000        1.0080           0   0.00000   0.00000
     53215 MEOH     3586     MEOH     LP1A     LPD     -0.230000        0.0000           -1   0.00000   0.00000
     53216 MEOH     3586     MEOH     LP1B     LPD     -0.230000        0.0000           -1   0.00000   0.00000
     53217 MEOH     3587     MEOH     C1       CD33B    2.314100       11.6110           0   -1.00000   1.30000
     53218 MEOH     3587     MEOH     DC1      DRUD    -2.454100        0.4000           0   0.00000   0.00000
     53219 MEOH     3587     MEOH     O1       OD31H    2.488300       15.5990           0   -1.02800   1.30000
     53220 MEOH     3587     MEOH     DO1      DRUD    -2.488300        0.4000           0   0.00000   0.00000
     53221 MEOH     3587     MEOH     HO1      HDP1A    0.360000        1.0080           0   0.00000   0.00000
     53222 MEOH     3587     MEOH     HO2      DUMH     0.000000        1.0080           0   0.00000   0.00000
     53223 MEOH     3587     MEOH     H1A      HDA3B    0.080000        1.0080           0   0.00000   0.00000
     53224 MEOH     3587     MEOH     H1B      HDA3B    0.080000        1.0080           0   0.00000   0.00000
     53225 MEOH     3587     MEOH     H1C      HDA3B    0.080000        1.0080           0   0.00000   0.00000
     53226 MEOH     3587     MEOH     LP1A     LPD     -0.230000        0.0000           -1   0.00000   0.00000
     53227 MEOH     3587     MEOH     LP1B     LPD     -0.230000        0.0000           -1   0.00000   0.00000
     53228 MEOH     3588     MEOH     C1       CD33B    2.314100       11.6110           0   -1.00000   1.30000
     53229 MEOH     3588     MEOH     DC1      DRUD    -2.454100        0.4000           0   0.00000   0.00000
     53230 MEOH     3588     MEOH     O1       OD31H    2.488300       15.5990           0   -1.02800   1.30000
     53231 MEOH     3588     MEOH     DO1      DRUD    -2.488300        0.4000           0   0.00000   0.00000
     53232 MEOH     3588     MEOH     HO1      HDP1A    0.360000        1.0080           0   0.00000   0.00000
     53233 MEOH     3588     MEOH     HO2      DUMH     0.000000        1.0080           0   0.00000   0.00000
     53234 MEOH     3588     MEOH     H1A      HDA3B    0.080000        1.0080           0   0.00000   0.00000
     53235 MEOH     3588     MEOH     H1B      HDA3B    0.080000        1.0080           0   0.00000   0.00000
     53236 MEOH     3588     MEOH     H1C      HDA3B    0.080000        1.0080           0   0.00000   0.00000
     53237 MEOH     3588     MEOH     LP1A     LPD     -0.230000        0.0000           -1   0.00000   0.00000
     53238 MEOH     3588     MEOH     LP1B     LPD     -0.230000        0.0000           -1   0.00000   0.00000
     53239 MEOH     3589     MEOH     C1       CD33B    2.314100       11.6110           0   -1.00000   1.30000
     53240 MEOH     3589     MEOH     DC1      DRUD    -2.454100        0.4000           0   0.00000   0.00000
     53241 MEOH     3589     MEOH     O1       OD31H    2.488300       15.5990           0   -1.02800   1.30000
     53242 MEOH     3589     MEOH     DO1      DRUD    -2.488300        0.4000           0   0.00000   0.00000
     53243 MEOH     3589     MEOH     HO1      HDP1A    0.360000        1.0080           0   0.00000   0.00000
     53244 MEOH     3589     MEOH     HO2      DUMH     0.000000        1.0080           0   0.00000   0.00000
     53245 MEOH     3589     MEOH     H1A      HDA3B    0.080000        1.0080           0   0.00000   0.00000
     53246 MEOH     3589     MEOH     H1B      HDA3B    0.080000        1.0080           0   0.00000   0.00000
     53247 MEOH     3589     MEOH     H1C      HDA3B    0.080000        1.0080           0   0.00000   0.00000
     53248 MEOH     3589     MEOH     LP1A     LPD     -0.230000        0.0000           -1   0.00000   0.00000
     53249 MEOH     3589     MEOH     LP1B     LPD     -0.230000        0.0000           -1   0.00000   0.00000
     53250 MEOH     3590     MEOH     C1       CD33B    2.314100       11.6110           0   -1.00000   1.30000
     53251 MEOH     3590     MEOH     DC1      DRUD    -2.454100        0.4000           0   0.00000   0.00000
     53252 MEOH     3590     MEOH     O1       OD31H    2.488300       15.5990           0   -1.02800   1.30000
     53253 MEOH     3590     MEOH     DO1      DRUD    -2.488300        0.4000           0   0.00000   0.00000
     53254 MEOH     3590     MEOH     HO1      HDP1A    0.360000        1.0080           0   0.00000   0.00000
     53255 MEOH     3590     MEOH     HO2      DUMH     0.000000        1.0080           0   0.00000   0.00000
     53256 MEOH     3590     MEOH     H1A      HDA3B    0.080000        1.0080           0   0.00000   0.00000
     53257 MEOH     3590     MEOH     H1B      HDA3B    0.080000        1.0080           0   0.00000   0.00000
     53258 MEOH     3590     MEOH     H1C      HDA3B    0.080000        1.0080           0   0.00000   0.00000
     53259 MEOH     3590     MEOH     LP1A     LPD     -0.230000        0.0000           -1   0.00000   0.00000
     53260 MEOH     3590     MEOH     LP1B     LPD     -0.230000        0.0000           -1   0.00000   0.00000
     53261 MEOH     3591     MEOH     C1       CD33B    2.314100       11.6110           0   -1.00000   1.30000
     53262 MEOH     3591     MEOH     DC1      DRUD    -2.454100        0.4000           0   0.00000   0.00000
     53263 MEOH     3591     MEOH     O1       OD31H    2.488300       15.5990           0   -1.02800   1.30000
     53264 MEOH     3591     MEOH     DO1      DRUD    -2.488300        0.4000           0   0.00000   0.00000
     53265 MEOH     3591     MEOH     HO1      HDP1A    0.360000        1.0080           0   0.00000   0.00000
     53266 MEOH     3591     MEOH     HO2      DUMH     0.000000        1.0080           0   0.00000   0.00000
     53267 MEOH     3591     MEOH     H1A      HDA3B    0.080000        1.0080           0   0.00000   0.00000
     53268 MEOH     3591     MEOH     H1B      HDA3B    0.080000        1.0080           0   0.00000   0.00000
     53269 MEOH     3591     MEOH     H1C      HDA3B    0.080000        1.0080           0   0.00000   0.00000
     53270 MEOH     3591     MEOH     LP1A     LPD     -0.230000        0.0000           -1   0.00000   0.00000
     53271 MEOH     3591     MEOH     LP1B     LPD     -0.230000        0.0000           -1   0.00000   0.00000
     53272 MEOH     3592     MEOH     C1       CD33B    2.314100       11.6110           0   -1.00000   1.30000
     53273 MEOH     3592     MEOH     DC1      DRUD    -2.454100        0.4000           0   0.00000   0.00000
     53274 MEOH     3592     MEOH     O1       OD31H    2.488300       15.5990           0   -1.02800   1.30000
     53275 MEOH     3592     MEOH     DO1      DRUD    -2.488300        0.4000           0   0.00000   0.00000
     53276 MEOH     3592     MEOH     HO1      HDP1A    0.360000        1.0080           0   0.00000   0.00000
     53277 MEOH     3592     MEOH     HO2      DUMH     0.000000        1.0080           0   0.00000   0.00000
     53278 MEOH     3592     MEOH     H1A      HDA3B    0.080000        1.0080           0   0.00000   0.00000
     53279 MEOH     3592     MEOH     H1B      HDA3B    0.080000        1.0080           0   0.00000   0.00000
     53280 MEOH     3592     MEOH     H1C      HDA3B    0.080000        1.0080           0   0.00000   0.00000
     53281 MEOH     3592     MEOH     LP1A     LPD     -0.230000        0.0000           -1   0.00000   0.00000
     53282 MEOH     3592     MEOH     LP1B     LPD     -0.230000        0.0000           -1   0.00000   0.00000
     53283 MEOH     3593     MEOH     C1       CD33B    2.314100       11.6110           0   -1.00000   1.30000
     53284 MEOH     3593     MEOH     DC1      DRUD    -2.454100        0.4000           0   0.00000   0.00000
     53285 MEOH     3593     MEOH     O1       OD31H    2.488300       15.5990           0   -1.02800   1.30000
     53286 MEOH     3593     MEOH     DO1      DRUD    -2.488300        0.4000           0   0.00000   0.00000
     53287 MEOH     3593     MEOH     HO1      HDP1A    0.360000        1.0080           0   0.00000   0.00000
     53288 MEOH     3593     MEOH     HO2      DUMH     0.000000        1.0080           0   0.00000   0.00000
     53289 MEOH     3593     MEOH     H1A      HDA3B    0.080000        1.0080           0   0.00000   0.00000
     53290 MEOH     3593     MEOH     H1B      HDA3B    0.080000        1.0080           0   0.00000   0.00000
     53291 MEOH     3593     MEOH     H1C      HDA3B    0.080000        1.0080           0   0.00000   0.00000
     53292 MEOH     3593     MEOH     LP1A     LPD     -0.230000        0.0000           -1   0.00000   0.00000
     53293 MEOH     3593     MEOH     LP1B     LPD     -0.230000        0.0000           -1   0.00000   0.00000
     53294 MEOH     3594     MEOH     C1       CD33B    2.314100       11.6110           0   -1.00000   1.30000
     53295 MEOH     3594     MEOH     DC1      DRUD    -2.454100        0.4000           0   0.00000   0.00000
     53296 MEOH     3594     MEOH     O1       OD31H    2.488300       15.5990           0   -1.02800   1.30000
     53297 MEOH     3594     MEOH     DO1      DRUD    -2.488300        0.4000           0   0.00000   0.00000
     53298 MEOH     3594     MEOH     HO1      HDP1A    0.360000        1.0080           0   0.00000   0.00000
     53299 MEOH     3594     MEOH     HO2      DUMH     0.000000        1.0080           0   0.00000   0.00000
     53300 MEOH     3594     MEOH     H1A      HDA3B    0.080000        1.0080           0   0.00000   0.00000
     53301 MEOH     3594     MEOH     H1B      HDA3B    0.080000        1.0080           0   0.00000   0.00000
     53302 MEOH     3594     MEOH     H1C      HDA3B    0.080000        1.0080           0   0.00000   0.00000
     53303 MEOH     3594     MEOH     LP1A     LPD     -0.230000        0.0000           -1   0.00000   0.00000
     53304 MEOH     3594     MEOH     LP1B     LPD     -0.230000        0.0000           -1   0.00000   0.00000
     53305 MEOH     3595     MEOH     C1       CD33B    2.314100       11.6110           0   -1.00000   1.30000
     53306 MEOH     3595     MEOH     DC1      DRUD    -2.454100        0.4000           0   0.00000   0.00000
     53307 MEOH     3595     MEOH     O1       OD31H    2.488300       15.5990           0   -1.02800   1.30000
     53308 MEOH     3595     MEOH     DO1      DRUD    -2.488300        0.4000           0   0.00000   0.00000
     53309 MEOH     3595     MEOH     HO1      HDP1A    0.360000        1.0080           0   0.00000   0.00000
     53310 MEOH     3595     MEOH     HO2      DUMH     0.000000        1.0080           0   0.00000   0.00000
     53311 MEOH     3595     MEOH     H1A      HDA3B    0.080000        1.0080           0   0.00000   0.00000
     53312 MEOH     3595     MEOH     H1B      HDA3B    0.080000        1.0080           0   0.00000   0.00000
     53313 MEOH     3595     MEOH     H1C      HDA3B    0.080000        1.0080           0   0.00000   0.00000
     53314 MEOH     3595     MEOH     LP1A     LPD     -0.230000        0.0000           -1   0.00000   0.00000
     53315 MEOH     3595     MEOH     LP1B     LPD     -0.230000        0.0000           -1   0.00000   0.00000
     53316 MEOH     3596     MEOH     C1       CD33B    2.314100       11.6110           0   -1.00000   1.30000
     53317 MEOH     3596     MEOH     DC1      DRUD    -2.454100        0.4000           0   0.00000   0.00000
     53318 MEOH     3596     MEOH     O1       OD31H    2.488300       15.5990           0   -1.02800   1.30000
     53319 MEOH     3596     MEOH     DO1      DRUD    -2.488300        0.4000           0   0.00000   0.00000
     53320 MEOH     3596     MEOH     HO1      HDP1A    0.360000        1.0080           0   0.00000   0.00000
     53321 MEOH     3596     MEOH     HO2      DUMH     0.000000        1.0080           0   0.00000   0.00000
     53322 MEOH     3596     MEOH     H1A      HDA3B    0.080000        1.0080           0   0.00000   0.00000
     53323 MEOH     3596     MEOH     H1B      HDA3B    0.080000        1.0080           0   0.00000   0.00000
     53324 MEOH     3596     MEOH     H1C      HDA3B    0.080000        1.0080           0   0.00000   0.00000
     53325 MEOH     3596     MEOH     LP1A     LPD     -0.230000        0.0000           -1   0.00000   0.00000
     53326 MEOH     3596     MEOH     LP1B     LPD     -0.230000        0.0000           -1   0.00000   0.00000
     53327 MEOH     3597     MEOH     C1       CD33B    2.314100       11.6110           0   -1.00000   1.30000
     53328 MEOH     3597     MEOH     DC1      DRUD    -2.454100        0.4000           0   0.00000   0.00000
     53329 MEOH     3597     MEOH     O1       OD31H    2.488300       15.5990           0   -1.02800   1.30000
     53330 MEOH     3597     MEOH     DO1      DRUD    -2.488300        0.4000           0   0.00000   0.00000
     53331 MEOH     3597     MEOH     HO1      HDP1A    0.360000        1.0080           0   0.00000   0.00000
     53332 MEOH     3597     MEOH     HO2      DUMH     0.000000        1.0080           0   0.00000   0.00000
     53333 MEOH     3597     MEOH     H1A      HDA3B    0.080000        1.0080           0   0.00000   0.00000
     53334 MEOH     3597     MEOH     H1B      HDA3B    0.080000        1.0080           0   0.00000   0.00000
     53335 MEOH     3597     MEOH     H1C      HDA3B    0.080000        1.0080           0   0.00000   0.00000
     53336 MEOH     3597     MEOH     LP1A     LPD     -0.230000        0.0000           -1   0.00000   0.00000
     53337 MEOH     3597     MEOH     LP1B     LPD     -0.230000        0.0000           -1   0.00000   0.00000
     53338 MEOH     3598     MEOH     C1       CD33B    2.314100       11.6110           0   -1.00000   1.30000
     53339 MEOH     3598     MEOH     DC1      DRUD    -2.454100        0.4000           0   0.00000   0.00000
     53340 MEOH     3598     MEOH     O1       OD31H    2.488300       15.5990           0   -1.02800   1.30000
     53341 MEOH     3598     MEOH     DO1      DRUD    -2.488300        0.4000           0   0.00000   0.00000
     53342 MEOH     3598     MEOH     HO1      HDP1A    0.360000        1.0080           0   0.00000   0.00000
     53343 MEOH     3598     MEOH     HO2      DUMH     0.000000        1.0080           0   0.00000   0.00000
     53344 MEOH     3598     MEOH     H1A      HDA3B    0.080000        1.0080           0   0.00000   0.00000
     53345 MEOH     3598     MEOH     H1B      HDA3B    0.080000        1.0080           0   0.00000   0.00000
     53346 MEOH     3598     MEOH     H1C      HDA3B    0.080000        1.0080           0   0.00000   0.00000
     53347 MEOH     3598     MEOH     LP1A     LPD     -0.230000        0.0000           -1   0.00000   0.00000
     53348 MEOH     3598     MEOH     LP1B     LPD     -0.230000        0.0000           -1   0.00000   0.00000
     53349 MEOH     3599     MEOH     C1       CD33B    2.314100       11.6110           0   -1.00000   1.30000
     53350 MEOH     3599     MEOH     DC1      DRUD    -2.454100        0.4000           0   0.00000   0.00000
     53351 MEOH     3599     MEOH     O1       OD31H    2.488300       15.5990           0   -1.02800   1.30000
     53352 MEOH     3599     MEOH     DO1      DRUD    -2.488300        0.4000           0   0.00000   0.00000
     53353 MEOH     3599     MEOH     HO1      HDP1A    0.360000        1.0080           0   0.00000   0.00000
     53354 MEOH     3599     MEOH     HO2      DUMH     0.000000        1.0080           0   0.00000   0.00000
     53355 MEOH     3599     MEOH     H1A      HDA3B    0.080000        1.0080           0   0.00000   0.00000
     53356 MEOH     3599     MEOH     H1B      HDA3B    0.080000        1.0080           0   0.00000   0.00000
     53357 MEOH     3599     MEOH     H1C      HDA3B    0.080000        1.0080           0   0.00000   0.00000
     53358 MEOH     3599     MEOH     LP1A     LPD     -0.230000        0.0000           -1   0.00000   0.00000
     53359 MEOH     3599     MEOH     LP1B     LPD     -0.230000        0.0000           -1   0.00000   0.00000
     53360 MEOH     3600     MEOH     C1       CD33B    2.314100       11.6110           0   -1.00000   1.30000
     53361 MEOH     3600     MEOH     DC1      DRUD    -2.454100        0.4000           0   0.00000   0.00000
     53362 MEOH     3600     MEOH     O1       OD31H    2.488300       15.5990           0   -1.02800   1.30000
     53363 MEOH     3600     MEOH     DO1      DRUD    -2.488300        0.4000           0   0.00000   0.00000
     53364 MEOH     3600     MEOH     HO1      HDP1A    0.360000        1.0080           0   0.00000   0.00000
     53365 MEOH     3600     MEOH     HO2      DUMH     0.000000        1.0080           0   0.00000   0.00000
     53366 MEOH     3600     MEOH     H1A      HDA3B    0.080000        1.0080           0   0.00000   0.00000
     53367 MEOH     3600     MEOH     H1B      HDA3B    0.080000        1.0080           0   0.00000   0.00000
     53368 MEOH     3600     MEOH     H1C      HDA3B    0.080000        1.0080           0   0.00000   0.00000
     53369 MEOH     3600     MEOH     LP1A     LPD     -0.230000        0.0000           -1   0.00000   0.00000
     53370 MEOH     3600     MEOH     LP1B     LPD     -0.230000        0.0000           -1   0.00000   0.00000
     53371 MEOH     3601     MEOH     C1       CD33B    2.314100       11.6110           0   -1.00000   1.30000
     53372 MEOH     3601     MEOH     DC1      DRUD    -2.454100        0.4000           0   0.00000   0.00000
     53373 MEOH     3601     MEOH     O1       OD31H    2.488300       15.5990           0   -1.02800   1.30000
     53374 MEOH     3601     MEOH     DO1      DRUD    -2.488300        0.4000           0   0.00000   0.00000
     53375 MEOH     3601     MEOH     HO1      HDP1A    0.360000        1.0080           0   0.00000   0.00000
     53376 MEOH     3601     MEOH     HO2      DUMH     0.000000        1.0080           0   0.00000   0.00000
     53377 MEOH     3601     MEOH     H1A      HDA3B    0.080000        1.0080           0   0.00000   0.00000
     53378 MEOH     3601     MEOH     H1B      HDA3B    0.080000        1.0080           0   0.00000   0.00000
     53379 MEOH     3601     MEOH     H1C      HDA3B    0.080000        1.0080           0   0.00000   0.00000
     53380 MEOH     3601     MEOH     LP1A     LPD     -0.230000        0.0000           -1   0.00000   0.00000
     53381 MEOH     3601     MEOH     LP1B     LPD     -0.230000        0.0000           -1   0.00000   0.00000
     53382 MEOH     3602     MEOH     C1       CD33B    2.314100       11.6110           0   -1.00000   1.30000
     53383 MEOH     3602     MEOH     DC1      DRUD    -2.454100        0.4000           0   0.00000   0.00000
     53384 MEOH     3602     MEOH     O1       OD31H    2.488300       15.5990           0   -1.02800   1.30000
     53385 MEOH     3602     MEOH     DO1      DRUD    -2.488300        0.4000           0   0.00000   0.00000
     53386 MEOH     3602     MEOH     HO1      HDP1A    0.360000        1.0080           0   0.00000   0.00000
     53387 MEOH     3602     MEOH     HO2      DUMH     0.000000        1.0080           0   0.00000   0.00000
     53388 MEOH     3602     MEOH     H1A      HDA3B    0.080000        1.0080           0   0.00000   0.00000
     53389 MEOH     3602     MEOH     H1B      HDA3B    0.080000        1.0080           0   0.00000   0.00000
     53390 MEOH     3602     MEOH     H1C      HDA3B    0.080000        1.0080           0   0.00000   0.00000
     53391 MEOH     3602     MEOH     LP1A     LPD     -0.230000        0.0000           -1   0.00000   0.00000
     53392 MEOH     3602     MEOH     LP1B     LPD     -0.230000        0.0000           -1   0.00000   0.00000
     53393 MEOH     3603     MEOH     C1       CD33B    2.314100       11.6110           0   -1.00000   1.30000
     53394 MEOH     3603     MEOH     DC1      DRUD    -2.454100        0.4000           0   0.00000   0.00000
     53395 MEOH     3603     MEOH     O1       OD31H    2.488300       15.5990           0   -1.02800   1.30000
     53396 MEOH     3603     MEOH     DO1      DRUD    -2.488300        0.4000           0   0.00000   0.00000
     53397 MEOH     3603     MEOH     HO1      HDP1A    0.360000        1.0080           0   0.00000   0.00000
     53398 MEOH     3603     MEOH     HO2      DUMH     0.000000        1.0080           0   0.00000   0.00000
     53399 MEOH     3603     MEOH     H1A      HDA3B    0.080000        1.0080           0   0.00000   0.00000
     53400 MEOH     3603     MEOH     H1B      HDA3B    0.080000        1.0080           0   0.00000   0.00000
     53401 MEOH     3603     MEOH     H1C      HDA3B    0.080000        1.0080           0   0.00000   0.00000
     53402 MEOH     3603     MEOH     LP1A     LPD     -0.230000        0.0000           -1   0.00000   0.00000
     53403 MEOH     3603     MEOH     LP1B     LPD     -0.230000        0.0000           -1   0.00000   0.00000
     53404 MEOH     3604     MEOH     C1       CD33B    2.314100       11.6110           0   -1.00000   1.30000
     53405 MEOH     3604     MEOH     DC1      DRUD    -2.454100        0.4000           0   0.00000   0.00000
     53406 MEOH     3604     MEOH     O1       OD31H    2.488300       15.5990           0   -1.02800   1.30000
     53407 MEOH     3604     MEOH     DO1      DRUD    -2.488300        0.4000           0   0.00000   0.00000
     53408 MEOH     3604     MEOH     HO1      HDP1A    0.360000        1.0080           0   0.00000   0.00000
     53409 MEOH     3604     MEOH     HO2      DUMH     0.000000        1.0080           0   0.00000   0.00000
     53410 MEOH     3604     MEOH     H1A      HDA3B    0.080000        1.0080           0   0.00000   0.00000
     53411 MEOH     3604     MEOH     H1B      HDA3B    0.080000        1.0080           0   0.00000   0.00000
     53412 MEOH     3604     MEOH     H1C      HDA3B    0.080000        1.0080           0   0.00000   0.00000
     53413 MEOH     3604     MEOH     LP1A     LPD     -0.230000        0.0000           -1   0.00000   0.00000
     53414 MEOH     3604     MEOH     LP1B     LPD     -0.230000        0.0000           -1   0.00000   0.00000
     53415 MEOH     3605     MEOH     C1       CD33B    2.314100       11.6110           0   -1.00000   1.30000
     53416 MEOH     3605     MEOH     DC1      DRUD    -2.454100        0.4000           0   0.00000   0.00000
     53417 MEOH     3605     MEOH     O1       OD31H    2.488300       15.5990           0   -1.02800   1.30000
     53418 MEOH     3605     MEOH     DO1      DRUD    -2.488300        0.4000           0   0.00000   0.00000
     53419 MEOH     3605     MEOH     HO1      HDP1A    0.360000        1.0080           0   0.00000   0.00000
     53420 MEOH     3605     MEOH     HO2      DUMH     0.000000        1.0080           0   0.00000   0.00000
     53421 MEOH     3605     MEOH     H1A      HDA3B    0.080000        1.0080           0   0.00000   0.00000
     53422 MEOH     3605     MEOH     H1B      HDA3B    0.080000        1.0080           0   0.00000   0.00000
     53423 MEOH     3605     MEOH     H1C      HDA3B    0.080000        1.0080           0   0.00000   0.00000
     53424 MEOH     3605     MEOH     LP1A     LPD     -0.230000        0.0000           -1   0.00000   0.00000
     53425 MEOH     3605     MEOH     LP1B     LPD     -0.230000        0.0000           -1   0.00000   0.00000
     53426 MEOH     3606     MEOH     C1       CD33B    2.314100       11.6110           0   -1.00000   1.30000
     53427 MEOH     3606     MEOH     DC1      DRUD    -2.454100        0.4000           0   0.00000   0.00000
     53428 MEOH     3606     MEOH     O1       OD31H    2.488300       15.5990           0   -1.02800   1.30000
     53429 MEOH     3606     MEOH     DO1      DRUD    -2.488300        0.4000           0   0.00000   0.00000
     53430 MEOH     3606     MEOH     HO1      HDP1A    0.360000        1.0080           0   0.00000   0.00000
     53431 MEOH     3606     MEOH     HO2      DUMH     0.000000        1.0080           0   0.00000   0.00000
     53432 MEOH     3606     MEOH     H1A      HDA3B    0.080000        1.0080           0   0.00000   0.00000
     53433 MEOH     3606     MEOH     H1B      HDA3B    0.080000        1.0080           0   0.00000   0.00000
     53434 MEOH     3606     MEOH     H1C      HDA3B    0.080000        1.0080           0   0.00000   0.00000
     53435 MEOH     3606     MEOH     LP1A     LPD     -0.230000        0.0000           -1   0.00000   0.00000
     53436 MEOH     3606     MEOH     LP1B     LPD     -0.230000        0.0000           -1   0.00000   0.00000
     53437 MEOH     3607     MEOH     C1       CD33B    2.314100       11.6110           0   -1.00000   1.30000
     53438 MEOH     3607     MEOH     DC1      DRUD    -2.454100        0.4000           0   0.00000   0.00000
     53439 MEOH     3607     MEOH     O1       OD31H    2.488300       15.5990           0   -1.02800   1.30000
     53440 MEOH     3607     MEOH     DO1      DRUD    -2.488300        0.4000           0   0.00000   0.00000
     53441 MEOH     3607     MEOH     HO1      HDP1A    0.360000        1.0080           0   0.00000   0.00000
     53442 MEOH     3607     MEOH     HO2      DUMH     0.000000        1.0080           0   0.00000   0.00000
     53443 MEOH     3607     MEOH     H1A      HDA3B    0.080000        1.0080           0   0.00000   0.00000
     53444 MEOH     3607     MEOH     H1B      HDA3B    0.080000        1.0080           0   0.00000   0.00000
     53445 MEOH     3607     MEOH     H1C      HDA3B    0.080000        1.0080           0   0.00000   0.00000
     53446 MEOH     3607     MEOH     LP1A     LPD     -0.230000        0.0000           -1   0.00000   0.00000
     53447 MEOH     3607     MEOH     LP1B     LPD     -0.230000        0.0000           -1   0.00000   0.00000
     53448 MEOH     3608     MEOH     C1       CD33B    2.314100       11.6110           0   -1.00000   1.30000
     53449 MEOH     3608     MEOH     DC1      DRUD    -2.454100        0.4000           0   0.00000   0.00000
     53450 MEOH     3608     MEOH     O1       OD31H    2.488300       15.5990           0   -1.02800   1.30000
     53451 MEOH     3608     MEOH     DO1      DRUD    -2.488300        0.4000           0   0.00000   0.00000
     53452 MEOH     3608     MEOH     HO1      HDP1A    0.360000        1.0080           0   0.00000   0.00000
     53453 MEOH     3608     MEOH     HO2      DUMH     0.000000        1.0080           0   0.00000   0.00000
     53454 MEOH     3608     MEOH     H1A      HDA3B    0.080000        1.0080           0   0.00000   0.00000
     53455 MEOH     3608     MEOH     H1B      HDA3B    0.080000        1.0080           0   0.00000   0.00000
     53456 MEOH     3608     MEOH     H1C      HDA3B    0.080000        1.0080           0   0.00000   0.00000
     53457 MEOH     3608     MEOH     LP1A     LPD     -0.230000        0.0000           -1   0.00000   0.00000
     53458 MEOH     3608     MEOH     LP1B     LPD     -0.230000        0.0000           -1   0.00000   0.00000
     53459 MEOH     3609     MEOH     C1       CD33B    2.314100       11.6110           0   -1.00000   1.30000
     53460 MEOH     3609     MEOH     DC1      DRUD    -2.454100        0.4000           0   0.00000   0.00000
     53461 MEOH     3609     MEOH     O1       OD31H    2.488300       15.5990           0   -1.02800   1.30000
     53462 MEOH     3609     MEOH     DO1      DRUD    -2.488300        0.4000           0   0.00000   0.00000
     53463 MEOH     3609     MEOH     HO1      HDP1A    0.360000        1.0080           0   0.00000   0.00000
     53464 MEOH     3609     MEOH     HO2      DUMH     0.000000        1.0080           0   0.00000   0.00000
     53465 MEOH     3609     MEOH     H1A      HDA3B    0.080000        1.0080           0   0.00000   0.00000
     53466 MEOH     3609     MEOH     H1B      HDA3B    0.080000        1.0080           0   0.00000   0.00000
     53467 MEOH     3609     MEOH     H1C      HDA3B    0.080000        1.0080           0   0.00000   0.00000
     53468 MEOH     3609     MEOH     LP1A     LPD     -0.230000        0.0000           -1   0.00000   0.00000
     53469 MEOH     3609     MEOH     LP1B     LPD     -0.230000        0.0000           -1   0.00000   0.00000
     53470 MEOH     3610     MEOH     C1       CD33B    2.314100       11.6110           0   -1.00000   1.30000
     53471 MEOH     3610     MEOH     DC1      DRUD    -2.454100        0.4000           0   0.00000   0.00000
     53472 MEOH     3610     MEOH     O1       OD31H    2.488300       15.5990           0   -1.02800   1.30000
     53473 MEOH     3610     MEOH     DO1      DRUD    -2.488300        0.4000           0   0.00000   0.00000
     53474 MEOH     3610     MEOH     HO1      HDP1A    0.360000        1.0080           0   0.00000   0.00000
     53475 MEOH     3610     MEOH     HO2      DUMH     0.000000        1.0080           0   0.00000   0.00000
     53476 MEOH     3610     MEOH     H1A      HDA3B    0.080000        1.0080           0   0.00000   0.00000
     53477 MEOH     3610     MEOH     H1B      HDA3B    0.080000        1.0080           0   0.00000   0.00000
     53478 MEOH     3610     MEOH     H1C      HDA3B    0.080000        1.0080           0   0.00000   0.00000
     53479 MEOH     3610     MEOH     LP1A     LPD     -0.230000        0.0000           -1   0.00000   0.00000
     53480 MEOH     3610     MEOH     LP1B     LPD     -0.230000        0.0000           -1   0.00000   0.00000
     53481 MEOH     3611     MEOH     C1       CD33B    2.314100       11.6110           0   -1.00000   1.30000
     53482 MEOH     3611     MEOH     DC1      DRUD    -2.454100        0.4000           0   0.00000   0.00000
     53483 MEOH     3611     MEOH     O1       OD31H    2.488300       15.5990           0   -1.02800   1.30000
     53484 MEOH     3611     MEOH     DO1      DRUD    -2.488300        0.4000           0   0.00000   0.00000
     53485 MEOH     3611     MEOH     HO1      HDP1A    0.360000        1.0080           0   0.00000   0.00000
     53486 MEOH     3611     MEOH     HO2      DUMH     0.000000        1.0080           0   0.00000   0.00000
     53487 MEOH     3611     MEOH     H1A      HDA3B    0.080000        1.0080           0   0.00000   0.00000
     53488 MEOH     3611     MEOH     H1B      HDA3B    0.080000        1.0080           0   0.00000   0.00000
     53489 MEOH     3611     MEOH     H1C      HDA3B    0.080000        1.0080           0   0.00000   0.00000
     53490 MEOH     3611     MEOH     LP1A     LPD     -0.230000        0.0000           -1   0.00000   0.00000
     53491 MEOH     3611     MEOH     LP1B     LPD     -0.230000        0.0000           -1   0.00000   0.00000
     53492 MEOH     3612     MEOH     C1       CD33B    2.314100       11.6110           0   -1.00000   1.30000
     53493 MEOH     3612     MEOH     DC1      DRUD    -2.454100        0.4000           0   0.00000   0.00000
     53494 MEOH     3612     MEOH     O1       OD31H    2.488300       15.5990           0   -1.02800   1.30000
     53495 MEOH     3612     MEOH     DO1      DRUD    -2.488300        0.4000           0   0.00000   0.00000
     53496 MEOH     3612     MEOH     HO1      HDP1A    0.360000        1.0080           0   0.00000   0.00000
     53497 MEOH     3612     MEOH     HO2      DUMH     0.000000        1.0080           0   0.00000   0.00000
     53498 MEOH     3612     MEOH     H1A      HDA3B    0.080000        1.0080           0   0.00000   0.00000
     53499 MEOH     3612     MEOH     H1B      HDA3B    0.080000        1.0080           0   0.00000   0.00000
     53500 MEOH     3612     MEOH     H1C      HDA3B    0.080000        1.0080           0   0.00000   0.00000
     53501 MEOH     3612     MEOH     LP1A     LPD     -0.230000        0.0000           -1   0.00000   0.00000
     53502 MEOH     3612     MEOH     LP1B     LPD     -0.230000        0.0000           -1   0.00000   0.00000
     53503 MEOH     3613     MEOH     C1       CD33B    2.314100       11.6110           0   -1.00000   1.30000
     53504 MEOH     3613     MEOH     DC1      DRUD    -2.454100        0.4000           0   0.00000   0.00000
     53505 MEOH     3613     MEOH     O1       OD31H    2.488300       15.5990           0   -1.02800   1.30000
     53506 MEOH     3613     MEOH     DO1      DRUD    -2.488300        0.4000           0   0.00000   0.00000
     53507 MEOH     3613     MEOH     HO1      HDP1A    0.360000        1.0080           0   0.00000   0.00000
     53508 MEOH     3613     MEOH     HO2      DUMH     0.000000        1.0080           0   0.00000   0.00000
     53509 MEOH     3613     MEOH     H1A      HDA3B    0.080000        1.0080           0   0.00000   0.00000
     53510 MEOH     3613     MEOH     H1B      HDA3B    0.080000        1.0080           0   0.00000   0.00000
     53511 MEOH     3613     MEOH     H1C      HDA3B    0.080000        1.0080           0   0.00000   0.00000
     53512 MEOH     3613     MEOH     LP1A     LPD     -0.230000        0.0000           -1   0.00000   0.00000
     53513 MEOH     3613     MEOH     LP1B     LPD     -0.230000        0.0000           -1   0.00000   0.00000
     53514 MEOH     3614     MEOH     C1       CD33B    2.314100       11.6110           0   -1.00000   1.30000
     53515 MEOH     3614     MEOH     DC1      DRUD    -2.454100        0.4000           0   0.00000   0.00000
     53516 MEOH     3614     MEOH     O1       OD31H    2.488300       15.5990           0   -1.02800   1.30000
     53517 MEOH     3614     MEOH     DO1      DRUD    -2.488300        0.4000           0   0.00000   0.00000
     53518 MEOH     3614     MEOH     HO1      HDP1A    0.360000        1.0080           0   0.00000   0.00000
     53519 MEOH     3614     MEOH     HO2      DUMH     0.000000        1.0080           0   0.00000   0.00000
     53520 MEOH     3614     MEOH     H1A      HDA3B    0.080000        1.0080           0   0.00000   0.00000
     53521 MEOH     3614     MEOH     H1B      HDA3B    0.080000        1.0080           0   0.00000   0.00000
     53522 MEOH     3614     MEOH     H1C      HDA3B    0.080000        1.0080           0   0.00000   0.00000
     53523 MEOH     3614     MEOH     LP1A     LPD     -0.230000        0.0000           -1   0.00000   0.00000
     53524 MEOH     3614     MEOH     LP1B     LPD     -0.230000        0.0000           -1   0.00000   0.00000
     53525 MEOH     3615     MEOH     C1       CD33B    2.314100       11.6110           0   -1.00000   1.30000
     53526 MEOH     3615     MEOH     DC1      DRUD    -2.454100        0.4000           0   0.00000   0.00000
     53527 MEOH     3615     MEOH     O1       OD31H    2.488300       15.5990           0   -1.02800   1.30000
     53528 MEOH     3615     MEOH     DO1      DRUD    -2.488300        0.4000           0   0.00000   0.00000
     53529 MEOH     3615     MEOH     HO1      HDP1A    0.360000        1.0080           0   0.00000   0.00000
     53530 MEOH     3615     MEOH     HO2      DUMH     0.000000        1.0080           0   0.00000   0.00000
     53531 MEOH     3615     MEOH     H1A      HDA3B    0.080000        1.0080           0   0.00000   0.00000
     53532 MEOH     3615     MEOH     H1B      HDA3B    0.080000        1.0080           0   0.00000   0.00000
     53533 MEOH     3615     MEOH     H1C      HDA3B    0.080000        1.0080           0   0.00000   0.00000
     53534 MEOH     3615     MEOH     LP1A     LPD     -0.230000        0.0000           -1   0.00000   0.00000
     53535 MEOH     3615     MEOH     LP1B     LPD     -0.230000        0.0000           -1   0.00000   0.00000
     53536 MEOH     3616     MEOH     C1       CD33B    2.314100       11.6110           0   -1.00000   1.30000
     53537 MEOH     3616     MEOH     DC1      DRUD    -2.454100        0.4000           0   0.00000   0.00000
     53538 MEOH     3616     MEOH     O1       OD31H    2.488300       15.5990           0   -1.02800   1.30000
     53539 MEOH     3616     MEOH     DO1      DRUD    -2.488300        0.4000           0   0.00000   0.00000
     53540 MEOH     3616     MEOH     HO1      HDP1A    0.360000        1.0080           0   0.00000   0.00000
     53541 MEOH     3616     MEOH     HO2      DUMH     0.000000        1.0080           0   0.00000   0.00000
     53542 MEOH     3616     MEOH     H1A      HDA3B    0.080000        1.0080           0   0.00000   0.00000
     53543 MEOH     3616     MEOH     H1B      HDA3B    0.080000        1.0080           0   0.00000   0.00000
     53544 MEOH     3616     MEOH     H1C      HDA3B    0.080000        1.0080           0   0.00000   0.00000
     53545 MEOH     3616     MEOH     LP1A     LPD     -0.230000        0.0000           -1   0.00000   0.00000
     53546 MEOH     3616     MEOH     LP1B     LPD     -0.230000        0.0000           -1   0.00000   0.00000
     53547 MEOH     3617     MEOH     C1       CD33B    2.314100       11.6110           0   -1.00000   1.30000
     53548 MEOH     3617     MEOH     DC1      DRUD    -2.454100        0.4000           0   0.00000   0.00000
     53549 MEOH     3617     MEOH     O1       OD31H    2.488300       15.5990           0   -1.02800   1.30000
     53550 MEOH     3617     MEOH     DO1      DRUD    -2.488300        0.4000           0   0.00000   0.00000
     53551 MEOH     3617     MEOH     HO1      HDP1A    0.360000        1.0080           0   0.00000   0.00000
     53552 MEOH     3617     MEOH     HO2      DUMH     0.000000        1.0080           0   0.00000   0.00000
     53553 MEOH     3617     MEOH     H1A      HDA3B    0.080000        1.0080           0   0.00000   0.00000
     53554 MEOH     3617     MEOH     H1B      HDA3B    0.080000        1.0080           0   0.00000   0.00000
     53555 MEOH     3617     MEOH     H1C      HDA3B    0.080000        1.0080           0   0.00000   0.00000
     53556 MEOH     3617     MEOH     LP1A     LPD     -0.230000        0.0000           -1   0.00000   0.00000
     53557 MEOH     3617     MEOH     LP1B     LPD     -0.230000        0.0000           -1   0.00000   0.00000
     53558 MEOH     3618     MEOH     C1       CD33B    2.314100       11.6110           0   -1.00000   1.30000
     53559 MEOH     3618     MEOH     DC1      DRUD    -2.454100        0.4000           0   0.00000   0.00000
     53560 MEOH     3618     MEOH     O1       OD31H    2.488300       15.5990           0   -1.02800   1.30000
     53561 MEOH     3618     MEOH     DO1      DRUD    -2.488300        0.4000           0   0.00000   0.00000
     53562 MEOH     3618     MEOH     HO1      HDP1A    0.360000        1.0080           0   0.00000   0.00000
     53563 MEOH     3618     MEOH     HO2      DUMH     0.000000        1.0080           0   0.00000   0.00000
     53564 MEOH     3618     MEOH     H1A      HDA3B    0.080000        1.0080           0   0.00000   0.00000
     53565 MEOH     3618     MEOH     H1B      HDA3B    0.080000        1.0080           0   0.00000   0.00000
     53566 MEOH     3618     MEOH     H1C      HDA3B    0.080000        1.0080           0   0.00000   0.00000
     53567 MEOH     3618     MEOH     LP1A     LPD     -0.230000        0.0000           -1   0.00000   0.00000
     53568 MEOH     3618     MEOH     LP1B     LPD     -0.230000        0.0000           -1   0.00000   0.00000
     53569 MEOH     3619     MEOH     C1       CD33B    2.314100       11.6110           0   -1.00000   1.30000
     53570 MEOH     3619     MEOH     DC1      DRUD    -2.454100        0.4000           0   0.00000   0.00000
     53571 MEOH     3619     MEOH     O1       OD31H    2.488300       15.5990           0   -1.02800   1.30000
     53572 MEOH     3619     MEOH     DO1      DRUD    -2.488300        0.4000           0   0.00000   0.00000
     53573 MEOH     3619     MEOH     HO1      HDP1A    0.360000        1.0080           0   0.00000   0.00000
     53574 MEOH     3619     MEOH     HO2      DUMH     0.000000        1.0080           0   0.00000   0.00000
     53575 MEOH     3619     MEOH     H1A      HDA3B    0.080000        1.0080           0   0.00000   0.00000
     53576 MEOH     3619     MEOH     H1B      HDA3B    0.080000        1.0080           0   0.00000   0.00000
     53577 MEOH     3619     MEOH     H1C      HDA3B    0.080000        1.0080           0   0.00000   0.00000
     53578 MEOH     3619     MEOH     LP1A     LPD     -0.230000        0.0000           -1   0.00000   0.00000
     53579 MEOH     3619     MEOH     LP1B     LPD     -0.230000        0.0000           -1   0.00000   0.00000
     53580 MEOH     3620     MEOH     C1       CD33B    2.314100       11.6110           0   -1.00000   1.30000
     53581 MEOH     3620     MEOH     DC1      DRUD    -2.454100        0.4000           0   0.00000   0.00000
     53582 MEOH     3620     MEOH     O1       OD31H    2.488300       15.5990           0   -1.02800   1.30000
     53583 MEOH     3620     MEOH     DO1      DRUD    -2.488300        0.4000           0   0.00000   0.00000
     53584 MEOH     3620     MEOH     HO1      HDP1A    0.360000        1.0080           0   0.00000   0.00000
     53585 MEOH     3620     MEOH     HO2      DUMH     0.000000        1.0080           0   0.00000   0.00000
     53586 MEOH     3620     MEOH     H1A      HDA3B    0.080000        1.0080           0   0.00000   0.00000
     53587 MEOH     3620     MEOH     H1B      HDA3B    0.080000        1.0080           0   0.00000   0.00000
     53588 MEOH     3620     MEOH     H1C      HDA3B    0.080000        1.0080           0   0.00000   0.00000
     53589 MEOH     3620     MEOH     LP1A     LPD     -0.230000        0.0000           -1   0.00000   0.00000
     53590 MEOH     3620     MEOH     LP1B     LPD     -0.230000        0.0000           -1   0.00000   0.00000
     53591 MEOH     3621     MEOH     C1       CD33B    2.314100       11.6110           0   -1.00000   1.30000
     53592 MEOH     3621     MEOH     DC1      DRUD    -2.454100        0.4000           0   0.00000   0.00000
     53593 MEOH     3621     MEOH     O1       OD31H    2.488300       15.5990           0   -1.02800   1.30000
     53594 MEOH     3621     MEOH     DO1      DRUD    -2.488300        0.4000           0   0.00000   0.00000
     53595 MEOH     3621     MEOH     HO1      HDP1A    0.360000        1.0080           0   0.00000   0.00000
     53596 MEOH     3621     MEOH     HO2      DUMH     0.000000        1.0080           0   0.00000   0.00000
     53597 MEOH     3621     MEOH     H1A      HDA3B    0.080000        1.0080           0   0.00000   0.00000
     53598 MEOH     3621     MEOH     H1B      HDA3B    0.080000        1.0080           0   0.00000   0.00000
     53599 MEOH     3621     MEOH     H1C      HDA3B    0.080000        1.0080           0   0.00000   0.00000
     53600 MEOH     3621     MEOH     LP1A     LPD     -0.230000        0.0000           -1   0.00000   0.00000
     53601 MEOH     3621     MEOH     LP1B     LPD     -0.230000        0.0000           -1   0.00000   0.00000
     53602 MEOH     3622     MEOH     C1       CD33B    2.314100       11.6110           0   -1.00000   1.30000
     53603 MEOH     3622     MEOH     DC1      DRUD    -2.454100        0.4000           0   0.00000   0.00000
     53604 MEOH     3622     MEOH     O1       OD31H    2.488300       15.5990           0   -1.02800   1.30000
     53605 MEOH     3622     MEOH     DO1      DRUD    -2.488300        0.4000           0   0.00000   0.00000
     53606 MEOH     3622     MEOH     HO1      HDP1A    0.360000        1.0080           0   0.00000   0.00000
     53607 MEOH     3622     MEOH     HO2      DUMH     0.000000        1.0080           0   0.00000   0.00000
     53608 MEOH     3622     MEOH     H1A      HDA3B    0.080000        1.0080           0   0.00000   0.00000
     53609 MEOH     3622     MEOH     H1B      HDA3B    0.080000        1.0080           0   0.00000   0.00000
     53610 MEOH     3622     MEOH     H1C      HDA3B    0.080000        1.0080           0   0.00000   0.00000
     53611 MEOH     3622     MEOH     LP1A     LPD     -0.230000        0.0000           -1   0.00000   0.00000
     53612 MEOH     3622     MEOH     LP1B     LPD     -0.230000        0.0000           -1   0.00000   0.00000
     53613 MEOH     3623     MEOH     C1       CD33B    2.314100       11.6110           0   -1.00000   1.30000
     53614 MEOH     3623     MEOH     DC1      DRUD    -2.454100        0.4000           0   0.00000   0.00000
     53615 MEOH     3623     MEOH     O1       OD31H    2.488300       15.5990           0   -1.02800   1.30000
     53616 MEOH     3623     MEOH     DO1      DRUD    -2.488300        0.4000           0   0.00000   0.00000
     53617 MEOH     3623     MEOH     HO1      HDP1A    0.360000        1.0080           0   0.00000   0.00000
     53618 MEOH     3623     MEOH     HO2      DUMH     0.000000        1.0080           0   0.00000   0.00000
     53619 MEOH     3623     MEOH     H1A      HDA3B    0.080000        1.0080           0   0.00000   0.00000
     53620 MEOH     3623     MEOH     H1B      HDA3B    0.080000        1.0080           0   0.00000   0.00000
     53621 MEOH     3623     MEOH     H1C      HDA3B    0.080000        1.0080           0   0.00000   0.00000
     53622 MEOH     3623     MEOH     LP1A     LPD     -0.230000        0.0000           -1   0.00000   0.00000
     53623 MEOH     3623     MEOH     LP1B     LPD     -0.230000        0.0000           -1   0.00000   0.00000
     53624 MEOH     3624     MEOH     C1       CD33B    2.314100       11.6110           0   -1.00000   1.30000
     53625 MEOH     3624     MEOH     DC1      DRUD    -2.454100        0.4000           0   0.00000   0.00000
     53626 MEOH     3624     MEOH     O1       OD31H    2.488300       15.5990           0   -1.02800   1.30000
     53627 MEOH     3624     MEOH     DO1      DRUD    -2.488300        0.4000           0   0.00000   0.00000
     53628 MEOH     3624     MEOH     HO1      HDP1A    0.360000        1.0080           0   0.00000   0.00000
     53629 MEOH     3624     MEOH     HO2      DUMH     0.000000        1.0080           0   0.00000   0.00000
     53630 MEOH     3624     MEOH     H1A      HDA3B    0.080000        1.0080           0   0.00000   0.00000
     53631 MEOH     3624     MEOH     H1B      HDA3B    0.080000        1.0080           0   0.00000   0.00000
     53632 MEOH     3624     MEOH     H1C      HDA3B    0.080000        1.0080           0   0.00000   0.00000
     53633 MEOH     3624     MEOH     LP1A     LPD     -0.230000        0.0000           -1   0.00000   0.00000
     53634 MEOH     3624     MEOH     LP1B     LPD     -0.230000        0.0000           -1   0.00000   0.00000
     53635 MEOH     3625     MEOH     C1       CD33B    2.314100       11.6110           0   -1.00000   1.30000
     53636 MEOH     3625     MEOH     DC1      DRUD    -2.454100        0.4000           0   0.00000   0.00000
     53637 MEOH     3625     MEOH     O1       OD31H    2.488300       15.5990           0   -1.02800   1.30000
     53638 MEOH     3625     MEOH     DO1      DRUD    -2.488300        0.4000           0   0.00000   0.00000
     53639 MEOH     3625     MEOH     HO1      HDP1A    0.360000        1.0080           0   0.00000   0.00000
     53640 MEOH     3625     MEOH     HO2      DUMH     0.000000        1.0080           0   0.00000   0.00000
     53641 MEOH     3625     MEOH     H1A      HDA3B    0.080000        1.0080           0   0.00000   0.00000
     53642 MEOH     3625     MEOH     H1B      HDA3B    0.080000        1.0080           0   0.00000   0.00000
     53643 MEOH     3625     MEOH     H1C      HDA3B    0.080000        1.0080           0   0.00000   0.00000
     53644 MEOH     3625     MEOH     LP1A     LPD     -0.230000        0.0000           -1   0.00000   0.00000
     53645 MEOH     3625     MEOH     LP1B     LPD     -0.230000        0.0000           -1   0.00000   0.00000
     53646 MEOH     3626     MEOH     C1       CD33B    2.314100       11.6110           0   -1.00000   1.30000
     53647 MEOH     3626     MEOH     DC1      DRUD    -2.454100        0.4000           0   0.00000   0.00000
     53648 MEOH     3626     MEOH     O1       OD31H    2.488300       15.5990           0   -1.02800   1.30000
     53649 MEOH     3626     MEOH     DO1      DRUD    -2.488300        0.4000           0   0.00000   0.00000
     53650 MEOH     3626     MEOH     HO1      HDP1A    0.360000        1.0080           0   0.00000   0.00000
     53651 MEOH     3626     MEOH     HO2      DUMH     0.000000        1.0080           0   0.00000   0.00000
     53652 MEOH     3626     MEOH     H1A      HDA3B    0.080000        1.0080           0   0.00000   0.00000
     53653 MEOH     3626     MEOH     H1B      HDA3B    0.080000        1.0080           0   0.00000   0.00000
     53654 MEOH     3626     MEOH     H1C      HDA3B    0.080000        1.0080           0   0.00000   0.00000
     53655 MEOH     3626     MEOH     LP1A     LPD     -0.230000        0.0000           -1   0.00000   0.00000
     53656 MEOH     3626     MEOH     LP1B     LPD     -0.230000        0.0000           -1   0.00000   0.00000
     53657 MEOH     3627     MEOH     C1       CD33B    2.314100       11.6110           0   -1.00000   1.30000
     53658 MEOH     3627     MEOH     DC1      DRUD    -2.454100        0.4000           0   0.00000   0.00000
     53659 MEOH     3627     MEOH     O1       OD31H    2.488300       15.5990           0   -1.02800   1.30000
     53660 MEOH     3627     MEOH     DO1      DRUD    -2.488300        0.4000           0   0.00000   0.00000
     53661 MEOH     3627     MEOH     HO1      HDP1A    0.360000        1.0080           0   0.00000   0.00000
     53662 MEOH     3627     MEOH     HO2      DUMH     0.000000        1.0080           0   0.00000   0.00000
     53663 MEOH     3627     MEOH     H1A      HDA3B    0.080000        1.0080           0   0.00000   0.00000
     53664 MEOH     3627     MEOH     H1B      HDA3B    0.080000        1.0080           0   0.00000   0.00000
     53665 MEOH     3627     MEOH     H1C      HDA3B    0.080000        1.0080           0   0.00000   0.00000
     53666 MEOH     3627     MEOH     LP1A     LPD     -0.230000        0.0000           -1   0.00000   0.00000
     53667 MEOH     3627     MEOH     LP1B     LPD     -0.230000        0.0000           -1   0.00000   0.00000
     53668 MEOH     3628     MEOH     C1       CD33B    2.314100       11.6110           0   -1.00000   1.30000
     53669 MEOH     3628     MEOH     DC1      DRUD    -2.454100        0.4000           0   0.00000   0.00000
     53670 MEOH     3628     MEOH     O1       OD31H    2.488300       15.5990           0   -1.02800   1.30000
     53671 MEOH     3628     MEOH     DO1      DRUD    -2.488300        0.4000           0   0.00000   0.00000
     53672 MEOH     3628     MEOH     HO1      HDP1A    0.360000        1.0080           0   0.00000   0.00000
     53673 MEOH     3628     MEOH     HO2      DUMH     0.000000        1.0080           0   0.00000   0.00000
     53674 MEOH     3628     MEOH     H1A      HDA3B    0.080000        1.0080           0   0.00000   0.00000
     53675 MEOH     3628     MEOH     H1B      HDA3B    0.080000        1.0080           0   0.00000   0.00000
     53676 MEOH     3628     MEOH     H1C      HDA3B    0.080000        1.0080           0   0.00000   0.00000
     53677 MEOH     3628     MEOH     LP1A     LPD     -0.230000        0.0000           -1   0.00000   0.00000
     53678 MEOH     3628     MEOH     LP1B     LPD     -0.230000        0.0000           -1   0.00000   0.00000
     53679 MEOH     3629     MEOH     C1       CD33B    2.314100       11.6110           0   -1.00000   1.30000
     53680 MEOH     3629     MEOH     DC1      DRUD    -2.454100        0.4000           0   0.00000   0.00000
     53681 MEOH     3629     MEOH     O1       OD31H    2.488300       15.5990           0   -1.02800   1.30000
     53682 MEOH     3629     MEOH     DO1      DRUD    -2.488300        0.4000           0   0.00000   0.00000
     53683 MEOH     3629     MEOH     HO1      HDP1A    0.360000        1.0080           0   0.00000   0.00000
     53684 MEOH     3629     MEOH     HO2      DUMH     0.000000        1.0080           0   0.00000   0.00000
     53685 MEOH     3629     MEOH     H1A      HDA3B    0.080000        1.0080           0   0.00000   0.00000
     53686 MEOH     3629     MEOH     H1B      HDA3B    0.080000        1.0080           0   0.00000   0.00000
     53687 MEOH     3629     MEOH     H1C      HDA3B    0.080000        1.0080           0   0.00000   0.00000
     53688 MEOH     3629     MEOH     LP1A     LPD     -0.230000        0.0000           -1   0.00000   0.00000
     53689 MEOH     3629     MEOH     LP1B     LPD     -0.230000        0.0000           -1   0.00000   0.00000
     53690 MEOH     3630     MEOH     C1       CD33B    2.314100       11.6110           0   -1.00000   1.30000
     53691 MEOH     3630     MEOH     DC1      DRUD    -2.454100        0.4000           0   0.00000   0.00000
     53692 MEOH     3630     MEOH     O1       OD31H    2.488300       15.5990           0   -1.02800   1.30000
     53693 MEOH     3630     MEOH     DO1      DRUD    -2.488300        0.4000           0   0.00000   0.00000
     53694 MEOH     3630     MEOH     HO1      HDP1A    0.360000        1.0080           0   0.00000   0.00000
     53695 MEOH     3630     MEOH     HO2      DUMH     0.000000        1.0080           0   0.00000   0.00000
     53696 MEOH     3630     MEOH     H1A      HDA3B    0.080000        1.0080           0   0.00000   0.00000
     53697 MEOH     3630     MEOH     H1B      HDA3B    0.080000        1.0080           0   0.00000   0.00000
     53698 MEOH     3630     MEOH     H1C      HDA3B    0.080000        1.0080           0   0.00000   0.00000
     53699 MEOH     3630     MEOH     LP1A     LPD     -0.230000        0.0000           -1   0.00000   0.00000
     53700 MEOH     3630     MEOH     LP1B     LPD     -0.230000        0.0000           -1   0.00000   0.00000
     53701 MEOH     3631     MEOH     C1       CD33B    2.314100       11.6110           0   -1.00000   1.30000
     53702 MEOH     3631     MEOH     DC1      DRUD    -2.454100        0.4000           0   0.00000   0.00000
     53703 MEOH     3631     MEOH     O1       OD31H    2.488300       15.5990           0   -1.02800   1.30000
     53704 MEOH     3631     MEOH     DO1      DRUD    -2.488300        0.4000           0   0.00000   0.00000
     53705 MEOH     3631     MEOH     HO1      HDP1A    0.360000        1.0080           0   0.00000   0.00000
     53706 MEOH     3631     MEOH     HO2      DUMH     0.000000        1.0080           0   0.00000   0.00000
     53707 MEOH     3631     MEOH     H1A      HDA3B    0.080000        1.0080           0   0.00000   0.00000
     53708 MEOH     3631     MEOH     H1B      HDA3B    0.080000        1.0080           0   0.00000   0.00000
     53709 MEOH     3631     MEOH     H1C      HDA3B    0.080000        1.0080           0   0.00000   0.00000
     53710 MEOH     3631     MEOH     LP1A     LPD     -0.230000        0.0000           -1   0.00000   0.00000
     53711 MEOH     3631     MEOH     LP1B     LPD     -0.230000        0.0000           -1   0.00000   0.00000
     53712 MEOH     3632     MEOH     C1       CD33B    2.314100       11.6110           0   -1.00000   1.30000
     53713 MEOH     3632     MEOH     DC1      DRUD    -2.454100        0.4000           0   0.00000   0.00000
     53714 MEOH     3632     MEOH     O1       OD31H    2.488300       15.5990           0   -1.02800   1.30000
     53715 MEOH     3632     MEOH     DO1      DRUD    -2.488300        0.4000           0   0.00000   0.00000
     53716 MEOH     3632     MEOH     HO1      HDP1A    0.360000        1.0080           0   0.00000   0.00000
     53717 MEOH     3632     MEOH     HO2      DUMH     0.000000        1.0080           0   0.00000   0.00000
     53718 MEOH     3632     MEOH     H1A      HDA3B    0.080000        1.0080           0   0.00000   0.00000
     53719 MEOH     3632     MEOH     H1B      HDA3B    0.080000        1.0080           0   0.00000   0.00000
     53720 MEOH     3632     MEOH     H1C      HDA3B    0.080000        1.0080           0   0.00000   0.00000
     53721 MEOH     3632     MEOH     LP1A     LPD     -0.230000        0.0000           -1   0.00000   0.00000
     53722 MEOH     3632     MEOH     LP1B     LPD     -0.230000        0.0000           -1   0.00000   0.00000
     53723 MEOH     3633     MEOH     C1       CD33B    2.314100       11.6110           0   -1.00000   1.30000
     53724 MEOH     3633     MEOH     DC1      DRUD    -2.454100        0.4000           0   0.00000   0.00000
     53725 MEOH     3633     MEOH     O1       OD31H    2.488300       15.5990           0   -1.02800   1.30000
     53726 MEOH     3633     MEOH     DO1      DRUD    -2.488300        0.4000           0   0.00000   0.00000
     53727 MEOH     3633     MEOH     HO1      HDP1A    0.360000        1.0080           0   0.00000   0.00000
     53728 MEOH     3633     MEOH     HO2      DUMH     0.000000        1.0080           0   0.00000   0.00000
     53729 MEOH     3633     MEOH     H1A      HDA3B    0.080000        1.0080           0   0.00000   0.00000
     53730 MEOH     3633     MEOH     H1B      HDA3B    0.080000        1.0080           0   0.00000   0.00000
     53731 MEOH     3633     MEOH     H1C      HDA3B    0.080000        1.0080           0   0.00000   0.00000
     53732 MEOH     3633     MEOH     LP1A     LPD     -0.230000        0.0000           -1   0.00000   0.00000
     53733 MEOH     3633     MEOH     LP1B     LPD     -0.230000        0.0000           -1   0.00000   0.00000
     53734 MEOH     3634     MEOH     C1       CD33B    2.314100       11.6110           0   -1.00000   1.30000
     53735 MEOH     3634     MEOH     DC1      DRUD    -2.454100        0.4000           0   0.00000   0.00000
     53736 MEOH     3634     MEOH     O1       OD31H    2.488300       15.5990           0   -1.02800   1.30000
     53737 MEOH     3634     MEOH     DO1      DRUD    -2.488300        0.4000           0   0.00000   0.00000
     53738 MEOH     3634     MEOH     HO1      HDP1A    0.360000        1.0080           0   0.00000   0.00000
     53739 MEOH     3634     MEOH     HO2      DUMH     0.000000        1.0080           0   0.00000   0.00000
     53740 MEOH     3634     MEOH     H1A      HDA3B    0.080000        1.0080           0   0.00000   0.00000
     53741 MEOH     3634     MEOH     H1B      HDA3B    0.080000        1.0080           0   0.00000   0.00000
     53742 MEOH     3634     MEOH     H1C      HDA3B    0.080000        1.0080           0   0.00000   0.00000
     53743 MEOH     3634     MEOH     LP1A     LPD     -0.230000        0.0000           -1   0.00000   0.00000
     53744 MEOH     3634     MEOH     LP1B     LPD     -0.230000        0.0000           -1   0.00000   0.00000
     53745 MEOH     3635     MEOH     C1       CD33B    2.314100       11.6110           0   -1.00000   1.30000
     53746 MEOH     3635     MEOH     DC1      DRUD    -2.454100        0.4000           0   0.00000   0.00000
     53747 MEOH     3635     MEOH     O1       OD31H    2.488300       15.5990           0   -1.02800   1.30000
     53748 MEOH     3635     MEOH     DO1      DRUD    -2.488300        0.4000           0   0.00000   0.00000
     53749 MEOH     3635     MEOH     HO1      HDP1A    0.360000        1.0080           0   0.00000   0.00000
     53750 MEOH     3635     MEOH     HO2      DUMH     0.000000        1.0080           0   0.00000   0.00000
     53751 MEOH     3635     MEOH     H1A      HDA3B    0.080000        1.0080           0   0.00000   0.00000
     53752 MEOH     3635     MEOH     H1B      HDA3B    0.080000        1.0080           0   0.00000   0.00000
     53753 MEOH     3635     MEOH     H1C      HDA3B    0.080000        1.0080           0   0.00000   0.00000
     53754 MEOH     3635     MEOH     LP1A     LPD     -0.230000        0.0000           -1   0.00000   0.00000
     53755 MEOH     3635     MEOH     LP1B     LPD     -0.230000        0.0000           -1   0.00000   0.00000
     53756 MEOH     3636     MEOH     C1       CD33B    2.314100       11.6110           0   -1.00000   1.30000
     53757 MEOH     3636     MEOH     DC1      DRUD    -2.454100        0.4000           0   0.00000   0.00000
     53758 MEOH     3636     MEOH     O1       OD31H    2.488300       15.5990           0   -1.02800   1.30000
     53759 MEOH     3636     MEOH     DO1      DRUD    -2.488300        0.4000           0   0.00000   0.00000
     53760 MEOH     3636     MEOH     HO1      HDP1A    0.360000        1.0080           0   0.00000   0.00000
     53761 MEOH     3636     MEOH     HO2      DUMH     0.000000        1.0080           0   0.00000   0.00000
     53762 MEOH     3636     MEOH     H1A      HDA3B    0.080000        1.0080           0   0.00000   0.00000
     53763 MEOH     3636     MEOH     H1B      HDA3B    0.080000        1.0080           0   0.00000   0.00000
     53764 MEOH     3636     MEOH     H1C      HDA3B    0.080000        1.0080           0   0.00000   0.00000
     53765 MEOH     3636     MEOH     LP1A     LPD     -0.230000        0.0000           -1   0.00000   0.00000
     53766 MEOH     3636     MEOH     LP1B     LPD     -0.230000        0.0000           -1   0.00000   0.00000
     53767 MEOH     3637     MEOH     C1       CD33B    2.314100       11.6110           0   -1.00000   1.30000
     53768 MEOH     3637     MEOH     DC1      DRUD    -2.454100        0.4000           0   0.00000   0.00000
     53769 MEOH     3637     MEOH     O1       OD31H    2.488300       15.5990           0   -1.02800   1.30000
     53770 MEOH     3637     MEOH     DO1      DRUD    -2.488300        0.4000           0   0.00000   0.00000
     53771 MEOH     3637     MEOH     HO1      HDP1A    0.360000        1.0080           0   0.00000   0.00000
     53772 MEOH     3637     MEOH     HO2      DUMH     0.000000        1.0080           0   0.00000   0.00000
     53773 MEOH     3637     MEOH     H1A      HDA3B    0.080000        1.0080           0   0.00000   0.00000
     53774 MEOH     3637     MEOH     H1B      HDA3B    0.080000        1.0080           0   0.00000   0.00000
     53775 MEOH     3637     MEOH     H1C      HDA3B    0.080000        1.0080           0   0.00000   0.00000
     53776 MEOH     3637     MEOH     LP1A     LPD     -0.230000        0.0000           -1   0.00000   0.00000
     53777 MEOH     3637     MEOH     LP1B     LPD     -0.230000        0.0000           -1   0.00000   0.00000
     53778 MEOH     3638     MEOH     C1       CD33B    2.314100       11.6110           0   -1.00000   1.30000
     53779 MEOH     3638     MEOH     DC1      DRUD    -2.454100        0.4000           0   0.00000   0.00000
     53780 MEOH     3638     MEOH     O1       OD31H    2.488300       15.5990           0   -1.02800   1.30000
     53781 MEOH     3638     MEOH     DO1      DRUD    -2.488300        0.4000           0   0.00000   0.00000
     53782 MEOH     3638     MEOH     HO1      HDP1A    0.360000        1.0080           0   0.00000   0.00000
     53783 MEOH     3638     MEOH     HO2      DUMH     0.000000        1.0080           0   0.00000   0.00000
     53784 MEOH     3638     MEOH     H1A      HDA3B    0.080000        1.0080           0   0.00000   0.00000
     53785 MEOH     3638     MEOH     H1B      HDA3B    0.080000        1.0080           0   0.00000   0.00000
     53786 MEOH     3638     MEOH     H1C      HDA3B    0.080000        1.0080           0   0.00000   0.00000
     53787 MEOH     3638     MEOH     LP1A     LPD     -0.230000        0.0000           -1   0.00000   0.00000
     53788 MEOH     3638     MEOH     LP1B     LPD     -0.230000        0.0000           -1   0.00000   0.00000
     53789 MEOH     3639     MEOH     C1       CD33B    2.314100       11.6110           0   -1.00000   1.30000
     53790 MEOH     3639     MEOH     DC1      DRUD    -2.454100        0.4000           0   0.00000   0.00000
     53791 MEOH     3639     MEOH     O1       OD31H    2.488300       15.5990           0   -1.02800   1.30000
     53792 MEOH     3639     MEOH     DO1      DRUD    -2.488300        0.4000           0   0.00000   0.00000
     53793 MEOH     3639     MEOH     HO1      HDP1A    0.360000        1.0080           0   0.00000   0.00000
     53794 MEOH     3639     MEOH     HO2      DUMH     0.000000        1.0080           0   0.00000   0.00000
     53795 MEOH     3639     MEOH     H1A      HDA3B    0.080000        1.0080           0   0.00000   0.00000
     53796 MEOH     3639     MEOH     H1B      HDA3B    0.080000        1.0080           0   0.00000   0.00000
     53797 MEOH     3639     MEOH     H1C      HDA3B    0.080000        1.0080           0   0.00000   0.00000
     53798 MEOH     3639     MEOH     LP1A     LPD     -0.230000        0.0000           -1   0.00000   0.00000
     53799 MEOH     3639     MEOH     LP1B     LPD     -0.230000        0.0000           -1   0.00000   0.00000
     53800 MEOH     3640     MEOH     C1       CD33B    2.314100       11.6110           0   -1.00000   1.30000
     53801 MEOH     3640     MEOH     DC1      DRUD    -2.454100        0.4000           0   0.00000   0.00000
     53802 MEOH     3640     MEOH     O1       OD31H    2.488300       15.5990           0   -1.02800   1.30000
     53803 MEOH     3640     MEOH     DO1      DRUD    -2.488300        0.4000           0   0.00000   0.00000
     53804 MEOH     3640     MEOH     HO1      HDP1A    0.360000        1.0080           0   0.00000   0.00000
     53805 MEOH     3640     MEOH     HO2      DUMH     0.000000        1.0080           0   0.00000   0.00000
     53806 MEOH     3640     MEOH     H1A      HDA3B    0.080000        1.0080           0   0.00000   0.00000
     53807 MEOH     3640     MEOH     H1B      HDA3B    0.080000        1.0080           0   0.00000   0.00000
     53808 MEOH     3640     MEOH     H1C      HDA3B    0.080000        1.0080           0   0.00000   0.00000
     53809 MEOH     3640     MEOH     LP1A     LPD     -0.230000        0.0000           -1   0.00000   0.00000
     53810 MEOH     3640     MEOH     LP1B     LPD     -0.230000        0.0000           -1   0.00000   0.00000
     53811 MEOH     3641     MEOH     C1       CD33B    2.314100       11.6110           0   -1.00000   1.30000
     53812 MEOH     3641     MEOH     DC1      DRUD    -2.454100        0.4000           0   0.00000   0.00000
     53813 MEOH     3641     MEOH     O1       OD31H    2.488300       15.5990           0   -1.02800   1.30000
     53814 MEOH     3641     MEOH     DO1      DRUD    -2.488300        0.4000           0   0.00000   0.00000
     53815 MEOH     3641     MEOH     HO1      HDP1A    0.360000        1.0080           0   0.00000   0.00000
     53816 MEOH     3641     MEOH     HO2      DUMH     0.000000        1.0080           0   0.00000   0.00000
     53817 MEOH     3641     MEOH     H1A      HDA3B    0.080000        1.0080           0   0.00000   0.00000
     53818 MEOH     3641     MEOH     H1B      HDA3B    0.080000        1.0080           0   0.00000   0.00000
     53819 MEOH     3641     MEOH     H1C      HDA3B    0.080000        1.0080           0   0.00000   0.00000
     53820 MEOH     3641     MEOH     LP1A     LPD     -0.230000        0.0000           -1   0.00000   0.00000
     53821 MEOH     3641     MEOH     LP1B     LPD     -0.230000        0.0000           -1   0.00000   0.00000
     53822 MEOH     3642     MEOH     C1       CD33B    2.314100       11.6110           0   -1.00000   1.30000
     53823 MEOH     3642     MEOH     DC1      DRUD    -2.454100        0.4000           0   0.00000   0.00000
     53824 MEOH     3642     MEOH     O1       OD31H    2.488300       15.5990           0   -1.02800   1.30000
     53825 MEOH     3642     MEOH     DO1      DRUD    -2.488300        0.4000           0   0.00000   0.00000
     53826 MEOH     3642     MEOH     HO1      HDP1A    0.360000        1.0080           0   0.00000   0.00000
     53827 MEOH     3642     MEOH     HO2      DUMH     0.000000        1.0080           0   0.00000   0.00000
     53828 MEOH     3642     MEOH     H1A      HDA3B    0.080000        1.0080           0   0.00000   0.00000
     53829 MEOH     3642     MEOH     H1B      HDA3B    0.080000        1.0080           0   0.00000   0.00000
     53830 MEOH     3642     MEOH     H1C      HDA3B    0.080000        1.0080           0   0.00000   0.00000
     53831 MEOH     3642     MEOH     LP1A     LPD     -0.230000        0.0000           -1   0.00000   0.00000
     53832 MEOH     3642     MEOH     LP1B     LPD     -0.230000        0.0000           -1   0.00000   0.00000
     53833 MEOH     3643     MEOH     C1       CD33B    2.314100       11.6110           0   -1.00000   1.30000
     53834 MEOH     3643     MEOH     DC1      DRUD    -2.454100        0.4000           0   0.00000   0.00000
     53835 MEOH     3643     MEOH     O1       OD31H    2.488300       15.5990           0   -1.02800   1.30000
     53836 MEOH     3643     MEOH     DO1      DRUD    -2.488300        0.4000           0   0.00000   0.00000
     53837 MEOH     3643     MEOH     HO1      HDP1A    0.360000        1.0080           0   0.00000   0.00000
     53838 MEOH     3643     MEOH     HO2      DUMH     0.000000        1.0080           0   0.00000   0.00000
     53839 MEOH     3643     MEOH     H1A      HDA3B    0.080000        1.0080           0   0.00000   0.00000
     53840 MEOH     3643     MEOH     H1B      HDA3B    0.080000        1.0080           0   0.00000   0.00000
     53841 MEOH     3643     MEOH     H1C      HDA3B    0.080000        1.0080           0   0.00000   0.00000
     53842 MEOH     3643     MEOH     LP1A     LPD     -0.230000        0.0000           -1   0.00000   0.00000
     53843 MEOH     3643     MEOH     LP1B     LPD     -0.230000        0.0000           -1   0.00000   0.00000
     53844 MEOH     3644     MEOH     C1       CD33B    2.314100       11.6110           0   -1.00000   1.30000
     53845 MEOH     3644     MEOH     DC1      DRUD    -2.454100        0.4000           0   0.00000   0.00000
     53846 MEOH     3644     MEOH     O1       OD31H    2.488300       15.5990           0   -1.02800   1.30000
     53847 MEOH     3644     MEOH     DO1      DRUD    -2.488300        0.4000           0   0.00000   0.00000
     53848 MEOH     3644     MEOH     HO1      HDP1A    0.360000        1.0080           0   0.00000   0.00000
     53849 MEOH     3644     MEOH     HO2      DUMH     0.000000        1.0080           0   0.00000   0.00000
     53850 MEOH     3644     MEOH     H1A      HDA3B    0.080000        1.0080           0   0.00000   0.00000
     53851 MEOH     3644     MEOH     H1B      HDA3B    0.080000        1.0080           0   0.00000   0.00000
     53852 MEOH     3644     MEOH     H1C      HDA3B    0.080000        1.0080           0   0.00000   0.00000
     53853 MEOH     3644     MEOH     LP1A     LPD     -0.230000        0.0000           -1   0.00000   0.00000
     53854 MEOH     3644     MEOH     LP1B     LPD     -0.230000        0.0000           -1   0.00000   0.00000
     53855 MEOH     3645     MEOH     C1       CD33B    2.314100       11.6110           0   -1.00000   1.30000
     53856 MEOH     3645     MEOH     DC1      DRUD    -2.454100        0.4000           0   0.00000   0.00000
     53857 MEOH     3645     MEOH     O1       OD31H    2.488300       15.5990           0   -1.02800   1.30000
     53858 MEOH     3645     MEOH     DO1      DRUD    -2.488300        0.4000           0   0.00000   0.00000
     53859 MEOH     3645     MEOH     HO1      HDP1A    0.360000        1.0080           0   0.00000   0.00000
     53860 MEOH     3645     MEOH     HO2      DUMH     0.000000        1.0080           0   0.00000   0.00000
     53861 MEOH     3645     MEOH     H1A      HDA3B    0.080000        1.0080           0   0.00000   0.00000
     53862 MEOH     3645     MEOH     H1B      HDA3B    0.080000        1.0080           0   0.00000   0.00000
     53863 MEOH     3645     MEOH     H1C      HDA3B    0.080000        1.0080           0   0.00000   0.00000
     53864 MEOH     3645     MEOH     LP1A     LPD     -0.230000        0.0000           -1   0.00000   0.00000
     53865 MEOH     3645     MEOH     LP1B     LPD     -0.230000        0.0000           -1   0.00000   0.00000
     53866 MEOH     3646     MEOH     C1       CD33B    2.314100       11.6110           0   -1.00000   1.30000
     53867 MEOH     3646     MEOH     DC1      DRUD    -2.454100        0.4000           0   0.00000   0.00000
     53868 MEOH     3646     MEOH     O1       OD31H    2.488300       15.5990           0   -1.02800   1.30000
     53869 MEOH     3646     MEOH     DO1      DRUD    -2.488300        0.4000           0   0.00000   0.00000
     53870 MEOH     3646     MEOH     HO1      HDP1A    0.360000        1.0080           0   0.00000   0.00000
     53871 MEOH     3646     MEOH     HO2      DUMH     0.000000        1.0080           0   0.00000   0.00000
     53872 MEOH     3646     MEOH     H1A      HDA3B    0.080000        1.0080           0   0.00000   0.00000
     53873 MEOH     3646     MEOH     H1B      HDA3B    0.080000        1.0080           0   0.00000   0.00000
     53874 MEOH     3646     MEOH     H1C      HDA3B    0.080000        1.0080           0   0.00000   0.00000
     53875 MEOH     3646     MEOH     LP1A     LPD     -0.230000        0.0000           -1   0.00000   0.00000
     53876 MEOH     3646     MEOH     LP1B     LPD     -0.230000        0.0000           -1   0.00000   0.00000
     53877 MEOH     3647     MEOH     C1       CD33B    2.314100       11.6110           0   -1.00000   1.30000
     53878 MEOH     3647     MEOH     DC1      DRUD    -2.454100        0.4000           0   0.00000   0.00000
     53879 MEOH     3647     MEOH     O1       OD31H    2.488300       15.5990           0   -1.02800   1.30000
     53880 MEOH     3647     MEOH     DO1      DRUD    -2.488300        0.4000           0   0.00000   0.00000
     53881 MEOH     3647     MEOH     HO1      HDP1A    0.360000        1.0080           0   0.00000   0.00000
     53882 MEOH     3647     MEOH     HO2      DUMH     0.000000        1.0080           0   0.00000   0.00000
     53883 MEOH     3647     MEOH     H1A      HDA3B    0.080000        1.0080           0   0.00000   0.00000
     53884 MEOH     3647     MEOH     H1B      HDA3B    0.080000        1.0080           0   0.00000   0.00000
     53885 MEOH     3647     MEOH     H1C      HDA3B    0.080000        1.0080           0   0.00000   0.00000
     53886 MEOH     3647     MEOH     LP1A     LPD     -0.230000        0.0000           -1   0.00000   0.00000
     53887 MEOH     3647     MEOH     LP1B     LPD     -0.230000        0.0000           -1   0.00000   0.00000
     53888 MEOH     3648     MEOH     C1       CD33B    2.314100       11.6110           0   -1.00000   1.30000
     53889 MEOH     3648     MEOH     DC1      DRUD    -2.454100        0.4000           0   0.00000   0.00000
     53890 MEOH     3648     MEOH     O1       OD31H    2.488300       15.5990           0   -1.02800   1.30000
     53891 MEOH     3648     MEOH     DO1      DRUD    -2.488300        0.4000           0   0.00000   0.00000
     53892 MEOH     3648     MEOH     HO1      HDP1A    0.360000        1.0080           0   0.00000   0.00000
     53893 MEOH     3648     MEOH     HO2      DUMH     0.000000        1.0080           0   0.00000   0.00000
     53894 MEOH     3648     MEOH     H1A      HDA3B    0.080000        1.0080           0   0.00000   0.00000
     53895 MEOH     3648     MEOH     H1B      HDA3B    0.080000        1.0080           0   0.00000   0.00000
     53896 MEOH     3648     MEOH     H1C      HDA3B    0.080000        1.0080           0   0.00000   0.00000
     53897 MEOH     3648     MEOH     LP1A     LPD     -0.230000        0.0000           -1   0.00000   0.00000
     53898 MEOH     3648     MEOH     LP1B     LPD     -0.230000        0.0000           -1   0.00000   0.00000
     53899 MEOH     3649     MEOH     C1       CD33B    2.314100       11.6110           0   -1.00000   1.30000
     53900 MEOH     3649     MEOH     DC1      DRUD    -2.454100        0.4000           0   0.00000   0.00000
     53901 MEOH     3649     MEOH     O1       OD31H    2.488300       15.5990           0   -1.02800   1.30000
     53902 MEOH     3649     MEOH     DO1      DRUD    -2.488300        0.4000           0   0.00000   0.00000
     53903 MEOH     3649     MEOH     HO1      HDP1A    0.360000        1.0080           0   0.00000   0.00000
     53904 MEOH     3649     MEOH     HO2      DUMH     0.000000        1.0080           0   0.00000   0.00000
     53905 MEOH     3649     MEOH     H1A      HDA3B    0.080000        1.0080           0   0.00000   0.00000
     53906 MEOH     3649     MEOH     H1B      HDA3B    0.080000        1.0080           0   0.00000   0.00000
     53907 MEOH     3649     MEOH     H1C      HDA3B    0.080000        1.0080           0   0.00000   0.00000
     53908 MEOH     3649     MEOH     LP1A     LPD     -0.230000        0.0000           -1   0.00000   0.00000
     53909 MEOH     3649     MEOH     LP1B     LPD     -0.230000        0.0000           -1   0.00000   0.00000
     53910 MEOH     3650     MEOH     C1       CD33B    2.314100       11.6110           0   -1.00000   1.30000
     53911 MEOH     3650     MEOH     DC1      DRUD    -2.454100        0.4000           0   0.00000   0.00000
     53912 MEOH     3650     MEOH     O1       OD31H    2.488300       15.5990           0   -1.02800   1.30000
     53913 MEOH     3650     MEOH     DO1      DRUD    -2.488300        0.4000           0   0.00000   0.00000
     53914 MEOH     3650     MEOH     HO1      HDP1A    0.360000        1.0080           0   0.00000   0.00000
     53915 MEOH     3650     MEOH     HO2      DUMH     0.000000        1.0080           0   0.00000   0.00000
     53916 MEOH     3650     MEOH     H1A      HDA3B    0.080000        1.0080           0   0.00000   0.00000
     53917 MEOH     3650     MEOH     H1B      HDA3B    0.080000        1.0080           0   0.00000   0.00000
     53918 MEOH     3650     MEOH     H1C      HDA3B    0.080000        1.0080           0   0.00000   0.00000
     53919 MEOH     3650     MEOH     LP1A     LPD     -0.230000        0.0000           -1   0.00000   0.00000
     53920 MEOH     3650     MEOH     LP1B     LPD     -0.230000        0.0000           -1   0.00000   0.00000
     53921 MEOH     3651     MEOH     C1       CD33B    2.314100       11.6110           0   -1.00000   1.30000
     53922 MEOH     3651     MEOH     DC1      DRUD    -2.454100        0.4000           0   0.00000   0.00000
     53923 MEOH     3651     MEOH     O1       OD31H    2.488300       15.5990           0   -1.02800   1.30000
     53924 MEOH     3651     MEOH     DO1      DRUD    -2.488300        0.4000           0   0.00000   0.00000
     53925 MEOH     3651     MEOH     HO1      HDP1A    0.360000        1.0080           0   0.00000   0.00000
     53926 MEOH     3651     MEOH     HO2      DUMH     0.000000        1.0080           0   0.00000   0.00000
     53927 MEOH     3651     MEOH     H1A      HDA3B    0.080000        1.0080           0   0.00000   0.00000
     53928 MEOH     3651     MEOH     H1B      HDA3B    0.080000        1.0080           0   0.00000   0.00000
     53929 MEOH     3651     MEOH     H1C      HDA3B    0.080000        1.0080           0   0.00000   0.00000
     53930 MEOH     3651     MEOH     LP1A     LPD     -0.230000        0.0000           -1   0.00000   0.00000
     53931 MEOH     3651     MEOH     LP1B     LPD     -0.230000        0.0000           -1   0.00000   0.00000
     53932 MEOH     3652     MEOH     C1       CD33B    2.314100       11.6110           0   -1.00000   1.30000
     53933 MEOH     3652     MEOH     DC1      DRUD    -2.454100        0.4000           0   0.00000   0.00000
     53934 MEOH     3652     MEOH     O1       OD31H    2.488300       15.5990           0   -1.02800   1.30000
     53935 MEOH     3652     MEOH     DO1      DRUD    -2.488300        0.4000           0   0.00000   0.00000
     53936 MEOH     3652     MEOH     HO1      HDP1A    0.360000        1.0080           0   0.00000   0.00000
     53937 MEOH     3652     MEOH     HO2      DUMH     0.000000        1.0080           0   0.00000   0.00000
     53938 MEOH     3652     MEOH     H1A      HDA3B    0.080000        1.0080           0   0.00000   0.00000
     53939 MEOH     3652     MEOH     H1B      HDA3B    0.080000        1.0080           0   0.00000   0.00000
     53940 MEOH     3652     MEOH     H1C      HDA3B    0.080000        1.0080           0   0.00000   0.00000
     53941 MEOH     3652     MEOH     LP1A     LPD     -0.230000        0.0000           -1   0.00000   0.00000
     53942 MEOH     3652     MEOH     LP1B     LPD     -0.230000        0.0000           -1   0.00000   0.00000
     53943 MEOH     3653     MEOH     C1       CD33B    2.314100       11.6110           0   -1.00000   1.30000
     53944 MEOH     3653     MEOH     DC1      DRUD    -2.454100        0.4000           0   0.00000   0.00000
     53945 MEOH     3653     MEOH     O1       OD31H    2.488300       15.5990           0   -1.02800   1.30000
     53946 MEOH     3653     MEOH     DO1      DRUD    -2.488300        0.4000           0   0.00000   0.00000
     53947 MEOH     3653     MEOH     HO1      HDP1A    0.360000        1.0080           0   0.00000   0.00000
     53948 MEOH     3653     MEOH     HO2      DUMH     0.000000        1.0080           0   0.00000   0.00000
     53949 MEOH     3653     MEOH     H1A      HDA3B    0.080000        1.0080           0   0.00000   0.00000
     53950 MEOH     3653     MEOH     H1B      HDA3B    0.080000        1.0080           0   0.00000   0.00000
     53951 MEOH     3653     MEOH     H1C      HDA3B    0.080000        1.0080           0   0.00000   0.00000
     53952 MEOH     3653     MEOH     LP1A     LPD     -0.230000        0.0000           -1   0.00000   0.00000
     53953 MEOH     3653     MEOH     LP1B     LPD     -0.230000        0.0000           -1   0.00000   0.00000
     53954 MEOH     3654     MEOH     C1       CD33B    2.314100       11.6110           0   -1.00000   1.30000
     53955 MEOH     3654     MEOH     DC1      DRUD    -2.454100        0.4000           0   0.00000   0.00000
     53956 MEOH     3654     MEOH     O1       OD31H    2.488300       15.5990           0   -1.02800   1.30000
     53957 MEOH     3654     MEOH     DO1      DRUD    -2.488300        0.4000           0   0.00000   0.00000
     53958 MEOH     3654     MEOH     HO1      HDP1A    0.360000        1.0080           0   0.00000   0.00000
     53959 MEOH     3654     MEOH     HO2      DUMH     0.000000        1.0080           0   0.00000   0.00000
     53960 MEOH     3654     MEOH     H1A      HDA3B    0.080000        1.0080           0   0.00000   0.00000
     53961 MEOH     3654     MEOH     H1B      HDA3B    0.080000        1.0080           0   0.00000   0.00000
     53962 MEOH     3654     MEOH     H1C      HDA3B    0.080000        1.0080           0   0.00000   0.00000
     53963 MEOH     3654     MEOH     LP1A     LPD     -0.230000        0.0000           -1   0.00000   0.00000
     53964 MEOH     3654     MEOH     LP1B     LPD     -0.230000        0.0000           -1   0.00000   0.00000
     53965 MEOH     3655     MEOH     C1       CD33B    2.314100       11.6110           0   -1.00000   1.30000
     53966 MEOH     3655     MEOH     DC1      DRUD    -2.454100        0.4000           0   0.00000   0.00000
     53967 MEOH     3655     MEOH     O1       OD31H    2.488300       15.5990           0   -1.02800   1.30000
     53968 MEOH     3655     MEOH     DO1      DRUD    -2.488300        0.4000           0   0.00000   0.00000
     53969 MEOH     3655     MEOH     HO1      HDP1A    0.360000        1.0080           0   0.00000   0.00000
     53970 MEOH     3655     MEOH     HO2      DUMH     0.000000        1.0080           0   0.00000   0.00000
     53971 MEOH     3655     MEOH     H1A      HDA3B    0.080000        1.0080           0   0.00000   0.00000
     53972 MEOH     3655     MEOH     H1B      HDA3B    0.080000        1.0080           0   0.00000   0.00000
     53973 MEOH     3655     MEOH     H1C      HDA3B    0.080000        1.0080           0   0.00000   0.00000
     53974 MEOH     3655     MEOH     LP1A     LPD     -0.230000        0.0000           -1   0.00000   0.00000
     53975 MEOH     3655     MEOH     LP1B     LPD     -0.230000        0.0000           -1   0.00000   0.00000
     53976 MEOH     3656     MEOH     C1       CD33B    2.314100       11.6110           0   -1.00000   1.30000
     53977 MEOH     3656     MEOH     DC1      DRUD    -2.454100        0.4000           0   0.00000   0.00000
     53978 MEOH     3656     MEOH     O1       OD31H    2.488300       15.5990           0   -1.02800   1.30000
     53979 MEOH     3656     MEOH     DO1      DRUD    -2.488300        0.4000           0   0.00000   0.00000
     53980 MEOH     3656     MEOH     HO1      HDP1A    0.360000        1.0080           0   0.00000   0.00000
     53981 MEOH     3656     MEOH     HO2      DUMH     0.000000        1.0080           0   0.00000   0.00000
     53982 MEOH     3656     MEOH     H1A      HDA3B    0.080000        1.0080           0   0.00000   0.00000
     53983 MEOH     3656     MEOH     H1B      HDA3B    0.080000        1.0080           0   0.00000   0.00000
     53984 MEOH     3656     MEOH     H1C      HDA3B    0.080000        1.0080           0   0.00000   0.00000
     53985 MEOH     3656     MEOH     LP1A     LPD     -0.230000        0.0000           -1   0.00000   0.00000
     53986 MEOH     3656     MEOH     LP1B     LPD     -0.230000        0.0000           -1   0.00000   0.00000
     53987 MEOH     3657     MEOH     C1       CD33B    2.314100       11.6110           0   -1.00000   1.30000
     53988 MEOH     3657     MEOH     DC1      DRUD    -2.454100        0.4000           0   0.00000   0.00000
     53989 MEOH     3657     MEOH     O1       OD31H    2.488300       15.5990           0   -1.02800   1.30000
     53990 MEOH     3657     MEOH     DO1      DRUD    -2.488300        0.4000           0   0.00000   0.00000
     53991 MEOH     3657     MEOH     HO1      HDP1A    0.360000        1.0080           0   0.00000   0.00000
     53992 MEOH     3657     MEOH     HO2      DUMH     0.000000        1.0080           0   0.00000   0.00000
     53993 MEOH     3657     MEOH     H1A      HDA3B    0.080000        1.0080           0   0.00000   0.00000
     53994 MEOH     3657     MEOH     H1B      HDA3B    0.080000        1.0080           0   0.00000   0.00000
     53995 MEOH     3657     MEOH     H1C      HDA3B    0.080000        1.0080           0   0.00000   0.00000
     53996 MEOH     3657     MEOH     LP1A     LPD     -0.230000        0.0000           -1   0.00000   0.00000
     53997 MEOH     3657     MEOH     LP1B     LPD     -0.230000        0.0000           -1   0.00000   0.00000
     53998 MEOH     3658     MEOH     C1       CD33B    2.314100       11.6110           0   -1.00000   1.30000
     53999 MEOH     3658     MEOH     DC1      DRUD    -2.454100        0.4000           0   0.00000   0.00000
     54000 MEOH     3658     MEOH     O1       OD31H    2.488300       15.5990           0   -1.02800   1.30000
     54001 MEOH     3658     MEOH     DO1      DRUD    -2.488300        0.4000           0   0.00000   0.00000
     54002 MEOH     3658     MEOH     HO1      HDP1A    0.360000        1.0080           0   0.00000   0.00000
     54003 MEOH     3658     MEOH     HO2      DUMH     0.000000        1.0080           0   0.00000   0.00000
     54004 MEOH     3658     MEOH     H1A      HDA3B    0.080000        1.0080           0   0.00000   0.00000
     54005 MEOH     3658     MEOH     H1B      HDA3B    0.080000        1.0080           0   0.00000   0.00000
     54006 MEOH     3658     MEOH     H1C      HDA3B    0.080000        1.0080           0   0.00000   0.00000
     54007 MEOH     3658     MEOH     LP1A     LPD     -0.230000        0.0000           -1   0.00000   0.00000
     54008 MEOH     3658     MEOH     LP1B     LPD     -0.230000        0.0000           -1   0.00000   0.00000
     54009 MEOH     3659     MEOH     C1       CD33B    2.314100       11.6110           0   -1.00000   1.30000
     54010 MEOH     3659     MEOH     DC1      DRUD    -2.454100        0.4000           0   0.00000   0.00000
     54011 MEOH     3659     MEOH     O1       OD31H    2.488300       15.5990           0   -1.02800   1.30000
     54012 MEOH     3659     MEOH     DO1      DRUD    -2.488300        0.4000           0   0.00000   0.00000
     54013 MEOH     3659     MEOH     HO1      HDP1A    0.360000        1.0080           0   0.00000   0.00000
     54014 MEOH     3659     MEOH     HO2      DUMH     0.000000        1.0080           0   0.00000   0.00000
     54015 MEOH     3659     MEOH     H1A      HDA3B    0.080000        1.0080           0   0.00000   0.00000
     54016 MEOH     3659     MEOH     H1B      HDA3B    0.080000        1.0080           0   0.00000   0.00000
     54017 MEOH     3659     MEOH     H1C      HDA3B    0.080000        1.0080           0   0.00000   0.00000
     54018 MEOH     3659     MEOH     LP1A     LPD     -0.230000        0.0000           -1   0.00000   0.00000
     54019 MEOH     3659     MEOH     LP1B     LPD     -0.230000        0.0000           -1   0.00000   0.00000
     54020 MEOH     3660     MEOH     C1       CD33B    2.314100       11.6110           0   -1.00000   1.30000
     54021 MEOH     3660     MEOH     DC1      DRUD    -2.454100        0.4000           0   0.00000   0.00000
     54022 MEOH     3660     MEOH     O1       OD31H    2.488300       15.5990           0   -1.02800   1.30000
     54023 MEOH     3660     MEOH     DO1      DRUD    -2.488300        0.4000           0   0.00000   0.00000
     54024 MEOH     3660     MEOH     HO1      HDP1A    0.360000        1.0080           0   0.00000   0.00000
     54025 MEOH     3660     MEOH     HO2      DUMH     0.000000        1.0080           0   0.00000   0.00000
     54026 MEOH     3660     MEOH     H1A      HDA3B    0.080000        1.0080           0   0.00000   0.00000
     54027 MEOH     3660     MEOH     H1B      HDA3B    0.080000        1.0080           0   0.00000   0.00000
     54028 MEOH     3660     MEOH     H1C      HDA3B    0.080000        1.0080           0   0.00000   0.00000
     54029 MEOH     3660     MEOH     LP1A     LPD     -0.230000        0.0000           -1   0.00000   0.00000
     54030 MEOH     3660     MEOH     LP1B     LPD     -0.230000        0.0000           -1   0.00000   0.00000
     54031 MEOH     3661     MEOH     C1       CD33B    2.314100       11.6110           0   -1.00000   1.30000
     54032 MEOH     3661     MEOH     DC1      DRUD    -2.454100        0.4000           0   0.00000   0.00000
     54033 MEOH     3661     MEOH     O1       OD31H    2.488300       15.5990           0   -1.02800   1.30000
     54034 MEOH     3661     MEOH     DO1      DRUD    -2.488300        0.4000           0   0.00000   0.00000
     54035 MEOH     3661     MEOH     HO1      HDP1A    0.360000        1.0080           0   0.00000   0.00000
     54036 MEOH     3661     MEOH     HO2      DUMH     0.000000        1.0080           0   0.00000   0.00000
     54037 MEOH     3661     MEOH     H1A      HDA3B    0.080000        1.0080           0   0.00000   0.00000
     54038 MEOH     3661     MEOH     H1B      HDA3B    0.080000        1.0080           0   0.00000   0.00000
     54039 MEOH     3661     MEOH     H1C      HDA3B    0.080000        1.0080           0   0.00000   0.00000
     54040 MEOH     3661     MEOH     LP1A     LPD     -0.230000        0.0000           -1   0.00000   0.00000
     54041 MEOH     3661     MEOH     LP1B     LPD     -0.230000        0.0000           -1   0.00000   0.00000
     54042 MEOH     3662     MEOH     C1       CD33B    2.314100       11.6110           0   -1.00000   1.30000
     54043 MEOH     3662     MEOH     DC1      DRUD    -2.454100        0.4000           0   0.00000   0.00000
     54044 MEOH     3662     MEOH     O1       OD31H    2.488300       15.5990           0   -1.02800   1.30000
     54045 MEOH     3662     MEOH     DO1      DRUD    -2.488300        0.4000           0   0.00000   0.00000
     54046 MEOH     3662     MEOH     HO1      HDP1A    0.360000        1.0080           0   0.00000   0.00000
     54047 MEOH     3662     MEOH     HO2      DUMH     0.000000        1.0080           0   0.00000   0.00000
     54048 MEOH     3662     MEOH     H1A      HDA3B    0.080000        1.0080           0   0.00000   0.00000
     54049 MEOH     3662     MEOH     H1B      HDA3B    0.080000        1.0080           0   0.00000   0.00000
     54050 MEOH     3662     MEOH     H1C      HDA3B    0.080000        1.0080           0   0.00000   0.00000
     54051 MEOH     3662     MEOH     LP1A     LPD     -0.230000        0.0000           -1   0.00000   0.00000
     54052 MEOH     3662     MEOH     LP1B     LPD     -0.230000        0.0000           -1   0.00000   0.00000
     54053 MEOH     3663     MEOH     C1       CD33B    2.314100       11.6110           0   -1.00000   1.30000
     54054 MEOH     3663     MEOH     DC1      DRUD    -2.454100        0.4000           0   0.00000   0.00000
     54055 MEOH     3663     MEOH     O1       OD31H    2.488300       15.5990           0   -1.02800   1.30000
     54056 MEOH     3663     MEOH     DO1      DRUD    -2.488300        0.4000           0   0.00000   0.00000
     54057 MEOH     3663     MEOH     HO1      HDP1A    0.360000        1.0080           0   0.00000   0.00000
     54058 MEOH     3663     MEOH     HO2      DUMH     0.000000        1.0080           0   0.00000   0.00000
     54059 MEOH     3663     MEOH     H1A      HDA3B    0.080000        1.0080           0   0.00000   0.00000
     54060 MEOH     3663     MEOH     H1B      HDA3B    0.080000        1.0080           0   0.00000   0.00000
     54061 MEOH     3663     MEOH     H1C      HDA3B    0.080000        1.0080           0   0.00000   0.00000
     54062 MEOH     3663     MEOH     LP1A     LPD     -0.230000        0.0000           -1   0.00000   0.00000
     54063 MEOH     3663     MEOH     LP1B     LPD     -0.230000        0.0000           -1   0.00000   0.00000
     54064 MEOH     3664     MEOH     C1       CD33B    2.314100       11.6110           0   -1.00000   1.30000
     54065 MEOH     3664     MEOH     DC1      DRUD    -2.454100        0.4000           0   0.00000   0.00000
     54066 MEOH     3664     MEOH     O1       OD31H    2.488300       15.5990           0   -1.02800   1.30000
     54067 MEOH     3664     MEOH     DO1      DRUD    -2.488300        0.4000           0   0.00000   0.00000
     54068 MEOH     3664     MEOH     HO1      HDP1A    0.360000        1.0080           0   0.00000   0.00000
     54069 MEOH     3664     MEOH     HO2      DUMH     0.000000        1.0080           0   0.00000   0.00000
     54070 MEOH     3664     MEOH     H1A      HDA3B    0.080000        1.0080           0   0.00000   0.00000
     54071 MEOH     3664     MEOH     H1B      HDA3B    0.080000        1.0080           0   0.00000   0.00000
     54072 MEOH     3664     MEOH     H1C      HDA3B    0.080000        1.0080           0   0.00000   0.00000
     54073 MEOH     3664     MEOH     LP1A     LPD     -0.230000        0.0000           -1   0.00000   0.00000
     54074 MEOH     3664     MEOH     LP1B     LPD     -0.230000        0.0000           -1   0.00000   0.00000
     54075 MEOH     3665     MEOH     C1       CD33B    2.314100       11.6110           0   -1.00000   1.30000
     54076 MEOH     3665     MEOH     DC1      DRUD    -2.454100        0.4000           0   0.00000   0.00000
     54077 MEOH     3665     MEOH     O1       OD31H    2.488300       15.5990           0   -1.02800   1.30000
     54078 MEOH     3665     MEOH     DO1      DRUD    -2.488300        0.4000           0   0.00000   0.00000
     54079 MEOH     3665     MEOH     HO1      HDP1A    0.360000        1.0080           0   0.00000   0.00000
     54080 MEOH     3665     MEOH     HO2      DUMH     0.000000        1.0080           0   0.00000   0.00000
     54081 MEOH     3665     MEOH     H1A      HDA3B    0.080000        1.0080           0   0.00000   0.00000
     54082 MEOH     3665     MEOH     H1B      HDA3B    0.080000        1.0080           0   0.00000   0.00000
     54083 MEOH     3665     MEOH     H1C      HDA3B    0.080000        1.0080           0   0.00000   0.00000
     54084 MEOH     3665     MEOH     LP1A     LPD     -0.230000        0.0000           -1   0.00000   0.00000
     54085 MEOH     3665     MEOH     LP1B     LPD     -0.230000        0.0000           -1   0.00000   0.00000
     54086 MEOH     3666     MEOH     C1       CD33B    2.314100       11.6110           0   -1.00000   1.30000
     54087 MEOH     3666     MEOH     DC1      DRUD    -2.454100        0.4000           0   0.00000   0.00000
     54088 MEOH     3666     MEOH     O1       OD31H    2.488300       15.5990           0   -1.02800   1.30000
     54089 MEOH     3666     MEOH     DO1      DRUD    -2.488300        0.4000           0   0.00000   0.00000
     54090 MEOH     3666     MEOH     HO1      HDP1A    0.360000        1.0080           0   0.00000   0.00000
     54091 MEOH     3666     MEOH     HO2      DUMH     0.000000        1.0080           0   0.00000   0.00000
     54092 MEOH     3666     MEOH     H1A      HDA3B    0.080000        1.0080           0   0.00000   0.00000
     54093 MEOH     3666     MEOH     H1B      HDA3B    0.080000        1.0080           0   0.00000   0.00000
     54094 MEOH     3666     MEOH     H1C      HDA3B    0.080000        1.0080           0   0.00000   0.00000
     54095 MEOH     3666     MEOH     LP1A     LPD     -0.230000        0.0000           -1   0.00000   0.00000
     54096 MEOH     3666     MEOH     LP1B     LPD     -0.230000        0.0000           -1   0.00000   0.00000
     54097 MEOH     3667     MEOH     C1       CD33B    2.314100       11.6110           0   -1.00000   1.30000
     54098 MEOH     3667     MEOH     DC1      DRUD    -2.454100        0.4000           0   0.00000   0.00000
     54099 MEOH     3667     MEOH     O1       OD31H    2.488300       15.5990           0   -1.02800   1.30000
     54100 MEOH     3667     MEOH     DO1      DRUD    -2.488300        0.4000           0   0.00000   0.00000
     54101 MEOH     3667     MEOH     HO1      HDP1A    0.360000        1.0080           0   0.00000   0.00000
     54102 MEOH     3667     MEOH     HO2      DUMH     0.000000        1.0080           0   0.00000   0.00000
     54103 MEOH     3667     MEOH     H1A      HDA3B    0.080000        1.0080           0   0.00000   0.00000
     54104 MEOH     3667     MEOH     H1B      HDA3B    0.080000        1.0080           0   0.00000   0.00000
     54105 MEOH     3667     MEOH     H1C      HDA3B    0.080000        1.0080           0   0.00000   0.00000
     54106 MEOH     3667     MEOH     LP1A     LPD     -0.230000        0.0000           -1   0.00000   0.00000
     54107 MEOH     3667     MEOH     LP1B     LPD     -0.230000        0.0000           -1   0.00000   0.00000
     54108 MEOH     3668     MEOH     C1       CD33B    2.314100       11.6110           0   -1.00000   1.30000
     54109 MEOH     3668     MEOH     DC1      DRUD    -2.454100        0.4000           0   0.00000   0.00000
     54110 MEOH     3668     MEOH     O1       OD31H    2.488300       15.5990           0   -1.02800   1.30000
     54111 MEOH     3668     MEOH     DO1      DRUD    -2.488300        0.4000           0   0.00000   0.00000
     54112 MEOH     3668     MEOH     HO1      HDP1A    0.360000        1.0080           0   0.00000   0.00000
     54113 MEOH     3668     MEOH     HO2      DUMH     0.000000        1.0080           0   0.00000   0.00000
     54114 MEOH     3668     MEOH     H1A      HDA3B    0.080000        1.0080           0   0.00000   0.00000
     54115 MEOH     3668     MEOH     H1B      HDA3B    0.080000        1.0080           0   0.00000   0.00000
     54116 MEOH     3668     MEOH     H1C      HDA3B    0.080000        1.0080           0   0.00000   0.00000
     54117 MEOH     3668     MEOH     LP1A     LPD     -0.230000        0.0000           -1   0.00000   0.00000
     54118 MEOH     3668     MEOH     LP1B     LPD     -0.230000        0.0000           -1   0.00000   0.00000
     54119 MEOH     3669     MEOH     C1       CD33B    2.314100       11.6110           0   -1.00000   1.30000
     54120 MEOH     3669     MEOH     DC1      DRUD    -2.454100        0.4000           0   0.00000   0.00000
     54121 MEOH     3669     MEOH     O1       OD31H    2.488300       15.5990           0   -1.02800   1.30000
     54122 MEOH     3669     MEOH     DO1      DRUD    -2.488300        0.4000           0   0.00000   0.00000
     54123 MEOH     3669     MEOH     HO1      HDP1A    0.360000        1.0080           0   0.00000   0.00000
     54124 MEOH     3669     MEOH     HO2      DUMH     0.000000        1.0080           0   0.00000   0.00000
     54125 MEOH     3669     MEOH     H1A      HDA3B    0.080000        1.0080           0   0.00000   0.00000
     54126 MEOH     3669     MEOH     H1B      HDA3B    0.080000        1.0080           0   0.00000   0.00000
     54127 MEOH     3669     MEOH     H1C      HDA3B    0.080000        1.0080           0   0.00000   0.00000
     54128 MEOH     3669     MEOH     LP1A     LPD     -0.230000        0.0000           -1   0.00000   0.00000
     54129 MEOH     3669     MEOH     LP1B     LPD     -0.230000        0.0000           -1   0.00000   0.00000
     54130 MEOH     3670     MEOH     C1       CD33B    2.314100       11.6110           0   -1.00000   1.30000
     54131 MEOH     3670     MEOH     DC1      DRUD    -2.454100        0.4000           0   0.00000   0.00000
     54132 MEOH     3670     MEOH     O1       OD31H    2.488300       15.5990           0   -1.02800   1.30000
     54133 MEOH     3670     MEOH     DO1      DRUD    -2.488300        0.4000           0   0.00000   0.00000
     54134 MEOH     3670     MEOH     HO1      HDP1A    0.360000        1.0080           0   0.00000   0.00000
     54135 MEOH     3670     MEOH     HO2      DUMH     0.000000        1.0080           0   0.00000   0.00000
     54136 MEOH     3670     MEOH     H1A      HDA3B    0.080000        1.0080           0   0.00000   0.00000
     54137 MEOH     3670     MEOH     H1B      HDA3B    0.080000        1.0080           0   0.00000   0.00000
     54138 MEOH     3670     MEOH     H1C      HDA3B    0.080000        1.0080           0   0.00000   0.00000
     54139 MEOH     3670     MEOH     LP1A     LPD     -0.230000        0.0000           -1   0.00000   0.00000
     54140 MEOH     3670     MEOH     LP1B     LPD     -0.230000        0.0000           -1   0.00000   0.00000
     54141 MEOH     3671     MEOH     C1       CD33B    2.314100       11.6110           0   -1.00000   1.30000
     54142 MEOH     3671     MEOH     DC1      DRUD    -2.454100        0.4000           0   0.00000   0.00000
     54143 MEOH     3671     MEOH     O1       OD31H    2.488300       15.5990           0   -1.02800   1.30000
     54144 MEOH     3671     MEOH     DO1      DRUD    -2.488300        0.4000           0   0.00000   0.00000
     54145 MEOH     3671     MEOH     HO1      HDP1A    0.360000        1.0080           0   0.00000   0.00000
     54146 MEOH     3671     MEOH     HO2      DUMH     0.000000        1.0080           0   0.00000   0.00000
     54147 MEOH     3671     MEOH     H1A      HDA3B    0.080000        1.0080           0   0.00000   0.00000
     54148 MEOH     3671     MEOH     H1B      HDA3B    0.080000        1.0080           0   0.00000   0.00000
     54149 MEOH     3671     MEOH     H1C      HDA3B    0.080000        1.0080           0   0.00000   0.00000
     54150 MEOH     3671     MEOH     LP1A     LPD     -0.230000        0.0000           -1   0.00000   0.00000
     54151 MEOH     3671     MEOH     LP1B     LPD     -0.230000        0.0000           -1   0.00000   0.00000
     54152 MEOH     3672     MEOH     C1       CD33B    2.314100       11.6110           0   -1.00000   1.30000
     54153 MEOH     3672     MEOH     DC1      DRUD    -2.454100        0.4000           0   0.00000   0.00000
     54154 MEOH     3672     MEOH     O1       OD31H    2.488300       15.5990           0   -1.02800   1.30000
     54155 MEOH     3672     MEOH     DO1      DRUD    -2.488300        0.4000           0   0.00000   0.00000
     54156 MEOH     3672     MEOH     HO1      HDP1A    0.360000        1.0080           0   0.00000   0.00000
     54157 MEOH     3672     MEOH     HO2      DUMH     0.000000        1.0080           0   0.00000   0.00000
     54158 MEOH     3672     MEOH     H1A      HDA3B    0.080000        1.0080           0   0.00000   0.00000
     54159 MEOH     3672     MEOH     H1B      HDA3B    0.080000        1.0080           0   0.00000   0.00000
     54160 MEOH     3672     MEOH     H1C      HDA3B    0.080000        1.0080           0   0.00000   0.00000
     54161 MEOH     3672     MEOH     LP1A     LPD     -0.230000        0.0000           -1   0.00000   0.00000
     54162 MEOH     3672     MEOH     LP1B     LPD     -0.230000        0.0000           -1   0.00000   0.00000
     54163 MEOH     3673     MEOH     C1       CD33B    2.314100       11.6110           0   -1.00000   1.30000
     54164 MEOH     3673     MEOH     DC1      DRUD    -2.454100        0.4000           0   0.00000   0.00000
     54165 MEOH     3673     MEOH     O1       OD31H    2.488300       15.5990           0   -1.02800   1.30000
     54166 MEOH     3673     MEOH     DO1      DRUD    -2.488300        0.4000           0   0.00000   0.00000
     54167 MEOH     3673     MEOH     HO1      HDP1A    0.360000        1.0080           0   0.00000   0.00000
     54168 MEOH     3673     MEOH     HO2      DUMH     0.000000        1.0080           0   0.00000   0.00000
     54169 MEOH     3673     MEOH     H1A      HDA3B    0.080000        1.0080           0   0.00000   0.00000
     54170 MEOH     3673     MEOH     H1B      HDA3B    0.080000        1.0080           0   0.00000   0.00000
     54171 MEOH     3673     MEOH     H1C      HDA3B    0.080000        1.0080           0   0.00000   0.00000
     54172 MEOH     3673     MEOH     LP1A     LPD     -0.230000        0.0000           -1   0.00000   0.00000
     54173 MEOH     3673     MEOH     LP1B     LPD     -0.230000        0.0000           -1   0.00000   0.00000
     54174 MEOH     3674     MEOH     C1       CD33B    2.314100       11.6110           0   -1.00000   1.30000
     54175 MEOH     3674     MEOH     DC1      DRUD    -2.454100        0.4000           0   0.00000   0.00000
     54176 MEOH     3674     MEOH     O1       OD31H    2.488300       15.5990           0   -1.02800   1.30000
     54177 MEOH     3674     MEOH     DO1      DRUD    -2.488300        0.4000           0   0.00000   0.00000
     54178 MEOH     3674     MEOH     HO1      HDP1A    0.360000        1.0080           0   0.00000   0.00000
     54179 MEOH     3674     MEOH     HO2      DUMH     0.000000        1.0080           0   0.00000   0.00000
     54180 MEOH     3674     MEOH     H1A      HDA3B    0.080000        1.0080           0   0.00000   0.00000
     54181 MEOH     3674     MEOH     H1B      HDA3B    0.080000        1.0080           0   0.00000   0.00000
     54182 MEOH     3674     MEOH     H1C      HDA3B    0.080000        1.0080           0   0.00000   0.00000
     54183 MEOH     3674     MEOH     LP1A     LPD     -0.230000        0.0000           -1   0.00000   0.00000
     54184 MEOH     3674     MEOH     LP1B     LPD     -0.230000        0.0000           -1   0.00000   0.00000
     54185 MEOH     3675     MEOH     C1       CD33B    2.314100       11.6110           0   -1.00000   1.30000
     54186 MEOH     3675     MEOH     DC1      DRUD    -2.454100        0.4000           0   0.00000   0.00000
     54187 MEOH     3675     MEOH     O1       OD31H    2.488300       15.5990           0   -1.02800   1.30000
     54188 MEOH     3675     MEOH     DO1      DRUD    -2.488300        0.4000           0   0.00000   0.00000
     54189 MEOH     3675     MEOH     HO1      HDP1A    0.360000        1.0080           0   0.00000   0.00000
     54190 MEOH     3675     MEOH     HO2      DUMH     0.000000        1.0080           0   0.00000   0.00000
     54191 MEOH     3675     MEOH     H1A      HDA3B    0.080000        1.0080           0   0.00000   0.00000
     54192 MEOH     3675     MEOH     H1B      HDA3B    0.080000        1.0080           0   0.00000   0.00000
     54193 MEOH     3675     MEOH     H1C      HDA3B    0.080000        1.0080           0   0.00000   0.00000
     54194 MEOH     3675     MEOH     LP1A     LPD     -0.230000        0.0000           -1   0.00000   0.00000
     54195 MEOH     3675     MEOH     LP1B     LPD     -0.230000        0.0000           -1   0.00000   0.00000
     54196 MEOH     3676     MEOH     C1       CD33B    2.314100       11.6110           0   -1.00000   1.30000
     54197 MEOH     3676     MEOH     DC1      DRUD    -2.454100        0.4000           0   0.00000   0.00000
     54198 MEOH     3676     MEOH     O1       OD31H    2.488300       15.5990           0   -1.02800   1.30000
     54199 MEOH     3676     MEOH     DO1      DRUD    -2.488300        0.4000           0   0.00000   0.00000
     54200 MEOH     3676     MEOH     HO1      HDP1A    0.360000        1.0080           0   0.00000   0.00000
     54201 MEOH     3676     MEOH     HO2      DUMH     0.000000        1.0080           0   0.00000   0.00000
     54202 MEOH     3676     MEOH     H1A      HDA3B    0.080000        1.0080           0   0.00000   0.00000
     54203 MEOH     3676     MEOH     H1B      HDA3B    0.080000        1.0080           0   0.00000   0.00000
     54204 MEOH     3676     MEOH     H1C      HDA3B    0.080000        1.0080           0   0.00000   0.00000
     54205 MEOH     3676     MEOH     LP1A     LPD     -0.230000        0.0000           -1   0.00000   0.00000
     54206 MEOH     3676     MEOH     LP1B     LPD     -0.230000        0.0000           -1   0.00000   0.00000
     54207 MEOH     3677     MEOH     C1       CD33B    2.314100       11.6110           0   -1.00000   1.30000
     54208 MEOH     3677     MEOH     DC1      DRUD    -2.454100        0.4000           0   0.00000   0.00000
     54209 MEOH     3677     MEOH     O1       OD31H    2.488300       15.5990           0   -1.02800   1.30000
     54210 MEOH     3677     MEOH     DO1      DRUD    -2.488300        0.4000           0   0.00000   0.00000
     54211 MEOH     3677     MEOH     HO1      HDP1A    0.360000        1.0080           0   0.00000   0.00000
     54212 MEOH     3677     MEOH     HO2      DUMH     0.000000        1.0080           0   0.00000   0.00000
     54213 MEOH     3677     MEOH     H1A      HDA3B    0.080000        1.0080           0   0.00000   0.00000
     54214 MEOH     3677     MEOH     H1B      HDA3B    0.080000        1.0080           0   0.00000   0.00000
     54215 MEOH     3677     MEOH     H1C      HDA3B    0.080000        1.0080           0   0.00000   0.00000
     54216 MEOH     3677     MEOH     LP1A     LPD     -0.230000        0.0000           -1   0.00000   0.00000
     54217 MEOH     3677     MEOH     LP1B     LPD     -0.230000        0.0000           -1   0.00000   0.00000
     54218 MEOH     3678     MEOH     C1       CD33B    2.314100       11.6110           0   -1.00000   1.30000
     54219 MEOH     3678     MEOH     DC1      DRUD    -2.454100        0.4000           0   0.00000   0.00000
     54220 MEOH     3678     MEOH     O1       OD31H    2.488300       15.5990           0   -1.02800   1.30000
     54221 MEOH     3678     MEOH     DO1      DRUD    -2.488300        0.4000           0   0.00000   0.00000
     54222 MEOH     3678     MEOH     HO1      HDP1A    0.360000        1.0080           0   0.00000   0.00000
     54223 MEOH     3678     MEOH     HO2      DUMH     0.000000        1.0080           0   0.00000   0.00000
     54224 MEOH     3678     MEOH     H1A      HDA3B    0.080000        1.0080           0   0.00000   0.00000
     54225 MEOH     3678     MEOH     H1B      HDA3B    0.080000        1.0080           0   0.00000   0.00000
     54226 MEOH     3678     MEOH     H1C      HDA3B    0.080000        1.0080           0   0.00000   0.00000
     54227 MEOH     3678     MEOH     LP1A     LPD     -0.230000        0.0000           -1   0.00000   0.00000
     54228 MEOH     3678     MEOH     LP1B     LPD     -0.230000        0.0000           -1   0.00000   0.00000
     54229 MEOH     3679     MEOH     C1       CD33B    2.314100       11.6110           0   -1.00000   1.30000
     54230 MEOH     3679     MEOH     DC1      DRUD    -2.454100        0.4000           0   0.00000   0.00000
     54231 MEOH     3679     MEOH     O1       OD31H    2.488300       15.5990           0   -1.02800   1.30000
     54232 MEOH     3679     MEOH     DO1      DRUD    -2.488300        0.4000           0   0.00000   0.00000
     54233 MEOH     3679     MEOH     HO1      HDP1A    0.360000        1.0080           0   0.00000   0.00000
     54234 MEOH     3679     MEOH     HO2      DUMH     0.000000        1.0080           0   0.00000   0.00000
     54235 MEOH     3679     MEOH     H1A      HDA3B    0.080000        1.0080           0   0.00000   0.00000
     54236 MEOH     3679     MEOH     H1B      HDA3B    0.080000        1.0080           0   0.00000   0.00000
     54237 MEOH     3679     MEOH     H1C      HDA3B    0.080000        1.0080           0   0.00000   0.00000
     54238 MEOH     3679     MEOH     LP1A     LPD     -0.230000        0.0000           -1   0.00000   0.00000
     54239 MEOH     3679     MEOH     LP1B     LPD     -0.230000        0.0000           -1   0.00000   0.00000
     54240 MEOH     3680     MEOH     C1       CD33B    2.314100       11.6110           0   -1.00000   1.30000
     54241 MEOH     3680     MEOH     DC1      DRUD    -2.454100        0.4000           0   0.00000   0.00000
     54242 MEOH     3680     MEOH     O1       OD31H    2.488300       15.5990           0   -1.02800   1.30000
     54243 MEOH     3680     MEOH     DO1      DRUD    -2.488300        0.4000           0   0.00000   0.00000
     54244 MEOH     3680     MEOH     HO1      HDP1A    0.360000        1.0080           0   0.00000   0.00000
     54245 MEOH     3680     MEOH     HO2      DUMH     0.000000        1.0080           0   0.00000   0.00000
     54246 MEOH     3680     MEOH     H1A      HDA3B    0.080000        1.0080           0   0.00000   0.00000
     54247 MEOH     3680     MEOH     H1B      HDA3B    0.080000        1.0080           0   0.00000   0.00000
     54248 MEOH     3680     MEOH     H1C      HDA3B    0.080000        1.0080           0   0.00000   0.00000
     54249 MEOH     3680     MEOH     LP1A     LPD     -0.230000        0.0000           -1   0.00000   0.00000
     54250 MEOH     3680     MEOH     LP1B     LPD     -0.230000        0.0000           -1   0.00000   0.00000
     54251 MEOH     3681     MEOH     C1       CD33B    2.314100       11.6110           0   -1.00000   1.30000
     54252 MEOH     3681     MEOH     DC1      DRUD    -2.454100        0.4000           0   0.00000   0.00000
     54253 MEOH     3681     MEOH     O1       OD31H    2.488300       15.5990           0   -1.02800   1.30000
     54254 MEOH     3681     MEOH     DO1      DRUD    -2.488300        0.4000           0   0.00000   0.00000
     54255 MEOH     3681     MEOH     HO1      HDP1A    0.360000        1.0080           0   0.00000   0.00000
     54256 MEOH     3681     MEOH     HO2      DUMH     0.000000        1.0080           0   0.00000   0.00000
     54257 MEOH     3681     MEOH     H1A      HDA3B    0.080000        1.0080           0   0.00000   0.00000
     54258 MEOH     3681     MEOH     H1B      HDA3B    0.080000        1.0080           0   0.00000   0.00000
     54259 MEOH     3681     MEOH     H1C      HDA3B    0.080000        1.0080           0   0.00000   0.00000
     54260 MEOH     3681     MEOH     LP1A     LPD     -0.230000        0.0000           -1   0.00000   0.00000
     54261 MEOH     3681     MEOH     LP1B     LPD     -0.230000        0.0000           -1   0.00000   0.00000
     54262 MEOH     3682     MEOH     C1       CD33B    2.314100       11.6110           0   -1.00000   1.30000
     54263 MEOH     3682     MEOH     DC1      DRUD    -2.454100        0.4000           0   0.00000   0.00000
     54264 MEOH     3682     MEOH     O1       OD31H    2.488300       15.5990           0   -1.02800   1.30000
     54265 MEOH     3682     MEOH     DO1      DRUD    -2.488300        0.4000           0   0.00000   0.00000
     54266 MEOH     3682     MEOH     HO1      HDP1A    0.360000        1.0080           0   0.00000   0.00000
     54267 MEOH     3682     MEOH     HO2      DUMH     0.000000        1.0080           0   0.00000   0.00000
     54268 MEOH     3682     MEOH     H1A      HDA3B    0.080000        1.0080           0   0.00000   0.00000
     54269 MEOH     3682     MEOH     H1B      HDA3B    0.080000        1.0080           0   0.00000   0.00000
     54270 MEOH     3682     MEOH     H1C      HDA3B    0.080000        1.0080           0   0.00000   0.00000
     54271 MEOH     3682     MEOH     LP1A     LPD     -0.230000        0.0000           -1   0.00000   0.00000
     54272 MEOH     3682     MEOH     LP1B     LPD     -0.230000        0.0000           -1   0.00000   0.00000
     54273 MEOH     3683     MEOH     C1       CD33B    2.314100       11.6110           0   -1.00000   1.30000
     54274 MEOH     3683     MEOH     DC1      DRUD    -2.454100        0.4000           0   0.00000   0.00000
     54275 MEOH     3683     MEOH     O1       OD31H    2.488300       15.5990           0   -1.02800   1.30000
     54276 MEOH     3683     MEOH     DO1      DRUD    -2.488300        0.4000           0   0.00000   0.00000
     54277 MEOH     3683     MEOH     HO1      HDP1A    0.360000        1.0080           0   0.00000   0.00000
     54278 MEOH     3683     MEOH     HO2      DUMH     0.000000        1.0080           0   0.00000   0.00000
     54279 MEOH     3683     MEOH     H1A      HDA3B    0.080000        1.0080           0   0.00000   0.00000
     54280 MEOH     3683     MEOH     H1B      HDA3B    0.080000        1.0080           0   0.00000   0.00000
     54281 MEOH     3683     MEOH     H1C      HDA3B    0.080000        1.0080           0   0.00000   0.00000
     54282 MEOH     3683     MEOH     LP1A     LPD     -0.230000        0.0000           -1   0.00000   0.00000
     54283 MEOH     3683     MEOH     LP1B     LPD     -0.230000        0.0000           -1   0.00000   0.00000
     54284 MEOH     3684     MEOH     C1       CD33B    2.314100       11.6110           0   -1.00000   1.30000
     54285 MEOH     3684     MEOH     DC1      DRUD    -2.454100        0.4000           0   0.00000   0.00000
     54286 MEOH     3684     MEOH     O1       OD31H    2.488300       15.5990           0   -1.02800   1.30000
     54287 MEOH     3684     MEOH     DO1      DRUD    -2.488300        0.4000           0   0.00000   0.00000
     54288 MEOH     3684     MEOH     HO1      HDP1A    0.360000        1.0080           0   0.00000   0.00000
     54289 MEOH     3684     MEOH     HO2      DUMH     0.000000        1.0080           0   0.00000   0.00000
     54290 MEOH     3684     MEOH     H1A      HDA3B    0.080000        1.0080           0   0.00000   0.00000
     54291 MEOH     3684     MEOH     H1B      HDA3B    0.080000        1.0080           0   0.00000   0.00000
     54292 MEOH     3684     MEOH     H1C      HDA3B    0.080000        1.0080           0   0.00000   0.00000
     54293 MEOH     3684     MEOH     LP1A     LPD     -0.230000        0.0000           -1   0.00000   0.00000
     54294 MEOH     3684     MEOH     LP1B     LPD     -0.230000        0.0000           -1   0.00000   0.00000
     54295 MEOH     3685     MEOH     C1       CD33B    2.314100       11.6110           0   -1.00000   1.30000
     54296 MEOH     3685     MEOH     DC1      DRUD    -2.454100        0.4000           0   0.00000   0.00000
     54297 MEOH     3685     MEOH     O1       OD31H    2.488300       15.5990           0   -1.02800   1.30000
     54298 MEOH     3685     MEOH     DO1      DRUD    -2.488300        0.4000           0   0.00000   0.00000
     54299 MEOH     3685     MEOH     HO1      HDP1A    0.360000        1.0080           0   0.00000   0.00000
     54300 MEOH     3685     MEOH     HO2      DUMH     0.000000        1.0080           0   0.00000   0.00000
     54301 MEOH     3685     MEOH     H1A      HDA3B    0.080000        1.0080           0   0.00000   0.00000
     54302 MEOH     3685     MEOH     H1B      HDA3B    0.080000        1.0080           0   0.00000   0.00000
     54303 MEOH     3685     MEOH     H1C      HDA3B    0.080000        1.0080           0   0.00000   0.00000
     54304 MEOH     3685     MEOH     LP1A     LPD     -0.230000        0.0000           -1   0.00000   0.00000
     54305 MEOH     3685     MEOH     LP1B     LPD     -0.230000        0.0000           -1   0.00000   0.00000
     54306 MEOH     3686     MEOH     C1       CD33B    2.314100       11.6110           0   -1.00000   1.30000
     54307 MEOH     3686     MEOH     DC1      DRUD    -2.454100        0.4000           0   0.00000   0.00000
     54308 MEOH     3686     MEOH     O1       OD31H    2.488300       15.5990           0   -1.02800   1.30000
     54309 MEOH     3686     MEOH     DO1      DRUD    -2.488300        0.4000           0   0.00000   0.00000
     54310 MEOH     3686     MEOH     HO1      HDP1A    0.360000        1.0080           0   0.00000   0.00000
     54311 MEOH     3686     MEOH     HO2      DUMH     0.000000        1.0080           0   0.00000   0.00000
     54312 MEOH     3686     MEOH     H1A      HDA3B    0.080000        1.0080           0   0.00000   0.00000
     54313 MEOH     3686     MEOH     H1B      HDA3B    0.080000        1.0080           0   0.00000   0.00000
     54314 MEOH     3686     MEOH     H1C      HDA3B    0.080000        1.0080           0   0.00000   0.00000
     54315 MEOH     3686     MEOH     LP1A     LPD     -0.230000        0.0000           -1   0.00000   0.00000
     54316 MEOH     3686     MEOH     LP1B     LPD     -0.230000        0.0000           -1   0.00000   0.00000
     54317 MEOH     3687     MEOH     C1       CD33B    2.314100       11.6110           0   -1.00000   1.30000
     54318 MEOH     3687     MEOH     DC1      DRUD    -2.454100        0.4000           0   0.00000   0.00000
     54319 MEOH     3687     MEOH     O1       OD31H    2.488300       15.5990           0   -1.02800   1.30000
     54320 MEOH     3687     MEOH     DO1      DRUD    -2.488300        0.4000           0   0.00000   0.00000
     54321 MEOH     3687     MEOH     HO1      HDP1A    0.360000        1.0080           0   0.00000   0.00000
     54322 MEOH     3687     MEOH     HO2      DUMH     0.000000        1.0080           0   0.00000   0.00000
     54323 MEOH     3687     MEOH     H1A      HDA3B    0.080000        1.0080           0   0.00000   0.00000
     54324 MEOH     3687     MEOH     H1B      HDA3B    0.080000        1.0080           0   0.00000   0.00000
     54325 MEOH     3687     MEOH     H1C      HDA3B    0.080000        1.0080           0   0.00000   0.00000
     54326 MEOH     3687     MEOH     LP1A     LPD     -0.230000        0.0000           -1   0.00000   0.00000
     54327 MEOH     3687     MEOH     LP1B     LPD     -0.230000        0.0000           -1   0.00000   0.00000
     54328 MEOH     3688     MEOH     C1       CD33B    2.314100       11.6110           0   -1.00000   1.30000
     54329 MEOH     3688     MEOH     DC1      DRUD    -2.454100        0.4000           0   0.00000   0.00000
     54330 MEOH     3688     MEOH     O1       OD31H    2.488300       15.5990           0   -1.02800   1.30000
     54331 MEOH     3688     MEOH     DO1      DRUD    -2.488300        0.4000           0   0.00000   0.00000
     54332 MEOH     3688     MEOH     HO1      HDP1A    0.360000        1.0080           0   0.00000   0.00000
     54333 MEOH     3688     MEOH     HO2      DUMH     0.000000        1.0080           0   0.00000   0.00000
     54334 MEOH     3688     MEOH     H1A      HDA3B    0.080000        1.0080           0   0.00000   0.00000
     54335 MEOH     3688     MEOH     H1B      HDA3B    0.080000        1.0080           0   0.00000   0.00000
     54336 MEOH     3688     MEOH     H1C      HDA3B    0.080000        1.0080           0   0.00000   0.00000
     54337 MEOH     3688     MEOH     LP1A     LPD     -0.230000        0.0000           -1   0.00000   0.00000
     54338 MEOH     3688     MEOH     LP1B     LPD     -0.230000        0.0000           -1   0.00000   0.00000
     54339 MEOH     3689     MEOH     C1       CD33B    2.314100       11.6110           0   -1.00000   1.30000
     54340 MEOH     3689     MEOH     DC1      DRUD    -2.454100        0.4000           0   0.00000   0.00000
     54341 MEOH     3689     MEOH     O1       OD31H    2.488300       15.5990           0   -1.02800   1.30000
     54342 MEOH     3689     MEOH     DO1      DRUD    -2.488300        0.4000           0   0.00000   0.00000
     54343 MEOH     3689     MEOH     HO1      HDP1A    0.360000        1.0080           0   0.00000   0.00000
     54344 MEOH     3689     MEOH     HO2      DUMH     0.000000        1.0080           0   0.00000   0.00000
     54345 MEOH     3689     MEOH     H1A      HDA3B    0.080000        1.0080           0   0.00000   0.00000
     54346 MEOH     3689     MEOH     H1B      HDA3B    0.080000        1.0080           0   0.00000   0.00000
     54347 MEOH     3689     MEOH     H1C      HDA3B    0.080000        1.0080           0   0.00000   0.00000
     54348 MEOH     3689     MEOH     LP1A     LPD     -0.230000        0.0000           -1   0.00000   0.00000
     54349 MEOH     3689     MEOH     LP1B     LPD     -0.230000        0.0000           -1   0.00000   0.00000
     54350 MEOH     3690     MEOH     C1       CD33B    2.314100       11.6110           0   -1.00000   1.30000
     54351 MEOH     3690     MEOH     DC1      DRUD    -2.454100        0.4000           0   0.00000   0.00000
     54352 MEOH     3690     MEOH     O1       OD31H    2.488300       15.5990           0   -1.02800   1.30000
     54353 MEOH     3690     MEOH     DO1      DRUD    -2.488300        0.4000           0   0.00000   0.00000
     54354 MEOH     3690     MEOH     HO1      HDP1A    0.360000        1.0080           0   0.00000   0.00000
     54355 MEOH     3690     MEOH     HO2      DUMH     0.000000        1.0080           0   0.00000   0.00000
     54356 MEOH     3690     MEOH     H1A      HDA3B    0.080000        1.0080           0   0.00000   0.00000
     54357 MEOH     3690     MEOH     H1B      HDA3B    0.080000        1.0080           0   0.00000   0.00000
     54358 MEOH     3690     MEOH     H1C      HDA3B    0.080000        1.0080           0   0.00000   0.00000
     54359 MEOH     3690     MEOH     LP1A     LPD     -0.230000        0.0000           -1   0.00000   0.00000
     54360 MEOH     3690     MEOH     LP1B     LPD     -0.230000        0.0000           -1   0.00000   0.00000
     54361 MEOH     3691     MEOH     C1       CD33B    2.314100       11.6110           0   -1.00000   1.30000
     54362 MEOH     3691     MEOH     DC1      DRUD    -2.454100        0.4000           0   0.00000   0.00000
     54363 MEOH     3691     MEOH     O1       OD31H    2.488300       15.5990           0   -1.02800   1.30000
     54364 MEOH     3691     MEOH     DO1      DRUD    -2.488300        0.4000           0   0.00000   0.00000
     54365 MEOH     3691     MEOH     HO1      HDP1A    0.360000        1.0080           0   0.00000   0.00000
     54366 MEOH     3691     MEOH     HO2      DUMH     0.000000        1.0080           0   0.00000   0.00000
     54367 MEOH     3691     MEOH     H1A      HDA3B    0.080000        1.0080           0   0.00000   0.00000
     54368 MEOH     3691     MEOH     H1B      HDA3B    0.080000        1.0080           0   0.00000   0.00000
     54369 MEOH     3691     MEOH     H1C      HDA3B    0.080000        1.0080           0   0.00000   0.00000
     54370 MEOH     3691     MEOH     LP1A     LPD     -0.230000        0.0000           -1   0.00000   0.00000
     54371 MEOH     3691     MEOH     LP1B     LPD     -0.230000        0.0000           -1   0.00000   0.00000
     54372 MEOH     3692     MEOH     C1       CD33B    2.314100       11.6110           0   -1.00000   1.30000
     54373 MEOH     3692     MEOH     DC1      DRUD    -2.454100        0.4000           0   0.00000   0.00000
     54374 MEOH     3692     MEOH     O1       OD31H    2.488300       15.5990           0   -1.02800   1.30000
     54375 MEOH     3692     MEOH     DO1      DRUD    -2.488300        0.4000           0   0.00000   0.00000
     54376 MEOH     3692     MEOH     HO1      HDP1A    0.360000        1.0080           0   0.00000   0.00000
     54377 MEOH     3692     MEOH     HO2      DUMH     0.000000        1.0080           0   0.00000   0.00000
     54378 MEOH     3692     MEOH     H1A      HDA3B    0.080000        1.0080           0   0.00000   0.00000
     54379 MEOH     3692     MEOH     H1B      HDA3B    0.080000        1.0080           0   0.00000   0.00000
     54380 MEOH     3692     MEOH     H1C      HDA3B    0.080000        1.0080           0   0.00000   0.00000
     54381 MEOH     3692     MEOH     LP1A     LPD     -0.230000        0.0000           -1   0.00000   0.00000
     54382 MEOH     3692     MEOH     LP1B     LPD     -0.230000        0.0000           -1   0.00000   0.00000
     54383 MEOH     3693     MEOH     C1       CD33B    2.314100       11.6110           0   -1.00000   1.30000
     54384 MEOH     3693     MEOH     DC1      DRUD    -2.454100        0.4000           0   0.00000   0.00000
     54385 MEOH     3693     MEOH     O1       OD31H    2.488300       15.5990           0   -1.02800   1.30000
     54386 MEOH     3693     MEOH     DO1      DRUD    -2.488300        0.4000           0   0.00000   0.00000
     54387 MEOH     3693     MEOH     HO1      HDP1A    0.360000        1.0080           0   0.00000   0.00000
     54388 MEOH     3693     MEOH     HO2      DUMH     0.000000        1.0080           0   0.00000   0.00000
     54389 MEOH     3693     MEOH     H1A      HDA3B    0.080000        1.0080           0   0.00000   0.00000
     54390 MEOH     3693     MEOH     H1B      HDA3B    0.080000        1.0080           0   0.00000   0.00000
     54391 MEOH     3693     MEOH     H1C      HDA3B    0.080000        1.0080           0   0.00000   0.00000
     54392 MEOH     3693     MEOH     LP1A     LPD     -0.230000        0.0000           -1   0.00000   0.00000
     54393 MEOH     3693     MEOH     LP1B     LPD     -0.230000        0.0000           -1   0.00000   0.00000
     54394 MEOH     3694     MEOH     C1       CD33B    2.314100       11.6110           0   -1.00000   1.30000
     54395 MEOH     3694     MEOH     DC1      DRUD    -2.454100        0.4000           0   0.00000   0.00000
     54396 MEOH     3694     MEOH     O1       OD31H    2.488300       15.5990           0   -1.02800   1.30000
     54397 MEOH     3694     MEOH     DO1      DRUD    -2.488300        0.4000           0   0.00000   0.00000
     54398 MEOH     3694     MEOH     HO1      HDP1A    0.360000        1.0080           0   0.00000   0.00000
     54399 MEOH     3694     MEOH     HO2      DUMH     0.000000        1.0080           0   0.00000   0.00000
     54400 MEOH     3694     MEOH     H1A      HDA3B    0.080000        1.0080           0   0.00000   0.00000
     54401 MEOH     3694     MEOH     H1B      HDA3B    0.080000        1.0080           0   0.00000   0.00000
     54402 MEOH     3694     MEOH     H1C      HDA3B    0.080000        1.0080           0   0.00000   0.00000
     54403 MEOH     3694     MEOH     LP1A     LPD     -0.230000        0.0000           -1   0.00000   0.00000
     54404 MEOH     3694     MEOH     LP1B     LPD     -0.230000        0.0000           -1   0.00000   0.00000
     54405 MEOH     3695     MEOH     C1       CD33B    2.314100       11.6110           0   -1.00000   1.30000
     54406 MEOH     3695     MEOH     DC1      DRUD    -2.454100        0.4000           0   0.00000   0.00000
     54407 MEOH     3695     MEOH     O1       OD31H    2.488300       15.5990           0   -1.02800   1.30000
     54408 MEOH     3695     MEOH     DO1      DRUD    -2.488300        0.4000           0   0.00000   0.00000
     54409 MEOH     3695     MEOH     HO1      HDP1A    0.360000        1.0080           0   0.00000   0.00000
     54410 MEOH     3695     MEOH     HO2      DUMH     0.000000        1.0080           0   0.00000   0.00000
     54411 MEOH     3695     MEOH     H1A      HDA3B    0.080000        1.0080           0   0.00000   0.00000
     54412 MEOH     3695     MEOH     H1B      HDA3B    0.080000        1.0080           0   0.00000   0.00000
     54413 MEOH     3695     MEOH     H1C      HDA3B    0.080000        1.0080           0   0.00000   0.00000
     54414 MEOH     3695     MEOH     LP1A     LPD     -0.230000        0.0000           -1   0.00000   0.00000
     54415 MEOH     3695     MEOH     LP1B     LPD     -0.230000        0.0000           -1   0.00000   0.00000
     54416 MEOH     3696     MEOH     C1       CD33B    2.314100       11.6110           0   -1.00000   1.30000
     54417 MEOH     3696     MEOH     DC1      DRUD    -2.454100        0.4000           0   0.00000   0.00000
     54418 MEOH     3696     MEOH     O1       OD31H    2.488300       15.5990           0   -1.02800   1.30000
     54419 MEOH     3696     MEOH     DO1      DRUD    -2.488300        0.4000           0   0.00000   0.00000
     54420 MEOH     3696     MEOH     HO1      HDP1A    0.360000        1.0080           0   0.00000   0.00000
     54421 MEOH     3696     MEOH     HO2      DUMH     0.000000        1.0080           0   0.00000   0.00000
     54422 MEOH     3696     MEOH     H1A      HDA3B    0.080000        1.0080           0   0.00000   0.00000
     54423 MEOH     3696     MEOH     H1B      HDA3B    0.080000        1.0080           0   0.00000   0.00000
     54424 MEOH     3696     MEOH     H1C      HDA3B    0.080000        1.0080           0   0.00000   0.00000
     54425 MEOH     3696     MEOH     LP1A     LPD     -0.230000        0.0000           -1   0.00000   0.00000
     54426 MEOH     3696     MEOH     LP1B     LPD     -0.230000        0.0000           -1   0.00000   0.00000
     54427 MEOH     3697     MEOH     C1       CD33B    2.314100       11.6110           0   -1.00000   1.30000
     54428 MEOH     3697     MEOH     DC1      DRUD    -2.454100        0.4000           0   0.00000   0.00000
     54429 MEOH     3697     MEOH     O1       OD31H    2.488300       15.5990           0   -1.02800   1.30000
     54430 MEOH     3697     MEOH     DO1      DRUD    -2.488300        0.4000           0   0.00000   0.00000
     54431 MEOH     3697     MEOH     HO1      HDP1A    0.360000        1.0080           0   0.00000   0.00000
     54432 MEOH     3697     MEOH     HO2      DUMH     0.000000        1.0080           0   0.00000   0.00000
     54433 MEOH     3697     MEOH     H1A      HDA3B    0.080000        1.0080           0   0.00000   0.00000
     54434 MEOH     3697     MEOH     H1B      HDA3B    0.080000        1.0080           0   0.00000   0.00000
     54435 MEOH     3697     MEOH     H1C      HDA3B    0.080000        1.0080           0   0.00000   0.00000
     54436 MEOH     3697     MEOH     LP1A     LPD     -0.230000        0.0000           -1   0.00000   0.00000
     54437 MEOH     3697     MEOH     LP1B     LPD     -0.230000        0.0000           -1   0.00000   0.00000
     54438 MEOH     3698     MEOH     C1       CD33B    2.314100       11.6110           0   -1.00000   1.30000
     54439 MEOH     3698     MEOH     DC1      DRUD    -2.454100        0.4000           0   0.00000   0.00000
     54440 MEOH     3698     MEOH     O1       OD31H    2.488300       15.5990           0   -1.02800   1.30000
     54441 MEOH     3698     MEOH     DO1      DRUD    -2.488300        0.4000           0   0.00000   0.00000
     54442 MEOH     3698     MEOH     HO1      HDP1A    0.360000        1.0080           0   0.00000   0.00000
     54443 MEOH     3698     MEOH     HO2      DUMH     0.000000        1.0080           0   0.00000   0.00000
     54444 MEOH     3698     MEOH     H1A      HDA3B    0.080000        1.0080           0   0.00000   0.00000
     54445 MEOH     3698     MEOH     H1B      HDA3B    0.080000        1.0080           0   0.00000   0.00000
     54446 MEOH     3698     MEOH     H1C      HDA3B    0.080000        1.0080           0   0.00000   0.00000
     54447 MEOH     3698     MEOH     LP1A     LPD     -0.230000        0.0000           -1   0.00000   0.00000
     54448 MEOH     3698     MEOH     LP1B     LPD     -0.230000        0.0000           -1   0.00000   0.00000
     54449 MEOH     3699     MEOH     C1       CD33B    2.314100       11.6110           0   -1.00000   1.30000
     54450 MEOH     3699     MEOH     DC1      DRUD    -2.454100        0.4000           0   0.00000   0.00000
     54451 MEOH     3699     MEOH     O1       OD31H    2.488300       15.5990           0   -1.02800   1.30000
     54452 MEOH     3699     MEOH     DO1      DRUD    -2.488300        0.4000           0   0.00000   0.00000
     54453 MEOH     3699     MEOH     HO1      HDP1A    0.360000        1.0080           0   0.00000   0.00000
     54454 MEOH     3699     MEOH     HO2      DUMH     0.000000        1.0080           0   0.00000   0.00000
     54455 MEOH     3699     MEOH     H1A      HDA3B    0.080000        1.0080           0   0.00000   0.00000
     54456 MEOH     3699     MEOH     H1B      HDA3B    0.080000        1.0080           0   0.00000   0.00000
     54457 MEOH     3699     MEOH     H1C      HDA3B    0.080000        1.0080           0   0.00000   0.00000
     54458 MEOH     3699     MEOH     LP1A     LPD     -0.230000        0.0000           -1   0.00000   0.00000
     54459 MEOH     3699     MEOH     LP1B     LPD     -0.230000        0.0000           -1   0.00000   0.00000
     54460 MEOH     3700     MEOH     C1       CD33B    2.314100       11.6110           0   -1.00000   1.30000
     54461 MEOH     3700     MEOH     DC1      DRUD    -2.454100        0.4000           0   0.00000   0.00000
     54462 MEOH     3700     MEOH     O1       OD31H    2.488300       15.5990           0   -1.02800   1.30000
     54463 MEOH     3700     MEOH     DO1      DRUD    -2.488300        0.4000           0   0.00000   0.00000
     54464 MEOH     3700     MEOH     HO1      HDP1A    0.360000        1.0080           0   0.00000   0.00000
     54465 MEOH     3700     MEOH     HO2      DUMH     0.000000        1.0080           0   0.00000   0.00000
     54466 MEOH     3700     MEOH     H1A      HDA3B    0.080000        1.0080           0   0.00000   0.00000
     54467 MEOH     3700     MEOH     H1B      HDA3B    0.080000        1.0080           0   0.00000   0.00000
     54468 MEOH     3700     MEOH     H1C      HDA3B    0.080000        1.0080           0   0.00000   0.00000
     54469 MEOH     3700     MEOH     LP1A     LPD     -0.230000        0.0000           -1   0.00000   0.00000
     54470 MEOH     3700     MEOH     LP1B     LPD     -0.230000        0.0000           -1   0.00000   0.00000
     54471 MEOH     3701     MEOH     C1       CD33B    2.314100       11.6110           0   -1.00000   1.30000
     54472 MEOH     3701     MEOH     DC1      DRUD    -2.454100        0.4000           0   0.00000   0.00000
     54473 MEOH     3701     MEOH     O1       OD31H    2.488300       15.5990           0   -1.02800   1.30000
     54474 MEOH     3701     MEOH     DO1      DRUD    -2.488300        0.4000           0   0.00000   0.00000
     54475 MEOH     3701     MEOH     HO1      HDP1A    0.360000        1.0080           0   0.00000   0.00000
     54476 MEOH     3701     MEOH     HO2      DUMH     0.000000        1.0080           0   0.00000   0.00000
     54477 MEOH     3701     MEOH     H1A      HDA3B    0.080000        1.0080           0   0.00000   0.00000
     54478 MEOH     3701     MEOH     H1B      HDA3B    0.080000        1.0080           0   0.00000   0.00000
     54479 MEOH     3701     MEOH     H1C      HDA3B    0.080000        1.0080           0   0.00000   0.00000
     54480 MEOH     3701     MEOH     LP1A     LPD     -0.230000        0.0000           -1   0.00000   0.00000
     54481 MEOH     3701     MEOH     LP1B     LPD     -0.230000        0.0000           -1   0.00000   0.00000
     54482 MEOH     3702     MEOH     C1       CD33B    2.314100       11.6110           0   -1.00000   1.30000
     54483 MEOH     3702     MEOH     DC1      DRUD    -2.454100        0.4000           0   0.00000   0.00000
     54484 MEOH     3702     MEOH     O1       OD31H    2.488300       15.5990           0   -1.02800   1.30000
     54485 MEOH     3702     MEOH     DO1      DRUD    -2.488300        0.4000           0   0.00000   0.00000
     54486 MEOH     3702     MEOH     HO1      HDP1A    0.360000        1.0080           0   0.00000   0.00000
     54487 MEOH     3702     MEOH     HO2      DUMH     0.000000        1.0080           0   0.00000   0.00000
     54488 MEOH     3702     MEOH     H1A      HDA3B    0.080000        1.0080           0   0.00000   0.00000
     54489 MEOH     3702     MEOH     H1B      HDA3B    0.080000        1.0080           0   0.00000   0.00000
     54490 MEOH     3702     MEOH     H1C      HDA3B    0.080000        1.0080           0   0.00000   0.00000
     54491 MEOH     3702     MEOH     LP1A     LPD     -0.230000        0.0000           -1   0.00000   0.00000
     54492 MEOH     3702     MEOH     LP1B     LPD     -0.230000        0.0000           -1   0.00000   0.00000
     54493 MEOH     3703     MEOH     C1       CD33B    2.314100       11.6110           0   -1.00000   1.30000
     54494 MEOH     3703     MEOH     DC1      DRUD    -2.454100        0.4000           0   0.00000   0.00000
     54495 MEOH     3703     MEOH     O1       OD31H    2.488300       15.5990           0   -1.02800   1.30000
     54496 MEOH     3703     MEOH     DO1      DRUD    -2.488300        0.4000           0   0.00000   0.00000
     54497 MEOH     3703     MEOH     HO1      HDP1A    0.360000        1.0080           0   0.00000   0.00000
     54498 MEOH     3703     MEOH     HO2      DUMH     0.000000        1.0080           0   0.00000   0.00000
     54499 MEOH     3703     MEOH     H1A      HDA3B    0.080000        1.0080           0   0.00000   0.00000
     54500 MEOH     3703     MEOH     H1B      HDA3B    0.080000        1.0080           0   0.00000   0.00000
     54501 MEOH     3703     MEOH     H1C      HDA3B    0.080000        1.0080           0   0.00000   0.00000
     54502 MEOH     3703     MEOH     LP1A     LPD     -0.230000        0.0000           -1   0.00000   0.00000
     54503 MEOH     3703     MEOH     LP1B     LPD     -0.230000        0.0000           -1   0.00000   0.00000
     54504 MEOH     3704     MEOH     C1       CD33B    2.314100       11.6110           0   -1.00000   1.30000
     54505 MEOH     3704     MEOH     DC1      DRUD    -2.454100        0.4000           0   0.00000   0.00000
     54506 MEOH     3704     MEOH     O1       OD31H    2.488300       15.5990           0   -1.02800   1.30000
     54507 MEOH     3704     MEOH     DO1      DRUD    -2.488300        0.4000           0   0.00000   0.00000
     54508 MEOH     3704     MEOH     HO1      HDP1A    0.360000        1.0080           0   0.00000   0.00000
     54509 MEOH     3704     MEOH     HO2      DUMH     0.000000        1.0080           0   0.00000   0.00000
     54510 MEOH     3704     MEOH     H1A      HDA3B    0.080000        1.0080           0   0.00000   0.00000
     54511 MEOH     3704     MEOH     H1B      HDA3B    0.080000        1.0080           0   0.00000   0.00000
     54512 MEOH     3704     MEOH     H1C      HDA3B    0.080000        1.0080           0   0.00000   0.00000
     54513 MEOH     3704     MEOH     LP1A     LPD     -0.230000        0.0000           -1   0.00000   0.00000
     54514 MEOH     3704     MEOH     LP1B     LPD     -0.230000        0.0000           -1   0.00000   0.00000
     54515 MEOH     3705     MEOH     C1       CD33B    2.314100       11.6110           0   -1.00000   1.30000
     54516 MEOH     3705     MEOH     DC1      DRUD    -2.454100        0.4000           0   0.00000   0.00000
     54517 MEOH     3705     MEOH     O1       OD31H    2.488300       15.5990           0   -1.02800   1.30000
     54518 MEOH     3705     MEOH     DO1      DRUD    -2.488300        0.4000           0   0.00000   0.00000
     54519 MEOH     3705     MEOH     HO1      HDP1A    0.360000        1.0080           0   0.00000   0.00000
     54520 MEOH     3705     MEOH     HO2      DUMH     0.000000        1.0080           0   0.00000   0.00000
     54521 MEOH     3705     MEOH     H1A      HDA3B    0.080000        1.0080           0   0.00000   0.00000
     54522 MEOH     3705     MEOH     H1B      HDA3B    0.080000        1.0080           0   0.00000   0.00000
     54523 MEOH     3705     MEOH     H1C      HDA3B    0.080000        1.0080           0   0.00000   0.00000
     54524 MEOH     3705     MEOH     LP1A     LPD     -0.230000        0.0000           -1   0.00000   0.00000
     54525 MEOH     3705     MEOH     LP1B     LPD     -0.230000        0.0000           -1   0.00000   0.00000
     54526 MEOH     3706     MEOH     C1       CD33B    2.314100       11.6110           0   -1.00000   1.30000
     54527 MEOH     3706     MEOH     DC1      DRUD    -2.454100        0.4000           0   0.00000   0.00000
     54528 MEOH     3706     MEOH     O1       OD31H    2.488300       15.5990           0   -1.02800   1.30000
     54529 MEOH     3706     MEOH     DO1      DRUD    -2.488300        0.4000           0   0.00000   0.00000
     54530 MEOH     3706     MEOH     HO1      HDP1A    0.360000        1.0080           0   0.00000   0.00000
     54531 MEOH     3706     MEOH     HO2      DUMH     0.000000        1.0080           0   0.00000   0.00000
     54532 MEOH     3706     MEOH     H1A      HDA3B    0.080000        1.0080           0   0.00000   0.00000
     54533 MEOH     3706     MEOH     H1B      HDA3B    0.080000        1.0080           0   0.00000   0.00000
     54534 MEOH     3706     MEOH     H1C      HDA3B    0.080000        1.0080           0   0.00000   0.00000
     54535 MEOH     3706     MEOH     LP1A     LPD     -0.230000        0.0000           -1   0.00000   0.00000
     54536 MEOH     3706     MEOH     LP1B     LPD     -0.230000        0.0000           -1   0.00000   0.00000
     54537 MEOH     3707     MEOH     C1       CD33B    2.314100       11.6110           0   -1.00000   1.30000
     54538 MEOH     3707     MEOH     DC1      DRUD    -2.454100        0.4000           0   0.00000   0.00000
     54539 MEOH     3707     MEOH     O1       OD31H    2.488300       15.5990           0   -1.02800   1.30000
     54540 MEOH     3707     MEOH     DO1      DRUD    -2.488300        0.4000           0   0.00000   0.00000
     54541 MEOH     3707     MEOH     HO1      HDP1A    0.360000        1.0080           0   0.00000   0.00000
     54542 MEOH     3707     MEOH     HO2      DUMH     0.000000        1.0080           0   0.00000   0.00000
     54543 MEOH     3707     MEOH     H1A      HDA3B    0.080000        1.0080           0   0.00000   0.00000
     54544 MEOH     3707     MEOH     H1B      HDA3B    0.080000        1.0080           0   0.00000   0.00000
     54545 MEOH     3707     MEOH     H1C      HDA3B    0.080000        1.0080           0   0.00000   0.00000
     54546 MEOH     3707     MEOH     LP1A     LPD     -0.230000        0.0000           -1   0.00000   0.00000
     54547 MEOH     3707     MEOH     LP1B     LPD     -0.230000        0.0000           -1   0.00000   0.00000
     54548 MEOH     3708     MEOH     C1       CD33B    2.314100       11.6110           0   -1.00000   1.30000
     54549 MEOH     3708     MEOH     DC1      DRUD    -2.454100        0.4000           0   0.00000   0.00000
     54550 MEOH     3708     MEOH     O1       OD31H    2.488300       15.5990           0   -1.02800   1.30000
     54551 MEOH     3708     MEOH     DO1      DRUD    -2.488300        0.4000           0   0.00000   0.00000
     54552 MEOH     3708     MEOH     HO1      HDP1A    0.360000        1.0080           0   0.00000   0.00000
     54553 MEOH     3708     MEOH     HO2      DUMH     0.000000        1.0080           0   0.00000   0.00000
     54554 MEOH     3708     MEOH     H1A      HDA3B    0.080000        1.0080           0   0.00000   0.00000
     54555 MEOH     3708     MEOH     H1B      HDA3B    0.080000        1.0080           0   0.00000   0.00000
     54556 MEOH     3708     MEOH     H1C      HDA3B    0.080000        1.0080           0   0.00000   0.00000
     54557 MEOH     3708     MEOH     LP1A     LPD     -0.230000        0.0000           -1   0.00000   0.00000
     54558 MEOH     3708     MEOH     LP1B     LPD     -0.230000        0.0000           -1   0.00000   0.00000
     54559 MEOH     3709     MEOH     C1       CD33B    2.314100       11.6110           0   -1.00000   1.30000
     54560 MEOH     3709     MEOH     DC1      DRUD    -2.454100        0.4000           0   0.00000   0.00000
     54561 MEOH     3709     MEOH     O1       OD31H    2.488300       15.5990           0   -1.02800   1.30000
     54562 MEOH     3709     MEOH     DO1      DRUD    -2.488300        0.4000           0   0.00000   0.00000
     54563 MEOH     3709     MEOH     HO1      HDP1A    0.360000        1.0080           0   0.00000   0.00000
     54564 MEOH     3709     MEOH     HO2      DUMH     0.000000        1.0080           0   0.00000   0.00000
     54565 MEOH     3709     MEOH     H1A      HDA3B    0.080000        1.0080           0   0.00000   0.00000
     54566 MEOH     3709     MEOH     H1B      HDA3B    0.080000        1.0080           0   0.00000   0.00000
     54567 MEOH     3709     MEOH     H1C      HDA3B    0.080000        1.0080           0   0.00000   0.00000
     54568 MEOH     3709     MEOH     LP1A     LPD     -0.230000        0.0000           -1   0.00000   0.00000
     54569 MEOH     3709     MEOH     LP1B     LPD     -0.230000        0.0000           -1   0.00000   0.00000
     54570 MEOH     3710     MEOH     C1       CD33B    2.314100       11.6110           0   -1.00000   1.30000
     54571 MEOH     3710     MEOH     DC1      DRUD    -2.454100        0.4000           0   0.00000   0.00000
     54572 MEOH     3710     MEOH     O1       OD31H    2.488300       15.5990           0   -1.02800   1.30000
     54573 MEOH     3710     MEOH     DO1      DRUD    -2.488300        0.4000           0   0.00000   0.00000
     54574 MEOH     3710     MEOH     HO1      HDP1A    0.360000        1.0080           0   0.00000   0.00000
     54575 MEOH     3710     MEOH     HO2      DUMH     0.000000        1.0080           0   0.00000   0.00000
     54576 MEOH     3710     MEOH     H1A      HDA3B    0.080000        1.0080           0   0.00000   0.00000
     54577 MEOH     3710     MEOH     H1B      HDA3B    0.080000        1.0080           0   0.00000   0.00000
     54578 MEOH     3710     MEOH     H1C      HDA3B    0.080000        1.0080           0   0.00000   0.00000
     54579 MEOH     3710     MEOH     LP1A     LPD     -0.230000        0.0000           -1   0.00000   0.00000
     54580 MEOH     3710     MEOH     LP1B     LPD     -0.230000        0.0000           -1   0.00000   0.00000
     54581 MEOH     3711     MEOH     C1       CD33B    2.314100       11.6110           0   -1.00000   1.30000
     54582 MEOH     3711     MEOH     DC1      DRUD    -2.454100        0.4000           0   0.00000   0.00000
     54583 MEOH     3711     MEOH     O1       OD31H    2.488300       15.5990           0   -1.02800   1.30000
     54584 MEOH     3711     MEOH     DO1      DRUD    -2.488300        0.4000           0   0.00000   0.00000
     54585 MEOH     3711     MEOH     HO1      HDP1A    0.360000        1.0080           0   0.00000   0.00000
     54586 MEOH     3711     MEOH     HO2      DUMH     0.000000        1.0080           0   0.00000   0.00000
     54587 MEOH     3711     MEOH     H1A      HDA3B    0.080000        1.0080           0   0.00000   0.00000
     54588 MEOH     3711     MEOH     H1B      HDA3B    0.080000        1.0080           0   0.00000   0.00000
     54589 MEOH     3711     MEOH     H1C      HDA3B    0.080000        1.0080           0   0.00000   0.00000
     54590 MEOH     3711     MEOH     LP1A     LPD     -0.230000        0.0000           -1   0.00000   0.00000
     54591 MEOH     3711     MEOH     LP1B     LPD     -0.230000        0.0000           -1   0.00000   0.00000
     54592 MEOH     3712     MEOH     C1       CD33B    2.314100       11.6110           0   -1.00000   1.30000
     54593 MEOH     3712     MEOH     DC1      DRUD    -2.454100        0.4000           0   0.00000   0.00000
     54594 MEOH     3712     MEOH     O1       OD31H    2.488300       15.5990           0   -1.02800   1.30000
     54595 MEOH     3712     MEOH     DO1      DRUD    -2.488300        0.4000           0   0.00000   0.00000
     54596 MEOH     3712     MEOH     HO1      HDP1A    0.360000        1.0080           0   0.00000   0.00000
     54597 MEOH     3712     MEOH     HO2      DUMH     0.000000        1.0080           0   0.00000   0.00000
     54598 MEOH     3712     MEOH     H1A      HDA3B    0.080000        1.0080           0   0.00000   0.00000
     54599 MEOH     3712     MEOH     H1B      HDA3B    0.080000        1.0080           0   0.00000   0.00000
     54600 MEOH     3712     MEOH     H1C      HDA3B    0.080000        1.0080           0   0.00000   0.00000
     54601 MEOH     3712     MEOH     LP1A     LPD     -0.230000        0.0000           -1   0.00000   0.00000
     54602 MEOH     3712     MEOH     LP1B     LPD     -0.230000        0.0000           -1   0.00000   0.00000
     54603 MEOH     3713     MEOH     C1       CD33B    2.314100       11.6110           0   -1.00000   1.30000
     54604 MEOH     3713     MEOH     DC1      DRUD    -2.454100        0.4000           0   0.00000   0.00000
     54605 MEOH     3713     MEOH     O1       OD31H    2.488300       15.5990           0   -1.02800   1.30000
     54606 MEOH     3713     MEOH     DO1      DRUD    -2.488300        0.4000           0   0.00000   0.00000
     54607 MEOH     3713     MEOH     HO1      HDP1A    0.360000        1.0080           0   0.00000   0.00000
     54608 MEOH     3713     MEOH     HO2      DUMH     0.000000        1.0080           0   0.00000   0.00000
     54609 MEOH     3713     MEOH     H1A      HDA3B    0.080000        1.0080           0   0.00000   0.00000
     54610 MEOH     3713     MEOH     H1B      HDA3B    0.080000        1.0080           0   0.00000   0.00000
     54611 MEOH     3713     MEOH     H1C      HDA3B    0.080000        1.0080           0   0.00000   0.00000
     54612 MEOH     3713     MEOH     LP1A     LPD     -0.230000        0.0000           -1   0.00000   0.00000
     54613 MEOH     3713     MEOH     LP1B     LPD     -0.230000        0.0000           -1   0.00000   0.00000
     54614 MEOH     3714     MEOH     C1       CD33B    2.314100       11.6110           0   -1.00000   1.30000
     54615 MEOH     3714     MEOH     DC1      DRUD    -2.454100        0.4000           0   0.00000   0.00000
     54616 MEOH     3714     MEOH     O1       OD31H    2.488300       15.5990           0   -1.02800   1.30000
     54617 MEOH     3714     MEOH     DO1      DRUD    -2.488300        0.4000           0   0.00000   0.00000
     54618 MEOH     3714     MEOH     HO1      HDP1A    0.360000        1.0080           0   0.00000   0.00000
     54619 MEOH     3714     MEOH     HO2      DUMH     0.000000        1.0080           0   0.00000   0.00000
     54620 MEOH     3714     MEOH     H1A      HDA3B    0.080000        1.0080           0   0.00000   0.00000
     54621 MEOH     3714     MEOH     H1B      HDA3B    0.080000        1.0080           0   0.00000   0.00000
     54622 MEOH     3714     MEOH     H1C      HDA3B    0.080000        1.0080           0   0.00000   0.00000
     54623 MEOH     3714     MEOH     LP1A     LPD     -0.230000        0.0000           -1   0.00000   0.00000
     54624 MEOH     3714     MEOH     LP1B     LPD     -0.230000        0.0000           -1   0.00000   0.00000
     54625 MEOH     3715     MEOH     C1       CD33B    2.314100       11.6110           0   -1.00000   1.30000
     54626 MEOH     3715     MEOH     DC1      DRUD    -2.454100        0.4000           0   0.00000   0.00000
     54627 MEOH     3715     MEOH     O1       OD31H    2.488300       15.5990           0   -1.02800   1.30000
     54628 MEOH     3715     MEOH     DO1      DRUD    -2.488300        0.4000           0   0.00000   0.00000
     54629 MEOH     3715     MEOH     HO1      HDP1A    0.360000        1.0080           0   0.00000   0.00000
     54630 MEOH     3715     MEOH     HO2      DUMH     0.000000        1.0080           0   0.00000   0.00000
     54631 MEOH     3715     MEOH     H1A      HDA3B    0.080000        1.0080           0   0.00000   0.00000
     54632 MEOH     3715     MEOH     H1B      HDA3B    0.080000        1.0080           0   0.00000   0.00000
     54633 MEOH     3715     MEOH     H1C      HDA3B    0.080000        1.0080           0   0.00000   0.00000
     54634 MEOH     3715     MEOH     LP1A     LPD     -0.230000        0.0000           -1   0.00000   0.00000
     54635 MEOH     3715     MEOH     LP1B     LPD     -0.230000        0.0000           -1   0.00000   0.00000
     54636 MEOH     3716     MEOH     C1       CD33B    2.314100       11.6110           0   -1.00000   1.30000
     54637 MEOH     3716     MEOH     DC1      DRUD    -2.454100        0.4000           0   0.00000   0.00000
     54638 MEOH     3716     MEOH     O1       OD31H    2.488300       15.5990           0   -1.02800   1.30000
     54639 MEOH     3716     MEOH     DO1      DRUD    -2.488300        0.4000           0   0.00000   0.00000
     54640 MEOH     3716     MEOH     HO1      HDP1A    0.360000        1.0080           0   0.00000   0.00000
     54641 MEOH     3716     MEOH     HO2      DUMH     0.000000        1.0080           0   0.00000   0.00000
     54642 MEOH     3716     MEOH     H1A      HDA3B    0.080000        1.0080           0   0.00000   0.00000
     54643 MEOH     3716     MEOH     H1B      HDA3B    0.080000        1.0080           0   0.00000   0.00000
     54644 MEOH     3716     MEOH     H1C      HDA3B    0.080000        1.0080           0   0.00000   0.00000
     54645 MEOH     3716     MEOH     LP1A     LPD     -0.230000        0.0000           -1   0.00000   0.00000
     54646 MEOH     3716     MEOH     LP1B     LPD     -0.230000        0.0000           -1   0.00000   0.00000
     54647 MEOH     3717     MEOH     C1       CD33B    2.314100       11.6110           0   -1.00000   1.30000
     54648 MEOH     3717     MEOH     DC1      DRUD    -2.454100        0.4000           0   0.00000   0.00000
     54649 MEOH     3717     MEOH     O1       OD31H    2.488300       15.5990           0   -1.02800   1.30000
     54650 MEOH     3717     MEOH     DO1      DRUD    -2.488300        0.4000           0   0.00000   0.00000
     54651 MEOH     3717     MEOH     HO1      HDP1A    0.360000        1.0080           0   0.00000   0.00000
     54652 MEOH     3717     MEOH     HO2      DUMH     0.000000        1.0080           0   0.00000   0.00000
     54653 MEOH     3717     MEOH     H1A      HDA3B    0.080000        1.0080           0   0.00000   0.00000
     54654 MEOH     3717     MEOH     H1B      HDA3B    0.080000        1.0080           0   0.00000   0.00000
     54655 MEOH     3717     MEOH     H1C      HDA3B    0.080000        1.0080           0   0.00000   0.00000
     54656 MEOH     3717     MEOH     LP1A     LPD     -0.230000        0.0000           -1   0.00000   0.00000
     54657 MEOH     3717     MEOH     LP1B     LPD     -0.230000        0.0000           -1   0.00000   0.00000
     54658 MEOH     3718     MEOH     C1       CD33B    2.314100       11.6110           0   -1.00000   1.30000
     54659 MEOH     3718     MEOH     DC1      DRUD    -2.454100        0.4000           0   0.00000   0.00000
     54660 MEOH     3718     MEOH     O1       OD31H    2.488300       15.5990           0   -1.02800   1.30000
     54661 MEOH     3718     MEOH     DO1      DRUD    -2.488300        0.4000           0   0.00000   0.00000
     54662 MEOH     3718     MEOH     HO1      HDP1A    0.360000        1.0080           0   0.00000   0.00000
     54663 MEOH     3718     MEOH     HO2      DUMH     0.000000        1.0080           0   0.00000   0.00000
     54664 MEOH     3718     MEOH     H1A      HDA3B    0.080000        1.0080           0   0.00000   0.00000
     54665 MEOH     3718     MEOH     H1B      HDA3B    0.080000        1.0080           0   0.00000   0.00000
     54666 MEOH     3718     MEOH     H1C      HDA3B    0.080000        1.0080           0   0.00000   0.00000
     54667 MEOH     3718     MEOH     LP1A     LPD     -0.230000        0.0000           -1   0.00000   0.00000
     54668 MEOH     3718     MEOH     LP1B     LPD     -0.230000        0.0000           -1   0.00000   0.00000
     54669 MEOH     3719     MEOH     C1       CD33B    2.314100       11.6110           0   -1.00000   1.30000
     54670 MEOH     3719     MEOH     DC1      DRUD    -2.454100        0.4000           0   0.00000   0.00000
     54671 MEOH     3719     MEOH     O1       OD31H    2.488300       15.5990           0   -1.02800   1.30000
     54672 MEOH     3719     MEOH     DO1      DRUD    -2.488300        0.4000           0   0.00000   0.00000
     54673 MEOH     3719     MEOH     HO1      HDP1A    0.360000        1.0080           0   0.00000   0.00000
     54674 MEOH     3719     MEOH     HO2      DUMH     0.000000        1.0080           0   0.00000   0.00000
     54675 MEOH     3719     MEOH     H1A      HDA3B    0.080000        1.0080           0   0.00000   0.00000
     54676 MEOH     3719     MEOH     H1B      HDA3B    0.080000        1.0080           0   0.00000   0.00000
     54677 MEOH     3719     MEOH     H1C      HDA3B    0.080000        1.0080           0   0.00000   0.00000
     54678 MEOH     3719     MEOH     LP1A     LPD     -0.230000        0.0000           -1   0.00000   0.00000
     54679 MEOH     3719     MEOH     LP1B     LPD     -0.230000        0.0000           -1   0.00000   0.00000
     54680 MEOH     3720     MEOH     C1       CD33B    2.314100       11.6110           0   -1.00000   1.30000
     54681 MEOH     3720     MEOH     DC1      DRUD    -2.454100        0.4000           0   0.00000   0.00000
     54682 MEOH     3720     MEOH     O1       OD31H    2.488300       15.5990           0   -1.02800   1.30000
     54683 MEOH     3720     MEOH     DO1      DRUD    -2.488300        0.4000           0   0.00000   0.00000
     54684 MEOH     3720     MEOH     HO1      HDP1A    0.360000        1.0080           0   0.00000   0.00000
     54685 MEOH     3720     MEOH     HO2      DUMH     0.000000        1.0080           0   0.00000   0.00000
     54686 MEOH     3720     MEOH     H1A      HDA3B    0.080000        1.0080           0   0.00000   0.00000
     54687 MEOH     3720     MEOH     H1B      HDA3B    0.080000        1.0080           0   0.00000   0.00000
     54688 MEOH     3720     MEOH     H1C      HDA3B    0.080000        1.0080           0   0.00000   0.00000
     54689 MEOH     3720     MEOH     LP1A     LPD     -0.230000        0.0000           -1   0.00000   0.00000
     54690 MEOH     3720     MEOH     LP1B     LPD     -0.230000        0.0000           -1   0.00000   0.00000
     54691 MEOH     3721     MEOH     C1       CD33B    2.314100       11.6110           0   -1.00000   1.30000
     54692 MEOH     3721     MEOH     DC1      DRUD    -2.454100        0.4000           0   0.00000   0.00000
     54693 MEOH     3721     MEOH     O1       OD31H    2.488300       15.5990           0   -1.02800   1.30000
     54694 MEOH     3721     MEOH     DO1      DRUD    -2.488300        0.4000           0   0.00000   0.00000
     54695 MEOH     3721     MEOH     HO1      HDP1A    0.360000        1.0080           0   0.00000   0.00000
     54696 MEOH     3721     MEOH     HO2      DUMH     0.000000        1.0080           0   0.00000   0.00000
     54697 MEOH     3721     MEOH     H1A      HDA3B    0.080000        1.0080           0   0.00000   0.00000
     54698 MEOH     3721     MEOH     H1B      HDA3B    0.080000        1.0080           0   0.00000   0.00000
     54699 MEOH     3721     MEOH     H1C      HDA3B    0.080000        1.0080           0   0.00000   0.00000
     54700 MEOH     3721     MEOH     LP1A     LPD     -0.230000        0.0000           -1   0.00000   0.00000
     54701 MEOH     3721     MEOH     LP1B     LPD     -0.230000        0.0000           -1   0.00000   0.00000
     54702 MEOH     3722     MEOH     C1       CD33B    2.314100       11.6110           0   -1.00000   1.30000
     54703 MEOH     3722     MEOH     DC1      DRUD    -2.454100        0.4000           0   0.00000   0.00000
     54704 MEOH     3722     MEOH     O1       OD31H    2.488300       15.5990           0   -1.02800   1.30000
     54705 MEOH     3722     MEOH     DO1      DRUD    -2.488300        0.4000           0   0.00000   0.00000
     54706 MEOH     3722     MEOH     HO1      HDP1A    0.360000        1.0080           0   0.00000   0.00000
     54707 MEOH     3722     MEOH     HO2      DUMH     0.000000        1.0080           0   0.00000   0.00000
     54708 MEOH     3722     MEOH     H1A      HDA3B    0.080000        1.0080           0   0.00000   0.00000
     54709 MEOH     3722     MEOH     H1B      HDA3B    0.080000        1.0080           0   0.00000   0.00000
     54710 MEOH     3722     MEOH     H1C      HDA3B    0.080000        1.0080           0   0.00000   0.00000
     54711 MEOH     3722     MEOH     LP1A     LPD     -0.230000        0.0000           -1   0.00000   0.00000
     54712 MEOH     3722     MEOH     LP1B     LPD     -0.230000        0.0000           -1   0.00000   0.00000
     54713 MEOH     3723     MEOH     C1       CD33B    2.314100       11.6110           0   -1.00000   1.30000
     54714 MEOH     3723     MEOH     DC1      DRUD    -2.454100        0.4000           0   0.00000   0.00000
     54715 MEOH     3723     MEOH     O1       OD31H    2.488300       15.5990           0   -1.02800   1.30000
     54716 MEOH     3723     MEOH     DO1      DRUD    -2.488300        0.4000           0   0.00000   0.00000
     54717 MEOH     3723     MEOH     HO1      HDP1A    0.360000        1.0080           0   0.00000   0.00000
     54718 MEOH     3723     MEOH     HO2      DUMH     0.000000        1.0080           0   0.00000   0.00000
     54719 MEOH     3723     MEOH     H1A      HDA3B    0.080000        1.0080           0   0.00000   0.00000
     54720 MEOH     3723     MEOH     H1B      HDA3B    0.080000        1.0080           0   0.00000   0.00000
     54721 MEOH     3723     MEOH     H1C      HDA3B    0.080000        1.0080           0   0.00000   0.00000
     54722 MEOH     3723     MEOH     LP1A     LPD     -0.230000        0.0000           -1   0.00000   0.00000
     54723 MEOH     3723     MEOH     LP1B     LPD     -0.230000        0.0000           -1   0.00000   0.00000
     54724 MEOH     3724     MEOH     C1       CD33B    2.314100       11.6110           0   -1.00000   1.30000
     54725 MEOH     3724     MEOH     DC1      DRUD    -2.454100        0.4000           0   0.00000   0.00000
     54726 MEOH     3724     MEOH     O1       OD31H    2.488300       15.5990           0   -1.02800   1.30000
     54727 MEOH     3724     MEOH     DO1      DRUD    -2.488300        0.4000           0   0.00000   0.00000
     54728 MEOH     3724     MEOH     HO1      HDP1A    0.360000        1.0080           0   0.00000   0.00000
     54729 MEOH     3724     MEOH     HO2      DUMH     0.000000        1.0080           0   0.00000   0.00000
     54730 MEOH     3724     MEOH     H1A      HDA3B    0.080000        1.0080           0   0.00000   0.00000
     54731 MEOH     3724     MEOH     H1B      HDA3B    0.080000        1.0080           0   0.00000   0.00000
     54732 MEOH     3724     MEOH     H1C      HDA3B    0.080000        1.0080           0   0.00000   0.00000
     54733 MEOH     3724     MEOH     LP1A     LPD     -0.230000        0.0000           -1   0.00000   0.00000
     54734 MEOH     3724     MEOH     LP1B     LPD     -0.230000        0.0000           -1   0.00000   0.00000
     54735 MEOH     3725     MEOH     C1       CD33B    2.314100       11.6110           0   -1.00000   1.30000
     54736 MEOH     3725     MEOH     DC1      DRUD    -2.454100        0.4000           0   0.00000   0.00000
     54737 MEOH     3725     MEOH     O1       OD31H    2.488300       15.5990           0   -1.02800   1.30000
     54738 MEOH     3725     MEOH     DO1      DRUD    -2.488300        0.4000           0   0.00000   0.00000
     54739 MEOH     3725     MEOH     HO1      HDP1A    0.360000        1.0080           0   0.00000   0.00000
     54740 MEOH     3725     MEOH     HO2      DUMH     0.000000        1.0080           0   0.00000   0.00000
     54741 MEOH     3725     MEOH     H1A      HDA3B    0.080000        1.0080           0   0.00000   0.00000
     54742 MEOH     3725     MEOH     H1B      HDA3B    0.080000        1.0080           0   0.00000   0.00000
     54743 MEOH     3725     MEOH     H1C      HDA3B    0.080000        1.0080           0   0.00000   0.00000
     54744 MEOH     3725     MEOH     LP1A     LPD     -0.230000        0.0000           -1   0.00000   0.00000
     54745 MEOH     3725     MEOH     LP1B     LPD     -0.230000        0.0000           -1   0.00000   0.00000
     54746 MEOH     3726     MEOH     C1       CD33B    2.314100       11.6110           0   -1.00000   1.30000
     54747 MEOH     3726     MEOH     DC1      DRUD    -2.454100        0.4000           0   0.00000   0.00000
     54748 MEOH     3726     MEOH     O1       OD31H    2.488300       15.5990           0   -1.02800   1.30000
     54749 MEOH     3726     MEOH     DO1      DRUD    -2.488300        0.4000           0   0.00000   0.00000
     54750 MEOH     3726     MEOH     HO1      HDP1A    0.360000        1.0080           0   0.00000   0.00000
     54751 MEOH     3726     MEOH     HO2      DUMH     0.000000        1.0080           0   0.00000   0.00000
     54752 MEOH     3726     MEOH     H1A      HDA3B    0.080000        1.0080           0   0.00000   0.00000
     54753 MEOH     3726     MEOH     H1B      HDA3B    0.080000        1.0080           0   0.00000   0.00000
     54754 MEOH     3726     MEOH     H1C      HDA3B    0.080000        1.0080           0   0.00000   0.00000
     54755 MEOH     3726     MEOH     LP1A     LPD     -0.230000        0.0000           -1   0.00000   0.00000
     54756 MEOH     3726     MEOH     LP1B     LPD     -0.230000        0.0000           -1   0.00000   0.00000
     54757 MEOH     3727     MEOH     C1       CD33B    2.314100       11.6110           0   -1.00000   1.30000
     54758 MEOH     3727     MEOH     DC1      DRUD    -2.454100        0.4000           0   0.00000   0.00000
     54759 MEOH     3727     MEOH     O1       OD31H    2.488300       15.5990           0   -1.02800   1.30000
     54760 MEOH     3727     MEOH     DO1      DRUD    -2.488300        0.4000           0   0.00000   0.00000
     54761 MEOH     3727     MEOH     HO1      HDP1A    0.360000        1.0080           0   0.00000   0.00000
     54762 MEOH     3727     MEOH     HO2      DUMH     0.000000        1.0080           0   0.00000   0.00000
     54763 MEOH     3727     MEOH     H1A      HDA3B    0.080000        1.0080           0   0.00000   0.00000
     54764 MEOH     3727     MEOH     H1B      HDA3B    0.080000        1.0080           0   0.00000   0.00000
     54765 MEOH     3727     MEOH     H1C      HDA3B    0.080000        1.0080           0   0.00000   0.00000
     54766 MEOH     3727     MEOH     LP1A     LPD     -0.230000        0.0000           -1   0.00000   0.00000
     54767 MEOH     3727     MEOH     LP1B     LPD     -0.230000        0.0000           -1   0.00000   0.00000
     54768 MEOH     3728     MEOH     C1       CD33B    2.314100       11.6110           0   -1.00000   1.30000
     54769 MEOH     3728     MEOH     DC1      DRUD    -2.454100        0.4000           0   0.00000   0.00000
     54770 MEOH     3728     MEOH     O1       OD31H    2.488300       15.5990           0   -1.02800   1.30000
     54771 MEOH     3728     MEOH     DO1      DRUD    -2.488300        0.4000           0   0.00000   0.00000
     54772 MEOH     3728     MEOH     HO1      HDP1A    0.360000        1.0080           0   0.00000   0.00000
     54773 MEOH     3728     MEOH     HO2      DUMH     0.000000        1.0080           0   0.00000   0.00000
     54774 MEOH     3728     MEOH     H1A      HDA3B    0.080000        1.0080           0   0.00000   0.00000
     54775 MEOH     3728     MEOH     H1B      HDA3B    0.080000        1.0080           0   0.00000   0.00000
     54776 MEOH     3728     MEOH     H1C      HDA3B    0.080000        1.0080           0   0.00000   0.00000
     54777 MEOH     3728     MEOH     LP1A     LPD     -0.230000        0.0000           -1   0.00000   0.00000
     54778 MEOH     3728     MEOH     LP1B     LPD     -0.230000        0.0000           -1   0.00000   0.00000
     54779 MEOH     3729     MEOH     C1       CD33B    2.314100       11.6110           0   -1.00000   1.30000
     54780 MEOH     3729     MEOH     DC1      DRUD    -2.454100        0.4000           0   0.00000   0.00000
     54781 MEOH     3729     MEOH     O1       OD31H    2.488300       15.5990           0   -1.02800   1.30000
     54782 MEOH     3729     MEOH     DO1      DRUD    -2.488300        0.4000           0   0.00000   0.00000
     54783 MEOH     3729     MEOH     HO1      HDP1A    0.360000        1.0080           0   0.00000   0.00000
     54784 MEOH     3729     MEOH     HO2      DUMH     0.000000        1.0080           0   0.00000   0.00000
     54785 MEOH     3729     MEOH     H1A      HDA3B    0.080000        1.0080           0   0.00000   0.00000
     54786 MEOH     3729     MEOH     H1B      HDA3B    0.080000        1.0080           0   0.00000   0.00000
     54787 MEOH     3729     MEOH     H1C      HDA3B    0.080000        1.0080           0   0.00000   0.00000
     54788 MEOH     3729     MEOH     LP1A     LPD     -0.230000        0.0000           -1   0.00000   0.00000
     54789 MEOH     3729     MEOH     LP1B     LPD     -0.230000        0.0000           -1   0.00000   0.00000
     54790 MEOH     3730     MEOH     C1       CD33B    2.314100       11.6110           0   -1.00000   1.30000
     54791 MEOH     3730     MEOH     DC1      DRUD    -2.454100        0.4000           0   0.00000   0.00000
     54792 MEOH     3730     MEOH     O1       OD31H    2.488300       15.5990           0   -1.02800   1.30000
     54793 MEOH     3730     MEOH     DO1      DRUD    -2.488300        0.4000           0   0.00000   0.00000
     54794 MEOH     3730     MEOH     HO1      HDP1A    0.360000        1.0080           0   0.00000   0.00000
     54795 MEOH     3730     MEOH     HO2      DUMH     0.000000        1.0080           0   0.00000   0.00000
     54796 MEOH     3730     MEOH     H1A      HDA3B    0.080000        1.0080           0   0.00000   0.00000
     54797 MEOH     3730     MEOH     H1B      HDA3B    0.080000        1.0080           0   0.00000   0.00000
     54798 MEOH     3730     MEOH     H1C      HDA3B    0.080000        1.0080           0   0.00000   0.00000
     54799 MEOH     3730     MEOH     LP1A     LPD     -0.230000        0.0000           -1   0.00000   0.00000
     54800 MEOH     3730     MEOH     LP1B     LPD     -0.230000        0.0000           -1   0.00000   0.00000
     54801 MEOH     3731     MEOH     C1       CD33B    2.314100       11.6110           0   -1.00000   1.30000
     54802 MEOH     3731     MEOH     DC1      DRUD    -2.454100        0.4000           0   0.00000   0.00000
     54803 MEOH     3731     MEOH     O1       OD31H    2.488300       15.5990           0   -1.02800   1.30000
     54804 MEOH     3731     MEOH     DO1      DRUD    -2.488300        0.4000           0   0.00000   0.00000
     54805 MEOH     3731     MEOH     HO1      HDP1A    0.360000        1.0080           0   0.00000   0.00000
     54806 MEOH     3731     MEOH     HO2      DUMH     0.000000        1.0080           0   0.00000   0.00000
     54807 MEOH     3731     MEOH     H1A      HDA3B    0.080000        1.0080           0   0.00000   0.00000
     54808 MEOH     3731     MEOH     H1B      HDA3B    0.080000        1.0080           0   0.00000   0.00000
     54809 MEOH     3731     MEOH     H1C      HDA3B    0.080000        1.0080           0   0.00000   0.00000
     54810 MEOH     3731     MEOH     LP1A     LPD     -0.230000        0.0000           -1   0.00000   0.00000
     54811 MEOH     3731     MEOH     LP1B     LPD     -0.230000        0.0000           -1   0.00000   0.00000
     54812 MEOH     3732     MEOH     C1       CD33B    2.314100       11.6110           0   -1.00000   1.30000
     54813 MEOH     3732     MEOH     DC1      DRUD    -2.454100        0.4000           0   0.00000   0.00000
     54814 MEOH     3732     MEOH     O1       OD31H    2.488300       15.5990           0   -1.02800   1.30000
     54815 MEOH     3732     MEOH     DO1      DRUD    -2.488300        0.4000           0   0.00000   0.00000
     54816 MEOH     3732     MEOH     HO1      HDP1A    0.360000        1.0080           0   0.00000   0.00000
     54817 MEOH     3732     MEOH     HO2      DUMH     0.000000        1.0080           0   0.00000   0.00000
     54818 MEOH     3732     MEOH     H1A      HDA3B    0.080000        1.0080           0   0.00000   0.00000
     54819 MEOH     3732     MEOH     H1B      HDA3B    0.080000        1.0080           0   0.00000   0.00000
     54820 MEOH     3732     MEOH     H1C      HDA3B    0.080000        1.0080           0   0.00000   0.00000
     54821 MEOH     3732     MEOH     LP1A     LPD     -0.230000        0.0000           -1   0.00000   0.00000
     54822 MEOH     3732     MEOH     LP1B     LPD     -0.230000        0.0000           -1   0.00000   0.00000
     54823 MEOH     3733     MEOH     C1       CD33B    2.314100       11.6110           0   -1.00000   1.30000
     54824 MEOH     3733     MEOH     DC1      DRUD    -2.454100        0.4000           0   0.00000   0.00000
     54825 MEOH     3733     MEOH     O1       OD31H    2.488300       15.5990           0   -1.02800   1.30000
     54826 MEOH     3733     MEOH     DO1      DRUD    -2.488300        0.4000           0   0.00000   0.00000
     54827 MEOH     3733     MEOH     HO1      HDP1A    0.360000        1.0080           0   0.00000   0.00000
     54828 MEOH     3733     MEOH     HO2      DUMH     0.000000        1.0080           0   0.00000   0.00000
     54829 MEOH     3733     MEOH     H1A      HDA3B    0.080000        1.0080           0   0.00000   0.00000
     54830 MEOH     3733     MEOH     H1B      HDA3B    0.080000        1.0080           0   0.00000   0.00000
     54831 MEOH     3733     MEOH     H1C      HDA3B    0.080000        1.0080           0   0.00000   0.00000
     54832 MEOH     3733     MEOH     LP1A     LPD     -0.230000        0.0000           -1   0.00000   0.00000
     54833 MEOH     3733     MEOH     LP1B     LPD     -0.230000        0.0000           -1   0.00000   0.00000
     54834 MEOH     3734     MEOH     C1       CD33B    2.314100       11.6110           0   -1.00000   1.30000
     54835 MEOH     3734     MEOH     DC1      DRUD    -2.454100        0.4000           0   0.00000   0.00000
     54836 MEOH     3734     MEOH     O1       OD31H    2.488300       15.5990           0   -1.02800   1.30000
     54837 MEOH     3734     MEOH     DO1      DRUD    -2.488300        0.4000           0   0.00000   0.00000
     54838 MEOH     3734     MEOH     HO1      HDP1A    0.360000        1.0080           0   0.00000   0.00000
     54839 MEOH     3734     MEOH     HO2      DUMH     0.000000        1.0080           0   0.00000   0.00000
     54840 MEOH     3734     MEOH     H1A      HDA3B    0.080000        1.0080           0   0.00000   0.00000
     54841 MEOH     3734     MEOH     H1B      HDA3B    0.080000        1.0080           0   0.00000   0.00000
     54842 MEOH     3734     MEOH     H1C      HDA3B    0.080000        1.0080           0   0.00000   0.00000
     54843 MEOH     3734     MEOH     LP1A     LPD     -0.230000        0.0000           -1   0.00000   0.00000
     54844 MEOH     3734     MEOH     LP1B     LPD     -0.230000        0.0000           -1   0.00000   0.00000
     54845 MEOH     3735     MEOH     C1       CD33B    2.314100       11.6110           0   -1.00000   1.30000
     54846 MEOH     3735     MEOH     DC1      DRUD    -2.454100        0.4000           0   0.00000   0.00000
     54847 MEOH     3735     MEOH     O1       OD31H    2.488300       15.5990           0   -1.02800   1.30000
     54848 MEOH     3735     MEOH     DO1      DRUD    -2.488300        0.4000           0   0.00000   0.00000
     54849 MEOH     3735     MEOH     HO1      HDP1A    0.360000        1.0080           0   0.00000   0.00000
     54850 MEOH     3735     MEOH     HO2      DUMH     0.000000        1.0080           0   0.00000   0.00000
     54851 MEOH     3735     MEOH     H1A      HDA3B    0.080000        1.0080           0   0.00000   0.00000
     54852 MEOH     3735     MEOH     H1B      HDA3B    0.080000        1.0080           0   0.00000   0.00000
     54853 MEOH     3735     MEOH     H1C      HDA3B    0.080000        1.0080           0   0.00000   0.00000
     54854 MEOH     3735     MEOH     LP1A     LPD     -0.230000        0.0000           -1   0.00000   0.00000
     54855 MEOH     3735     MEOH     LP1B     LPD     -0.230000        0.0000           -1   0.00000   0.00000
     54856 MEOH     3736     MEOH     C1       CD33B    2.314100       11.6110           0   -1.00000   1.30000
     54857 MEOH     3736     MEOH     DC1      DRUD    -2.454100        0.4000           0   0.00000   0.00000
     54858 MEOH     3736     MEOH     O1       OD31H    2.488300       15.5990           0   -1.02800   1.30000
     54859 MEOH     3736     MEOH     DO1      DRUD    -2.488300        0.4000           0   0.00000   0.00000
     54860 MEOH     3736     MEOH     HO1      HDP1A    0.360000        1.0080           0   0.00000   0.00000
     54861 MEOH     3736     MEOH     HO2      DUMH     0.000000        1.0080           0   0.00000   0.00000
     54862 MEOH     3736     MEOH     H1A      HDA3B    0.080000        1.0080           0   0.00000   0.00000
     54863 MEOH     3736     MEOH     H1B      HDA3B    0.080000        1.0080           0   0.00000   0.00000
     54864 MEOH     3736     MEOH     H1C      HDA3B    0.080000        1.0080           0   0.00000   0.00000
     54865 MEOH     3736     MEOH     LP1A     LPD     -0.230000        0.0000           -1   0.00000   0.00000
     54866 MEOH     3736     MEOH     LP1B     LPD     -0.230000        0.0000           -1   0.00000   0.00000
     54867 MEOH     3737     MEOH     C1       CD33B    2.314100       11.6110           0   -1.00000   1.30000
     54868 MEOH     3737     MEOH     DC1      DRUD    -2.454100        0.4000           0   0.00000   0.00000
     54869 MEOH     3737     MEOH     O1       OD31H    2.488300       15.5990           0   -1.02800   1.30000
     54870 MEOH     3737     MEOH     DO1      DRUD    -2.488300        0.4000           0   0.00000   0.00000
     54871 MEOH     3737     MEOH     HO1      HDP1A    0.360000        1.0080           0   0.00000   0.00000
     54872 MEOH     3737     MEOH     HO2      DUMH     0.000000        1.0080           0   0.00000   0.00000
     54873 MEOH     3737     MEOH     H1A      HDA3B    0.080000        1.0080           0   0.00000   0.00000
     54874 MEOH     3737     MEOH     H1B      HDA3B    0.080000        1.0080           0   0.00000   0.00000
     54875 MEOH     3737     MEOH     H1C      HDA3B    0.080000        1.0080           0   0.00000   0.00000
     54876 MEOH     3737     MEOH     LP1A     LPD     -0.230000        0.0000           -1   0.00000   0.00000
     54877 MEOH     3737     MEOH     LP1B     LPD     -0.230000        0.0000           -1   0.00000   0.00000
     54878 MEOH     3738     MEOH     C1       CD33B    2.314100       11.6110           0   -1.00000   1.30000
     54879 MEOH     3738     MEOH     DC1      DRUD    -2.454100        0.4000           0   0.00000   0.00000
     54880 MEOH     3738     MEOH     O1       OD31H    2.488300       15.5990           0   -1.02800   1.30000
     54881 MEOH     3738     MEOH     DO1      DRUD    -2.488300        0.4000           0   0.00000   0.00000
     54882 MEOH     3738     MEOH     HO1      HDP1A    0.360000        1.0080           0   0.00000   0.00000
     54883 MEOH     3738     MEOH     HO2      DUMH     0.000000        1.0080           0   0.00000   0.00000
     54884 MEOH     3738     MEOH     H1A      HDA3B    0.080000        1.0080           0   0.00000   0.00000
     54885 MEOH     3738     MEOH     H1B      HDA3B    0.080000        1.0080           0   0.00000   0.00000
     54886 MEOH     3738     MEOH     H1C      HDA3B    0.080000        1.0080           0   0.00000   0.00000
     54887 MEOH     3738     MEOH     LP1A     LPD     -0.230000        0.0000           -1   0.00000   0.00000
     54888 MEOH     3738     MEOH     LP1B     LPD     -0.230000        0.0000           -1   0.00000   0.00000
     54889 MEOH     3739     MEOH     C1       CD33B    2.314100       11.6110           0   -1.00000   1.30000
     54890 MEOH     3739     MEOH     DC1      DRUD    -2.454100        0.4000           0   0.00000   0.00000
     54891 MEOH     3739     MEOH     O1       OD31H    2.488300       15.5990           0   -1.02800   1.30000
     54892 MEOH     3739     MEOH     DO1      DRUD    -2.488300        0.4000           0   0.00000   0.00000
     54893 MEOH     3739     MEOH     HO1      HDP1A    0.360000        1.0080           0   0.00000   0.00000
     54894 MEOH     3739     MEOH     HO2      DUMH     0.000000        1.0080           0   0.00000   0.00000
     54895 MEOH     3739     MEOH     H1A      HDA3B    0.080000        1.0080           0   0.00000   0.00000
     54896 MEOH     3739     MEOH     H1B      HDA3B    0.080000        1.0080           0   0.00000   0.00000
     54897 MEOH     3739     MEOH     H1C      HDA3B    0.080000        1.0080           0   0.00000   0.00000
     54898 MEOH     3739     MEOH     LP1A     LPD     -0.230000        0.0000           -1   0.00000   0.00000
     54899 MEOH     3739     MEOH     LP1B     LPD     -0.230000        0.0000           -1   0.00000   0.00000
     54900 MEOH     3740     MEOH     C1       CD33B    2.314100       11.6110           0   -1.00000   1.30000
     54901 MEOH     3740     MEOH     DC1      DRUD    -2.454100        0.4000           0   0.00000   0.00000
     54902 MEOH     3740     MEOH     O1       OD31H    2.488300       15.5990           0   -1.02800   1.30000
     54903 MEOH     3740     MEOH     DO1      DRUD    -2.488300        0.4000           0   0.00000   0.00000
     54904 MEOH     3740     MEOH     HO1      HDP1A    0.360000        1.0080           0   0.00000   0.00000
     54905 MEOH     3740     MEOH     HO2      DUMH     0.000000        1.0080           0   0.00000   0.00000
     54906 MEOH     3740     MEOH     H1A      HDA3B    0.080000        1.0080           0   0.00000   0.00000
     54907 MEOH     3740     MEOH     H1B      HDA3B    0.080000        1.0080           0   0.00000   0.00000
     54908 MEOH     3740     MEOH     H1C      HDA3B    0.080000        1.0080           0   0.00000   0.00000
     54909 MEOH     3740     MEOH     LP1A     LPD     -0.230000        0.0000           -1   0.00000   0.00000
     54910 MEOH     3740     MEOH     LP1B     LPD     -0.230000        0.0000           -1   0.00000   0.00000
     54911 MEOH     3741     MEOH     C1       CD33B    2.314100       11.6110           0   -1.00000   1.30000
     54912 MEOH     3741     MEOH     DC1      DRUD    -2.454100        0.4000           0   0.00000   0.00000
     54913 MEOH     3741     MEOH     O1       OD31H    2.488300       15.5990           0   -1.02800   1.30000
     54914 MEOH     3741     MEOH     DO1      DRUD    -2.488300        0.4000           0   0.00000   0.00000
     54915 MEOH     3741     MEOH     HO1      HDP1A    0.360000        1.0080           0   0.00000   0.00000
     54916 MEOH     3741     MEOH     HO2      DUMH     0.000000        1.0080           0   0.00000   0.00000
     54917 MEOH     3741     MEOH     H1A      HDA3B    0.080000        1.0080           0   0.00000   0.00000
     54918 MEOH     3741     MEOH     H1B      HDA3B    0.080000        1.0080           0   0.00000   0.00000
     54919 MEOH     3741     MEOH     H1C      HDA3B    0.080000        1.0080           0   0.00000   0.00000
     54920 MEOH     3741     MEOH     LP1A     LPD     -0.230000        0.0000           -1   0.00000   0.00000
     54921 MEOH     3741     MEOH     LP1B     LPD     -0.230000        0.0000           -1   0.00000   0.00000
     54922 MEOH     3742     MEOH     C1       CD33B    2.314100       11.6110           0   -1.00000   1.30000
     54923 MEOH     3742     MEOH     DC1      DRUD    -2.454100        0.4000           0   0.00000   0.00000
     54924 MEOH     3742     MEOH     O1       OD31H    2.488300       15.5990           0   -1.02800   1.30000
     54925 MEOH     3742     MEOH     DO1      DRUD    -2.488300        0.4000           0   0.00000   0.00000
     54926 MEOH     3742     MEOH     HO1      HDP1A    0.360000        1.0080           0   0.00000   0.00000
     54927 MEOH     3742     MEOH     HO2      DUMH     0.000000        1.0080           0   0.00000   0.00000
     54928 MEOH     3742     MEOH     H1A      HDA3B    0.080000        1.0080           0   0.00000   0.00000
     54929 MEOH     3742     MEOH     H1B      HDA3B    0.080000        1.0080           0   0.00000   0.00000
     54930 MEOH     3742     MEOH     H1C      HDA3B    0.080000        1.0080           0   0.00000   0.00000
     54931 MEOH     3742     MEOH     LP1A     LPD     -0.230000        0.0000           -1   0.00000   0.00000
     54932 MEOH     3742     MEOH     LP1B     LPD     -0.230000        0.0000           -1   0.00000   0.00000
     54933 MEOH     3743     MEOH     C1       CD33B    2.314100       11.6110           0   -1.00000   1.30000
     54934 MEOH     3743     MEOH     DC1      DRUD    -2.454100        0.4000           0   0.00000   0.00000
     54935 MEOH     3743     MEOH     O1       OD31H    2.488300       15.5990           0   -1.02800   1.30000
     54936 MEOH     3743     MEOH     DO1      DRUD    -2.488300        0.4000           0   0.00000   0.00000
     54937 MEOH     3743     MEOH     HO1      HDP1A    0.360000        1.0080           0   0.00000   0.00000
     54938 MEOH     3743     MEOH     HO2      DUMH     0.000000        1.0080           0   0.00000   0.00000
     54939 MEOH     3743     MEOH     H1A      HDA3B    0.080000        1.0080           0   0.00000   0.00000
     54940 MEOH     3743     MEOH     H1B      HDA3B    0.080000        1.0080           0   0.00000   0.00000
     54941 MEOH     3743     MEOH     H1C      HDA3B    0.080000        1.0080           0   0.00000   0.00000
     54942 MEOH     3743     MEOH     LP1A     LPD     -0.230000        0.0000           -1   0.00000   0.00000
     54943 MEOH     3743     MEOH     LP1B     LPD     -0.230000        0.0000           -1   0.00000   0.00000
     54944 MEOH     3744     MEOH     C1       CD33B    2.314100       11.6110           0   -1.00000   1.30000
     54945 MEOH     3744     MEOH     DC1      DRUD    -2.454100        0.4000           0   0.00000   0.00000
     54946 MEOH     3744     MEOH     O1       OD31H    2.488300       15.5990           0   -1.02800   1.30000
     54947 MEOH     3744     MEOH     DO1      DRUD    -2.488300        0.4000           0   0.00000   0.00000
     54948 MEOH     3744     MEOH     HO1      HDP1A    0.360000        1.0080           0   0.00000   0.00000
     54949 MEOH     3744     MEOH     HO2      DUMH     0.000000        1.0080           0   0.00000   0.00000
     54950 MEOH     3744     MEOH     H1A      HDA3B    0.080000        1.0080           0   0.00000   0.00000
     54951 MEOH     3744     MEOH     H1B      HDA3B    0.080000        1.0080           0   0.00000   0.00000
     54952 MEOH     3744     MEOH     H1C      HDA3B    0.080000        1.0080           0   0.00000   0.00000
     54953 MEOH     3744     MEOH     LP1A     LPD     -0.230000        0.0000           -1   0.00000   0.00000
     54954 MEOH     3744     MEOH     LP1B     LPD     -0.230000        0.0000           -1   0.00000   0.00000
     54955 MEOH     3745     MEOH     C1       CD33B    2.314100       11.6110           0   -1.00000   1.30000
     54956 MEOH     3745     MEOH     DC1      DRUD    -2.454100        0.4000           0   0.00000   0.00000
     54957 MEOH     3745     MEOH     O1       OD31H    2.488300       15.5990           0   -1.02800   1.30000
     54958 MEOH     3745     MEOH     DO1      DRUD    -2.488300        0.4000           0   0.00000   0.00000
     54959 MEOH     3745     MEOH     HO1      HDP1A    0.360000        1.0080           0   0.00000   0.00000
     54960 MEOH     3745     MEOH     HO2      DUMH     0.000000        1.0080           0   0.00000   0.00000
     54961 MEOH     3745     MEOH     H1A      HDA3B    0.080000        1.0080           0   0.00000   0.00000
     54962 MEOH     3745     MEOH     H1B      HDA3B    0.080000        1.0080           0   0.00000   0.00000
     54963 MEOH     3745     MEOH     H1C      HDA3B    0.080000        1.0080           0   0.00000   0.00000
     54964 MEOH     3745     MEOH     LP1A     LPD     -0.230000        0.0000           -1   0.00000   0.00000
     54965 MEOH     3745     MEOH     LP1B     LPD     -0.230000        0.0000           -1   0.00000   0.00000
     54966 MEOH     3746     MEOH     C1       CD33B    2.314100       11.6110           0   -1.00000   1.30000
     54967 MEOH     3746     MEOH     DC1      DRUD    -2.454100        0.4000           0   0.00000   0.00000
     54968 MEOH     3746     MEOH     O1       OD31H    2.488300       15.5990           0   -1.02800   1.30000
     54969 MEOH     3746     MEOH     DO1      DRUD    -2.488300        0.4000           0   0.00000   0.00000
     54970 MEOH     3746     MEOH     HO1      HDP1A    0.360000        1.0080           0   0.00000   0.00000
     54971 MEOH     3746     MEOH     HO2      DUMH     0.000000        1.0080           0   0.00000   0.00000
     54972 MEOH     3746     MEOH     H1A      HDA3B    0.080000        1.0080           0   0.00000   0.00000
     54973 MEOH     3746     MEOH     H1B      HDA3B    0.080000        1.0080           0   0.00000   0.00000
     54974 MEOH     3746     MEOH     H1C      HDA3B    0.080000        1.0080           0   0.00000   0.00000
     54975 MEOH     3746     MEOH     LP1A     LPD     -0.230000        0.0000           -1   0.00000   0.00000
     54976 MEOH     3746     MEOH     LP1B     LPD     -0.230000        0.0000           -1   0.00000   0.00000
     54977 MEOH     3747     MEOH     C1       CD33B    2.314100       11.6110           0   -1.00000   1.30000
     54978 MEOH     3747     MEOH     DC1      DRUD    -2.454100        0.4000           0   0.00000   0.00000
     54979 MEOH     3747     MEOH     O1       OD31H    2.488300       15.5990           0   -1.02800   1.30000
     54980 MEOH     3747     MEOH     DO1      DRUD    -2.488300        0.4000           0   0.00000   0.00000
     54981 MEOH     3747     MEOH     HO1      HDP1A    0.360000        1.0080           0   0.00000   0.00000
     54982 MEOH     3747     MEOH     HO2      DUMH     0.000000        1.0080           0   0.00000   0.00000
     54983 MEOH     3747     MEOH     H1A      HDA3B    0.080000        1.0080           0   0.00000   0.00000
     54984 MEOH     3747     MEOH     H1B      HDA3B    0.080000        1.0080           0   0.00000   0.00000
     54985 MEOH     3747     MEOH     H1C      HDA3B    0.080000        1.0080           0   0.00000   0.00000
     54986 MEOH     3747     MEOH     LP1A     LPD     -0.230000        0.0000           -1   0.00000   0.00000
     54987 MEOH     3747     MEOH     LP1B     LPD     -0.230000        0.0000           -1   0.00000   0.00000
     54988 MEOH     3748     MEOH     C1       CD33B    2.314100       11.6110           0   -1.00000   1.30000
     54989 MEOH     3748     MEOH     DC1      DRUD    -2.454100        0.4000           0   0.00000   0.00000
     54990 MEOH     3748     MEOH     O1       OD31H    2.488300       15.5990           0   -1.02800   1.30000
     54991 MEOH     3748     MEOH     DO1      DRUD    -2.488300        0.4000           0   0.00000   0.00000
     54992 MEOH     3748     MEOH     HO1      HDP1A    0.360000        1.0080           0   0.00000   0.00000
     54993 MEOH     3748     MEOH     HO2      DUMH     0.000000        1.0080           0   0.00000   0.00000
     54994 MEOH     3748     MEOH     H1A      HDA3B    0.080000        1.0080           0   0.00000   0.00000
     54995 MEOH     3748     MEOH     H1B      HDA3B    0.080000        1.0080           0   0.00000   0.00000
     54996 MEOH     3748     MEOH     H1C      HDA3B    0.080000        1.0080           0   0.00000   0.00000
     54997 MEOH     3748     MEOH     LP1A     LPD     -0.230000        0.0000           -1   0.00000   0.00000
     54998 MEOH     3748     MEOH     LP1B     LPD     -0.230000        0.0000           -1   0.00000   0.00000
     54999 MEOH     3749     MEOH     C1       CD33B    2.314100       11.6110           0   -1.00000   1.30000
     55000 MEOH     3749     MEOH     DC1      DRUD    -2.454100        0.4000           0   0.00000   0.00000
     55001 MEOH     3749     MEOH     O1       OD31H    2.488300       15.5990           0   -1.02800   1.30000
     55002 MEOH     3749     MEOH     DO1      DRUD    -2.488300        0.4000           0   0.00000   0.00000
     55003 MEOH     3749     MEOH     HO1      HDP1A    0.360000        1.0080           0   0.00000   0.00000
     55004 MEOH     3749     MEOH     HO2      DUMH     0.000000        1.0080           0   0.00000   0.00000
     55005 MEOH     3749     MEOH     H1A      HDA3B    0.080000        1.0080           0   0.00000   0.00000
     55006 MEOH     3749     MEOH     H1B      HDA3B    0.080000        1.0080           0   0.00000   0.00000
     55007 MEOH     3749     MEOH     H1C      HDA3B    0.080000        1.0080           0   0.00000   0.00000
     55008 MEOH     3749     MEOH     LP1A     LPD     -0.230000        0.0000           -1   0.00000   0.00000
     55009 MEOH     3749     MEOH     LP1B     LPD     -0.230000        0.0000           -1   0.00000   0.00000
     55010 MEOH     3750     MEOH     C1       CD33B    2.314100       11.6110           0   -1.00000   1.30000
     55011 MEOH     3750     MEOH     DC1      DRUD    -2.454100        0.4000           0   0.00000   0.00000
     55012 MEOH     3750     MEOH     O1       OD31H    2.488300       15.5990           0   -1.02800   1.30000
     55013 MEOH     3750     MEOH     DO1      DRUD    -2.488300        0.4000           0   0.00000   0.00000
     55014 MEOH     3750     MEOH     HO1      HDP1A    0.360000        1.0080           0   0.00000   0.00000
     55015 MEOH     3750     MEOH     HO2      DUMH     0.000000        1.0080           0   0.00000   0.00000
     55016 MEOH     3750     MEOH     H1A      HDA3B    0.080000        1.0080           0   0.00000   0.00000
     55017 MEOH     3750     MEOH     H1B      HDA3B    0.080000        1.0080           0   0.00000   0.00000
     55018 MEOH     3750     MEOH     H1C      HDA3B    0.080000        1.0080           0   0.00000   0.00000
     55019 MEOH     3750     MEOH     LP1A     LPD     -0.230000        0.0000           -1   0.00000   0.00000
     55020 MEOH     3750     MEOH     LP1B     LPD     -0.230000        0.0000           -1   0.00000   0.00000
     55021 MEOH     3751     MEOH     C1       CD33B    2.314100       11.6110           0   -1.00000   1.30000
     55022 MEOH     3751     MEOH     DC1      DRUD    -2.454100        0.4000           0   0.00000   0.00000
     55023 MEOH     3751     MEOH     O1       OD31H    2.488300       15.5990           0   -1.02800   1.30000
     55024 MEOH     3751     MEOH     DO1      DRUD    -2.488300        0.4000           0   0.00000   0.00000
     55025 MEOH     3751     MEOH     HO1      HDP1A    0.360000        1.0080           0   0.00000   0.00000
     55026 MEOH     3751     MEOH     HO2      DUMH     0.000000        1.0080           0   0.00000   0.00000
     55027 MEOH     3751     MEOH     H1A      HDA3B    0.080000        1.0080           0   0.00000   0.00000
     55028 MEOH     3751     MEOH     H1B      HDA3B    0.080000        1.0080           0   0.00000   0.00000
     55029 MEOH     3751     MEOH     H1C      HDA3B    0.080000        1.0080           0   0.00000   0.00000
     55030 MEOH     3751     MEOH     LP1A     LPD     -0.230000        0.0000           -1   0.00000   0.00000
     55031 MEOH     3751     MEOH     LP1B     LPD     -0.230000        0.0000           -1   0.00000   0.00000
     55032 MEOH     3752     MEOH     C1       CD33B    2.314100       11.6110           0   -1.00000   1.30000
     55033 MEOH     3752     MEOH     DC1      DRUD    -2.454100        0.4000           0   0.00000   0.00000
     55034 MEOH     3752     MEOH     O1       OD31H    2.488300       15.5990           0   -1.02800   1.30000
     55035 MEOH     3752     MEOH     DO1      DRUD    -2.488300        0.4000           0   0.00000   0.00000
     55036 MEOH     3752     MEOH     HO1      HDP1A    0.360000        1.0080           0   0.00000   0.00000
     55037 MEOH     3752     MEOH     HO2      DUMH     0.000000        1.0080           0   0.00000   0.00000
     55038 MEOH     3752     MEOH     H1A      HDA3B    0.080000        1.0080           0   0.00000   0.00000
     55039 MEOH     3752     MEOH     H1B      HDA3B    0.080000        1.0080           0   0.00000   0.00000
     55040 MEOH     3752     MEOH     H1C      HDA3B    0.080000        1.0080           0   0.00000   0.00000
     55041 MEOH     3752     MEOH     LP1A     LPD     -0.230000        0.0000           -1   0.00000   0.00000
     55042 MEOH     3752     MEOH     LP1B     LPD     -0.230000        0.0000           -1   0.00000   0.00000
     55043 MEOH     3753     MEOH     C1       CD33B    2.314100       11.6110           0   -1.00000   1.30000
     55044 MEOH     3753     MEOH     DC1      DRUD    -2.454100        0.4000           0   0.00000   0.00000
     55045 MEOH     3753     MEOH     O1       OD31H    2.488300       15.5990           0   -1.02800   1.30000
     55046 MEOH     3753     MEOH     DO1      DRUD    -2.488300        0.4000           0   0.00000   0.00000
     55047 MEOH     3753     MEOH     HO1      HDP1A    0.360000        1.0080           0   0.00000   0.00000
     55048 MEOH     3753     MEOH     HO2      DUMH     0.000000        1.0080           0   0.00000   0.00000
     55049 MEOH     3753     MEOH     H1A      HDA3B    0.080000        1.0080           0   0.00000   0.00000
     55050 MEOH     3753     MEOH     H1B      HDA3B    0.080000        1.0080           0   0.00000   0.00000
     55051 MEOH     3753     MEOH     H1C      HDA3B    0.080000        1.0080           0   0.00000   0.00000
     55052 MEOH     3753     MEOH     LP1A     LPD     -0.230000        0.0000           -1   0.00000   0.00000
     55053 MEOH     3753     MEOH     LP1B     LPD     -0.230000        0.0000           -1   0.00000   0.00000
     55054 MEOH     3754     MEOH     C1       CD33B    2.314100       11.6110           0   -1.00000   1.30000
     55055 MEOH     3754     MEOH     DC1      DRUD    -2.454100        0.4000           0   0.00000   0.00000
     55056 MEOH     3754     MEOH     O1       OD31H    2.488300       15.5990           0   -1.02800   1.30000
     55057 MEOH     3754     MEOH     DO1      DRUD    -2.488300        0.4000           0   0.00000   0.00000
     55058 MEOH     3754     MEOH     HO1      HDP1A    0.360000        1.0080           0   0.00000   0.00000
     55059 MEOH     3754     MEOH     HO2      DUMH     0.000000        1.0080           0   0.00000   0.00000
     55060 MEOH     3754     MEOH     H1A      HDA3B    0.080000        1.0080           0   0.00000   0.00000
     55061 MEOH     3754     MEOH     H1B      HDA3B    0.080000        1.0080           0   0.00000   0.00000
     55062 MEOH     3754     MEOH     H1C      HDA3B    0.080000        1.0080           0   0.00000   0.00000
     55063 MEOH     3754     MEOH     LP1A     LPD     -0.230000        0.0000           -1   0.00000   0.00000
     55064 MEOH     3754     MEOH     LP1B     LPD     -0.230000        0.0000           -1   0.00000   0.00000
     55065 MEOH     3755     MEOH     C1       CD33B    2.314100       11.6110           0   -1.00000   1.30000
     55066 MEOH     3755     MEOH     DC1      DRUD    -2.454100        0.4000           0   0.00000   0.00000
     55067 MEOH     3755     MEOH     O1       OD31H    2.488300       15.5990           0   -1.02800   1.30000
     55068 MEOH     3755     MEOH     DO1      DRUD    -2.488300        0.4000           0   0.00000   0.00000
     55069 MEOH     3755     MEOH     HO1      HDP1A    0.360000        1.0080           0   0.00000   0.00000
     55070 MEOH     3755     MEOH     HO2      DUMH     0.000000        1.0080           0   0.00000   0.00000
     55071 MEOH     3755     MEOH     H1A      HDA3B    0.080000        1.0080           0   0.00000   0.00000
     55072 MEOH     3755     MEOH     H1B      HDA3B    0.080000        1.0080           0   0.00000   0.00000
     55073 MEOH     3755     MEOH     H1C      HDA3B    0.080000        1.0080           0   0.00000   0.00000
     55074 MEOH     3755     MEOH     LP1A     LPD     -0.230000        0.0000           -1   0.00000   0.00000
     55075 MEOH     3755     MEOH     LP1B     LPD     -0.230000        0.0000           -1   0.00000   0.00000
     55076 MEOH     3756     MEOH     C1       CD33B    2.314100       11.6110           0   -1.00000   1.30000
     55077 MEOH     3756     MEOH     DC1      DRUD    -2.454100        0.4000           0   0.00000   0.00000
     55078 MEOH     3756     MEOH     O1       OD31H    2.488300       15.5990           0   -1.02800   1.30000
     55079 MEOH     3756     MEOH     DO1      DRUD    -2.488300        0.4000           0   0.00000   0.00000
     55080 MEOH     3756     MEOH     HO1      HDP1A    0.360000        1.0080           0   0.00000   0.00000
     55081 MEOH     3756     MEOH     HO2      DUMH     0.000000        1.0080           0   0.00000   0.00000
     55082 MEOH     3756     MEOH     H1A      HDA3B    0.080000        1.0080           0   0.00000   0.00000
     55083 MEOH     3756     MEOH     H1B      HDA3B    0.080000        1.0080           0   0.00000   0.00000
     55084 MEOH     3756     MEOH     H1C      HDA3B    0.080000        1.0080           0   0.00000   0.00000
     55085 MEOH     3756     MEOH     LP1A     LPD     -0.230000        0.0000           -1   0.00000   0.00000
     55086 MEOH     3756     MEOH     LP1B     LPD     -0.230000        0.0000           -1   0.00000   0.00000
     55087 MEOH     3757     MEOH     C1       CD33B    2.314100       11.6110           0   -1.00000   1.30000
     55088 MEOH     3757     MEOH     DC1      DRUD    -2.454100        0.4000           0   0.00000   0.00000
     55089 MEOH     3757     MEOH     O1       OD31H    2.488300       15.5990           0   -1.02800   1.30000
     55090 MEOH     3757     MEOH     DO1      DRUD    -2.488300        0.4000           0   0.00000   0.00000
     55091 MEOH     3757     MEOH     HO1      HDP1A    0.360000        1.0080           0   0.00000   0.00000
     55092 MEOH     3757     MEOH     HO2      DUMH     0.000000        1.0080           0   0.00000   0.00000
     55093 MEOH     3757     MEOH     H1A      HDA3B    0.080000        1.0080           0   0.00000   0.00000
     55094 MEOH     3757     MEOH     H1B      HDA3B    0.080000        1.0080           0   0.00000   0.00000
     55095 MEOH     3757     MEOH     H1C      HDA3B    0.080000        1.0080           0   0.00000   0.00000
     55096 MEOH     3757     MEOH     LP1A     LPD     -0.230000        0.0000           -1   0.00000   0.00000
     55097 MEOH     3757     MEOH     LP1B     LPD     -0.230000        0.0000           -1   0.00000   0.00000
     55098 MEOH     3758     MEOH     C1       CD33B    2.314100       11.6110           0   -1.00000   1.30000
     55099 MEOH     3758     MEOH     DC1      DRUD    -2.454100        0.4000           0   0.00000   0.00000
     55100 MEOH     3758     MEOH     O1       OD31H    2.488300       15.5990           0   -1.02800   1.30000
     55101 MEOH     3758     MEOH     DO1      DRUD    -2.488300        0.4000           0   0.00000   0.00000
     55102 MEOH     3758     MEOH     HO1      HDP1A    0.360000        1.0080           0   0.00000   0.00000
     55103 MEOH     3758     MEOH     HO2      DUMH     0.000000        1.0080           0   0.00000   0.00000
     55104 MEOH     3758     MEOH     H1A      HDA3B    0.080000        1.0080           0   0.00000   0.00000
     55105 MEOH     3758     MEOH     H1B      HDA3B    0.080000        1.0080           0   0.00000   0.00000
     55106 MEOH     3758     MEOH     H1C      HDA3B    0.080000        1.0080           0   0.00000   0.00000
     55107 MEOH     3758     MEOH     LP1A     LPD     -0.230000        0.0000           -1   0.00000   0.00000
     55108 MEOH     3758     MEOH     LP1B     LPD     -0.230000        0.0000           -1   0.00000   0.00000
     55109 MEOH     3759     MEOH     C1       CD33B    2.314100       11.6110           0   -1.00000   1.30000
     55110 MEOH     3759     MEOH     DC1      DRUD    -2.454100        0.4000           0   0.00000   0.00000
     55111 MEOH     3759     MEOH     O1       OD31H    2.488300       15.5990           0   -1.02800   1.30000
     55112 MEOH     3759     MEOH     DO1      DRUD    -2.488300        0.4000           0   0.00000   0.00000
     55113 MEOH     3759     MEOH     HO1      HDP1A    0.360000        1.0080           0   0.00000   0.00000
     55114 MEOH     3759     MEOH     HO2      DUMH     0.000000        1.0080           0   0.00000   0.00000
     55115 MEOH     3759     MEOH     H1A      HDA3B    0.080000        1.0080           0   0.00000   0.00000
     55116 MEOH     3759     MEOH     H1B      HDA3B    0.080000        1.0080           0   0.00000   0.00000
     55117 MEOH     3759     MEOH     H1C      HDA3B    0.080000        1.0080           0   0.00000   0.00000
     55118 MEOH     3759     MEOH     LP1A     LPD     -0.230000        0.0000           -1   0.00000   0.00000
     55119 MEOH     3759     MEOH     LP1B     LPD     -0.230000        0.0000           -1   0.00000   0.00000
     55120 MEOH     3760     MEOH     C1       CD33B    2.314100       11.6110           0   -1.00000   1.30000
     55121 MEOH     3760     MEOH     DC1      DRUD    -2.454100        0.4000           0   0.00000   0.00000
     55122 MEOH     3760     MEOH     O1       OD31H    2.488300       15.5990           0   -1.02800   1.30000
     55123 MEOH     3760     MEOH     DO1      DRUD    -2.488300        0.4000           0   0.00000   0.00000
     55124 MEOH     3760     MEOH     HO1      HDP1A    0.360000        1.0080           0   0.00000   0.00000
     55125 MEOH     3760     MEOH     HO2      DUMH     0.000000        1.0080           0   0.00000   0.00000
     55126 MEOH     3760     MEOH     H1A      HDA3B    0.080000        1.0080           0   0.00000   0.00000
     55127 MEOH     3760     MEOH     H1B      HDA3B    0.080000        1.0080           0   0.00000   0.00000
     55128 MEOH     3760     MEOH     H1C      HDA3B    0.080000        1.0080           0   0.00000   0.00000
     55129 MEOH     3760     MEOH     LP1A     LPD     -0.230000        0.0000           -1   0.00000   0.00000
     55130 MEOH     3760     MEOH     LP1B     LPD     -0.230000        0.0000           -1   0.00000   0.00000
     55131 MEOH     3761     MEOH     C1       CD33B    2.314100       11.6110           0   -1.00000   1.30000
     55132 MEOH     3761     MEOH     DC1      DRUD    -2.454100        0.4000           0   0.00000   0.00000
     55133 MEOH     3761     MEOH     O1       OD31H    2.488300       15.5990           0   -1.02800   1.30000
     55134 MEOH     3761     MEOH     DO1      DRUD    -2.488300        0.4000           0   0.00000   0.00000
     55135 MEOH     3761     MEOH     HO1      HDP1A    0.360000        1.0080           0   0.00000   0.00000
     55136 MEOH     3761     MEOH     HO2      DUMH     0.000000        1.0080           0   0.00000   0.00000
     55137 MEOH     3761     MEOH     H1A      HDA3B    0.080000        1.0080           0   0.00000   0.00000
     55138 MEOH     3761     MEOH     H1B      HDA3B    0.080000        1.0080           0   0.00000   0.00000
     55139 MEOH     3761     MEOH     H1C      HDA3B    0.080000        1.0080           0   0.00000   0.00000
     55140 MEOH     3761     MEOH     LP1A     LPD     -0.230000        0.0000           -1   0.00000   0.00000
     55141 MEOH     3761     MEOH     LP1B     LPD     -0.230000        0.0000           -1   0.00000   0.00000
     55142 MEOH     3762     MEOH     C1       CD33B    2.314100       11.6110           0   -1.00000   1.30000
     55143 MEOH     3762     MEOH     DC1      DRUD    -2.454100        0.4000           0   0.00000   0.00000
     55144 MEOH     3762     MEOH     O1       OD31H    2.488300       15.5990           0   -1.02800   1.30000
     55145 MEOH     3762     MEOH     DO1      DRUD    -2.488300        0.4000           0   0.00000   0.00000
     55146 MEOH     3762     MEOH     HO1      HDP1A    0.360000        1.0080           0   0.00000   0.00000
     55147 MEOH     3762     MEOH     HO2      DUMH     0.000000        1.0080           0   0.00000   0.00000
     55148 MEOH     3762     MEOH     H1A      HDA3B    0.080000        1.0080           0   0.00000   0.00000
     55149 MEOH     3762     MEOH     H1B      HDA3B    0.080000        1.0080           0   0.00000   0.00000
     55150 MEOH     3762     MEOH     H1C      HDA3B    0.080000        1.0080           0   0.00000   0.00000
     55151 MEOH     3762     MEOH     LP1A     LPD     -0.230000        0.0000           -1   0.00000   0.00000
     55152 MEOH     3762     MEOH     LP1B     LPD     -0.230000        0.0000           -1   0.00000   0.00000
     55153 MEOH     3763     MEOH     C1       CD33B    2.314100       11.6110           0   -1.00000   1.30000
     55154 MEOH     3763     MEOH     DC1      DRUD    -2.454100        0.4000           0   0.00000   0.00000
     55155 MEOH     3763     MEOH     O1       OD31H    2.488300       15.5990           0   -1.02800   1.30000
     55156 MEOH     3763     MEOH     DO1      DRUD    -2.488300        0.4000           0   0.00000   0.00000
     55157 MEOH     3763     MEOH     HO1      HDP1A    0.360000        1.0080           0   0.00000   0.00000
     55158 MEOH     3763     MEOH     HO2      DUMH     0.000000        1.0080           0   0.00000   0.00000
     55159 MEOH     3763     MEOH     H1A      HDA3B    0.080000        1.0080           0   0.00000   0.00000
     55160 MEOH     3763     MEOH     H1B      HDA3B    0.080000        1.0080           0   0.00000   0.00000
     55161 MEOH     3763     MEOH     H1C      HDA3B    0.080000        1.0080           0   0.00000   0.00000
     55162 MEOH     3763     MEOH     LP1A     LPD     -0.230000        0.0000           -1   0.00000   0.00000
     55163 MEOH     3763     MEOH     LP1B     LPD     -0.230000        0.0000           -1   0.00000   0.00000
     55164 MEOH     3764     MEOH     C1       CD33B    2.314100       11.6110           0   -1.00000   1.30000
     55165 MEOH     3764     MEOH     DC1      DRUD    -2.454100        0.4000           0   0.00000   0.00000
     55166 MEOH     3764     MEOH     O1       OD31H    2.488300       15.5990           0   -1.02800   1.30000
     55167 MEOH     3764     MEOH     DO1      DRUD    -2.488300        0.4000           0   0.00000   0.00000
     55168 MEOH     3764     MEOH     HO1      HDP1A    0.360000        1.0080           0   0.00000   0.00000
     55169 MEOH     3764     MEOH     HO2      DUMH     0.000000        1.0080           0   0.00000   0.00000
     55170 MEOH     3764     MEOH     H1A      HDA3B    0.080000        1.0080           0   0.00000   0.00000
     55171 MEOH     3764     MEOH     H1B      HDA3B    0.080000        1.0080           0   0.00000   0.00000
     55172 MEOH     3764     MEOH     H1C      HDA3B    0.080000        1.0080           0   0.00000   0.00000
     55173 MEOH     3764     MEOH     LP1A     LPD     -0.230000        0.0000           -1   0.00000   0.00000
     55174 MEOH     3764     MEOH     LP1B     LPD     -0.230000        0.0000           -1   0.00000   0.00000
     55175 MEOH     3765     MEOH     C1       CD33B    2.314100       11.6110           0   -1.00000   1.30000
     55176 MEOH     3765     MEOH     DC1      DRUD    -2.454100        0.4000           0   0.00000   0.00000
     55177 MEOH     3765     MEOH     O1       OD31H    2.488300       15.5990           0   -1.02800   1.30000
     55178 MEOH     3765     MEOH     DO1      DRUD    -2.488300        0.4000           0   0.00000   0.00000
     55179 MEOH     3765     MEOH     HO1      HDP1A    0.360000        1.0080           0   0.00000   0.00000
     55180 MEOH     3765     MEOH     HO2      DUMH     0.000000        1.0080           0   0.00000   0.00000
     55181 MEOH     3765     MEOH     H1A      HDA3B    0.080000        1.0080           0   0.00000   0.00000
     55182 MEOH     3765     MEOH     H1B      HDA3B    0.080000        1.0080           0   0.00000   0.00000
     55183 MEOH     3765     MEOH     H1C      HDA3B    0.080000        1.0080           0   0.00000   0.00000
     55184 MEOH     3765     MEOH     LP1A     LPD     -0.230000        0.0000           -1   0.00000   0.00000
     55185 MEOH     3765     MEOH     LP1B     LPD     -0.230000        0.0000           -1   0.00000   0.00000

     51164 !NBOND: bonds
         1         2         6         7         8         9        11        12
        14        15        17        18         1         6         1         3
         1         4         1         5         6         8         6        14
         8        11         8        10        11        13        11        17
        17        14        14        16        17        19        20        17
        21        22        26        27        28        29        31        32
        34        35        37        38        21        26        21        23
        21        24        21        25        26        28        26        34
        28        31        28        30        31        33        31        37
        37        34        34        36        37        39        40        37
        41        42        46        47        48        49        51        52
        54        55        57        58        41        46        41        43
        41        44        41        45        46        48        46        54
        48        51        48        50        51        53        51        57
        57        54        54        56        57        59        60        57
        61        62        66        67        68        69        71        72
        74        75        77        78        61        66        61        63
        61        64        61        65        66        68        66        74
        68        71        68        70        71        73        71        77
        77        74        74        76        77        79        80        77
        81        82        86        87        88        89        91        92
        94        95        97        98        81        86        81        83
        81        84        81        85        86        88        86        94
        88        91        88        90        91        93        91        97
        97        94        94        96        97        99       100        97
       101       102       106       107       108       109       111       112
       114       115       117       118       101       106       101       103
       101       104       101       105       106       108       106       114
       108       111       108       110       111       113       111       117
       117       114       114       116       117       119       120       117
       121       122       126       127       128       129       131       132
       134       135       137       138       121       126       121       123
       121       124       121       125       126       128       126       134
       128       131       128       130       131       133       131       137
       137       134       134       136       137       139       140       137
       141       142       146       147       148       149       151       152
       154       155       157       158       141       146       141       143
       141       144       141       145       146       148       146       154
       148       151       148       150       151       153       151       157
       157       154       154       156       157       159       160       157
       161       162       166       167       168       169       171       172
       174       175       177       178       161       166       161       163
       161       164       161       165       166       168       166       174
       168       171       168       170       171       173       171       177
       177       174       174       176       177       179       180       177
       181       182       186       187       188       189       191       192
       194       195       197       198       181       186       181       183
       181       184       181       185       186       188       186       194
       188       191       188       190       191       193       191       197
       197       194       194       196       197       199       200       197
       201       202       206       207       208       209       211       212
       214       215       217       218       201       206       201       203
       201       204       201       205       206       208       206       214
       208       211       208       210       211       213       211       217
       217       214       214       216       217       219       220       217
       221       222       226       227       228       229       231       232
       234       235       237       238       221       226       221       223
       221       224       221       225       226       228       226       234
       228       231       228       230       231       233       231       237
       237       234       234       236       237       239       240       237
       241       242       246       247       248       249       251       252
       254       255       257       258       241       246       241       243
       241       244       241       245       246       248       246       254
       248       251       248       250       251       253       251       257
       257       254       254       256       257       259       260       257
       261       262       266       267       268       269       271       272
       274       275       277       278       261       266       261       263
       261       264       261       265       266       268       266       274
       268       271       268       270       271       273       271       277
       277       274       274       276       277       279       280       277
       281       282       286       287       288       289       291       292
       294       295       297       298       281       286       281       283
       281       284       281       285       286       288       286       294
       288       291       288       290       291       293       291       297
       297       294       294       296       297       299       300       297
       301       302       306       307       308       309       311       312
       314       315       317       318       301       306       301       303
       301       304       301       305       306       308       306       314
       308       311       308       310       311       313       311       317
       317       314       314       316       317       319       320       317
       321       322       326       327       328       329       331       332
       334       335       337       338       321       326       321       323
       321       324       321       325       326       328       326       334
       328       331       328       330       331       333       331       337
       337       334       334       336       337       339       340       337
       341       342       346       347       348       349       351       352
       354       355       357       358       341       346       341       343
       341       344       341       345       346       348       346       354
       348       351       348       350       351       353       351       357
       357       354       354       356       357       359       360       357
       361       362       366       367       368       369       371       372
       374       375       377       378       361       366       361       363
       361       364       361       365       366       368       366       374
       368       371       368       370       371       373       371       377
       377       374       374       376       377       379       380       377
       381       382       386       387       388       389       391       392
       394       395       397       398       381       386       381       383
       381       384       381       385       386       388       386       394
       388       391       388       390       391       393       391       397
       397       394       394       396       397       399       400       397
       401       402       406       407       408       409       411       412
       414       415       417       418       401       406       401       403
       401       404       401       405       406       408       406       414
       408       411       408       410       411       413       411       417
       417       414       414       416       417       419       420       417
       421       422       426       427       428       429       431       432
       434       435       437       438       421       426       421       423
       421       424       421       425       426       428       426       434
       428       431       428       430       431       433       431       437
       437       434       434       436       437       439       440       437
       441       442       446       447       448       449       451       452
       454       455       457       458       441       446       441       443
       441       444       441       445       446       448       446       454
       448       451       448       450       451       453       451       457
       457       454       454       456       457       459       460       457
       461       462       466       467       468       469       471       472
       474       475       477       478       461       466       461       463
       461       464       461       465       466       468       466       474
       468       471       468       470       471       473       471       477
       477       474       474       476       477       479       480       477
       481       482       486       487       488       489       491       492
       494       495       497       498       481       486       481       483
       481       484       481       485       486       488       486       494
       488       491       488       490       491       493       491       497
       497       494       494       496       497       499       500       497
       501       502       506       507       508       509       511       512
       514       515       517       518       501       506       501       503
       501       504       501       505       506       508       506       514
       508       511       508       510       511       513       511       517
       517       514       514       516       517       519       520       517
       521       522       526       527       528       529       531       532
       534       535       537       538       521       526       521       523
       521       524       521       525       526       528       526       534
       528       531       528       530       531       533       531       537
       537       534       534       536       537       539       540       537
       541       542       546       547       548       549       551       552
       554       555       557       558       541       546       541       543
       541       544       541       545       546       548       546       554
       548       551       548       550       551       553       551       557
       557       554       554       556       557       559       560       557
       561       562       566       567       568       569       571       572
       574       575       577       578       561       566       561       563
       561       564       561       565       566       568       566       574
       568       571       568       570       571       573       571       577
       577       574       574       576       577       579       580       577
       581       582       586       587       588       589       591       592
       594       595       597       598       581       586       581       583
       581       584       581       585       586       588       586       594
       588       591       588       590       591       593       591       597
       597       594       594       596       597       599       600       597
       601       602       606       607       608       609       611       612
       614       615       617       618       601       606       601       603
       601       604       601       605       606       608       606       614
       608       611       608       610       611       613       611       617
       617       614       614       616       617       619       620       617
       621       622       626       627       628       629       631       632
       634       635       637       638       621       626       621       623
       621       624       621       625       626       628       626       634
       628       631       628       630       631       633       631       637
       637       634       634       636       637       639       640       637
       641       642       646       647       648       649       651       652
       654       655       657       658       641       646       641       643
       641       644       641       645       646       648       646       654
       648       651       648       650       651       653       651       657
       657       654       654       656       657       659       660       657
       661       662       666       667       668       669       671       672
       674       675       677       678       661       666       661       663
       661       664       661       665       666       668       666       674
       668       671       668       670       671       673       671       677
       677       674       674       676       677       679       680       677
       681       682       686       687       688       689       691       692
       694       695       697       698       681       686       681       683
       681       684       681       685       686       688       686       694
       688       691       688       690       691       693       691       697
       697       694       694       696       697       699       700       697
       701       702       706       707       708       709       711       712
       714       715       717       718       701       706       701       703
       701       704       701       705       706       708       706       714
       708       711       708       710       711       713       711       717
       717       714       714       716       717       719       720       717
       721       722       726       727       728       729       731       732
       734       735       737       738       721       726       721       723
       721       724       721       725       726       728       726       734
       728       731       728       730       731       733       731       737
       737       734       734       736       737       739       740       737
       741       742       746       747       748       749       751       752
       754       755       757       758       741       746       741       743
       741       744       741       745       746       748       746       754
       748       751       748       750       751       753       751       757
       757       754       754       756       757       759       760       757
       761       762       766       767       768       769       771       772
       774       775       777       778       761       766       761       763
       761       764       761       765       766       768       766       774
       768       771       768       770       771       773       771       777
       777       774       774       776       777       779       780       777
       781       782       786       787       788       789       791       792
       794       795       797       798       781       786       781       783
       781       784       781       785       786       788       786       794
       788       791       788       790       791       793       791       797
       797       794       794       796       797       799       800       797
       801       802       806       807       808       809       811       812
       814       815       817       818       801       806       801       803
       801       804       801       805       806       808       806       814
       808       811       808       810       811       813       811       817
       817       814       814       816       817       819       820       817
       821       822       826       827       828       829       831       832
       834       835       837       838       821       826       821       823
       821       824       821       825       826       828       826       834
       828       831       828       830       831       833       831       837
       837       834       834       836       837       839       840       837
       841       842       846       847       848       849       851       852
       854       855       857       858       841       846       841       843
       841       844       841       845       846       848       846       854
       848       851       848       850       851       853       851       857
       857       854       854       856       857       859       860       857
       861       862       866       867       868       869       871       872
       874       875       877       878       861       866       861       863
       861       864       861       865       866       868       866       874
       868       871       868       870       871       873       871       877
       877       874       874       876       877       879       880       877
       881       882       886       887       888       889       891       892
       894       895       897       898       881       886       881       883
       881       884       881       885       886       888       886       894
       888       891       888       890       891       893       891       897
       897       894       894       896       897       899       900       897
       901       902       906       907       908       909       911       912
       914       915       917       918       901       906       901       903
       901       904       901       905       906       908       906       914
       908       911       908       910       911       913       911       917
       917       914       914       916       917       919       920       917
       921       922       926       927       928       929       931       932
       934       935       937       938       921       926       921       923
       921       924       921       925       926       928       926       934
       928       931       928       930       931       933       931       937
       937       934       934       936       937       939       940       937
       941       942       946       947       948       949       951       952
       954       955       957       958       941       946       941       943
       941       944       941       945       946       948       946       954
       948       951       948       950       951       953       951       957
       957       954       954       956       957       959       960       957
       961       962       966       967       968       969       971       972
       974       975       977       978       961       966       961       963
       961       964       961       965       966       968       966       974
       968       971       968       970       971       973       971       977
       977       974       974       976       977       979       980       977
       981       982       986       987       988       989       991       992
       994       995       997       998       981       986       981       983
       981       984       981       985       986       988       986       994
       988       991       988       990       991       993       991       997
       997       994       994       996       997       999      1000       997
      1001      1002      1006      1007      1008      1009      1011      1012
      1014      1015      1017      1018      1001      1006      1001      1003
      1001      1004      1001      1005      1006      1008      1006      1014
      1008      1011      1008      1010      1011      1013      1011      1017
      1017      1014      1014      1016      1017      1019      1020      1017
      1021      1022      1026      1027      1028      1029      1031      1032
      1034      1035      1037      1038      1021      1026      1021      1023
      1021      1024      1021      1025      1026      1028      1026      1034
      1028      1031      1028      1030      1031      1033      1031      1037
      1037      1034      1034      1036      1037      1039      1040      1037
      1041      1042      1046      1047      1048      1049      1051      1052
      1054      1055      1057      1058      1041      1046      1041      1043
      1041      1044      1041      1045      1046      1048      1046      1054
      1048      1051      1048      1050      1051      1053      1051      1057
      1057      1054      1054      1056      1057      1059      1060      1057
      1061      1062      1066      1067      1068      1069      1071      1072
      1074      1075      1077      1078      1061      1066      1061      1063
      1061      1064      1061      1065      1066      1068      1066      1074
      1068      1071      1068      1070      1071      1073      1071      1077
      1077      1074      1074      1076      1077      1079      1080      1077
      1081      1082      1086      1087      1088      1089      1091      1092
      1094      1095      1097      1098      1081      1086      1081      1083
      1081      1084      1081      1085      1086      1088      1086      1094
      1088      1091      1088      1090      1091      1093      1091      1097
      1097      1094      1094      1096      1097      1099      1100      1097
      1101      1102      1106      1107      1108      1109      1111      1112
      1114      1115      1117      1118      1101      1106      1101      1103
      1101      1104      1101      1105      1106      1108      1106      1114
      1108      1111      1108      1110      1111      1113      1111      1117
      1117      1114      1114      1116      1117      1119      1120      1117
      1121      1122      1126      1127      1128      1129      1131      1132
      1134      1135      1137      1138      1121      1126      1121      1123
      1121      1124      1121      1125      1126      1128      1126      1134
      1128      1131      1128      1130      1131      1133      1131      1137
      1137      1134      1134      1136      1137      1139      1140      1137
      1141      1142      1146      1147      1148      1149      1151      1152
      1154      1155      1157      1158      1141      1146      1141      1143
      1141      1144      1141      1145      1146      1148      1146      1154
      1148      1151      1148      1150      1151      1153      1151      1157
      1157      1154      1154      1156      1157      1159      1160      1157
      1161      1162      1166      1167      1168      1169      1171      1172
      1174      1175      1177      1178      1161      1166      1161      1163
      1161      1164      1161      1165      1166      1168      1166      1174
      1168      1171      1168      1170      1171      1173      1171      1177
      1177      1174      1174      1176      1177      1179      1180      1177
      1181      1182      1186      1187      1188      1189      1191      1192
      1194      1195      1197      1198      1181      1186      1181      1183
      1181      1184      1181      1185      1186      1188      1186      1194
      1188      1191      1188      1190      1191      1193      1191      1197
      1197      1194      1194      1196      1197      1199      1200      1197
      1201      1202      1206      1207      1208      1209      1211      1212
      1214      1215      1217      1218      1201      1206      1201      1203
      1201      1204      1201      1205      1206      1208      1206      1214
      1208      1211      1208      1210      1211      1213      1211      1217
      1217      1214      1214      1216      1217      1219      1220      1217
      1221      1222      1226      1227      1228      1229      1231      1232
      1234      1235      1237      1238      1221      1226      1221      1223
      1221      1224      1221      1225      1226      1228      1226      1234
      1228      1231      1228      1230      1231      1233      1231      1237
      1237      1234      1234      1236      1237      1239      1240      1237
      1241      1242      1246      1247      1248      1249      1251      1252
      1254      1255      1257      1258      1241      1246      1241      1243
      1241      1244      1241      1245      1246      1248      1246      1254
      1248      1251      1248      1250      1251      1253      1251      1257
      1257      1254      1254      1256      1257      1259      1260      1257
      1261      1262      1266      1267      1268      1269      1271      1272
      1274      1275      1277      1278      1261      1266      1261      1263
      1261      1264      1261      1265      1266      1268      1266      1274
      1268      1271      1268      1270      1271      1273      1271      1277
      1277      1274      1274      1276      1277      1279      1280      1277
      1281      1282      1286      1287      1288      1289      1291      1292
      1294      1295      1297      1298      1281      1286      1281      1283
      1281      1284      1281      1285      1286      1288      1286      1294
      1288      1291      1288      1290      1291      1293      1291      1297
      1297      1294      1294      1296      1297      1299      1300      1297
      1301      1302      1306      1307      1308      1309      1311      1312
      1314      1315      1317      1318      1301      1306      1301      1303
      1301      1304      1301      1305      1306      1308      1306      1314
      1308      1311      1308      1310      1311      1313      1311      1317
      1317      1314      1314      1316      1317      1319      1320      1317
      1321      1322      1326      1327      1328      1329      1331      1332
      1334      1335      1337      1338      1321      1326      1321      1323
      1321      1324      1321      1325      1326      1328      1326      1334
      1328      1331      1328      1330      1331      1333      1331      1337
      1337      1334      1334      1336      1337      1339      1340      1337
      1341      1342      1346      1347      1348      1349      1351      1352
      1354      1355      1357      1358      1341      1346      1341      1343
      1341      1344      1341      1345      1346      1348      1346      1354
      1348      1351      1348      1350      1351      1353      1351      1357
      1357      1354      1354      1356      1357      1359      1360      1357
      1361      1362      1366      1367      1368      1369      1371      1372
      1374      1375      1377      1378      1361      1366      1361      1363
      1361      1364      1361      1365      1366      1368      1366      1374
      1368      1371      1368      1370      1371      1373      1371      1377
      1377      1374      1374      1376      1377      1379      1380      1377
      1381      1382      1386      1387      1388      1389      1391      1392
      1394      1395      1397      1398      1381      1386      1381      1383
      1381      1384      1381      1385      1386      1388      1386      1394
      1388      1391      1388      1390      1391      1393      1391      1397
      1397      1394      1394      1396      1397      1399      1400      1397
      1401      1402      1406      1407      1408      1409      1411      1412
      1414      1415      1417      1418      1401      1406      1401      1403
      1401      1404      1401      1405      1406      1408      1406      1414
      1408      1411      1408      1410      1411      1413      1411      1417
      1417      1414      1414      1416      1417      1419      1420      1417
      1421      1422      1426      1427      1428      1429      1431      1432
      1434      1435      1437      1438      1421      1426      1421      1423
      1421      1424      1421      1425      1426      1428      1426      1434
      1428      1431      1428      1430      1431      1433      1431      1437
      1437      1434      1434      1436      1437      1439      1440      1437
      1441      1442      1446      1447      1448      1449      1451      1452
      1454      1455      1457      1458      1441      1446      1441      1443
      1441      1444      1441      1445      1446      1448      1446      1454
      1448      1451      1448      1450      1451      1453      1451      1457
      1457      1454      1454      1456      1457      1459      1460      1457
      1461      1462      1466      1467      1468      1469      1471      1472
      1474      1475      1477      1478      1461      1466      1461      1463
      1461      1464      1461      1465      1466      1468      1466      1474
      1468      1471      1468      1470      1471      1473      1471      1477
      1477      1474      1474      1476      1477      1479      1480      1477
      1481      1482      1486      1487      1488      1489      1491      1492
      1494      1495      1497      1498      1481      1486      1481      1483
      1481      1484      1481      1485      1486      1488      1486      1494
      1488      1491      1488      1490      1491      1493      1491      1497
      1497      1494      1494      1496      1497      1499      1500      1497
      1501      1502      1506      1507      1508      1509      1511      1512
      1514      1515      1517      1518      1501      1506      1501      1503
      1501      1504      1501      1505      1506      1508      1506      1514
      1508      1511      1508      1510      1511      1513      1511      1517
      1517      1514      1514      1516      1517      1519      1520      1517
      1521      1522      1526      1527      1528      1529      1531      1532
      1534      1535      1537      1538      1521      1526      1521      1523
      1521      1524      1521      1525      1526      1528      1526      1534
      1528      1531      1528      1530      1531      1533      1531      1537
      1537      1534      1534      1536      1537      1539      1540      1537
      1541      1542      1546      1547      1548      1549      1551      1552
      1554      1555      1557      1558      1541      1546      1541      1543
      1541      1544      1541      1545      1546      1548      1546      1554
      1548      1551      1548      1550      1551      1553      1551      1557
      1557      1554      1554      1556      1557      1559      1560      1557
      1561      1562      1566      1567      1568      1569      1571      1572
      1574      1575      1577      1578      1561      1566      1561      1563
      1561      1564      1561      1565      1566      1568      1566      1574
      1568      1571      1568      1570      1571      1573      1571      1577
      1577      1574      1574      1576      1577      1579      1580      1577
      1581      1582      1586      1587      1588      1589      1591      1592
      1594      1595      1597      1598      1581      1586      1581      1583
      1581      1584      1581      1585      1586      1588      1586      1594
      1588      1591      1588      1590      1591      1593      1591      1597
      1597      1594      1594      1596      1597      1599      1600      1597
      1601      1602      1606      1607      1608      1609      1611      1612
      1614      1615      1617      1618      1601      1606      1601      1603
      1601      1604      1601      1605      1606      1608      1606      1614
      1608      1611      1608      1610      1611      1613      1611      1617
      1617      1614      1614      1616      1617      1619      1620      1617
      1621      1622      1626      1627      1628      1629      1631      1632
      1634      1635      1637      1638      1621      1626      1621      1623
      1621      1624      1621      1625      1626      1628      1626      1634
      1628      1631      1628      1630      1631      1633      1631      1637
      1637      1634      1634      1636      1637      1639      1640      1637
      1641      1642      1646      1647      1648      1649      1651      1652
      1654      1655      1657      1658      1641      1646      1641      1643
      1641      1644      1641      1645      1646      1648      1646      1654
      1648      1651      1648      1650      1651      1653      1651      1657
      1657      1654      1654      1656      1657      1659      1660      1657
      1661      1662      1666      1667      1668      1669      1671      1672
      1674      1675      1677      1678      1661      1666      1661      1663
      1661      1664      1661      1665      1666      1668      1666      1674
      1668      1671      1668      1670      1671      1673      1671      1677
      1677      1674      1674      1676      1677      1679      1680      1677
      1681      1682      1686      1687      1688      1689      1691      1692
      1694      1695      1697      1698      1681      1686      1681      1683
      1681      1684      1681      1685      1686      1688      1686      1694
      1688      1691      1688      1690      1691      1693      1691      1697
      1697      1694      1694      1696      1697      1699      1700      1697
      1701      1702      1706      1707      1708      1709      1711      1712
      1714      1715      1717      1718      1701      1706      1701      1703
      1701      1704      1701      1705      1706      1708      1706      1714
      1708      1711      1708      1710      1711      1713      1711      1717
      1717      1714      1714      1716      1717      1719      1720      1717
      1721      1722      1726      1727      1728      1729      1731      1732
      1734      1735      1737      1738      1721      1726      1721      1723
      1721      1724      1721      1725      1726      1728      1726      1734
      1728      1731      1728      1730      1731      1733      1731      1737
      1737      1734      1734      1736      1737      1739      1740      1737
      1741      1742      1746      1747      1748      1749      1751      1752
      1754      1755      1757      1758      1741      1746      1741      1743
      1741      1744      1741      1745      1746      1748      1746      1754
      1748      1751      1748      1750      1751      1753      1751      1757
      1757      1754      1754      1756      1757      1759      1760      1757
      1761      1762      1766      1767      1768      1769      1771      1772
      1774      1775      1777      1778      1761      1766      1761      1763
      1761      1764      1761      1765      1766      1768      1766      1774
      1768      1771      1768      1770      1771      1773      1771      1777
      1777      1774      1774      1776      1777      1779      1780      1777
      1781      1782      1786      1787      1788      1789      1791      1792
      1794      1795      1797      1798      1781      1786      1781      1783
      1781      1784      1781      1785      1786      1788      1786      1794
      1788      1791      1788      1790      1791      1793      1791      1797
      1797      1794      1794      1796      1797      1799      1800      1797
      1801      1802      1806      1807      1808      1809      1811      1812
      1814      1815      1817      1818      1801      1806      1801      1803
      1801      1804      1801      1805      1806      1808      1806      1814
      1808      1811      1808      1810      1811      1813      1811      1817
      1817      1814      1814      1816      1817      1819      1820      1817
      1821      1822      1826      1827      1828      1829      1831      1832
      1834      1835      1837      1838      1821      1826      1821      1823
      1821      1824      1821      1825      1826      1828      1826      1834
      1828      1831      1828      1830      1831      1833      1831      1837
      1837      1834      1834      1836      1837      1839      1840      1837
      1841      1842      1846      1847      1848      1849      1851      1852
      1854      1855      1857      1858      1841      1846      1841      1843
      1841      1844      1841      1845      1846      1848      1846      1854
      1848      1851      1848      1850      1851      1853      1851      1857
      1857      1854      1854      1856      1857      1859      1860      1857
      1861      1862      1866      1867      1868      1869      1871      1872
      1874      1875      1877      1878      1861      1866      1861      1863
      1861      1864      1861      1865      1866      1868      1866      1874
      1868      1871      1868      1870      1871      1873      1871      1877
      1877      1874      1874      1876      1877      1879      1880      1877
      1881      1882      1886      1887      1888      1889      1891      1892
      1894      1895      1897      1898      1881      1886      1881      1883
      1881      1884      1881      1885      1886      1888      1886      1894
      1888      1891      1888      1890      1891      1893      1891      1897
      1897      1894      1894      1896      1897      1899      1900      1897
      1901      1902      1906      1907      1908      1909      1911      1912
      1914      1915      1917      1918      1901      1906      1901      1903
      1901      1904      1901      1905      1906      1908      1906      1914
      1908      1911      1908      1910      1911      1913      1911      1917
      1917      1914      1914      1916      1917      1919      1920      1917
      1921      1922      1926      1927      1928      1929      1931      1932
      1934      1935      1937      1938      1921      1926      1921      1923
      1921      1924      1921      1925      1926      1928      1926      1934
      1928      1931      1928      1930      1931      1933      1931      1937
      1937      1934      1934      1936      1937      1939      1940      1937
      1941      1942      1946      1947      1948      1949      1951      1952
      1954      1955      1957      1958      1941      1946      1941      1943
      1941      1944      1941      1945      1946      1948      1946      1954
      1948      1951      1948      1950      1951      1953      1951      1957
      1957      1954      1954      1956      1957      1959      1960      1957
      1961      1962      1966      1967      1968      1969      1971      1972
      1974      1975      1977      1978      1961      1966      1961      1963
      1961      1964      1961      1965      1966      1968      1966      1974
      1968      1971      1968      1970      1971      1973      1971      1977
      1977      1974      1974      1976      1977      1979      1980      1977
      1981      1982      1986      1987      1988      1989      1991      1992
      1994      1995      1997      1998      1981      1986      1981      1983
      1981      1984      1981      1985      1986      1988      1986      1994
      1988      1991      1988      1990      1991      1993      1991      1997
      1997      1994      1994      1996      1997      1999      2000      1997
      2001      2002      2006      2007      2008      2009      2011      2012
      2014      2015      2017      2018      2001      2006      2001      2003
      2001      2004      2001      2005      2006      2008      2006      2014
      2008      2011      2008      2010      2011      2013      2011      2017
      2017      2014      2014      2016      2017      2019      2020      2017
      2021      2022      2026      2027      2028      2029      2031      2032
      2034      2035      2037      2038      2021      2026      2021      2023
      2021      2024      2021      2025      2026      2028      2026      2034
      2028      2031      2028      2030      2031      2033      2031      2037
      2037      2034      2034      2036      2037      2039      2040      2037
      2041      2042      2046      2047      2048      2049      2051      2052
      2054      2055      2057      2058      2041      2046      2041      2043
      2041      2044      2041      2045      2046      2048      2046      2054
      2048      2051      2048      2050      2051      2053      2051      2057
      2057      2054      2054      2056      2057      2059      2060      2057
      2061      2062      2066      2067      2068      2069      2071      2072
      2074      2075      2077      2078      2061      2066      2061      2063
      2061      2064      2061      2065      2066      2068      2066      2074
      2068      2071      2068      2070      2071      2073      2071      2077
      2077      2074      2074      2076      2077      2079      2080      2077
      2081      2082      2086      2087      2088      2089      2091      2092
      2094      2095      2097      2098      2081      2086      2081      2083
      2081      2084      2081      2085      2086      2088      2086      2094
      2088      2091      2088      2090      2091      2093      2091      2097
      2097      2094      2094      2096      2097      2099      2100      2097
      2101      2102      2106      2107      2108      2109      2111      2112
      2114      2115      2117      2118      2101      2106      2101      2103
      2101      2104      2101      2105      2106      2108      2106      2114
      2108      2111      2108      2110      2111      2113      2111      2117
      2117      2114      2114      2116      2117      2119      2120      2117
      2121      2122      2126      2127      2128      2129      2131      2132
      2134      2135      2137      2138      2121      2126      2121      2123
      2121      2124      2121      2125      2126      2128      2126      2134
      2128      2131      2128      2130      2131      2133      2131      2137
      2137      2134      2134      2136      2137      2139      2140      2137
      2141      2142      2146      2147      2148      2149      2151      2152
      2154      2155      2157      2158      2141      2146      2141      2143
      2141      2144      2141      2145      2146      2148      2146      2154
      2148      2151      2148      2150      2151      2153      2151      2157
      2157      2154      2154      2156      2157      2159      2160      2157
      2161      2162      2166      2167      2168      2169      2171      2172
      2174      2175      2177      2178      2161      2166      2161      2163
      2161      2164      2161      2165      2166      2168      2166      2174
      2168      2171      2168      2170      2171      2173      2171      2177
      2177      2174      2174      2176      2177      2179      2180      2177
      2181      2182      2186      2187      2188      2189      2191      2192
      2194      2195      2197      2198      2181      2186      2181      2183
      2181      2184      2181      2185      2186      2188      2186      2194
      2188      2191      2188      2190      2191      2193      2191      2197
      2197      2194      2194      2196      2197      2199      2200      2197
      2201      2202      2206      2207      2208      2209      2211      2212
      2214      2215      2217      2218      2201      2206      2201      2203
      2201      2204      2201      2205      2206      2208      2206      2214
      2208      2211      2208      2210      2211      2213      2211      2217
      2217      2214      2214      2216      2217      2219      2220      2217
      2221      2222      2226      2227      2228      2229      2231      2232
      2234      2235      2237      2238      2221      2226      2221      2223
      2221      2224      2221      2225      2226      2228      2226      2234
      2228      2231      2228      2230      2231      2233      2231      2237
      2237      2234      2234      2236      2237      2239      2240      2237
      2241      2242      2246      2247      2248      2249      2251      2252
      2254      2255      2257      2258      2241      2246      2241      2243
      2241      2244      2241      2245      2246      2248      2246      2254
      2248      2251      2248      2250      2251      2253      2251      2257
      2257      2254      2254      2256      2257      2259      2260      2257
      2261      2262      2266      2267      2268      2269      2271      2272
      2274      2275      2277      2278      2261      2266      2261      2263
      2261      2264      2261      2265      2266      2268      2266      2274
      2268      2271      2268      2270      2271      2273      2271      2277
      2277      2274      2274      2276      2277      2279      2280      2277
      2281      2282      2286      2287      2288      2289      2291      2292
      2294      2295      2297      2298      2281      2286      2281      2283
      2281      2284      2281      2285      2286      2288      2286      2294
      2288      2291      2288      2290      2291      2293      2291      2297
      2297      2294      2294      2296      2297      2299      2300      2297
      2301      2302      2306      2307      2308      2309      2311      2312
      2314      2315      2317      2318      2301      2306      2301      2303
      2301      2304      2301      2305      2306      2308      2306      2314
      2308      2311      2308      2310      2311      2313      2311      2317
      2317      2314      2314      2316      2317      2319      2320      2317
      2321      2322      2326      2327      2328      2329      2331      2332
      2334      2335      2337      2338      2321      2326      2321      2323
      2321      2324      2321      2325      2326      2328      2326      2334
      2328      2331      2328      2330      2331      2333      2331      2337
      2337      2334      2334      2336      2337      2339      2340      2337
      2341      2342      2346      2347      2348      2349      2351      2352
      2354      2355      2357      2358      2341      2346      2341      2343
      2341      2344      2341      2345      2346      2348      2346      2354
      2348      2351      2348      2350      2351      2353      2351      2357
      2357      2354      2354      2356      2357      2359      2360      2357
      2361      2362      2366      2367      2368      2369      2371      2372
      2374      2375      2377      2378      2361      2366      2361      2363
      2361      2364      2361      2365      2366      2368      2366      2374
      2368      2371      2368      2370      2371      2373      2371      2377
      2377      2374      2374      2376      2377      2379      2380      2377
      2381      2382      2386      2387      2388      2389      2391      2392
      2394      2395      2397      2398      2381      2386      2381      2383
      2381      2384      2381      2385      2386      2388      2386      2394
      2388      2391      2388      2390      2391      2393      2391      2397
      2397      2394      2394      2396      2397      2399      2400      2397
      2401      2402      2406      2407      2408      2409      2411      2412
      2414      2415      2417      2418      2401      2406      2401      2403
      2401      2404      2401      2405      2406      2408      2406      2414
      2408      2411      2408      2410      2411      2413      2411      2417
      2417      2414      2414      2416      2417      2419      2420      2417
      2421      2422      2426      2427      2428      2429      2431      2432
      2434      2435      2437      2438      2421      2426      2421      2423
      2421      2424      2421      2425      2426      2428      2426      2434
      2428      2431      2428      2430      2431      2433      2431      2437
      2437      2434      2434      2436      2437      2439      2440      2437
      2441      2442      2446      2447      2448      2449      2451      2452
      2454      2455      2457      2458      2441      2446      2441      2443
      2441      2444      2441      2445      2446      2448      2446      2454
      2448      2451      2448      2450      2451      2453      2451      2457
      2457      2454      2454      2456      2457      2459      2460      2457
      2461      2462      2466      2467      2468      2469      2471      2472
      2474      2475      2477      2478      2461      2466      2461      2463
      2461      2464      2461      2465      2466      2468      2466      2474
      2468      2471      2468      2470      2471      2473      2471      2477
      2477      2474      2474      2476      2477      2479      2480      2477
      2481      2482      2486      2487      2488      2489      2491      2492
      2494      2495      2497      2498      2481      2486      2481      2483
      2481      2484      2481      2485      2486      2488      2486      2494
      2488      2491      2488      2490      2491      2493      2491      2497
      2497      2494      2494      2496      2497      2499      2500      2497
      2501      2502      2506      2507      2508      2509      2511      2512
      2514      2515      2517      2518      2501      2506      2501      2503
      2501      2504      2501      2505      2506      2508      2506      2514
      2508      2511      2508      2510      2511      2513      2511      2517
      2517      2514      2514      2516      2517      2519      2520      2517
      2521      2522      2526      2527      2528      2529      2531      2532
      2534      2535      2537      2538      2521      2526      2521      2523
      2521      2524      2521      2525      2526      2528      2526      2534
      2528      2531      2528      2530      2531      2533      2531      2537
      2537      2534      2534      2536      2537      2539      2540      2537
      2541      2542      2546      2547      2548      2549      2551      2552
      2554      2555      2557      2558      2541      2546      2541      2543
      2541      2544      2541      2545      2546      2548      2546      2554
      2548      2551      2548      2550      2551      2553      2551      2557
      2557      2554      2554      2556      2557      2559      2560      2557
      2561      2562      2566      2567      2568      2569      2571      2572
      2574      2575      2577      2578      2561      2566      2561      2563
      2561      2564      2561      2565      2566      2568      2566      2574
      2568      2571      2568      2570      2571      2573      2571      2577
      2577      2574      2574      2576      2577      2579      2580      2577
      2581      2582      2586      2587      2588      2589      2591      2592
      2594      2595      2597      2598      2581      2586      2581      2583
      2581      2584      2581      2585      2586      2588      2586      2594
      2588      2591      2588      2590      2591      2593      2591      2597
      2597      2594      2594      2596      2597      2599      2600      2597
      2601      2602      2606      2607      2608      2609      2611      2612
      2614      2615      2617      2618      2601      2606      2601      2603
      2601      2604      2601      2605      2606      2608      2606      2614
      2608      2611      2608      2610      2611      2613      2611      2617
      2617      2614      2614      2616      2617      2619      2620      2617
      2621      2622      2626      2627      2628      2629      2631      2632
      2634      2635      2637      2638      2621      2626      2621      2623
      2621      2624      2621      2625      2626      2628      2626      2634
      2628      2631      2628      2630      2631      2633      2631      2637
      2637      2634      2634      2636      2637      2639      2640      2637
      2641      2642      2646      2647      2648      2649      2651      2652
      2654      2655      2657      2658      2641      2646      2641      2643
      2641      2644      2641      2645      2646      2648      2646      2654
      2648      2651      2648      2650      2651      2653      2651      2657
      2657      2654      2654      2656      2657      2659      2660      2657
      2661      2662      2666      2667      2668      2669      2671      2672
      2674      2675      2677      2678      2661      2666      2661      2663
      2661      2664      2661      2665      2666      2668      2666      2674
      2668      2671      2668      2670      2671      2673      2671      2677
      2677      2674      2674      2676      2677      2679      2680      2677
      2681      2682      2686      2687      2688      2689      2691      2692
      2694      2695      2697      2698      2681      2686      2681      2683
      2681      2684      2681      2685      2686      2688      2686      2694
      2688      2691      2688      2690      2691      2693      2691      2697
      2697      2694      2694      2696      2697      2699      2700      2697
      2701      2702      2706      2707      2708      2709      2711      2712
      2714      2715      2717      2718      2701      2706      2701      2703
      2701      2704      2701      2705      2706      2708      2706      2714
      2708      2711      2708      2710      2711      2713      2711      2717
      2717      2714      2714      2716      2717      2719      2720      2717
      2721      2722      2726      2727      2728      2729      2731      2732
      2734      2735      2737      2738      2721      2726      2721      2723
      2721      2724      2721      2725      2726      2728      2726      2734
      2728      2731      2728      2730      2731      2733      2731      2737
      2737      2734      2734      2736      2737      2739      2740      2737
      2741      2742      2746      2747      2748      2749      2751      2752
      2754      2755      2757      2758      2741      2746      2741      2743
      2741      2744      2741      2745      2746      2748      2746      2754
      2748      2751      2748      2750      2751      2753      2751      2757
      2757      2754      2754      2756      2757      2759      2760      2757
      2761      2762      2766      2767      2768      2769      2771      2772
      2774      2775      2777      2778      2761      2766      2761      2763
      2761      2764      2761      2765      2766      2768      2766      2774
      2768      2771      2768      2770      2771      2773      2771      2777
      2777      2774      2774      2776      2777      2779      2780      2777
      2781      2782      2786      2787      2788      2789      2791      2792
      2794      2795      2797      2798      2781      2786      2781      2783
      2781      2784      2781      2785      2786      2788      2786      2794
      2788      2791      2788      2790      2791      2793      2791      2797
      2797      2794      2794      2796      2797      2799      2800      2797
      2801      2802      2806      2807      2808      2809      2811      2812
      2814      2815      2817      2818      2801      2806      2801      2803
      2801      2804      2801      2805      2806      2808      2806      2814
      2808      2811      2808      2810      2811      2813      2811      2817
      2817      2814      2814      2816      2817      2819      2820      2817
      2821      2822      2826      2827      2828      2829      2831      2832
      2834      2835      2837      2838      2821      2826      2821      2823
      2821      2824      2821      2825      2826      2828      2826      2834
      2828      2831      2828      2830      2831      2833      2831      2837
      2837      2834      2834      2836      2837      2839      2840      2837
      2841      2842      2846      2847      2848      2849      2851      2852
      2854      2855      2857      2858      2841      2846      2841      2843
      2841      2844      2841      2845      2846      2848      2846      2854
      2848      2851      2848      2850      2851      2853      2851      2857
      2857      2854      2854      2856      2857      2859      2860      2857
      2861      2862      2866      2867      2868      2869      2871      2872
      2874      2875      2877      2878      2861      2866      2861      2863
      2861      2864      2861      2865      2866      2868      2866      2874
      2868      2871      2868      2870      2871      2873      2871      2877
      2877      2874      2874      2876      2877      2879      2880      2877
      2881      2882      2886      2887      2888      2889      2891      2892
      2894      2895      2897      2898      2881      2886      2881      2883
      2881      2884      2881      2885      2886      2888      2886      2894
      2888      2891      2888      2890      2891      2893      2891      2897
      2897      2894      2894      2896      2897      2899      2900      2897
      2901      2902      2906      2907      2908      2909      2911      2912
      2914      2915      2917      2918      2901      2906      2901      2903
      2901      2904      2901      2905      2906      2908      2906      2914
      2908      2911      2908      2910      2911      2913      2911      2917
      2917      2914      2914      2916      2917      2919      2920      2917
      2921      2922      2926      2927      2928      2929      2931      2932
      2934      2935      2937      2938      2921      2926      2921      2923
      2921      2924      2921      2925      2926      2928      2926      2934
      2928      2931      2928      2930      2931      2933      2931      2937
      2937      2934      2934      2936      2937      2939      2940      2937
      2941      2942      2943      2944      2948      2949      2950      2951
      2943      2941      2941      2948      2941      2950      2943      2945
      2943      2946      2943      2947      2950      2952      2948      2953
      2948      2954      2950      2955      2950      2956      2957      2958
      2959      2960      2964      2965      2966      2967      2959      2957
      2957      2964      2957      2966      2959      2961      2959      2962
      2959      2963      2966      2968      2964      2969      2964      2970
      2966      2971      2966      2972      2973      2974      2975      2976
      2980      2981      2982      2983      2975      2973      2973      2980
      2973      2982      2975      2977      2975      2978      2975      2979
      2982      2984      2980      2985      2980      2986      2982      2987
      2982      2988      2989      2990      2991      2992      2996      2997
      2998      2999      2991      2989      2989      2996      2989      2998
      2991      2993      2991      2994      2991      2995      2998      3000
      2996      3001      2996      3002      2998      3003      2998      3004
      3005      3006      3007      3008      3012      3013      3014      3015
      3007      3005      3005      3012      3005      3014      3007      3009
      3007      3010      3007      3011      3014      3016      3012      3017
      3012      3018      3014      3019      3014      3020      3021      3022
      3023      3024      3028      3029      3030      3031      3023      3021
      3021      3028      3021      3030      3023      3025      3023      3026
      3023      3027      3030      3032      3028      3033      3028      3034
      3030      3035      3030      3036      3037      3038      3039      3040
      3044      3045      3046      3047      3039      3037      3037      3044
      3037      3046      3039      3041      3039      3042      3039      3043
      3046      3048      3044      3049      3044      3050      3046      3051
      3046      3052      3053      3054      3055      3056      3060      3061
      3062      3063      3055      3053      3053      3060      3053      3062
      3055      3057      3055      3058      3055      3059      3062      3064
      3060      3065      3060      3066      3062      3067      3062      3068
      3069      3070      3071      3072      3076      3077      3078      3079
      3071      3069      3069      3076      3069      3078      3071      3073
      3071      3074      3071      3075      3078      3080      3076      3081
      3076      3082      3078      3083      3078      3084      3085      3086
      3087      3088      3092      3093      3094      3095      3087      3085
      3085      3092      3085      3094      3087      3089      3087      3090
      3087      3091      3094      3096      3092      3097      3092      3098
      3094      3099      3094      3100      3101      3102      3103      3104
      3108      3109      3110      3111      3103      3101      3101      3108
      3101      3110      3103      3105      3103      3106      3103      3107
      3110      3112      3108      3113      3108      3114      3110      3115
      3110      3116      3117      3118      3119      3120      3124      3125
      3126      3127      3119      3117      3117      3124      3117      3126
      3119      3121      3119      3122      3119      3123      3126      3128
      3124      3129      3124      3130      3126      3131      3126      3132
      3133      3134      3135      3136      3140      3141      3142      3143
      3135      3133      3133      3140      3133      3142      3135      3137
      3135      3138      3135      3139      3142      3144      3140      3145
      3140      3146      3142      3147      3142      3148      3149      3150
      3151      3152      3156      3157      3158      3159      3151      3149
      3149      3156      3149      3158      3151      3153      3151      3154
      3151      3155      3158      3160      3156      3161      3156      3162
      3158      3163      3158      3164      3165      3166      3167      3168
      3172      3173      3174      3175      3167      3165      3165      3172
      3165      3174      3167      3169      3167      3170      3167      3171
      3174      3176      3172      3177      3172      3178      3174      3179
      3174      3180      3181      3182      3183      3184      3188      3189
      3190      3191      3183      3181      3181      3188      3181      3190
      3183      3185      3183      3186      3183      3187      3190      3192
      3188      3193      3188      3194      3190      3195      3190      3196
      3197      3198      3199      3200      3204      3205      3206      3207
      3199      3197      3197      3204      3197      3206      3199      3201
      3199      3202      3199      3203      3206      3208      3204      3209
      3204      3210      3206      3211      3206      3212      3213      3214
      3215      3216      3220      3221      3222      3223      3215      3213
      3213      3220      3213      3222      3215      3217      3215      3218
      3215      3219      3222      3224      3220      3225      3220      3226
      3222      3227      3222      3228      3229      3230      3231      3232
      3236      3237      3238      3239      3231      3229      3229      3236
      3229      3238      3231      3233      3231      3234      3231      3235
      3238      3240      3236      3241      3236      3242      3238      3243
      3238      3244      3245      3246      3247      3248      3252      3253
      3254      3255      3247      3245      3245      3252      3245      3254
      3247      3249      3247      3250      3247      3251      3254      3256
      3252      3257      3252      3258      3254      3259      3254      3260
      3261      3262      3263      3264      3268      3269      3270      3271
      3263      3261      3261      3268      3261      3270      3263      3265
      3263      3266      3263      3267      3270      3272      3268      3273
      3268      3274      3270      3275      3270      3276      3277      3278
      3279      3280      3284      3285      3286      3287      3279      3277
      3277      3284      3277      3286      3279      3281      3279      3282
      3279      3283      3286      3288      3284      3289      3284      3290
      3286      3291      3286      3292      3293      3294      3295      3296
      3300      3301      3302      3303      3295      3293      3293      3300
      3293      3302      3295      3297      3295      3298      3295      3299
      3302      3304      3300      3305      3300      3306      3302      3307
      3302      3308      3309      3310      3311      3312      3316      3317
      3318      3319      3311      3309      3309      3316      3309      3318
      3311      3313      3311      3314      3311      3315      3318      3320
      3316      3321      3316      3322      3318      3323      3318      3324
      3325      3326      3327      3328      3332      3333      3334      3335
      3327      3325      3325      3332      3325      3334      3327      3329
      3327      3330      3327      3331      3334      3336      3332      3337
      3332      3338      3334      3339      3334      3340      3341      3342
      3343      3344      3348      3349      3350      3351      3343      3341
      3341      3348      3341      3350      3343      3345      3343      3346
      3343      3347      3350      3352      3348      3353      3348      3354
      3350      3355      3350      3356      3357      3358      3359      3360
      3364      3365      3366      3367      3359      3357      3357      3364
      3357      3366      3359      3361      3359      3362      3359      3363
      3366      3368      3364      3369      3364      3370      3366      3371
      3366      3372      3373      3374      3375      3376      3380      3381
      3382      3383      3375      3373      3373      3380      3373      3382
      3375      3377      3375      3378      3375      3379      3382      3384
      3380      3385      3380      3386      3382      3387      3382      3388
      3389      3390      3391      3392      3396      3397      3398      3399
      3391      3389      3389      3396      3389      3398      3391      3393
      3391      3394      3391      3395      3398      3400      3396      3401
      3396      3402      3398      3403      3398      3404      3405      3406
      3407      3408      3412      3413      3414      3415      3407      3405
      3405      3412      3405      3414      3407      3409      3407      3410
      3407      3411      3414      3416      3412      3417      3412      3418
      3414      3419      3414      3420      3421      3422      3423      3424
      3428      3429      3430      3431      3423      3421      3421      3428
      3421      3430      3423      3425      3423      3426      3423      3427
      3430      3432      3428      3433      3428      3434      3430      3435
      3430      3436      3437      3438      3439      3440      3444      3445
      3446      3447      3439      3437      3437      3444      3437      3446
      3439      3441      3439      3442      3439      3443      3446      3448
      3444      3449      3444      3450      3446      3451      3446      3452
      3453      3454      3455      3456      3460      3461      3462      3463
      3455      3453      3453      3460      3453      3462      3455      3457
      3455      3458      3455      3459      3462      3464      3460      3465
      3460      3466      3462      3467      3462      3468      3469      3470
      3471      3472      3476      3477      3478      3479      3471      3469
      3469      3476      3469      3478      3471      3473      3471      3474
      3471      3475      3478      3480      3476      3481      3476      3482
      3478      3483      3478      3484      3485      3486      3487      3488
      3492      3493      3494      3495      3487      3485      3485      3492
      3485      3494      3487      3489      3487      3490      3487      3491
      3494      3496      3492      3497      3492      3498      3494      3499
      3494      3500      3501      3502      3503      3504      3508      3509
      3510      3511      3503      3501      3501      3508      3501      3510
      3503      3505      3503      3506      3503      3507      3510      3512
      3508      3513      3508      3514      3510      3515      3510      3516
      3517      3518      3519      3520      3524      3525      3526      3527
      3519      3517      3517      3524      3517      3526      3519      3521
      3519      3522      3519      3523      3526      3528      3524      3529
      3524      3530      3526      3531      3526      3532      3533      3534
      3535      3536      3540      3541      3542      3543      3535      3533
      3533      3540      3533      3542      3535      3537      3535      3538
      3535      3539      3542      3544      3540      3545      3540      3546
      3542      3547      3542      3548      3549      3550      3551      3552
      3556      3557      3558      3559      3551      3549      3549      3556
      3549      3558      3551      3553      3551      3554      3551      3555
      3558      3560      3556      3561      3556      3562      3558      3563
      3558      3564      3565      3566      3567      3568      3572      3573
      3574      3575      3567      3565      3565      3572      3565      3574
      3567      3569      3567      3570      3567      3571      3574      3576
      3572      3577      3572      3578      3574      3579      3574      3580
      3581      3582      3583      3584      3588      3589      3590      3591
      3583      3581      3581      3588      3581      3590      3583      3585
      3583      3586      3583      3587      3590      3592      3588      3593
      3588      3594      3590      3595      3590      3596      3597      3598
      3599      3600      3604      3605      3606      3607      3599      3597
      3597      3604      3597      3606      3599      3601      3599      3602
      3599      3603      3606      3608      3604      3609      3604      3610
      3606      3611      3606      3612      3613      3614      3615      3616
      3620      3621      3622      3623      3615      3613      3613      3620
      3613      3622      3615      3617      3615      3618      3615      3619
      3622      3624      3620      3625      3620      3626      3622      3627
      3622      3628      3629      3630      3631      3632      3636      3637
      3638      3639      3631      3629      3629      3636      3629      3638
      3631      3633      3631      3634      3631      3635      3638      3640
      3636      3641      3636      3642      3638      3643      3638      3644
      3645      3646      3647      3648      3652      3653      3654      3655
      3647      3645      3645      3652      3645      3654      3647      3649
      3647      3650      3647      3651      3654      3656      3652      3657
      3652      3658      3654      3659      3654      3660      3661      3662
      3663      3664      3668      3669      3670      3671      3663      3661
      3661      3668      3661      3670      3663      3665      3663      3666
      3663      3667      3670      3672      3668      3673      3668      3674
      3670      3675      3670      3676      3677      3678      3679      3680
      3684      3685      3686      3687      3679      3677      3677      3684
      3677      3686      3679      3681      3679      3682      3679      3683
      3686      3688      3684      3689      3684      3690      3686      3691
      3686      3692      3693      3694      3695      3696      3700      3701
      3702      3703      3695      3693      3693      3700      3693      3702
      3695      3697      3695      3698      3695      3699      3702      3704
      3700      3705      3700      3706      3702      3707      3702      3708
      3709      3710      3711      3712      3716      3717      3718      3719
      3711      3709      3709      3716      3709      3718      3711      3713
      3711      3714      3711      3715      3718      3720      3716      3721
      3716      3722      3718      3723      3718      3724      3725      3726
      3727      3728      3732      3733      3734      3735      3727      3725
      3725      3732      3725      3734      3727      3729      3727      3730
      3727      3731      3734      3736      3732      3737      3732      3738
      3734      3739      3734      3740      3741      3742      3743      3744
      3748      3749      3750      3751      3743      3741      3741      3748
      3741      3750      3743      3745      3743      3746      3743      3747
      3750      3752      3748      3753      3748      3754      3750      3755
      3750      3756      3757      3758      3759      3760      3764      3765
      3766      3767      3759      3757      3757      3764      3757      3766
      3759      3761      3759      3762      3759      3763      3766      3768
      3764      3769      3764      3770      3766      3771      3766      3772
      3773      3774      3775      3776      3780      3781      3782      3783
      3775      3773      3773      3780      3773      3782      3775      3777
      3775      3778      3775      3779      3782      3784      3780      3785
      3780      3786      3782      3787      3782      3788      3789      3790
      3791      3792      3796      3797      3798      3799      3791      3789
      3789      3796      3789      3798      3791      3793      3791      3794
      3791      3795      3798      3800      3796      3801      3796      3802
      3798      3803      3798      3804      3805      3806      3807      3808
      3812      3813      3814      3815      3807      3805      3805      3812
      3805      3814      3807      3809      3807      3810      3807      3811
      3814      3816      3812      3817      3812      3818      3814      3819
      3814      3820      3821      3822      3823      3824      3828      3829
      3830      3831      3823      3821      3821      3828      3821      3830
      3823      3825      3823      3826      3823      3827      3830      3832
      3828      3833      3828      3834      3830      3835      3830      3836
      3837      3838      3839      3840      3844      3845      3846      3847
      3839      3837      3837      3844      3837      3846      3839      3841
      3839      3842      3839      3843      3846      3848      3844      3849
      3844      3850      3846      3851      3846      3852      3853      3854
      3855      3856      3860      3861      3862      3863      3855      3853
      3853      3860      3853      3862      3855      3857      3855      3858
      3855      3859      3862      3864      3860      3865      3860      3866
      3862      3867      3862      3868      3869      3870      3871      3872
      3876      3877      3878      3879      3871      3869      3869      3876
      3869      3878      3871      3873      3871      3874      3871      3875
      3878      3880      3876      3881      3876      3882      3878      3883
      3878      3884      3885      3886      3887      3888      3892      3893
      3894      3895      3887      3885      3885      3892      3885      3894
      3887      3889      3887      3890      3887      3891      3894      3896
      3892      3897      3892      3898      3894      3899      3894      3900
      3901      3902      3903      3904      3908      3909      3910      3911
      3903      3901      3901      3908      3901      3910      3903      3905
      3903      3906      3903      3907      3910      3912      3908      3913
      3908      3914      3910      3915      3910      3916      3917      3918
      3919      3920      3924      3925      3926      3927      3919      3917
      3917      3924      3917      3926      3919      3921      3919      3922
      3919      3923      3926      3928      3924      3929      3924      3930
      3926      3931      3926      3932      3933      3934      3935      3936
      3940      3941      3942      3943      3935      3933      3933      3940
      3933      3942      3935      3937      3935      3938      3935      3939
      3942      3944      3940      3945      3940      3946      3942      3947
      3942      3948      3949      3950      3951      3952      3956      3957
      3958      3959      3951      3949      3949      3956      3949      3958
      3951      3953      3951      3954      3951      3955      3958      3960
      3956      3961      3956      3962      3958      3963      3958      3964
      3965      3966      3967      3968      3972      3973      3974      3975
      3967      3965      3965      3972      3965      3974      3967      3969
      3967      3970      3967      3971      3974      3976      3972      3977
      3972      3978      3974      3979      3974      3980      3981      3982
      3983      3984      3988      3989      3990      3991      3983      3981
      3981      3988      3981      3990      3983      3985      3983      3986
      3983      3987      3990      3992      3988      3993      3988      3994
      3990      3995      3990      3996      3997      3998      3999      4000
      4004      4005      4006      4007      3999      3997      3997      4004
      3997      4006      3999      4001      3999      4002      3999      4003
      4006      4008      4004      4009      4004      4010      4006      4011
      4006      4012      4013      4014      4015      4016      4020      4021
      4022      4023      4015      4013      4013      4020      4013      4022
      4015      4017      4015      4018      4015      4019      4022      4024
      4020      4025      4020      4026      4022      4027      4022      4028
      4029      4030      4031      4032      4036      4037      4038      4039
      4031      4029      4029      4036      4029      4038      4031      4033
      4031      4034      4031      4035      4038      4040      4036      4041
      4036      4042      4038      4043      4038      4044      4045      4046
      4047      4048      4052      4053      4054      4055      4047      4045
      4045      4052      4045      4054      4047      4049      4047      4050
      4047      4051      4054      4056      4052      4057      4052      4058
      4054      4059      4054      4060      4061      4062      4063      4064
      4068      4069      4070      4071      4063      4061      4061      4068
      4061      4070      4063      4065      4063      4066      4063      4067
      4070      4072      4068      4073      4068      4074      4070      4075
      4070      4076      4077      4078      4079      4080      4084      4085
      4086      4087      4079      4077      4077      4084      4077      4086
      4079      4081      4079      4082      4079      4083      4086      4088
      4084      4089      4084      4090      4086      4091      4086      4092
      4093      4094      4095      4096      4100      4101      4102      4103
      4095      4093      4093      4100      4093      4102      4095      4097
      4095      4098      4095      4099      4102      4104      4100      4105
      4100      4106      4102      4107      4102      4108      4109      4110
      4111      4112      4116      4117      4118      4119      4111      4109
      4109      4116      4109      4118      4111      4113      4111      4114
      4111      4115      4118      4120      4116      4121      4116      4122
      4118      4123      4118      4124      4125      4126      4127      4128
      4132      4133      4134      4135      4127      4125      4125      4132
      4125      4134      4127      4129      4127      4130      4127      4131
      4134      4136      4132      4137      4132      4138      4134      4139
      4134      4140      4141      4142      4143      4144      4148      4149
      4150      4151      4143      4141      4141      4148      4141      4150
      4143      4145      4143      4146      4143      4147      4150      4152
      4148      4153      4148      4154      4150      4155      4150      4156
      4157      4158      4159      4160      4164      4165      4166      4167
      4159      4157      4157      4164      4157      4166      4159      4161
      4159      4162      4159      4163      4166      4168      4164      4169
      4164      4170      4166      4171      4166      4172      4173      4174
      4175      4176      4180      4181      4182      4183      4175      4173
      4173      4180      4173      4182      4175      4177      4175      4178
      4175      4179      4182      4184      4180      4185      4180      4186
      4182      4187      4182      4188      4189      4190      4191      4192
      4196      4197      4198      4199      4191      4189      4189      4196
      4189      4198      4191      4193      4191      4194      4191      4195
      4198      4200      4196      4201      4196      4202      4198      4203
      4198      4204      4205      4206      4207      4208      4212      4213
      4214      4215      4207      4205      4205      4212      4205      4214
      4207      4209      4207      4210      4207      4211      4214      4216
      4212      4217      4212      4218      4214      4219      4214      4220
      4221      4222      4223      4224      4228      4229      4230      4231
      4223      4221      4221      4228      4221      4230      4223      4225
      4223      4226      4223      4227      4230      4232      4228      4233
      4228      4234      4230      4235      4230      4236      4237      4238
      4239      4240      4244      4245      4246      4247      4239      4237
      4237      4244      4237      4246      4239      4241      4239      4242
      4239      4243      4246      4248      4244      4249      4244      4250
      4246      4251      4246      4252      4253      4254      4255      4256
      4260      4261      4262      4263      4255      4253      4253      4260
      4253      4262      4255      4257      4255      4258      4255      4259
      4262      4264      4260      4265      4260      4266      4262      4267
      4262      4268      4269      4270      4271      4272      4276      4277
      4278      4279      4271      4269      4269      4276      4269      4278
      4271      4273      4271      4274      4271      4275      4278      4280
      4276      4281      4276      4282      4278      4283      4278      4284
      4285      4286      4287      4288      4292      4293      4294      4295
      4287      4285      4285      4292      4285      4294      4287      4289
      4287      4290      4287      4291      4294      4296      4292      4297
      4292      4298      4294      4299      4294      4300      4301      4302
      4303      4304      4308      4309      4310      4311      4303      4301
      4301      4308      4301      4310      4303      4305      4303      4306
      4303      4307      4310      4312      4308      4313      4308      4314
      4310      4315      4310      4316      4317      4318      4319      4320
      4324      4325      4326      4327      4319      4317      4317      4324
      4317      4326      4319      4321      4319      4322      4319      4323
      4326      4328      4324      4329      4324      4330      4326      4331
      4326      4332      4333      4334      4335      4336      4340      4341
      4342      4343      4335      4333      4333      4340      4333      4342
      4335      4337      4335      4338      4335      4339      4342      4344
      4340      4345      4340      4346      4342      4347      4342      4348
      4349      4350      4351      4352      4356      4357      4358      4359
      4351      4349      4349      4356      4349      4358      4351      4353
      4351      4354      4351      4355      4358      4360      4356      4361
      4356      4362      4358      4363      4358      4364      4365      4366
      4367      4368      4372      4373      4374      4375      4367      4365
      4365      4372      4365      4374      4367      4369      4367      4370
      4367      4371      4374      4376      4372      4377      4372      4378
      4374      4379      4374      4380      4381      4382      4383      4384
      4388      4389      4390      4391      4383      4381      4381      4388
      4381      4390      4383      4385      4383      4386      4383      4387
      4390      4392      4388      4393      4388      4394      4390      4395
      4390      4396      4397      4398      4399      4400      4404      4405
      4406      4407      4399      4397      4397      4404      4397      4406
      4399      4401      4399      4402      4399      4403      4406      4408
      4404      4409      4404      4410      4406      4411      4406      4412
      4413      4414      4415      4416      4420      4421      4422      4423
      4415      4413      4413      4420      4413      4422      4415      4417
      4415      4418      4415      4419      4422      4424      4420      4425
      4420      4426      4422      4427      4422      4428      4429      4430
      4434      4435      4436      4437      4439      4440      4442      4443
      4445      4446      4429      4434      4429      4431      4429      4432
      4429      4433      4434      4436      4434      4442      4436      4439
      4436      4438      4439      4441      4439      4445      4445      4442
      4442      4444      4445      4447      4448      4445      4449      4450
      4454      4455      4456      4457      4459      4460      4462      4463
      4465      4466      4449      4454      4449      4451      4449      4452
      4449      4453      4454      4456      4454      4462      4456      4459
      4456      4458      4459      4461      4459      4465      4465      4462
      4462      4464      4465      4467      4468      4465      4469      4470
      4474      4475      4476      4477      4479      4480      4482      4483
      4485      4486      4469      4474      4469      4471      4469      4472
      4469      4473      4474      4476      4474      4482      4476      4479
      4476      4478      4479      4481      4479      4485      4485      4482
      4482      4484      4485      4487      4488      4485      4489      4490
      4494      4495      4496      4497      4499      4500      4502      4503
      4505      4506      4489      4494      4489      4491      4489      4492
      4489      4493      4494      4496      4494      4502      4496      4499
      4496      4498      4499      4501      4499      4505      4505      4502
      4502      4504      4505      4507      4508      4505      4509      4510
      4514      4515      4516      4517      4519      4520      4522      4523
      4525      4526      4509      4514      4509      4511      4509      4512
      4509      4513      4514      4516      4514      4522      4516      4519
      4516      4518      4519      4521      4519      4525      4525      4522
      4522      4524      4525      4527      4528      4525      4529      4530
      4534      4535      4536      4537      4539      4540      4542      4543
      4545      4546      4529      4534      4529      4531      4529      4532
      4529      4533      4534      4536      4534      4542      4536      4539
      4536      4538      4539      4541      4539      4545      4545      4542
      4542      4544      4545      4547      4548      4545      4549      4550
      4554      4555      4556      4557      4559      4560      4562      4563
      4565      4566      4549      4554      4549      4551      4549      4552
      4549      4553      4554      4556      4554      4562      4556      4559
      4556      4558      4559      4561      4559      4565      4565      4562
      4562      4564      4565      4567      4568      4565      4569      4570
      4574      4575      4576      4577      4579      4580      4582      4583
      4585      4586      4569      4574      4569      4571      4569      4572
      4569      4573      4574      4576      4574      4582      4576      4579
      4576      4578      4579      4581      4579      4585      4585      4582
      4582      4584      4585      4587      4588      4585      4589      4590
      4594      4595      4596      4597      4599      4600      4602      4603
      4605      4606      4589      4594      4589      4591      4589      4592
      4589      4593      4594      4596      4594      4602      4596      4599
      4596      4598      4599      4601      4599      4605      4605      4602
      4602      4604      4605      4607      4608      4605      4609      4610
      4614      4615      4616      4617      4619      4620      4622      4623
      4625      4626      4609      4614      4609      4611      4609      4612
      4609      4613      4614      4616      4614      4622      4616      4619
      4616      4618      4619      4621      4619      4625      4625      4622
      4622      4624      4625      4627      4628      4625      4629      4630
      4634      4635      4636      4637      4639      4640      4642      4643
      4645      4646      4629      4634      4629      4631      4629      4632
      4629      4633      4634      4636      4634      4642      4636      4639
      4636      4638      4639      4641      4639      4645      4645      4642
      4642      4644      4645      4647      4648      4645      4649      4650
      4654      4655      4656      4657      4659      4660      4662      4663
      4665      4666      4649      4654      4649      4651      4649      4652
      4649      4653      4654      4656      4654      4662      4656      4659
      4656      4658      4659      4661      4659      4665      4665      4662
      4662      4664      4665      4667      4668      4665      4669      4670
      4674      4675      4676      4677      4679      4680      4682      4683
      4685      4686      4669      4674      4669      4671      4669      4672
      4669      4673      4674      4676      4674      4682      4676      4679
      4676      4678      4679      4681      4679      4685      4685      4682
      4682      4684      4685      4687      4688      4685      4689      4690
      4694      4695      4696      4697      4699      4700      4702      4703
      4705      4706      4689      4694      4689      4691      4689      4692
      4689      4693      4694      4696      4694      4702      4696      4699
      4696      4698      4699      4701      4699      4705      4705      4702
      4702      4704      4705      4707      4708      4705      4709      4710
      4714      4715      4716      4717      4719      4720      4722      4723
      4725      4726      4709      4714      4709      4711      4709      4712
      4709      4713      4714      4716      4714      4722      4716      4719
      4716      4718      4719      4721      4719      4725      4725      4722
      4722      4724      4725      4727      4728      4725      4729      4730
      4734      4735      4736      4737      4739      4740      4742      4743
      4745      4746      4729      4734      4729      4731      4729      4732
      4729      4733      4734      4736      4734      4742      4736      4739
      4736      4738      4739      4741      4739      4745      4745      4742
      4742      4744      4745      4747      4748      4745      4749      4750
      4754      4755      4756      4757      4759      4760      4762      4763
      4765      4766      4749      4754      4749      4751      4749      4752
      4749      4753      4754      4756      4754      4762      4756      4759
      4756      4758      4759      4761      4759      4765      4765      4762
      4762      4764      4765      4767      4768      4765      4769      4770
      4774      4775      4776      4777      4779      4780      4782      4783
      4785      4786      4769      4774      4769      4771      4769      4772
      4769      4773      4774      4776      4774      4782      4776      4779
      4776      4778      4779      4781      4779      4785      4785      4782
      4782      4784      4785      4787      4788      4785      4789      4790
      4794      4795      4796      4797      4799      4800      4802      4803
      4805      4806      4789      4794      4789      4791      4789      4792
      4789      4793      4794      4796      4794      4802      4796      4799
      4796      4798      4799      4801      4799      4805      4805      4802
      4802      4804      4805      4807      4808      4805      4809      4810
      4814      4815      4816      4817      4819      4820      4822      4823
      4825      4826      4809      4814      4809      4811      4809      4812
      4809      4813      4814      4816      4814      4822      4816      4819
      4816      4818      4819      4821      4819      4825      4825      4822
      4822      4824      4825      4827      4828      4825      4829      4830
      4834      4835      4836      4837      4839      4840      4842      4843
      4845      4846      4829      4834      4829      4831      4829      4832
      4829      4833      4834      4836      4834      4842      4836      4839
      4836      4838      4839      4841      4839      4845      4845      4842
      4842      4844      4845      4847      4848      4845      4849      4850
      4854      4855      4856      4857      4859      4860      4862      4863
      4865      4866      4849      4854      4849      4851      4849      4852
      4849      4853      4854      4856      4854      4862      4856      4859
      4856      4858      4859      4861      4859      4865      4865      4862
      4862      4864      4865      4867      4868      4865      4869      4870
      4874      4875      4876      4877      4879      4880      4882      4883
      4885      4886      4869      4874      4869      4871      4869      4872
      4869      4873      4874      4876      4874      4882      4876      4879
      4876      4878      4879      4881      4879      4885      4885      4882
      4882      4884      4885      4887      4888      4885      4889      4890
      4894      4895      4896      4897      4899      4900      4902      4903
      4905      4906      4889      4894      4889      4891      4889      4892
      4889      4893      4894      4896      4894      4902      4896      4899
      4896      4898      4899      4901      4899      4905      4905      4902
      4902      4904      4905      4907      4908      4905      4909      4910
      4914      4915      4916      4917      4919      4920      4922      4923
      4925      4926      4909      4914      4909      4911      4909      4912
      4909      4913      4914      4916      4914      4922      4916      4919
      4916      4918      4919      4921      4919      4925      4925      4922
      4922      4924      4925      4927      4928      4925      4929      4930
      4934      4935      4936      4937      4939      4940      4942      4943
      4945      4946      4929      4934      4929      4931      4929      4932
      4929      4933      4934      4936      4934      4942      4936      4939
      4936      4938      4939      4941      4939      4945      4945      4942
      4942      4944      4945      4947      4948      4945      4949      4950
      4954      4955      4956      4957      4959      4960      4962      4963
      4965      4966      4949      4954      4949      4951      4949      4952
      4949      4953      4954      4956      4954      4962      4956      4959
      4956      4958      4959      4961      4959      4965      4965      4962
      4962      4964      4965      4967      4968      4965      4969      4970
      4974      4975      4976      4977      4979      4980      4982      4983
      4985      4986      4969      4974      4969      4971      4969      4972
      4969      4973      4974      4976      4974      4982      4976      4979
      4976      4978      4979      4981      4979      4985      4985      4982
      4982      4984      4985      4987      4988      4985      4989      4990
      4994      4995      4996      4997      4999      5000      5002      5003
      5005      5006      4989      4994      4989      4991      4989      4992
      4989      4993      4994      4996      4994      5002      4996      4999
      4996      4998      4999      5001      4999      5005      5005      5002
      5002      5004      5005      5007      5008      5005      5009      5010
      5014      5015      5016      5017      5019      5020      5022      5023
      5025      5026      5009      5014      5009      5011      5009      5012
      5009      5013      5014      5016      5014      5022      5016      5019
      5016      5018      5019      5021      5019      5025      5025      5022
      5022      5024      5025      5027      5028      5025      5029      5030
      5034      5035      5036      5037      5039      5040      5042      5043
      5045      5046      5029      5034      5029      5031      5029      5032
      5029      5033      5034      5036      5034      5042      5036      5039
      5036      5038      5039      5041      5039      5045      5045      5042
      5042      5044      5045      5047      5048      5045      5049      5050
      5054      5055      5056      5057      5059      5060      5062      5063
      5065      5066      5049      5054      5049      5051      5049      5052
      5049      5053      5054      5056      5054      5062      5056      5059
      5056      5058      5059      5061      5059      5065      5065      5062
      5062      5064      5065      5067      5068      5065      5069      5070
      5074      5075      5076      5077      5079      5080      5082      5083
      5085      5086      5069      5074      5069      5071      5069      5072
      5069      5073      5074      5076      5074      5082      5076      5079
      5076      5078      5079      5081      5079      5085      5085      5082
      5082      5084      5085      5087      5088      5085      5089      5090
      5094      5095      5096      5097      5099      5100      5102      5103
      5105      5106      5089      5094      5089      5091      5089      5092
      5089      5093      5094      5096      5094      5102      5096      5099
      5096      5098      5099      5101      5099      5105      5105      5102
      5102      5104      5105      5107      5108      5105      5109      5110
      5114      5115      5116      5117      5119      5120      5122      5123
      5125      5126      5109      5114      5109      5111      5109      5112
      5109      5113      5114      5116      5114      5122      5116      5119
      5116      5118      5119      5121      5119      5125      5125      5122
      5122      5124      5125      5127      5128      5125      5129      5130
      5134      5135      5136      5137      5139      5140      5142      5143
      5145      5146      5129      5134      5129      5131      5129      5132
      5129      5133      5134      5136      5134      5142      5136      5139
      5136      5138      5139      5141      5139      5145      5145      5142
      5142      5144      5145      5147      5148      5145      5149      5150
      5154      5155      5156      5157      5159      5160      5162      5163
      5165      5166      5149      5154      5149      5151      5149      5152
      5149      5153      5154      5156      5154      5162      5156      5159
      5156      5158      5159      5161      5159      5165      5165      5162
      5162      5164      5165      5167      5168      5165      5169      5170
      5174      5175      5176      5177      5179      5180      5182      5183
      5185      5186      5169      5174      5169      5171      5169      5172
      5169      5173      5174      5176      5174      5182      5176      5179
      5176      5178      5179      5181      5179      5185      5185      5182
      5182      5184      5185      5187      5188      5185      5189      5190
      5194      5195      5196      5197      5199      5200      5202      5203
      5205      5206      5189      5194      5189      5191      5189      5192
      5189      5193      5194      5196      5194      5202      5196      5199
      5196      5198      5199      5201      5199      5205      5205      5202
      5202      5204      5205      5207      5208      5205      5209      5210
      5214      5215      5216      5217      5219      5220      5222      5223
      5225      5226      5209      5214      5209      5211      5209      5212
      5209      5213      5214      5216      5214      5222      5216      5219
      5216      5218      5219      5221      5219      5225      5225      5222
      5222      5224      5225      5227      5228      5225      5229      5230
      5234      5235      5236      5237      5239      5240      5242      5243
      5245      5246      5229      5234      5229      5231      5229      5232
      5229      5233      5234      5236      5234      5242      5236      5239
      5236      5238      5239      5241      5239      5245      5245      5242
      5242      5244      5245      5247      5248      5245      5249      5250
      5254      5255      5256      5257      5259      5260      5262      5263
      5265      5266      5249      5254      5249      5251      5249      5252
      5249      5253      5254      5256      5254      5262      5256      5259
      5256      5258      5259      5261      5259      5265      5265      5262
      5262      5264      5265      5267      5268      5265      5269      5270
      5274      5275      5276      5277      5279      5280      5282      5283
      5285      5286      5269      5274      5269      5271      5269      5272
      5269      5273      5274      5276      5274      5282      5276      5279
      5276      5278      5279      5281      5279      5285      5285      5282
      5282      5284      5285      5287      5288      5285      5289      5290
      5294      5295      5296      5297      5299      5300      5302      5303
      5305      5306      5289      5294      5289      5291      5289      5292
      5289      5293      5294      5296      5294      5302      5296      5299
      5296      5298      5299      5301      5299      5305      5305      5302
      5302      5304      5305      5307      5308      5305      5309      5310
      5314      5315      5316      5317      5319      5320      5322      5323
      5325      5326      5309      5314      5309      5311      5309      5312
      5309      5313      5314      5316      5314      5322      5316      5319
      5316      5318      5319      5321      5319      5325      5325      5322
      5322      5324      5325      5327      5328      5325      5329      5330
      5334      5335      5336      5337      5339      5340      5342      5343
      5345      5346      5329      5334      5329      5331      5329      5332
      5329      5333      5334      5336      5334      5342      5336      5339
      5336      5338      5339      5341      5339      5345      5345      5342
      5342      5344      5345      5347      5348      5345      5349      5350
      5354      5355      5356      5357      5359      5360      5362      5363
      5365      5366      5349      5354      5349      5351      5349      5352
      5349      5353      5354      5356      5354      5362      5356      5359
      5356      5358      5359      5361      5359      5365      5365      5362
      5362      5364      5365      5367      5368      5365      5369      5370
      5374      5375      5376      5377      5379      5380      5382      5383
      5385      5386      5369      5374      5369      5371      5369      5372
      5369      5373      5374      5376      5374      5382      5376      5379
      5376      5378      5379      5381      5379      5385      5385      5382
      5382      5384      5385      5387      5388      5385      5389      5390
      5394      5395      5396      5397      5399      5400      5402      5403
      5405      5406      5389      5394      5389      5391      5389      5392
      5389      5393      5394      5396      5394      5402      5396      5399
      5396      5398      5399      5401      5399      5405      5405      5402
      5402      5404      5405      5407      5408      5405      5409      5410
      5414      5415      5416      5417      5419      5420      5422      5423
      5425      5426      5409      5414      5409      5411      5409      5412
      5409      5413      5414      5416      5414      5422      5416      5419
      5416      5418      5419      5421      5419      5425      5425      5422
      5422      5424      5425      5427      5428      5425      5429      5430
      5434      5435      5436      5437      5439      5440      5442      5443
      5445      5446      5429      5434      5429      5431      5429      5432
      5429      5433      5434      5436      5434      5442      5436      5439
      5436      5438      5439      5441      5439      5445      5445      5442
      5442      5444      5445      5447      5448      5445      5449      5450
      5454      5455      5456      5457      5459      5460      5462      5463
      5465      5466      5449      5454      5449      5451      5449      5452
      5449      5453      5454      5456      5454      5462      5456      5459
      5456      5458      5459      5461      5459      5465      5465      5462
      5462      5464      5465      5467      5468      5465      5469      5470
      5474      5475      5476      5477      5479      5480      5482      5483
      5485      5486      5469      5474      5469      5471      5469      5472
      5469      5473      5474      5476      5474      5482      5476      5479
      5476      5478      5479      5481      5479      5485      5485      5482
      5482      5484      5485      5487      5488      5485      5489      5490
      5494      5495      5496      5497      5499      5500      5502      5503
      5505      5506      5489      5494      5489      5491      5489      5492
      5489      5493      5494      5496      5494      5502      5496      5499
      5496      5498      5499      5501      5499      5505      5505      5502
      5502      5504      5505      5507      5508      5505      5509      5510
      5514      5515      5516      5517      5519      5520      5522      5523
      5525      5526      5509      5514      5509      5511      5509      5512
      5509      5513      5514      5516      5514      5522      5516      5519
      5516      5518      5519      5521      5519      5525      5525      5522
      5522      5524      5525      5527      5528      5525      5529      5530
      5534      5535      5536      5537      5539      5540      5542      5543
      5545      5546      5529      5534      5529      5531      5529      5532
      5529      5533      5534      5536      5534      5542      5536      5539
      5536      5538      5539      5541      5539      5545      5545      5542
      5542      5544      5545      5547      5548      5545      5549      5550
      5554      5555      5556      5557      5559      5560      5562      5563
      5565      5566      5549      5554      5549      5551      5549      5552
      5549      5553      5554      5556      5554      5562      5556      5559
      5556      5558      5559      5561      5559      5565      5565      5562
      5562      5564      5565      5567      5568      5565      5569      5570
      5574      5575      5576      5577      5579      5580      5582      5583
      5585      5586      5569      5574      5569      5571      5569      5572
      5569      5573      5574      5576      5574      5582      5576      5579
      5576      5578      5579      5581      5579      5585      5585      5582
      5582      5584      5585      5587      5588      5585      5589      5590
      5594      5595      5596      5597      5599      5600      5602      5603
      5605      5606      5589      5594      5589      5591      5589      5592
      5589      5593      5594      5596      5594      5602      5596      5599
      5596      5598      5599      5601      5599      5605      5605      5602
      5602      5604      5605      5607      5608      5605      5609      5610
      5614      5615      5616      5617      5619      5620      5622      5623
      5625      5626      5609      5614      5609      5611      5609      5612
      5609      5613      5614      5616      5614      5622      5616      5619
      5616      5618      5619      5621      5619      5625      5625      5622
      5622      5624      5625      5627      5628      5625      5629      5630
      5634      5635      5636      5637      5639      5640      5642      5643
      5645      5646      5629      5634      5629      5631      5629      5632
      5629      5633      5634      5636      5634      5642      5636      5639
      5636      5638      5639      5641      5639      5645      5645      5642
      5642      5644      5645      5647      5648      5645      5649      5650
      5654      5655      5656      5657      5659      5660      5662      5663
      5665      5666      5649      5654      5649      5651      5649      5652
      5649      5653      5654      5656      5654      5662      5656      5659
      5656      5658      5659      5661      5659      5665      5665      5662
      5662      5664      5665      5667      5668      5665      5669      5670
      5674      5675      5676      5677      5679      5680      5682      5683
      5685      5686      5669      5674      5669      5671      5669      5672
      5669      5673      5674      5676      5674      5682      5676      5679
      5676      5678      5679      5681      5679      5685      5685      5682
      5682      5684      5685      5687      5688      5685      5689      5690
      5694      5695      5696      5697      5699      5700      5702      5703
      5705      5706      5689      5694      5689      5691      5689      5692
      5689      5693      5694      5696      5694      5702      5696      5699
      5696      5698      5699      5701      5699      5705      5705      5702
      5702      5704      5705      5707      5708      5705      5709      5710
      5714      5715      5716      5717      5719      5720      5722      5723
      5725      5726      5709      5714      5709      5711      5709      5712
      5709      5713      5714      5716      5714      5722      5716      5719
      5716      5718      5719      5721      5719      5725      5725      5722
      5722      5724      5725      5727      5728      5725      5729      5730
      5734      5735      5736      5737      5739      5740      5742      5743
      5745      5746      5729      5734      5729      5731      5729      5732
      5729      5733      5734      5736      5734      5742      5736      5739
      5736      5738      5739      5741      5739      5745      5745      5742
      5742      5744      5745      5747      5748      5745      5749      5750
      5754      5755      5756      5757      5759      5760      5762      5763
      5765      5766      5749      5754      5749      5751      5749      5752
      5749      5753      5754      5756      5754      5762      5756      5759
      5756      5758      5759      5761      5759      5765      5765      5762
      5762      5764      5765      5767      5768      5765      5769      5770
      5774      5775      5776      5777      5779      5780      5782      5783
      5785      5786      5769      5774      5769      5771      5769      5772
      5769      5773      5774      5776      5774      5782      5776      5779
      5776      5778      5779      5781      5779      5785      5785      5782
      5782      5784      5785      5787      5788      5785      5789      5790
      5794      5795      5796      5797      5799      5800      5802      5803
      5805      5806      5789      5794      5789      5791      5789      5792
      5789      5793      5794      5796      5794      5802      5796      5799
      5796      5798      5799      5801      5799      5805      5805      5802
      5802      5804      5805      5807      5808      5805      5809      5810
      5814      5815      5816      5817      5819      5820      5822      5823
      5825      5826      5809      5814      5809      5811      5809      5812
      5809      5813      5814      5816      5814      5822      5816      5819
      5816      5818      5819      5821      5819      5825      5825      5822
      5822      5824      5825      5827      5828      5825      5829      5830
      5834      5835      5836      5837      5839      5840      5842      5843
      5845      5846      5829      5834      5829      5831      5829      5832
      5829      5833      5834      5836      5834      5842      5836      5839
      5836      5838      5839      5841      5839      5845      5845      5842
      5842      5844      5845      5847      5848      5845      5849      5850
      5854      5855      5856      5857      5859      5860      5862      5863
      5865      5866      5849      5854      5849      5851      5849      5852
      5849      5853      5854      5856      5854      5862      5856      5859
      5856      5858      5859      5861      5859      5865      5865      5862
      5862      5864      5865      5867      5868      5865      5869      5870
      5874      5875      5876      5877      5879      5880      5882      5883
      5885      5886      5869      5874      5869      5871      5869      5872
      5869      5873      5874      5876      5874      5882      5876      5879
      5876      5878      5879      5881      5879      5885      5885      5882
      5882      5884      5885      5887      5888      5885      5889      5890
      5894      5895      5896      5897      5899      5900      5902      5903
      5905      5906      5889      5894      5889      5891      5889      5892
      5889      5893      5894      5896      5894      5902      5896      5899
      5896      5898      5899      5901      5899      5905      5905      5902
      5902      5904      5905      5907      5908      5905      5909      5910
      5914      5915      5916      5917      5919      5920      5922      5923
      5925      5926      5909      5914      5909      5911      5909      5912
      5909      5913      5914      5916      5914      5922      5916      5919
      5916      5918      5919      5921      5919      5925      5925      5922
      5922      5924      5925      5927      5928      5925      5929      5930
      5934      5935      5936      5937      5939      5940      5942      5943
      5945      5946      5929      5934      5929      5931      5929      5932
      5929      5933      5934      5936      5934      5942      5936      5939
      5936      5938      5939      5941      5939      5945      5945      5942
      5942      5944      5945      5947      5948      5945      5949      5950
      5954      5955      5956      5957      5959      5960      5962      5963
      5965      5966      5949      5954      5949      5951      5949      5952
      5949      5953      5954      5956      5954      5962      5956      5959
      5956      5958      5959      5961      5959      5965      5965      5962
      5962      5964      5965      5967      5968      5965      5969      5970
      5974      5975      5976      5977      5979      5980      5982      5983
      5985      5986      5969      5974      5969      5971      5969      5972
      5969      5973      5974      5976      5974      5982      5976      5979
      5976      5978      5979      5981      5979      5985      5985      5982
      5982      5984      5985      5987      5988      5985      5989      5990
      5994      5995      5996      5997      5999      6000      6002      6003
      6005      6006      5989      5994      5989      5991      5989      5992
      5989      5993      5994      5996      5994      6002      5996      5999
      5996      5998      5999      6001      5999      6005      6005      6002
      6002      6004      6005      6007      6008      6005      6009      6010
      6014      6015      6016      6017      6019      6020      6022      6023
      6025      6026      6009      6014      6009      6011      6009      6012
      6009      6013      6014      6016      6014      6022      6016      6019
      6016      6018      6019      6021      6019      6025      6025      6022
      6022      6024      6025      6027      6028      6025      6029      6030
      6034      6035      6036      6037      6039      6040      6042      6043
      6045      6046      6029      6034      6029      6031      6029      6032
      6029      6033      6034      6036      6034      6042      6036      6039
      6036      6038      6039      6041      6039      6045      6045      6042
      6042      6044      6045      6047      6048      6045      6049      6050
      6054      6055      6056      6057      6059      6060      6062      6063
      6065      6066      6049      6054      6049      6051      6049      6052
      6049      6053      6054      6056      6054      6062      6056      6059
      6056      6058      6059      6061      6059      6065      6065      6062
      6062      6064      6065      6067      6068      6065      6069      6070
      6074      6075      6076      6077      6079      6080      6082      6083
      6085      6086      6069      6074      6069      6071      6069      6072
      6069      6073      6074      6076      6074      6082      6076      6079
      6076      6078      6079      6081      6079      6085      6085      6082
      6082      6084      6085      6087      6088      6085      6089      6090
      6094      6095      6096      6097      6099      6100      6102      6103
      6105      6106      6089      6094      6089      6091      6089      6092
      6089      6093      6094      6096      6094      6102      6096      6099
      6096      6098      6099      6101      6099      6105      6105      6102
      6102      6104      6105      6107      6108      6105      6109      6110
      6114      6115      6116      6117      6119      6120      6122      6123
      6125      6126      6109      6114      6109      6111      6109      6112
      6109      6113      6114      6116      6114      6122      6116      6119
      6116      6118      6119      6121      6119      6125      6125      6122
      6122      6124      6125      6127      6128      6125      6129      6130
      6134      6135      6136      6137      6139      6140      6142      6143
      6145      6146      6129      6134      6129      6131      6129      6132
      6129      6133      6134      6136      6134      6142      6136      6139
      6136      6138      6139      6141      6139      6145      6145      6142
      6142      6144      6145      6147      6148      6145      6149      6150
      6154      6155      6156      6157      6159      6160      6162      6163
      6165      6166      6149      6154      6149      6151      6149      6152
      6149      6153      6154      6156      6154      6162      6156      6159
      6156      6158      6159      6161      6159      6165      6165      6162
      6162      6164      6165      6167      6168      6165      6169      6170
      6174      6175      6176      6177      6179      6180      6182      6183
      6185      6186      6169      6174      6169      6171      6169      6172
      6169      6173      6174      6176      6174      6182      6176      6179
      6176      6178      6179      6181      6179      6185      6185      6182
      6182      6184      6185      6187      6188      6185      6189      6190
      6194      6195      6196      6197      6199      6200      6202      6203
      6205      6206      6189      6194      6189      6191      6189      6192
      6189      6193      6194      6196      6194      6202      6196      6199
      6196      6198      6199      6201      6199      6205      6205      6202
      6202      6204      6205      6207      6208      6205      6209      6210
      6214      6215      6216      6217      6219      6220      6222      6223
      6225      6226      6209      6214      6209      6211      6209      6212
      6209      6213      6214      6216      6214      6222      6216      6219
      6216      6218      6219      6221      6219      6225      6225      6222
      6222      6224      6225      6227      6228      6225      6229      6230
      6234      6235      6236      6237      6239      6240      6242      6243
      6245      6246      6229      6234      6229      6231      6229      6232
      6229      6233      6234      6236      6234      6242      6236      6239
      6236      6238      6239      6241      6239      6245      6245      6242
      6242      6244      6245      6247      6248      6245      6249      6250
      6254      6255      6256      6257      6259      6260      6262      6263
      6265      6266      6249      6254      6249      6251      6249      6252
      6249      6253      6254      6256      6254      6262      6256      6259
      6256      6258      6259      6261      6259      6265      6265      6262
      6262      6264      6265      6267      6268      6265      6269      6270
      6274      6275      6276      6277      6279      6280      6282      6283
      6285      6286      6269      6274      6269      6271      6269      6272
      6269      6273      6274      6276      6274      6282      6276      6279
      6276      6278      6279      6281      6279      6285      6285      6282
      6282      6284      6285      6287      6288      6285      6289      6290
      6294      6295      6296      6297      6299      6300      6302      6303
      6305      6306      6289      6294      6289      6291      6289      6292
      6289      6293      6294      6296      6294      6302      6296      6299
      6296      6298      6299      6301      6299      6305      6305      6302
      6302      6304      6305      6307      6308      6305      6309      6310
      6314      6315      6316      6317      6319      6320      6322      6323
      6325      6326      6309      6314      6309      6311      6309      6312
      6309      6313      6314      6316      6314      6322      6316      6319
      6316      6318      6319      6321      6319      6325      6325      6322
      6322      6324      6325      6327      6328      6325      6329      6330
      6334      6335      6336      6337      6339      6340      6342      6343
      6345      6346      6329      6334      6329      6331      6329      6332
      6329      6333      6334      6336      6334      6342      6336      6339
      6336      6338      6339      6341      6339      6345      6345      6342
      6342      6344      6345      6347      6348      6345      6349      6350
      6354      6355      6356      6357      6359      6360      6362      6363
      6365      6366      6349      6354      6349      6351      6349      6352
      6349      6353      6354      6356      6354      6362      6356      6359
      6356      6358      6359      6361      6359      6365      6365      6362
      6362      6364      6365      6367      6368      6365      6369      6370
      6374      6375      6376      6377      6379      6380      6382      6383
      6385      6386      6369      6374      6369      6371      6369      6372
      6369      6373      6374      6376      6374      6382      6376      6379
      6376      6378      6379      6381      6379      6385      6385      6382
      6382      6384      6385      6387      6388      6385      6389      6390
      6394      6395      6396      6397      6399      6400      6402      6403
      6405      6406      6389      6394      6389      6391      6389      6392
      6389      6393      6394      6396      6394      6402      6396      6399
      6396      6398      6399      6401      6399      6405      6405      6402
      6402      6404      6405      6407      6408      6405      6409      6410
      6414      6415      6416      6417      6419      6420      6422      6423
      6425      6426      6409      6414      6409      6411      6409      6412
      6409      6413      6414      6416      6414      6422      6416      6419
      6416      6418      6419      6421      6419      6425      6425      6422
      6422      6424      6425      6427      6428      6425      6429      6430
      6434      6435      6436      6437      6439      6440      6442      6443
      6445      6446      6429      6434      6429      6431      6429      6432
      6429      6433      6434      6436      6434      6442      6436      6439
      6436      6438      6439      6441      6439      6445      6445      6442
      6442      6444      6445      6447      6448      6445      6449      6450
      6454      6455      6456      6457      6459      6460      6462      6463
      6465      6466      6449      6454      6449      6451      6449      6452
      6449      6453      6454      6456      6454      6462      6456      6459
      6456      6458      6459      6461      6459      6465      6465      6462
      6462      6464      6465      6467      6468      6465      6469      6470
      6474      6475      6476      6477      6479      6480      6482      6483
      6485      6486      6469      6474      6469      6471      6469      6472
      6469      6473      6474      6476      6474      6482      6476      6479
      6476      6478      6479      6481      6479      6485      6485      6482
      6482      6484      6485      6487      6488      6485      6489      6490
      6494      6495      6496      6497      6499      6500      6502      6503
      6505      6506      6489      6494      6489      6491      6489      6492
      6489      6493      6494      6496      6494      6502      6496      6499
      6496      6498      6499      6501      6499      6505      6505      6502
      6502      6504      6505      6507      6508      6505      6509      6510
      6514      6515      6516      6517      6519      6520      6522      6523
      6525      6526      6509      6514      6509      6511      6509      6512
      6509      6513      6514      6516      6514      6522      6516      6519
      6516      6518      6519      6521      6519      6525      6525      6522
      6522      6524      6525      6527      6528      6525      6529      6530
      6534      6535      6536      6537      6539      6540      6542      6543
      6545      6546      6529      6534      6529      6531      6529      6532
      6529      6533      6534      6536      6534      6542      6536      6539
      6536      6538      6539      6541      6539      6545      6545      6542
      6542      6544      6545      6547      6548      6545      6549      6550
      6554      6555      6556      6557      6559      6560      6562      6563
      6565      6566      6549      6554      6549      6551      6549      6552
      6549      6553      6554      6556      6554      6562      6556      6559
      6556      6558      6559      6561      6559      6565      6565      6562
      6562      6564      6565      6567      6568      6565      6569      6570
      6574      6575      6576      6577      6579      6580      6582      6583
      6585      6586      6569      6574      6569      6571      6569      6572
      6569      6573      6574      6576      6574      6582      6576      6579
      6576      6578      6579      6581      6579      6585      6585      6582
      6582      6584      6585      6587      6588      6585      6589      6590
      6594      6595      6596      6597      6599      6600      6602      6603
      6605      6606      6589      6594      6589      6591      6589      6592
      6589      6593      6594      6596      6594      6602      6596      6599
      6596      6598      6599      6601      6599      6605      6605      6602
      6602      6604      6605      6607      6608      6605      6609      6610
      6614      6615      6616      6617      6619      6620      6622      6623
      6625      6626      6609      6614      6609      6611      6609      6612
      6609      6613      6614      6616      6614      6622      6616      6619
      6616      6618      6619      6621      6619      6625      6625      6622
      6622      6624      6625      6627      6628      6625      6629      6630
      6634      6635      6636      6637      6639      6640      6642      6643
      6645      6646      6629      6634      6629      6631      6629      6632
      6629      6633      6634      6636      6634      6642      6636      6639
      6636      6638      6639      6641      6639      6645      6645      6642
      6642      6644      6645      6647      6648      6645      6649      6650
      6654      6655      6656      6657      6659      6660      6662      6663
      6665      6666      6649      6654      6649      6651      6649      6652
      6649      6653      6654      6656      6654      6662      6656      6659
      6656      6658      6659      6661      6659      6665      6665      6662
      6662      6664      6665      6667      6668      6665      6669      6670
      6674      6675      6676      6677      6679      6680      6682      6683
      6685      6686      6669      6674      6669      6671      6669      6672
      6669      6673      6674      6676      6674      6682      6676      6679
      6676      6678      6679      6681      6679      6685      6685      6682
      6682      6684      6685      6687      6688      6685      6689      6690
      6694      6695      6696      6697      6699      6700      6702      6703
      6705      6706      6689      6694      6689      6691      6689      6692
      6689      6693      6694      6696      6694      6702      6696      6699
      6696      6698      6699      6701      6699      6705      6705      6702
      6702      6704      6705      6707      6708      6705      6709      6710
      6714      6715      6716      6717      6719      6720      6722      6723
      6725      6726      6709      6714      6709      6711      6709      6712
      6709      6713      6714      6716      6714      6722      6716      6719
      6716      6718      6719      6721      6719      6725      6725      6722
      6722      6724      6725      6727      6728      6725      6729      6730
      6734      6735      6736      6737      6739      6740      6742      6743
      6745      6746      6729      6734      6729      6731      6729      6732
      6729      6733      6734      6736      6734      6742      6736      6739
      6736      6738      6739      6741      6739      6745      6745      6742
      6742      6744      6745      6747      6748      6745      6749      6750
      6754      6755      6756      6757      6759      6760      6762      6763
      6765      6766      6749      6754      6749      6751      6749      6752
      6749      6753      6754      6756      6754      6762      6756      6759
      6756      6758      6759      6761      6759      6765      6765      6762
      6762      6764      6765      6767      6768      6765      6769      6770
      6774      6775      6776      6777      6779      6780      6782      6783
      6785      6786      6769      6774      6769      6771      6769      6772
      6769      6773      6774      6776      6774      6782      6776      6779
      6776      6778      6779      6781      6779      6785      6785      6782
      6782      6784      6785      6787      6788      6785      6789      6790
      6794      6795      6796      6797      6799      6800      6802      6803
      6805      6806      6789      6794      6789      6791      6789      6792
      6789      6793      6794      6796      6794      6802      6796      6799
      6796      6798      6799      6801      6799      6805      6805      6802
      6802      6804      6805      6807      6808      6805      6809      6810
      6814      6815      6816      6817      6819      6820      6822      6823
      6825      6826      6809      6814      6809      6811      6809      6812
      6809      6813      6814      6816      6814      6822      6816      6819
      6816      6818      6819      6821      6819      6825      6825      6822
      6822      6824      6825      6827      6828      6825      6829      6830
      6834      6835      6836      6837      6839      6840      6842      6843
      6845      6846      6829      6834      6829      6831      6829      6832
      6829      6833      6834      6836      6834      6842      6836      6839
      6836      6838      6839      6841      6839      6845      6845      6842
      6842      6844      6845      6847      6848      6845      6849      6850
      6854      6855      6856      6857      6859      6860      6862      6863
      6865      6866      6849      6854      6849      6851      6849      6852
      6849      6853      6854      6856      6854      6862      6856      6859
      6856      6858      6859      6861      6859      6865      6865      6862
      6862      6864      6865      6867      6868      6865      6869      6870
      6874      6875      6876      6877      6879      6880      6882      6883
      6885      6886      6869      6874      6869      6871      6869      6872
      6869      6873      6874      6876      6874      6882      6876      6879
      6876      6878      6879      6881      6879      6885      6885      6882
      6882      6884      6885      6887      6888      6885      6889      6890
      6894      6895      6896      6897      6899      6900      6902      6903
      6905      6906      6889      6894      6889      6891      6889      6892
      6889      6893      6894      6896      6894      6902      6896      6899
      6896      6898      6899      6901      6899      6905      6905      6902
      6902      6904      6905      6907      6908      6905      6909      6910
      6914      6915      6916      6917      6919      6920      6922      6923
      6925      6926      6909      6914      6909      6911      6909      6912
      6909      6913      6914      6916      6914      6922      6916      6919
      6916      6918      6919      6921      6919      6925      6925      6922
      6922      6924      6925      6927      6928      6925      6929      6930
      6934      6935      6936      6937      6939      6940      6942      6943
      6945      6946      6929      6934      6929      6931      6929      6932
      6929      6933      6934      6936      6934      6942      6936      6939
      6936      6938      6939      6941      6939      6945      6945      6942
      6942      6944      6945      6947      6948      6945      6949      6950
      6954      6955      6956      6957      6959      6960      6962      6963
      6965      6966      6949      6954      6949      6951      6949      6952
      6949      6953      6954      6956      6954      6962      6956      6959
      6956      6958      6959      6961      6959      6965      6965      6962
      6962      6964      6965      6967      6968      6965      6969      6970
      6974      6975      6976      6977      6979      6980      6982      6983
      6985      6986      6969      6974      6969      6971      6969      6972
      6969      6973      6974      6976      6974      6982      6976      6979
      6976      6978      6979      6981      6979      6985      6985      6982
      6982      6984      6985      6987      6988      6985      6989      6990
      6994      6995      6996      6997      6999      7000      7002      7003
      7005      7006      6989      6994      6989      6991      6989      6992
      6989      6993      6994      6996      6994      7002      6996      6999
      6996      6998      6999      7001      6999      7005      7005      7002
      7002      7004      7005      7007      7008      7005      7009      7010
      7014      7015      7016      7017      7019      7020      7022      7023
      7025      7026      7009      7014      7009      7011      7009      7012
      7009      7013      7014      7016      7014      7022      7016      7019
      7016      7018      7019      7021      7019      7025      7025      7022
      7022      7024      7025      7027      7028      7025      7029      7030
      7034      7035      7036      7037      7039      7040      7042      7043
      7045      7046      7029      7034      7029      7031      7029      7032
      7029      7033      7034      7036      7034      7042      7036      7039
      7036      7038      7039      7041      7039      7045      7045      7042
      7042      7044      7045      7047      7048      7045      7049      7050
      7054      7055      7056      7057      7059      7060      7062      7063
      7065      7066      7049      7054      7049      7051      7049      7052
      7049      7053      7054      7056      7054      7062      7056      7059
      7056      7058      7059      7061      7059      7065      7065      7062
      7062      7064      7065      7067      7068      7065      7069      7070
      7074      7075      7076      7077      7079      7080      7082      7083
      7085      7086      7069      7074      7069      7071      7069      7072
      7069      7073      7074      7076      7074      7082      7076      7079
      7076      7078      7079      7081      7079      7085      7085      7082
      7082      7084      7085      7087      7088      7085      7089      7090
      7094      7095      7096      7097      7099      7100      7102      7103
      7105      7106      7089      7094      7089      7091      7089      7092
      7089      7093      7094      7096      7094      7102      7096      7099
      7096      7098      7099      7101      7099      7105      7105      7102
      7102      7104      7105      7107      7108      7105      7109      7110
      7114      7115      7116      7117      7119      7120      7122      7123
      7125      7126      7109      7114      7109      7111      7109      7112
      7109      7113      7114      7116      7114      7122      7116      7119
      7116      7118      7119      7121      7119      7125      7125      7122
      7122      7124      7125      7127      7128      7125      7129      7130
      7134      7135      7136      7137      7139      7140      7142      7143
      7145      7146      7129      7134      7129      7131      7129      7132
      7129      7133      7134      7136      7134      7142      7136      7139
      7136      7138      7139      7141      7139      7145      7145      7142
      7142      7144      7145      7147      7148      7145      7149      7150
      7154      7155      7156      7157      7159      7160      7162      7163
      7165      7166      7149      7154      7149      7151      7149      7152
      7149      7153      7154      7156      7154      7162      7156      7159
      7156      7158      7159      7161      7159      7165      7165      7162
      7162      7164      7165      7167      7168      7165      7169      7170
      7174      7175      7176      7177      7179      7180      7182      7183
      7185      7186      7169      7174      7169      7171      7169      7172
      7169      7173      7174      7176      7174      7182      7176      7179
      7176      7178      7179      7181      7179      7185      7185      7182
      7182      7184      7185      7187      7188      7185      7189      7190
      7194      7195      7196      7197      7199      7200      7202      7203
      7205      7206      7189      7194      7189      7191      7189      7192
      7189      7193      7194      7196      7194      7202      7196      7199
      7196      7198      7199      7201      7199      7205      7205      7202
      7202      7204      7205      7207      7208      7205      7209      7210
      7214      7215      7216      7217      7219      7220      7222      7223
      7225      7226      7209      7214      7209      7211      7209      7212
      7209      7213      7214      7216      7214      7222      7216      7219
      7216      7218      7219      7221      7219      7225      7225      7222
      7222      7224      7225      7227      7228      7225      7229      7230
      7234      7235      7236      7237      7239      7240      7242      7243
      7245      7246      7229      7234      7229      7231      7229      7232
      7229      7233      7234      7236      7234      7242      7236      7239
      7236      7238      7239      7241      7239      7245      7245      7242
      7242      7244      7245      7247      7248      7245      7249      7250
      7254      7255      7256      7257      7259      7260      7262      7263
      7265      7266      7249      7254      7249      7251      7249      7252
      7249      7253      7254      7256      7254      7262      7256      7259
      7256      7258      7259      7261      7259      7265      7265      7262
      7262      7264      7265      7267      7268      7265      7269      7270
      7274      7275      7276      7277      7279      7280      7282      7283
      7285      7286      7269      7274      7269      7271      7269      7272
      7269      7273      7274      7276      7274      7282      7276      7279
      7276      7278      7279      7281      7279      7285      7285      7282
      7282      7284      7285      7287      7288      7285      7289      7290
      7294      7295      7296      7297      7299      7300      7302      7303
      7305      7306      7289      7294      7289      7291      7289      7292
      7289      7293      7294      7296      7294      7302      7296      7299
      7296      7298      7299      7301      7299      7305      7305      7302
      7302      7304      7305      7307      7308      7305      7309      7310
      7314      7315      7316      7317      7319      7320      7322      7323
      7325      7326      7309      7314      7309      7311      7309      7312
      7309      7313      7314      7316      7314      7322      7316      7319
      7316      7318      7319      7321      7319      7325      7325      7322
      7322      7324      7325      7327      7328      7325      7329      7330
      7334      7335      7336      7337      7339      7340      7342      7343
      7345      7346      7329      7334      7329      7331      7329      7332
      7329      7333      7334      7336      7334      7342      7336      7339
      7336      7338      7339      7341      7339      7345      7345      7342
      7342      7344      7345      7347      7348      7345      7349      7350
      7354      7355      7356      7357      7359      7360      7362      7363
      7365      7366      7349      7354      7349      7351      7349      7352
      7349      7353      7354      7356      7354      7362      7356      7359
      7356      7358      7359      7361      7359      7365      7365      7362
      7362      7364      7365      7367      7368      7365      7369      7370
      7374      7375      7376      7377      7379      7380      7382      7383
      7385      7386      7369      7374      7369      7371      7369      7372
      7369      7373      7374      7376      7374      7382      7376      7379
      7376      7378      7379      7381      7379      7385      7385      7382
      7382      7384      7385      7387      7388      7385      7389      7390
      7394      7395      7396      7397      7399      7400      7402      7403
      7405      7406      7389      7394      7389      7391      7389      7392
      7389      7393      7394      7396      7394      7402      7396      7399
      7396      7398      7399      7401      7399      7405      7405      7402
      7402      7404      7405      7407      7408      7405      7409      7410
      7414      7415      7416      7417      7419      7420      7422      7423
      7425      7426      7409      7414      7409      7411      7409      7412
      7409      7413      7414      7416      7414      7422      7416      7419
      7416      7418      7419      7421      7419      7425      7425      7422
      7422      7424      7425      7427      7428      7425      7429      7430
      7434      7435      7436      7437      7439      7440      7442      7443
      7445      7446      7429      7434      7429      7431      7429      7432
      7429      7433      7434      7436      7434      7442      7436      7439
      7436      7438      7439      7441      7439      7445      7445      7442
      7442      7444      7445      7447      7448      7445      7449      7450
      7454      7455      7456      7457      7459      7460      7462      7463
      7465      7466      7449      7454      7449      7451      7449      7452
      7449      7453      7454      7456      7454      7462      7456      7459
      7456      7458      7459      7461      7459      7465      7465      7462
      7462      7464      7465      7467      7468      7465      7469      7470
      7474      7475      7476      7477      7479      7480      7482      7483
      7485      7486      7469      7474      7469      7471      7469      7472
      7469      7473      7474      7476      7474      7482      7476      7479
      7476      7478      7479      7481      7479      7485      7485      7482
      7482      7484      7485      7487      7488      7485      7489      7490
      7494      7495      7496      7497      7499      7500      7502      7503
      7505      7506      7489      7494      7489      7491      7489      7492
      7489      7493      7494      7496      7494      7502      7496      7499
      7496      7498      7499      7501      7499      7505      7505      7502
      7502      7504      7505      7507      7508      7505      7509      7510
      7514      7515      7516      7517      7519      7520      7522      7523
      7525      7526      7509      7514      7509      7511      7509      7512
      7509      7513      7514      7516      7514      7522      7516      7519
      7516      7518      7519      7521      7519      7525      7525      7522
      7522      7524      7525      7527      7528      7525      7529      7530
      7534      7535      7536      7537      7539      7540      7542      7543
      7545      7546      7529      7534      7529      7531      7529      7532
      7529      7533      7534      7536      7534      7542      7536      7539
      7536      7538      7539      7541      7539      7545      7545      7542
      7542      7544      7545      7547      7548      7545      7549      7550
      7554      7555      7556      7557      7559      7560      7562      7563
      7565      7566      7549      7554      7549      7551      7549      7552
      7549      7553      7554      7556      7554      7562      7556      7559
      7556      7558      7559      7561      7559      7565      7565      7562
      7562      7564      7565      7567      7568      7565      7569      7570
      7574      7575      7576      7577      7579      7580      7582      7583
      7585      7586      7569      7574      7569      7571      7569      7572
      7569      7573      7574      7576      7574      7582      7576      7579
      7576      7578      7579      7581      7579      7585      7585      7582
      7582      7584      7585      7587      7588      7585      7589      7590
      7594      7595      7596      7597      7599      7600      7602      7603
      7605      7606      7589      7594      7589      7591      7589      7592
      7589      7593      7594      7596      7594      7602      7596      7599
      7596      7598      7599      7601      7599      7605      7605      7602
      7602      7604      7605      7607      7608      7605      7609      7610
      7614      7615      7616      7617      7619      7620      7622      7623
      7625      7626      7609      7614      7609      7611      7609      7612
      7609      7613      7614      7616      7614      7622      7616      7619
      7616      7618      7619      7621      7619      7625      7625      7622
      7622      7624      7625      7627      7628      7625      7629      7630
      7634      7635      7636      7637      7639      7640      7642      7643
      7645      7646      7629      7634      7629      7631      7629      7632
      7629      7633      7634      7636      7634      7642      7636      7639
      7636      7638      7639      7641      7639      7645      7645      7642
      7642      7644      7645      7647      7648      7645      7649      7650
      7654      7655      7656      7657      7659      7660      7662      7663
      7665      7666      7649      7654      7649      7651      7649      7652
      7649      7653      7654      7656      7654      7662      7656      7659
      7656      7658      7659      7661      7659      7665      7665      7662
      7662      7664      7665      7667      7668      7665      7669      7670
      7674      7675      7676      7677      7679      7680      7682      7683
      7685      7686      7669      7674      7669      7671      7669      7672
      7669      7673      7674      7676      7674      7682      7676      7679
      7676      7678      7679      7681      7679      7685      7685      7682
      7682      7684      7685      7687      7688      7685      7689      7690
      7694      7695      7696      7697      7699      7700      7702      7703
      7705      7706      7689      7694      7689      7691      7689      7692
      7689      7693      7694      7696      7694      7702      7696      7699
      7696      7698      7699      7701      7699      7705      7705      7702
      7702      7704      7705      7707      7708      7705      7709      7710
      7714      7715      7716      7717      7719      7720      7722      7723
      7725      7726      7709      7714      7709      7711      7709      7712
      7709      7713      7714      7716      7714      7722      7716      7719
      7716      7718      7719      7721      7719      7725      7725      7722
      7722      7724      7725      7727      7728      7725      7729      7730
      7734      7735      7736      7737      7739      7740      7742      7743
      7745      7746      7729      7734      7729      7731      7729      7732
      7729      7733      7734      7736      7734      7742      7736      7739
      7736      7738      7739      7741      7739      7745      7745      7742
      7742      7744      7745      7747      7748      7745      7749      7750
      7754      7755      7756      7757      7759      7760      7762      7763
      7765      7766      7749      7754      7749      7751      7749      7752
      7749      7753      7754      7756      7754      7762      7756      7759
      7756      7758      7759      7761      7759      7765      7765      7762
      7762      7764      7765      7767      7768      7765      7769      7770
      7774      7775      7776      7777      7779      7780      7782      7783
      7785      7786      7769      7774      7769      7771      7769      7772
      7769      7773      7774      7776      7774      7782      7776      7779
      7776      7778      7779      7781      7779      7785      7785      7782
      7782      7784      7785      7787      7788      7785      7789      7790
      7794      7795      7796      7797      7799      7800      7802      7803
      7805      7806      7789      7794      7789      7791      7789      7792
      7789      7793      7794      7796      7794      7802      7796      7799
      7796      7798      7799      7801      7799      7805      7805      7802
      7802      7804      7805      7807      7808      7805      7809      7810
      7814      7815      7816      7817      7819      7820      7822      7823
      7825      7826      7809      7814      7809      7811      7809      7812
      7809      7813      7814      7816      7814      7822      7816      7819
      7816      7818      7819      7821      7819      7825      7825      7822
      7822      7824      7825      7827      7828      7825      7829      7830
      7834      7835      7836      7837      7839      7840      7842      7843
      7845      7846      7829      7834      7829      7831      7829      7832
      7829      7833      7834      7836      7834      7842      7836      7839
      7836      7838      7839      7841      7839      7845      7845      7842
      7842      7844      7845      7847      7848      7845      7849      7850
      7854      7855      7856      7857      7859      7860      7862      7863
      7865      7866      7849      7854      7849      7851      7849      7852
      7849      7853      7854      7856      7854      7862      7856      7859
      7856      7858      7859      7861      7859      7865      7865      7862
      7862      7864      7865      7867      7868      7865      7869      7870
      7874      7875      7876      7877      7879      7880      7882      7883
      7885      7886      7869      7874      7869      7871      7869      7872
      7869      7873      7874      7876      7874      7882      7876      7879
      7876      7878      7879      7881      7879      7885      7885      7882
      7882      7884      7885      7887      7888      7885      7889      7890
      7894      7895      7896      7897      7899      7900      7902      7903
      7905      7906      7889      7894      7889      7891      7889      7892
      7889      7893      7894      7896      7894      7902      7896      7899
      7896      7898      7899      7901      7899      7905      7905      7902
      7902      7904      7905      7907      7908      7905      7909      7910
      7914      7915      7916      7917      7919      7920      7922      7923
      7925      7926      7909      7914      7909      7911      7909      7912
      7909      7913      7914      7916      7914      7922      7916      7919
      7916      7918      7919      7921      7919      7925      7925      7922
      7922      7924      7925      7927      7928      7925      7929      7930
      7934      7935      7936      7937      7939      7940      7942      7943
      7945      7946      7929      7934      7929      7931      7929      7932
      7929      7933      7934      7936      7934      7942      7936      7939
      7936      7938      7939      7941      7939      7945      7945      7942
      7942      7944      7945      7947      7948      7945      7949      7950
      7954      7955      7956      7957      7959      7960      7962      7963
      7965      7966      7949      7954      7949      7951      7949      7952
      7949      7953      7954      7956      7954      7962      7956      7959
      7956      7958      7959      7961      7959      7965      7965      7962
      7962      7964      7965      7967      7968      7965      7969      7970
      7974      7975      7976      7977      7979      7980      7982      7983
      7985      7986      7969      7974      7969      7971      7969      7972
      7969      7973      7974      7976      7974      7982      7976      7979
      7976      7978      7979      7981      7979      7985      7985      7982
      7982      7984      7985      7987      7988      7985      7989      7990
      7994      7995      7996      7997      7999      8000      8002      8003
      8005      8006      7989      7994      7989      7991      7989      7992
      7989      7993      7994      7996      7994      8002      7996      7999
      7996      7998      7999      8001      7999      8005      8005      8002
      8002      8004      8005      8007      8008      8005      8009      8010
      8014      8015      8016      8017      8019      8020      8022      8023
      8025      8026      8009      8014      8009      8011      8009      8012
      8009      8013      8014      8016      8014      8022      8016      8019
      8016      8018      8019      8021      8019      8025      8025      8022
      8022      8024      8025      8027      8028      8025      8029      8030
      8034      8035      8036      8037      8039      8040      8042      8043
      8045      8046      8029      8034      8029      8031      8029      8032
      8029      8033      8034      8036      8034      8042      8036      8039
      8036      8038      8039      8041      8039      8045      8045      8042
      8042      8044      8045      8047      8048      8045      8049      8050
      8054      8055      8056      8057      8059      8060      8062      8063
      8065      8066      8049      8054      8049      8051      8049      8052
      8049      8053      8054      8056      8054      8062      8056      8059
      8056      8058      8059      8061      8059      8065      8065      8062
      8062      8064      8065      8067      8068      8065      8069      8070
      8074      8075      8076      8077      8079      8080      8082      8083
      8085      8086      8069      8074      8069      8071      8069      8072
      8069      8073      8074      8076      8074      8082      8076      8079
      8076      8078      8079      8081      8079      8085      8085      8082
      8082      8084      8085      8087      8088      8085      8089      8090
      8094      8095      8096      8097      8099      8100      8102      8103
      8105      8106      8089      8094      8089      8091      8089      8092
      8089      8093      8094      8096      8094      8102      8096      8099
      8096      8098      8099      8101      8099      8105      8105      8102
      8102      8104      8105      8107      8108      8105      8109      8110
      8114      8115      8116      8117      8119      8120      8122      8123
      8125      8126      8109      8114      8109      8111      8109      8112
      8109      8113      8114      8116      8114      8122      8116      8119
      8116      8118      8119      8121      8119      8125      8125      8122
      8122      8124      8125      8127      8128      8125      8129      8130
      8134      8135      8136      8137      8139      8140      8142      8143
      8145      8146      8129      8134      8129      8131      8129      8132
      8129      8133      8134      8136      8134      8142      8136      8139
      8136      8138      8139      8141      8139      8145      8145      8142
      8142      8144      8145      8147      8148      8145      8149      8150
      8154      8155      8156      8157      8159      8160      8162      8163
      8165      8166      8149      8154      8149      8151      8149      8152
      8149      8153      8154      8156      8154      8162      8156      8159
      8156      8158      8159      8161      8159      8165      8165      8162
      8162      8164      8165      8167      8168      8165      8169      8170
      8174      8175      8176      8177      8179      8180      8182      8183
      8185      8186      8169      8174      8169      8171      8169      8172
      8169      8173      8174      8176      8174      8182      8176      8179
      8176      8178      8179      8181      8179      8185      8185      8182
      8182      8184      8185      8187      8188      8185      8189      8190
      8194      8195      8196      8197      8199      8200      8202      8203
      8205      8206      8189      8194      8189      8191      8189      8192
      8189      8193      8194      8196      8194      8202      8196      8199
      8196      8198      8199      8201      8199      8205      8205      8202
      8202      8204      8205      8207      8208      8205      8209      8210
      8214      8215      8216      8217      8219      8220      8222      8223
      8225      8226      8209      8214      8209      8211      8209      8212
      8209      8213      8214      8216      8214      8222      8216      8219
      8216      8218      8219      8221      8219      8225      8225      8222
      8222      8224      8225      8227      8228      8225      8229      8230
      8234      8235      8236      8237      8239      8240      8242      8243
      8245      8246      8229      8234      8229      8231      8229      8232
      8229      8233      8234      8236      8234      8242      8236      8239
      8236      8238      8239      8241      8239      8245      8245      8242
      8242      8244      8245      8247      8248      8245      8249      8250
      8254      8255      8256      8257      8259      8260      8262      8263
      8265      8266      8249      8254      8249      8251      8249      8252
      8249      8253      8254      8256      8254      8262      8256      8259
      8256      8258      8259      8261      8259      8265      8265      8262
      8262      8264      8265      8267      8268      8265      8269      8270
      8274      8275      8276      8277      8279      8280      8282      8283
      8285      8286      8269      8274      8269      8271      8269      8272
      8269      8273      8274      8276      8274      8282      8276      8279
      8276      8278      8279      8281      8279      8285      8285      8282
      8282      8284      8285      8287      8288      8285      8289      8290
      8294      8295      8296      8297      8299      8300      8302      8303
      8305      8306      8289      8294      8289      8291      8289      8292
      8289      8293      8294      8296      8294      8302      8296      8299
      8296      8298      8299      8301      8299      8305      8305      8302
      8302      8304      8305      8307      8308      8305      8309      8310
      8314      8315      8316      8317      8319      8320      8322      8323
      8325      8326      8309      8314      8309      8311      8309      8312
      8309      8313      8314      8316      8314      8322      8316      8319
      8316      8318      8319      8321      8319      8325      8325      8322
      8322      8324      8325      8327      8328      8325      8329      8330
      8334      8335      8336      8337      8339      8340      8342      8343
      8345      8346      8329      8334      8329      8331      8329      8332
      8329      8333      8334      8336      8334      8342      8336      8339
      8336      8338      8339      8341      8339      8345      8345      8342
      8342      8344      8345      8347      8348      8345      8349      8350
      8354      8355      8356      8357      8359      8360      8362      8363
      8365      8366      8349      8354      8349      8351      8349      8352
      8349      8353      8354      8356      8354      8362      8356      8359
      8356      8358      8359      8361      8359      8365      8365      8362
      8362      8364      8365      8367      8368      8365      8369      8370
      8374      8375      8376      8377      8379      8380      8382      8383
      8385      8386      8369      8374      8369      8371      8369      8372
      8369      8373      8374      8376      8374      8382      8376      8379
      8376      8378      8379      8381      8379      8385      8385      8382
      8382      8384      8385      8387      8388      8385      8389      8390
      8394      8395      8396      8397      8399      8400      8402      8403
      8405      8406      8389      8394      8389      8391      8389      8392
      8389      8393      8394      8396      8394      8402      8396      8399
      8396      8398      8399      8401      8399      8405      8405      8402
      8402      8404      8405      8407      8408      8405      8409      8410
      8414      8415      8416      8417      8419      8420      8422      8423
      8425      8426      8409      8414      8409      8411      8409      8412
      8409      8413      8414      8416      8414      8422      8416      8419
      8416      8418      8419      8421      8419      8425      8425      8422
      8422      8424      8425      8427      8428      8425      8429      8430
      8434      8435      8436      8437      8439      8440      8442      8443
      8445      8446      8429      8434      8429      8431      8429      8432
      8429      8433      8434      8436      8434      8442      8436      8439
      8436      8438      8439      8441      8439      8445      8445      8442
      8442      8444      8445      8447      8448      8445      8449      8450
      8454      8455      8456      8457      8459      8460      8462      8463
      8465      8466      8449      8454      8449      8451      8449      8452
      8449      8453      8454      8456      8454      8462      8456      8459
      8456      8458      8459      8461      8459      8465      8465      8462
      8462      8464      8465      8467      8468      8465      8469      8470
      8474      8475      8476      8477      8479      8480      8482      8483
      8485      8486      8469      8474      8469      8471      8469      8472
      8469      8473      8474      8476      8474      8482      8476      8479
      8476      8478      8479      8481      8479      8485      8485      8482
      8482      8484      8485      8487      8488      8485      8489      8490
      8494      8495      8496      8497      8499      8500      8502      8503
      8505      8506      8489      8494      8489      8491      8489      8492
      8489      8493      8494      8496      8494      8502      8496      8499
      8496      8498      8499      8501      8499      8505      8505      8502
      8502      8504      8505      8507      8508      8505      8509      8510
      8514      8515      8516      8517      8519      8520      8522      8523
      8525      8526      8509      8514      8509      8511      8509      8512
      8509      8513      8514      8516      8514      8522      8516      8519
      8516      8518      8519      8521      8519      8525      8525      8522
      8522      8524      8525      8527      8528      8525      8529      8530
      8534      8535      8536      8537      8539      8540      8542      8543
      8545      8546      8529      8534      8529      8531      8529      8532
      8529      8533      8534      8536      8534      8542      8536      8539
      8536      8538      8539      8541      8539      8545      8545      8542
      8542      8544      8545      8547      8548      8545      8549      8550
      8554      8555      8556      8557      8559      8560      8562      8563
      8565      8566      8549      8554      8549      8551      8549      8552
      8549      8553      8554      8556      8554      8562      8556      8559
      8556      8558      8559      8561      8559      8565      8565      8562
      8562      8564      8565      8567      8568      8565      8569      8570
      8574      8575      8576      8577      8579      8580      8582      8583
      8585      8586      8569      8574      8569      8571      8569      8572
      8569      8573      8574      8576      8574      8582      8576      8579
      8576      8578      8579      8581      8579      8585      8585      8582
      8582      8584      8585      8587      8588      8585      8589      8590
      8594      8595      8596      8597      8599      8600      8602      8603
      8605      8606      8589      8594      8589      8591      8589      8592
      8589      8593      8594      8596      8594      8602      8596      8599
      8596      8598      8599      8601      8599      8605      8605      8602
      8602      8604      8605      8607      8608      8605      8609      8610
      8614      8615      8616      8617      8619      8620      8622      8623
      8625      8626      8609      8614      8609      8611      8609      8612
      8609      8613      8614      8616      8614      8622      8616      8619
      8616      8618      8619      8621      8619      8625      8625      8622
      8622      8624      8625      8627      8628      8625      8629      8630
      8634      8635      8636      8637      8639      8640      8642      8643
      8645      8646      8629      8634      8629      8631      8629      8632
      8629      8633      8634      8636      8634      8642      8636      8639
      8636      8638      8639      8641      8639      8645      8645      8642
      8642      8644      8645      8647      8648      8645      8649      8650
      8654      8655      8656      8657      8659      8660      8662      8663
      8665      8666      8649      8654      8649      8651      8649      8652
      8649      8653      8654      8656      8654      8662      8656      8659
      8656      8658      8659      8661      8659      8665      8665      8662
      8662      8664      8665      8667      8668      8665      8669      8670
      8674      8675      8676      8677      8679      8680      8682      8683
      8685      8686      8669      8674      8669      8671      8669      8672
      8669      8673      8674      8676      8674      8682      8676      8679
      8676      8678      8679      8681      8679      8685      8685      8682
      8682      8684      8685      8687      8688      8685      8689      8690
      8694      8695      8696      8697      8699      8700      8702      8703
      8705      8706      8689      8694      8689      8691      8689      8692
      8689      8693      8694      8696      8694      8702      8696      8699
      8696      8698      8699      8701      8699      8705      8705      8702
      8702      8704      8705      8707      8708      8705      8709      8710
      8714      8715      8716      8717      8719      8720      8722      8723
      8725      8726      8709      8714      8709      8711      8709      8712
      8709      8713      8714      8716      8714      8722      8716      8719
      8716      8718      8719      8721      8719      8725      8725      8722
      8722      8724      8725      8727      8728      8725      8729      8730
      8734      8735      8736      8737      8739      8740      8742      8743
      8745      8746      8729      8734      8729      8731      8729      8732
      8729      8733      8734      8736      8734      8742      8736      8739
      8736      8738      8739      8741      8739      8745      8745      8742
      8742      8744      8745      8747      8748      8745      8749      8750
      8754      8755      8756      8757      8759      8760      8762      8763
      8765      8766      8749      8754      8749      8751      8749      8752
      8749      8753      8754      8756      8754      8762      8756      8759
      8756      8758      8759      8761      8759      8765      8765      8762
      8762      8764      8765      8767      8768      8765      8769      8770
      8771      8772      8776      8777      8778      8779      8771      8769
      8769      8776      8769      8778      8771      8773      8771      8774
      8771      8775      8778      8780      8776      8781      8776      8782
      8778      8783      8778      8784      8785      8786      8787      8788
      8792      8793      8794      8795      8787      8785      8785      8792
      8785      8794      8787      8789      8787      8790      8787      8791
      8794      8796      8792      8797      8792      8798      8794      8799
      8794      8800      8801      8802      8803      8804      8808      8809
      8810      8811      8803      8801      8801      8808      8801      8810
      8803      8805      8803      8806      8803      8807      8810      8812
      8808      8813      8808      8814      8810      8815      8810      8816
      8817      8818      8819      8820      8824      8825      8826      8827
      8819      8817      8817      8824      8817      8826      8819      8821
      8819      8822      8819      8823      8826      8828      8824      8829
      8824      8830      8826      8831      8826      8832      8833      8834
      8835      8836      8840      8841      8842      8843      8835      8833
      8833      8840      8833      8842      8835      8837      8835      8838
      8835      8839      8842      8844      8840      8845      8840      8846
      8842      8847      8842      8848      8849      8850      8851      8852
      8856      8857      8858      8859      8851      8849      8849      8856
      8849      8858      8851      8853      8851      8854      8851      8855
      8858      8860      8856      8861      8856      8862      8858      8863
      8858      8864      8865      8866      8867      8868      8872      8873
      8874      8875      8867      8865      8865      8872      8865      8874
      8867      8869      8867      8870      8867      8871      8874      8876
      8872      8877      8872      8878      8874      8879      8874      8880
      8881      8882      8883      8884      8888      8889      8890      8891
      8883      8881      8881      8888      8881      8890      8883      8885
      8883      8886      8883      8887      8890      8892      8888      8893
      8888      8894      8890      8895      8890      8896      8897      8898
      8899      8900      8904      8905      8906      8907      8899      8897
      8897      8904      8897      8906      8899      8901      8899      8902
      8899      8903      8906      8908      8904      8909      8904      8910
      8906      8911      8906      8912      8913      8914      8915      8916
      8920      8921      8922      8923      8915      8913      8913      8920
      8913      8922      8915      8917      8915      8918      8915      8919
      8922      8924      8920      8925      8920      8926      8922      8927
      8922      8928      8929      8930      8931      8932      8936      8937
      8938      8939      8931      8929      8929      8936      8929      8938
      8931      8933      8931      8934      8931      8935      8938      8940
      8936      8941      8936      8942      8938      8943      8938      8944
      8945      8946      8947      8948      8952      8953      8954      8955
      8947      8945      8945      8952      8945      8954      8947      8949
      8947      8950      8947      8951      8954      8956      8952      8957
      8952      8958      8954      8959      8954      8960      8961      8962
      8963      8964      8968      8969      8970      8971      8963      8961
      8961      8968      8961      8970      8963      8965      8963      8966
      8963      8967      8970      8972      8968      8973      8968      8974
      8970      8975      8970      8976      8977      8978      8979      8980
      8984      8985      8986      8987      8979      8977      8977      8984
      8977      8986      8979      8981      8979      8982      8979      8983
      8986      8988      8984      8989      8984      8990      8986      8991
      8986      8992      8993      8994      8995      8996      9000      9001
      9002      9003      8995      8993      8993      9000      8993      9002
      8995      8997      8995      8998      8995      8999      9002      9004
      9000      9005      9000      9006      9002      9007      9002      9008
      9009      9010      9011      9012      9016      9017      9018      9019
      9011      9009      9009      9016      9009      9018      9011      9013
      9011      9014      9011      9015      9018      9020      9016      9021
      9016      9022      9018      9023      9018      9024      9025      9026
      9027      9028      9032      9033      9034      9035      9027      9025
      9025      9032      9025      9034      9027      9029      9027      9030
      9027      9031      9034      9036      9032      9037      9032      9038
      9034      9039      9034      9040      9041      9042      9043      9044
      9048      9049      9050      9051      9043      9041      9041      9048
      9041      9050      9043      9045      9043      9046      9043      9047
      9050      9052      9048      9053      9048      9054      9050      9055
      9050      9056      9057      9058      9059      9060      9064      9065
      9066      9067      9059      9057      9057      9064      9057      9066
      9059      9061      9059      9062      9059      9063      9066      9068
      9064      9069      9064      9070      9066      9071      9066      9072
      9073      9074      9075      9076      9080      9081      9082      9083
      9075      9073      9073      9080      9073      9082      9075      9077
      9075      9078      9075      9079      9082      9084      9080      9085
      9080      9086      9082      9087      9082      9088      9089      9090
      9091      9092      9096      9097      9098      9099      9091      9089
      9089      9096      9089      9098      9091      9093      9091      9094
      9091      9095      9098      9100      9096      9101      9096      9102
      9098      9103      9098      9104      9105      9106      9107      9108
      9112      9113      9114      9115      9107      9105      9105      9112
      9105      9114      9107      9109      9107      9110      9107      9111
      9114      9116      9112      9117      9112      9118      9114      9119
      9114      9120      9121      9122      9123      9124      9128      9129
      9130      9131      9123      9121      9121      9128      9121      9130
      9123      9125      9123      9126      9123      9127      9130      9132
      9128      9133      9128      9134      9130      9135      9130      9136
      9137      9138      9139      9140      9144      9145      9146      9147
      9139      9137      9137      9144      9137      9146      9139      9141
      9139      9142      9139      9143      9146      9148      9144      9149
      9144      9150      9146      9151      9146      9152      9153      9154
      9155      9156      9160      9161      9162      9163      9155      9153
      9153      9160      9153      9162      9155      9157      9155      9158
      9155      9159      9162      9164      9160      9165      9160      9166
      9162      9167      9162      9168      9169      9170      9171      9172
      9176      9177      9178      9179      9171      9169      9169      9176
      9169      9178      9171      9173      9171      9174      9171      9175
      9178      9180      9176      9181      9176      9182      9178      9183
      9178      9184      9185      9186      9187      9188      9192      9193
      9194      9195      9187      9185      9185      9192      9185      9194
      9187      9189      9187      9190      9187      9191      9194      9196
      9192      9197      9192      9198      9194      9199      9194      9200
      9201      9202      9203      9204      9208      9209      9210      9211
      9203      9201      9201      9208      9201      9210      9203      9205
      9203      9206      9203      9207      9210      9212      9208      9213
      9208      9214      9210      9215      9210      9216      9217      9218
      9219      9220      9224      9225      9226      9227      9219      9217
      9217      9224      9217      9226      9219      9221      9219      9222
      9219      9223      9226      9228      9224      9229      9224      9230
      9226      9231      9226      9232      9233      9234      9235      9236
      9240      9241      9242      9243      9235      9233      9233      9240
      9233      9242      9235      9237      9235      9238      9235      9239
      9242      9244      9240      9245      9240      9246      9242      9247
      9242      9248      9249      9250      9251      9252      9256      9257
      9258      9259      9251      9249      9249      9256      9249      9258
      9251      9253      9251      9254      9251      9255      9258      9260
      9256      9261      9256      9262      9258      9263      9258      9264
      9265      9266      9267      9268      9272      9273      9274      9275
      9267      9265      9265      9272      9265      9274      9267      9269
      9267      9270      9267      9271      9274      9276      9272      9277
      9272      9278      9274      9279      9274      9280      9281      9282
      9283      9284      9288      9289      9290      9291      9283      9281
      9281      9288      9281      9290      9283      9285      9283      9286
      9283      9287      9290      9292      9288      9293      9288      9294
      9290      9295      9290      9296      9297      9298      9299      9300
      9304      9305      9306      9307      9299      9297      9297      9304
      9297      9306      9299      9301      9299      9302      9299      9303
      9306      9308      9304      9309      9304      9310      9306      9311
      9306      9312      9313      9314      9315      9316      9320      9321
      9322      9323      9315      9313      9313      9320      9313      9322
      9315      9317      9315      9318      9315      9319      9322      9324
      9320      9325      9320      9326      9322      9327      9322      9328
      9329      9330      9331      9332      9336      9337      9338      9339
      9331      9329      9329      9336      9329      9338      9331      9333
      9331      9334      9331      9335      9338      9340      9336      9341
      9336      9342      9338      9343      9338      9344      9345      9346
      9347      9348      9352      9353      9354      9355      9347      9345
      9345      9352      9345      9354      9347      9349      9347      9350
      9347      9351      9354      9356      9352      9357      9352      9358
      9354      9359      9354      9360      9361      9362      9363      9364
      9368      9369      9370      9371      9363      9361      9361      9368
      9361      9370      9363      9365      9363      9366      9363      9367
      9370      9372      9368      9373      9368      9374      9370      9375
      9370      9376      9377      9378      9379      9380      9384      9385
      9386      9387      9379      9377      9377      9384      9377      9386
      9379      9381      9379      9382      9379      9383      9386      9388
      9384      9389      9384      9390      9386      9391      9386      9392
      9393      9394      9395      9396      9400      9401      9402      9403
      9395      9393      9393      9400      9393      9402      9395      9397
      9395      9398      9395      9399      9402      9404      9400      9405
      9400      9406      9402      9407      9402      9408      9409      9410
      9411      9412      9416      9417      9418      9419      9411      9409
      9409      9416      9409      9418      9411      9413      9411      9414
      9411      9415      9418      9420      9416      9421      9416      9422
      9418      9423      9418      9424      9425      9426      9427      9428
      9432      9433      9434      9435      9427      9425      9425      9432
      9425      9434      9427      9429      9427      9430      9427      9431
      9434      9436      9432      9437      9432      9438      9434      9439
      9434      9440      9441      9442      9443      9444      9448      9449
      9450      9451      9443      9441      9441      9448      9441      9450
      9443      9445      9443      9446      9443      9447      9450      9452
      9448      9453      9448      9454      9450      9455      9450      9456
      9457      9458      9459      9460      9464      9465      9466      9467
      9459      9457      9457      9464      9457      9466      9459      9461
      9459      9462      9459      9463      9466      9468      9464      9469
      9464      9470      9466      9471      9466      9472      9473      9474
      9475      9476      9480      9481      9482      9483      9475      9473
      9473      9480      9473      9482      9475      9477      9475      9478
      9475      9479      9482      9484      9480      9485      9480      9486
      9482      9487      9482      9488      9489      9490      9491      9492
      9496      9497      9498      9499      9491      9489      9489      9496
      9489      9498      9491      9493      9491      9494      9491      9495
      9498      9500      9496      9501      9496      9502      9498      9503
      9498      9504      9505      9506      9507      9508      9512      9513
      9514      9515      9507      9505      9505      9512      9505      9514
      9507      9509      9507      9510      9507      9511      9514      9516
      9512      9517      9512      9518      9514      9519      9514      9520
      9521      9522      9523      9524      9528      9529      9530      9531
      9523      9521      9521      9528      9521      9530      9523      9525
      9523      9526      9523      9527      9530      9532      9528      9533
      9528      9534      9530      9535      9530      9536      9537      9538
      9539      9540      9544      9545      9546      9547      9539      9537
      9537      9544      9537      9546      9539      9541      9539      9542
      9539      9543      9546      9548      9544      9549      9544      9550
      9546      9551      9546      9552      9553      9554      9555      9556
      9560      9561      9562      9563      9555      9553      9553      9560
      9553      9562      9555      9557      9555      9558      9555      9559
      9562      9564      9560      9565      9560      9566      9562      9567
      9562      9568      9569      9570      9571      9572      9576      9577
      9578      9579      9571      9569      9569      9576      9569      9578
      9571      9573      9571      9574      9571      9575      9578      9580
      9576      9581      9576      9582      9578      9583      9578      9584
      9585      9586      9587      9588      9592      9593      9594      9595
      9587      9585      9585      9592      9585      9594      9587      9589
      9587      9590      9587      9591      9594      9596      9592      9597
      9592      9598      9594      9599      9594      9600      9601      9602
      9603      9604      9608      9609      9610      9611      9603      9601
      9601      9608      9601      9610      9603      9605      9603      9606
      9603      9607      9610      9612      9608      9613      9608      9614
      9610      9615      9610      9616      9617      9618      9619      9620
      9624      9625      9626      9627      9619      9617      9617      9624
      9617      9626      9619      9621      9619      9622      9619      9623
      9626      9628      9624      9629      9624      9630      9626      9631
      9626      9632      9633      9634      9635      9636      9640      9641
      9642      9643      9635      9633      9633      9640      9633      9642
      9635      9637      9635      9638      9635      9639      9642      9644
      9640      9645      9640      9646      9642      9647      9642      9648
      9649      9650      9651      9652      9656      9657      9658      9659
      9651      9649      9649      9656      9649      9658      9651      9653
      9651      9654      9651      9655      9658      9660      9656      9661
      9656      9662      9658      9663      9658      9664      9665      9666
      9667      9668      9672      9673      9674      9675      9667      9665
      9665      9672      9665      9674      9667      9669      9667      9670
      9667      9671      9674      9676      9672      9677      9672      9678
      9674      9679      9674      9680      9681      9682      9683      9684
      9688      9689      9690      9691      9683      9681      9681      9688
      9681      9690      9683      9685      9683      9686      9683      9687
      9690      9692      9688      9693      9688      9694      9690      9695
      9690      9696      9697      9698      9699      9700      9704      9705
      9706      9707      9699      9697      9697      9704      9697      9706
      9699      9701      9699      9702      9699      9703      9706      9708
      9704      9709      9704      9710      9706      9711      9706      9712
      9713      9714      9715      9716      9720      9721      9722      9723
      9715      9713      9713      9720      9713      9722      9715      9717
      9715      9718      9715      9719      9722      9724      9720      9725
      9720      9726      9722      9727      9722      9728      9729      9730
      9731      9732      9736      9737      9738      9739      9731      9729
      9729      9736      9729      9738      9731      9733      9731      9734
      9731      9735      9738      9740      9736      9741      9736      9742
      9738      9743      9738      9744      9745      9746      9747      9748
      9752      9753      9754      9755      9747      9745      9745      9752
      9745      9754      9747      9749      9747      9750      9747      9751
      9754      9756      9752      9757      9752      9758      9754      9759
      9754      9760      9761      9762      9763      9764      9768      9769
      9770      9771      9763      9761      9761      9768      9761      9770
      9763      9765      9763      9766      9763      9767      9770      9772
      9768      9773      9768      9774      9770      9775      9770      9776
      9777      9778      9779      9780      9784      9785      9786      9787
      9779      9777      9777      9784      9777      9786      9779      9781
      9779      9782      9779      9783      9786      9788      9784      9789
      9784      9790      9786      9791      9786      9792      9793      9794
      9795      9796      9800      9801      9802      9803      9795      9793
      9793      9800      9793      9802      9795      9797      9795      9798
      9795      9799      9802      9804      9800      9805      9800      9806
      9802      9807      9802      9808      9809      9810      9811      9812
      9816      9817      9818      9819      9811      9809      9809      9816
      9809      9818      9811      9813      9811      9814      9811      9815
      9818      9820      9816      9821      9816      9822      9818      9823
      9818      9824      9825      9826      9827      9828      9832      9833
      9834      9835      9827      9825      9825      9832      9825      9834
      9827      9829      9827      9830      9827      9831      9834      9836
      9832      9837      9832      9838      9834      9839      9834      9840
      9841      9842      9843      9844      9848      9849      9850      9851
      9843      9841      9841      9848      9841      9850      9843      9845
      9843      9846      9843      9847      9850      9852      9848      9853
      9848      9854      9850      9855      9850      9856      9857      9858
      9859      9860      9864      9865      9866      9867      9859      9857
      9857      9864      9857      9866      9859      9861      9859      9862
      9859      9863      9866      9868      9864      9869      9864      9870
      9866      9871      9866      9872      9873      9874      9875      9876
      9880      9881      9882      9883      9875      9873      9873      9880
      9873      9882      9875      9877      9875      9878      9875      9879
      9882      9884      9880      9885      9880      9886      9882      9887
      9882      9888      9889      9890      9891      9892      9896      9897
      9898      9899      9891      9889      9889      9896      9889      9898
      9891      9893      9891      9894      9891      9895      9898      9900
      9896      9901      9896      9902      9898      9903      9898      9904
      9905      9906      9907      9908      9912      9913      9914      9915
      9907      9905      9905      9912      9905      9914      9907      9909
      9907      9910      9907      9911      9914      9916      9912      9917
      9912      9918      9914      9919      9914      9920      9921      9922
      9923      9924      9928      9929      9930      9931      9923      9921
      9921      9928      9921      9930      9923      9925      9923      9926
      9923      9927      9930      9932      9928      9933      9928      9934
      9930      9935      9930      9936      9937      9938      9939      9940
      9944      9945      9946      9947      9939      9937      9937      9944
      9937      9946      9939      9941      9939      9942      9939      9943
      9946      9948      9944      9949      9944      9950      9946      9951
      9946      9952      9953      9954      9955      9956      9960      9961
      9962      9963      9955      9953      9953      9960      9953      9962
      9955      9957      9955      9958      9955      9959      9962      9964
      9960      9965      9960      9966      9962      9967      9962      9968
      9969      9970      9971      9972      9976      9977      9978      9979
      9971      9969      9969      9976      9969      9978      9971      9973
      9971      9974      9971      9975      9978      9980      9976      9981
      9976      9982      9978      9983      9978      9984      9985      9986
      9987      9988      9992      9993      9994      9995      9987      9985
      9985      9992      9985      9994      9987      9989      9987      9990
      9987      9991      9994      9996      9992      9997      9992      9998
      9994      9999      9994     10000     10001     10002     10003     10004
     10008     10009     10010     10011     10003     10001     10001     10008
     10001     10010     10003     10005     10003     10006     10003     10007
     10010     10012     10008     10013     10008     10014     10010     10015
     10010     10016     10017     10018     10019     10020     10024     10025
     10026     10027     10019     10017     10017     10024     10017     10026
     10019     10021     10019     10022     10019     10023     10026     10028
     10024     10029     10024     10030     10026     10031     10026     10032
     10033     10034     10035     10036     10040     10041     10042     10043
     10035     10033     10033     10040     10033     10042     10035     10037
     10035     10038     10035     10039     10042     10044     10040     10045
     10040     10046     10042     10047     10042     10048     10049     10050
     10051     10052     10056     10057     10058     10059     10051     10049
     10049     10056     10049     10058     10051     10053     10051     10054
     10051     10055     10058     10060     10056     10061     10056     10062
     10058     10063     10058     10064     10065     10066     10067     10068
     10072     10073     10074     10075     10067     10065     10065     10072
     10065     10074     10067     10069     10067     10070     10067     10071
     10074     10076     10072     10077     10072     10078     10074     10079
     10074     10080     10081     10082     10083     10084     10088     10089
     10090     10091     10083     10081     10081     10088     10081     10090
     10083     10085     10083     10086     10083     10087     10090     10092
     10088     10093     10088     10094     10090     10095     10090     10096
     10097     10098     10099     10100     10104     10105     10106     10107
     10099     10097     10097     10104     10097     10106     10099     10101
     10099     10102     10099     10103     10106     10108     10104     10109
     10104     10110     10106     10111     10106     10112     10113     10114
     10115     10116     10120     10121     10122     10123     10115     10113
     10113     10120     10113     10122     10115     10117     10115     10118
     10115     10119     10122     10124     10120     10125     10120     10126
     10122     10127     10122     10128     10129     10130     10131     10132
     10136     10137     10138     10139     10131     10129     10129     10136
     10129     10138     10131     10133     10131     10134     10131     10135
     10138     10140     10136     10141     10136     10142     10138     10143
     10138     10144     10145     10146     10147     10148     10152     10153
     10154     10155     10147     10145     10145     10152     10145     10154
     10147     10149     10147     10150     10147     10151     10154     10156
     10152     10157     10152     10158     10154     10159     10154     10160
     10161     10162     10163     10164     10168     10169     10170     10171
     10163     10161     10161     10168     10161     10170     10163     10165
     10163     10166     10163     10167     10170     10172     10168     10173
     10168     10174     10170     10175     10170     10176     10177     10178
     10179     10180     10184     10185     10186     10187     10179     10177
     10177     10184     10177     10186     10179     10181     10179     10182
     10179     10183     10186     10188     10184     10189     10184     10190
     10186     10191     10186     10192     10193     10194     10195     10196
     10200     10201     10202     10203     10195     10193     10193     10200
     10193     10202     10195     10197     10195     10198     10195     10199
     10202     10204     10200     10205     10200     10206     10202     10207
     10202     10208     10209     10210     10211     10212     10216     10217
     10218     10219     10211     10209     10209     10216     10209     10218
     10211     10213     10211     10214     10211     10215     10218     10220
     10216     10221     10216     10222     10218     10223     10218     10224
     10225     10226     10227     10228     10232     10233     10234     10235
     10227     10225     10225     10232     10225     10234     10227     10229
     10227     10230     10227     10231     10234     10236     10232     10237
     10232     10238     10234     10239     10234     10240     10241     10242
     10243     10244     10248     10249     10250     10251     10243     10241
     10241     10248     10241     10250     10243     10245     10243     10246
     10243     10247     10250     10252     10248     10253     10248     10254
     10250     10255     10250     10256     10257     10258     10259     10260
     10264     10265     10266     10267     10259     10257     10257     10264
     10257     10266     10259     10261     10259     10262     10259     10263
     10266     10268     10264     10269     10264     10270     10266     10271
     10266     10272     10273     10274     10275     10276     10280     10281
     10282     10283     10275     10273     10273     10280     10273     10282
     10275     10277     10275     10278     10275     10279     10282     10284
     10280     10285     10280     10286     10282     10287     10282     10288
     10289     10290     10291     10292     10296     10297     10298     10299
     10291     10289     10289     10296     10289     10298     10291     10293
     10291     10294     10291     10295     10298     10300     10296     10301
     10296     10302     10298     10303     10298     10304     10305     10306
     10307     10308     10312     10313     10314     10315     10307     10305
     10305     10312     10305     10314     10307     10309     10307     10310
     10307     10311     10314     10316     10312     10317     10312     10318
     10314     10319     10314     10320     10321     10322     10323     10324
     10328     10329     10330     10331     10323     10321     10321     10328
     10321     10330     10323     10325     10323     10326     10323     10327
     10330     10332     10328     10333     10328     10334     10330     10335
     10330     10336     10337     10338     10339     10340     10344     10345
     10346     10347     10339     10337     10337     10344     10337     10346
     10339     10341     10339     10342     10339     10343     10346     10348
     10344     10349     10344     10350     10346     10351     10346     10352
     10353     10354     10355     10356     10360     10361     10362     10363
     10355     10353     10353     10360     10353     10362     10355     10357
     10355     10358     10355     10359     10362     10364     10360     10365
     10360     10366     10362     10367     10362     10368     10369     10370
     10371     10372     10376     10377     10378     10379     10371     10369
     10369     10376     10369     10378     10371     10373     10371     10374
     10371     10375     10378     10380     10376     10381     10376     10382
     10378     10383     10378     10384     10385     10386     10387     10388
     10392     10393     10394     10395     10387     10385     10385     10392
     10385     10394     10387     10389     10387     10390     10387     10391
     10394     10396     10392     10397     10392     10398     10394     10399
     10394     10400     10401     10402     10403     10404     10408     10409
     10410     10411     10403     10401     10401     10408     10401     10410
     10403     10405     10403     10406     10403     10407     10410     10412
     10408     10413     10408     10414     10410     10415     10410     10416
     10417     10418     10419     10420     10424     10425     10426     10427
     10419     10417     10417     10424     10417     10426     10419     10421
     10419     10422     10419     10423     10426     10428     10424     10429
     10424     10430     10426     10431     10426     10432     10433     10434
     10435     10436     10440     10441     10442     10443     10435     10433
     10433     10440     10433     10442     10435     10437     10435     10438
     10435     10439     10442     10444     10440     10445     10440     10446
     10442     10447     10442     10448     10449     10450     10451     10452
     10456     10457     10458     10459     10451     10449     10449     10456
     10449     10458     10451     10453     10451     10454     10451     10455
     10458     10460     10456     10461     10456     10462     10458     10463
     10458     10464     10465     10466     10467     10468     10472     10473
     10474     10475     10467     10465     10465     10472     10465     10474
     10467     10469     10467     10470     10467     10471     10474     10476
     10472     10477     10472     10478     10474     10479     10474     10480
     10481     10482     10483     10484     10488     10489     10490     10491
     10483     10481     10481     10488     10481     10490     10483     10485
     10483     10486     10483     10487     10490     10492     10488     10493
     10488     10494     10490     10495     10490     10496     10497     10498
     10499     10500     10504     10505     10506     10507     10499     10497
     10497     10504     10497     10506     10499     10501     10499     10502
     10499     10503     10506     10508     10504     10509     10504     10510
     10506     10511     10506     10512     10513     10514     10515     10516
     10520     10521     10522     10523     10515     10513     10513     10520
     10513     10522     10515     10517     10515     10518     10515     10519
     10522     10524     10520     10525     10520     10526     10522     10527
     10522     10528     10529     10530     10531     10532     10536     10537
     10538     10539     10531     10529     10529     10536     10529     10538
     10531     10533     10531     10534     10531     10535     10538     10540
     10536     10541     10536     10542     10538     10543     10538     10544
     10545     10546     10547     10548     10552     10553     10554     10555
     10547     10545     10545     10552     10545     10554     10547     10549
     10547     10550     10547     10551     10554     10556     10552     10557
     10552     10558     10554     10559     10554     10560     10561     10562
     10563     10564     10568     10569     10570     10571     10563     10561
     10561     10568     10561     10570     10563     10565     10563     10566
     10563     10567     10570     10572     10568     10573     10568     10574
     10570     10575     10570     10576     10577     10578     10579     10580
     10584     10585     10586     10587     10579     10577     10577     10584
     10577     10586     10579     10581     10579     10582     10579     10583
     10586     10588     10584     10589     10584     10590     10586     10591
     10586     10592     10593     10594     10595     10596     10600     10601
     10602     10603     10595     10593     10593     10600     10593     10602
     10595     10597     10595     10598     10595     10599     10602     10604
     10600     10605     10600     10606     10602     10607     10602     10608
     10609     10610     10611     10612     10616     10617     10618     10619
     10611     10609     10609     10616     10609     10618     10611     10613
     10611     10614     10611     10615     10618     10620     10616     10621
     10616     10622     10618     10623     10618     10624     10625     10626
     10627     10628     10632     10633     10634     10635     10627     10625
     10625     10632     10625     10634     10627     10629     10627     10630
     10627     10631     10634     10636     10632     10637     10632     10638
     10634     10639     10634     10640     10641     10642     10643     10644
     10648     10649     10650     10651     10643     10641     10641     10648
     10641     10650     10643     10645     10643     10646     10643     10647
     10650     10652     10648     10653     10648     10654     10650     10655
     10650     10656     10657     10658     10659     10660     10664     10665
     10666     10667     10659     10657     10657     10664     10657     10666
     10659     10661     10659     10662     10659     10663     10666     10668
     10664     10669     10664     10670     10666     10671     10666     10672
     10673     10674     10675     10676     10680     10681     10682     10683
     10675     10673     10673     10680     10673     10682     10675     10677
     10675     10678     10675     10679     10682     10684     10680     10685
     10680     10686     10682     10687     10682     10688     10689     10690
     10691     10692     10696     10697     10698     10699     10691     10689
     10689     10696     10689     10698     10691     10693     10691     10694
     10691     10695     10698     10700     10696     10701     10696     10702
     10698     10703     10698     10704     10705     10706     10707     10708
     10712     10713     10714     10715     10707     10705     10705     10712
     10705     10714     10707     10709     10707     10710     10707     10711
     10714     10716     10712     10717     10712     10718     10714     10719
     10714     10720     10721     10722     10723     10724     10728     10729
     10730     10731     10723     10721     10721     10728     10721     10730
     10723     10725     10723     10726     10723     10727     10730     10732
     10728     10733     10728     10734     10730     10735     10730     10736
     10737     10738     10739     10740     10744     10745     10746     10747
     10739     10737     10737     10744     10737     10746     10739     10741
     10739     10742     10739     10743     10746     10748     10744     10749
     10744     10750     10746     10751     10746     10752     10753     10754
     10755     10756     10760     10761     10762     10763     10755     10753
     10753     10760     10753     10762     10755     10757     10755     10758
     10755     10759     10762     10764     10760     10765     10760     10766
     10762     10767     10762     10768     10769     10770     10771     10772
     10776     10777     10778     10779     10771     10769     10769     10776
     10769     10778     10771     10773     10771     10774     10771     10775
     10778     10780     10776     10781     10776     10782     10778     10783
     10778     10784     10785     10786     10787     10788     10792     10793
     10794     10795     10787     10785     10785     10792     10785     10794
     10787     10789     10787     10790     10787     10791     10794     10796
     10792     10797     10792     10798     10794     10799     10794     10800
     10801     10802     10803     10804     10808     10809     10810     10811
     10803     10801     10801     10808     10801     10810     10803     10805
     10803     10806     10803     10807     10810     10812     10808     10813
     10808     10814     10810     10815     10810     10816     10817     10818
     10819     10820     10824     10825     10826     10827     10819     10817
     10817     10824     10817     10826     10819     10821     10819     10822
     10819     10823     10826     10828     10824     10829     10824     10830
     10826     10831     10826     10832     10833     10834     10835     10836
     10840     10841     10842     10843     10835     10833     10833     10840
     10833     10842     10835     10837     10835     10838     10835     10839
     10842     10844     10840     10845     10840     10846     10842     10847
     10842     10848     10849     10850     10851     10852     10856     10857
     10858     10859     10851     10849     10849     10856     10849     10858
     10851     10853     10851     10854     10851     10855     10858     10860
     10856     10861     10856     10862     10858     10863     10858     10864
     10865     10866     10867     10868     10872     10873     10874     10875
     10867     10865     10865     10872     10865     10874     10867     10869
     10867     10870     10867     10871     10874     10876     10872     10877
     10872     10878     10874     10879     10874     10880     10881     10882
     10883     10884     10888     10889     10890     10891     10883     10881
     10881     10888     10881     10890     10883     10885     10883     10886
     10883     10887     10890     10892     10888     10893     10888     10894
     10890     10895     10890     10896     10897     10898     10899     10900
     10904     10905     10906     10907     10899     10897     10897     10904
     10897     10906     10899     10901     10899     10902     10899     10903
     10906     10908     10904     10909     10904     10910     10906     10911
     10906     10912     10913     10914     10915     10916     10920     10921
     10922     10923     10915     10913     10913     10920     10913     10922
     10915     10917     10915     10918     10915     10919     10922     10924
     10920     10925     10920     10926     10922     10927     10922     10928
     10929     10930     10931     10932     10936     10937     10938     10939
     10931     10929     10929     10936     10929     10938     10931     10933
     10931     10934     10931     10935     10938     10940     10936     10941
     10936     10942     10938     10943     10938     10944     10945     10946
     10947     10948     10952     10953     10954     10955     10947     10945
     10945     10952     10945     10954     10947     10949     10947     10950
     10947     10951     10954     10956     10952     10957     10952     10958
     10954     10959     10954     10960     10961     10962     10963     10964
     10968     10969     10970     10971     10963     10961     10961     10968
     10961     10970     10963     10965     10963     10966     10963     10967
     10970     10972     10968     10973     10968     10974     10970     10975
     10970     10976     10977     10978     10979     10980     10984     10985
     10986     10987     10979     10977     10977     10984     10977     10986
     10979     10981     10979     10982     10979     10983     10986     10988
     10984     10989     10984     10990     10986     10991     10986     10992
     10993     10994     10995     10996     11000     11001     11002     11003
     10995     10993     10993     11000     10993     11002     10995     10997
     10995     10998     10995     10999     11002     11004     11000     11005
     11000     11006     11002     11007     11002     11008     11009     11010
     11011     11012     11016     11017     11018     11019     11011     11009
     11009     11016     11009     11018     11011     11013     11011     11014
     11011     11015     11018     11020     11016     11021     11016     11022
     11018     11023     11018     11024     11025     11026     11027     11028
     11032     11033     11034     11035     11027     11025     11025     11032
     11025     11034     11027     11029     11027     11030     11027     11031
     11034     11036     11032     11037     11032     11038     11034     11039
     11034     11040     11041     11042     11043     11044     11048     11049
     11050     11051     11043     11041     11041     11048     11041     11050
     11043     11045     11043     11046     11043     11047     11050     11052
     11048     11053     11048     11054     11050     11055     11050     11056
     11057     11058     11059     11060     11064     11065     11066     11067
     11059     11057     11057     11064     11057     11066     11059     11061
     11059     11062     11059     11063     11066     11068     11064     11069
     11064     11070     11066     11071     11066     11072     11073     11074
     11075     11076     11080     11081     11082     11083     11075     11073
     11073     11080     11073     11082     11075     11077     11075     11078
     11075     11079     11082     11084     11080     11085     11080     11086
     11082     11087     11082     11088     11089     11090     11091     11092
     11096     11097     11098     11099     11091     11089     11089     11096
     11089     11098     11091     11093     11091     11094     11091     11095
     11098     11100     11096     11101     11096     11102     11098     11103
     11098     11104     11105     11106     11107     11108     11112     11113
     11114     11115     11107     11105     11105     11112     11105     11114
     11107     11109     11107     11110     11107     11111     11114     11116
     11112     11117     11112     11118     11114     11119     11114     11120
     11121     11122     11123     11124     11128     11129     11130     11131
     11123     11121     11121     11128     11121     11130     11123     11125
     11123     11126     11123     11127     11130     11132     11128     11133
     11128     11134     11130     11135     11130     11136     11137     11138
     11139     11140     11144     11145     11146     11147     11139     11137
     11137     11144     11137     11146     11139     11141     11139     11142
     11139     11143     11146     11148     11144     11149     11144     11150
     11146     11151     11146     11152     11153     11154     11155     11156
     11160     11161     11162     11163     11155     11153     11153     11160
     11153     11162     11155     11157     11155     11158     11155     11159
     11162     11164     11160     11165     11160     11166     11162     11167
     11162     11168     11169     11170     11171     11172     11176     11177
     11178     11179     11171     11169     11169     11176     11169     11178
     11171     11173     11171     11174     11171     11175     11178     11180
     11176     11181     11176     11182     11178     11183     11178     11184
     11185     11186     11187     11188     11192     11193     11194     11195
     11187     11185     11185     11192     11185     11194     11187     11189
     11187     11190     11187     11191     11194     11196     11192     11197
     11192     11198     11194     11199     11194     11200     11201     11202
     11203     11204     11208     11209     11210     11211     11203     11201
     11201     11208     11201     11210     11203     11205     11203     11206
     11203     11207     11210     11212     11208     11213     11208     11214
     11210     11215     11210     11216     11217     11218     11219     11220
     11224     11225     11226     11227     11219     11217     11217     11224
     11217     11226     11219     11221     11219     11222     11219     11223
     11226     11228     11224     11229     11224     11230     11226     11231
     11226     11232     11233     11234     11235     11236     11240     11241
     11242     11243     11235     11233     11233     11240     11233     11242
     11235     11237     11235     11238     11235     11239     11242     11244
     11240     11245     11240     11246     11242     11247     11242     11248
     11249     11250     11251     11252     11256     11257     11258     11259
     11251     11249     11249     11256     11249     11258     11251     11253
     11251     11254     11251     11255     11258     11260     11256     11261
     11256     11262     11258     11263     11258     11264     11265     11266
     11267     11268     11272     11273     11274     11275     11267     11265
     11265     11272     11265     11274     11267     11269     11267     11270
     11267     11271     11274     11276     11272     11277     11272     11278
     11274     11279     11274     11280     11281     11282     11283     11284
     11288     11289     11290     11291     11283     11281     11281     11288
     11281     11290     11283     11285     11283     11286     11283     11287
     11290     11292     11288     11293     11288     11294     11290     11295
     11290     11296     11297     11298     11299     11300     11304     11305
     11306     11307     11299     11297     11297     11304     11297     11306
     11299     11301     11299     11302     11299     11303     11306     11308
     11304     11309     11304     11310     11306     11311     11306     11312
     11313     11314     11315     11316     11320     11321     11322     11323
     11315     11313     11313     11320     11313     11322     11315     11317
     11315     11318     11315     11319     11322     11324     11320     11325
     11320     11326     11322     11327     11322     11328     11329     11330
     11331     11332     11336     11337     11338     11339     11331     11329
     11329     11336     11329     11338     11331     11333     11331     11334
     11331     11335     11338     11340     11336     11341     11336     11342
     11338     11343     11338     11344     11345     11346     11347     11348
     11352     11353     11354     11355     11347     11345     11345     11352
     11345     11354     11347     11349     11347     11350     11347     11351
     11354     11356     11352     11357     11352     11358     11354     11359
     11354     11360     11361     11362     11363     11364     11368     11369
     11370     11371     11363     11361     11361     11368     11361     11370
     11363     11365     11363     11366     11363     11367     11370     11372
     11368     11373     11368     11374     11370     11375     11370     11376
     11377     11378     11379     11380     11384     11385     11386     11387
     11379     11377     11377     11384     11377     11386     11379     11381
     11379     11382     11379     11383     11386     11388     11384     11389
     11384     11390     11386     11391     11386     11392     11393     11394
     11395     11396     11400     11401     11402     11403     11395     11393
     11393     11400     11393     11402     11395     11397     11395     11398
     11395     11399     11402     11404     11400     11405     11400     11406
     11402     11407     11402     11408     11409     11410     11411     11412
     11416     11417     11418     11419     11411     11409     11409     11416
     11409     11418     11411     11413     11411     11414     11411     11415
     11418     11420     11416     11421     11416     11422     11418     11423
     11418     11424     11425     11426     11427     11428     11432     11433
     11434     11435     11427     11425     11425     11432     11425     11434
     11427     11429     11427     11430     11427     11431     11434     11436
     11432     11437     11432     11438     11434     11439     11434     11440
     11441     11442     11443     11444     11448     11449     11450     11451
     11443     11441     11441     11448     11441     11450     11443     11445
     11443     11446     11443     11447     11450     11452     11448     11453
     11448     11454     11450     11455     11450     11456     11457     11458
     11459     11460     11464     11465     11466     11467     11459     11457
     11457     11464     11457     11466     11459     11461     11459     11462
     11459     11463     11466     11468     11464     11469     11464     11470
     11466     11471     11466     11472     11473     11474     11475     11476
     11480     11481     11482     11483     11475     11473     11473     11480
     11473     11482     11475     11477     11475     11478     11475     11479
     11482     11484     11480     11485     11480     11486     11482     11487
     11482     11488     11489     11490     11491     11492     11496     11497
     11498     11499     11491     11489     11489     11496     11489     11498
     11491     11493     11491     11494     11491     11495     11498     11500
     11496     11501     11496     11502     11498     11503     11498     11504
     11505     11506     11507     11508     11512     11513     11514     11515
     11507     11505     11505     11512     11505     11514     11507     11509
     11507     11510     11507     11511     11514     11516     11512     11517
     11512     11518     11514     11519     11514     11520     11521     11522
     11523     11524     11528     11529     11530     11531     11523     11521
     11521     11528     11521     11530     11523     11525     11523     11526
     11523     11527     11530     11532     11528     11533     11528     11534
     11530     11535     11530     11536     11537     11538     11539     11540
     11544     11545     11546     11547     11539     11537     11537     11544
     11537     11546     11539     11541     11539     11542     11539     11543
     11546     11548     11544     11549     11544     11550     11546     11551
     11546     11552     11553     11554     11555     11556     11560     11561
     11562     11563     11555     11553     11553     11560     11553     11562
     11555     11557     11555     11558     11555     11559     11562     11564
     11560     11565     11560     11566     11562     11567     11562     11568
     11569     11570     11571     11572     11576     11577     11578     11579
     11571     11569     11569     11576     11569     11578     11571     11573
     11571     11574     11571     11575     11578     11580     11576     11581
     11576     11582     11578     11583     11578     11584     11585     11586
     11587     11588     11592     11593     11594     11595     11587     11585
     11585     11592     11585     11594     11587     11589     11587     11590
     11587     11591     11594     11596     11592     11597     11592     11598
     11594     11599     11594     11600     11601     11602     11603     11604
     11608     11609     11610     11611     11603     11601     11601     11608
     11601     11610     11603     11605     11603     11606     11603     11607
     11610     11612     11608     11613     11608     11614     11610     11615
     11610     11616     11617     11618     11619     11620     11624     11625
     11626     11627     11619     11617     11617     11624     11617     11626
     11619     11621     11619     11622     11619     11623     11626     11628
     11624     11629     11624     11630     11626     11631     11626     11632
     11633     11634     11635     11636     11640     11641     11642     11643
     11635     11633     11633     11640     11633     11642     11635     11637
     11635     11638     11635     11639     11642     11644     11640     11645
     11640     11646     11642     11647     11642     11648     11649     11650
     11651     11652     11656     11657     11658     11659     11651     11649
     11649     11656     11649     11658     11651     11653     11651     11654
     11651     11655     11658     11660     11656     11661     11656     11662
     11658     11663     11658     11664     11665     11666     11667     11668
     11672     11673     11674     11675     11667     11665     11665     11672
     11665     11674     11667     11669     11667     11670     11667     11671
     11674     11676     11672     11677     11672     11678     11674     11679
     11674     11680     11681     11682     11683     11684     11688     11689
     11690     11691     11683     11681     11681     11688     11681     11690
     11683     11685     11683     11686     11683     11687     11690     11692
     11688     11693     11688     11694     11690     11695     11690     11696
     11697     11698     11699     11700     11704     11705     11706     11707
     11699     11697     11697     11704     11697     11706     11699     11701
     11699     11702     11699     11703     11706     11708     11704     11709
     11704     11710     11706     11711     11706     11712     11713     11714
     11715     11716     11720     11721     11722     11723     11715     11713
     11713     11720     11713     11722     11715     11717     11715     11718
     11715     11719     11722     11724     11720     11725     11720     11726
     11722     11727     11722     11728     11729     11730     11731     11732
     11736     11737     11738     11739     11731     11729     11729     11736
     11729     11738     11731     11733     11731     11734     11731     11735
     11738     11740     11736     11741     11736     11742     11738     11743
     11738     11744     11745     11746     11747     11748     11752     11753
     11754     11755     11747     11745     11745     11752     11745     11754
     11747     11749     11747     11750     11747     11751     11754     11756
     11752     11757     11752     11758     11754     11759     11754     11760
     11761     11762     11763     11764     11768     11769     11770     11771
     11763     11761     11761     11768     11761     11770     11763     11765
     11763     11766     11763     11767     11770     11772     11768     11773
     11768     11774     11770     11775     11770     11776     11777     11778
     11779     11780     11784     11785     11786     11787     11779     11777
     11777     11784     11777     11786     11779     11781     11779     11782
     11779     11783     11786     11788     11784     11789     11784     11790
     11786     11791     11786     11792     11793     11794     11795     11796
     11800     11801     11802     11803     11795     11793     11793     11800
     11793     11802     11795     11797     11795     11798     11795     11799
     11802     11804     11800     11805     11800     11806     11802     11807
     11802     11808     11809     11810     11811     11812     11816     11817
     11818     11819     11811     11809     11809     11816     11809     11818
     11811     11813     11811     11814     11811     11815     11818     11820
     11816     11821     11816     11822     11818     11823     11818     11824
     11825     11826     11827     11828     11832     11833     11834     11835
     11827     11825     11825     11832     11825     11834     11827     11829
     11827     11830     11827     11831     11834     11836     11832     11837
     11832     11838     11834     11839     11834     11840     11841     11842
     11843     11844     11848     11849     11850     11851     11843     11841
     11841     11848     11841     11850     11843     11845     11843     11846
     11843     11847     11850     11852     11848     11853     11848     11854
     11850     11855     11850     11856     11857     11858     11859     11860
     11864     11865     11866     11867     11859     11857     11857     11864
     11857     11866     11859     11861     11859     11862     11859     11863
     11866     11868     11864     11869     11864     11870     11866     11871
     11866     11872     11873     11874     11875     11876     11880     11881
     11882     11883     11875     11873     11873     11880     11873     11882
     11875     11877     11875     11878     11875     11879     11882     11884
     11880     11885     11880     11886     11882     11887     11882     11888
     11889     11890     11891     11892     11896     11897     11898     11899
     11891     11889     11889     11896     11889     11898     11891     11893
     11891     11894     11891     11895     11898     11900     11896     11901
     11896     11902     11898     11903     11898     11904     11905     11906
     11907     11908     11912     11913     11914     11915     11907     11905
     11905     11912     11905     11914     11907     11909     11907     11910
     11907     11911     11914     11916     11912     11917     11912     11918
     11914     11919     11914     11920     11921     11922     11923     11924
     11928     11929     11930     11931     11923     11921     11921     11928
     11921     11930     11923     11925     11923     11926     11923     11927
     11930     11932     11928     11933     11928     11934     11930     11935
     11930     11936     11937     11938     11939     11940     11944     11945
     11946     11947     11939     11937     11937     11944     11937     11946
     11939     11941     11939     11942     11939     11943     11946     11948
     11944     11949     11944     11950     11946     11951     11946     11952
     11953     11954     11955     11956     11960     11961     11962     11963
     11955     11953     11953     11960     11953     11962     11955     11957
     11955     11958     11955     11959     11962     11964     11960     11965
     11960     11966     11962     11967     11962     11968     11969     11970
     11971     11972     11976     11977     11978     11979     11971     11969
     11969     11976     11969     11978     11971     11973     11971     11974
     11971     11975     11978     11980     11976     11981     11976     11982
     11978     11983     11978     11984     11985     11986     11987     11988
     11992     11993     11994     11995     11987     11985     11985     11992
     11985     11994     11987     11989     11987     11990     11987     11991
     11994     11996     11992     11997     11992     11998     11994     11999
     11994     12000     12001     12002     12003     12004     12008     12009
     12010     12011     12003     12001     12001     12008     12001     12010
     12003     12005     12003     12006     12003     12007     12010     12012
     12008     12013     12008     12014     12010     12015     12010     12016
     12017     12018     12019     12020     12024     12025     12026     12027
     12019     12017     12017     12024     12017     12026     12019     12021
     12019     12022     12019     12023     12026     12028     12024     12029
     12024     12030     12026     12031     12026     12032     12033     12034
     12035     12036     12040     12041     12042     12043     12035     12033
     12033     12040     12033     12042     12035     12037     12035     12038
     12035     12039     12042     12044     12040     12045     12040     12046
     12042     12047     12042     12048     12049     12050     12051     12052
     12056     12057     12058     12059     12051     12049     12049     12056
     12049     12058     12051     12053     12051     12054     12051     12055
     12058     12060     12056     12061     12056     12062     12058     12063
     12058     12064     12065     12066     12067     12068     12072     12073
     12074     12075     12067     12065     12065     12072     12065     12074
     12067     12069     12067     12070     12067     12071     12074     12076
     12072     12077     12072     12078     12074     12079     12074     12080
     12081     12082     12083     12084     12088     12089     12090     12091
     12083     12081     12081     12088     12081     12090     12083     12085
     12083     12086     12083     12087     12090     12092     12088     12093
     12088     12094     12090     12095     12090     12096     12097     12098
     12099     12100     12104     12105     12106     12107     12099     12097
     12097     12104     12097     12106     12099     12101     12099     12102
     12099     12103     12106     12108     12104     12109     12104     12110
     12106     12111     12106     12112     12113     12114     12115     12116
     12120     12121     12122     12123     12115     12113     12113     12120
     12113     12122     12115     12117     12115     12118     12115     12119
     12122     12124     12120     12125     12120     12126     12122     12127
     12122     12128     12129     12130     12131     12132     12136     12137
     12138     12139     12131     12129     12129     12136     12129     12138
     12131     12133     12131     12134     12131     12135     12138     12140
     12136     12141     12136     12142     12138     12143     12138     12144
     12145     12146     12147     12148     12152     12153     12154     12155
     12147     12145     12145     12152     12145     12154     12147     12149
     12147     12150     12147     12151     12154     12156     12152     12157
     12152     12158     12154     12159     12154     12160     12161     12162
     12163     12164     12168     12169     12170     12171     12163     12161
     12161     12168     12161     12170     12163     12165     12163     12166
     12163     12167     12170     12172     12168     12173     12168     12174
     12170     12175     12170     12176     12177     12178     12179     12180
     12184     12185     12186     12187     12179     12177     12177     12184
     12177     12186     12179     12181     12179     12182     12179     12183
     12186     12188     12184     12189     12184     12190     12186     12191
     12186     12192     12193     12194     12195     12196     12200     12201
     12202     12203     12195     12193     12193     12200     12193     12202
     12195     12197     12195     12198     12195     12199     12202     12204
     12200     12205     12200     12206     12202     12207     12202     12208
     12209     12210     12211     12212     12216     12217     12218     12219
     12211     12209     12209     12216     12209     12218     12211     12213
     12211     12214     12211     12215     12218     12220     12216     12221
     12216     12222     12218     12223     12218     12224     12225     12226
     12227     12228     12232     12233     12234     12235     12227     12225
     12225     12232     12225     12234     12227     12229     12227     12230
     12227     12231     12234     12236     12232     12237     12232     12238
     12234     12239     12234     12240     12241     12242     12243     12244
     12245     12246     12247     12248     12249     12250     12251     12252
     12253     12254     12255     12256     12257     12258     12259     12260
     12261     12262     12263     12264     12265     12266     12267     12268
     12269     12270     12271     12272     12273     12274     12275     12276
     12277     12278     12279     12280     12281     12282     12283     12284
     12285     12286     12287     12288     12289     12290     12291     12292
     12293     12294     12295     12296     12297     12298     12241     12243
     12241     12285     12241     12299     12243     12245     12243     12300
     12245     12247     12245     12255     12247     12249     12247     12287
     12249     12251     12249     12273     12251     12253     12251     12265
     12253     12255     12253     12301     12255     12257     12257     12259
     12257     12261     12257     12263     12265     12267     12265     12269
     12265     12271     12273     12275     12273     12302     12275     12277
     12275     12303     12277     12279     12277     12287     12279     12281
     12279     12291     12281     12283     12281     12304     12283     12285
     12283     12289     12285     12287     12289     12305     12291     12293
     12291     12295     12291     12297     12306     12259     12307     12259
     12308     12261     12309     12261     12310     12263     12311     12263
     12312     12267     12313     12267     12314     12269     12315     12269
     12316     12271     12317     12271     12318     12289     12319     12289
     12320     12293     12321     12293     12322     12295     12323     12295
     12324     12297     12325     12297     12326     12327     12328     12329
     12330     12331     12332     12333     12334     12335     12336     12337
     12338     12339     12340     12341     12342     12343     12344     12345
     12346     12347     12348     12349     12350     12351     12352     12353
     12354     12355     12356     12357     12358     12359     12360     12361
     12362     12363     12364     12365     12366     12367     12368     12369
     12370     12371     12372     12373     12374     12375     12376     12377
     12378     12379     12380     12381     12382     12383     12326     12328
     12326     12370     12326     12384     12328     12330     12328     12385
     12330     12332     12330     12340     12332     12334     12332     12372
     12334     12336     12334     12358     12336     12338     12336     12350
     12338     12340     12338     12386     12340     12342     12342     12344
     12342     12346     12342     12348     12350     12352     12350     12354
     12350     12356     12358     12360     12358     12387     12360     12362
     12360     12388     12362     12364     12362     12372     12364     12366
     12364     12376     12366     12368     12366     12389     12368     12370
     12368     12374     12370     12372     12374     12390     12376     12378
     12376     12380     12376     12382     12391     12344     12392     12344
     12393     12346     12394     12346     12395     12348     12396     12348
     12397     12352     12398     12352     12399     12354     12400     12354
     12401     12356     12402     12356     12403     12374     12404     12374
     12405     12378     12406     12378     12407     12380     12408     12380
     12409     12382     12410     12382     12411     12412     12413     12414
     12415     12416     12417     12418     12419     12420     12421     12422
     12423     12424     12425     12426     12427     12428     12429     12430
     12431     12432     12433     12434     12435     12436     12437     12438
     12439     12440     12441     12442     12443     12444     12445     12446
     12447     12448     12449     12450     12451     12452     12453     12454
     12455     12456     12457     12458     12459     12460     12461     12462
     12463     12464     12465     12466     12467     12468     12411     12413
     12411     12455     12411     12469     12413     12415     12413     12470
     12415     12417     12415     12425     12417     12419     12417     12457
     12419     12421     12419     12443     12421     12423     12421     12435
     12423     12425     12423     12471     12425     12427     12427     12429
     12427     12431     12427     12433     12435     12437     12435     12439
     12435     12441     12443     12445     12443     12472     12445     12447
     12445     12473     12447     12449     12447     12457     12449     12451
     12449     12461     12451     12453     12451     12474     12453     12455
     12453     12459     12455     12457     12459     12475     12461     12463
     12461     12465     12461     12467     12476     12429     12477     12429
     12478     12431     12479     12431     12480     12433     12481     12433
     12482     12437     12483     12437     12484     12439     12485     12439
     12486     12441     12487     12441     12488     12459     12489     12459
     12490     12463     12491     12463     12492     12465     12493     12465
     12494     12467     12495     12467     12496     12497     12498     12499
     12500     12501     12502     12503     12504     12505     12506     12507
     12508     12509     12510     12511     12512     12513     12514     12515
     12516     12517     12518     12519     12520     12521     12522     12523
     12524     12525     12526     12527     12528     12529     12530     12531
     12532     12533     12534     12535     12536     12537     12538     12539
     12540     12541     12542     12543     12544     12545     12546     12547
     12548     12549     12550     12551     12552     12553     12496     12498
     12496     12540     12496     12554     12498     12500     12498     12555
     12500     12502     12500     12510     12502     12504     12502     12542
     12504     12506     12504     12528     12506     12508     12506     12520
     12508     12510     12508     12556     12510     12512     12512     12514
     12512     12516     12512     12518     12520     12522     12520     12524
     12520     12526     12528     12530     12528     12557     12530     12532
     12530     12558     12532     12534     12532     12542     12534     12536
     12534     12546     12536     12538     12536     12559     12538     12540
     12538     12544     12540     12542     12544     12560     12546     12548
     12546     12550     12546     12552     12561     12514     12562     12514
     12563     12516     12564     12516     12565     12518     12566     12518
     12567     12522     12568     12522     12569     12524     12570     12524
     12571     12526     12572     12526     12573     12544     12574     12544
     12575     12548     12576     12548     12577     12550     12578     12550
     12579     12552     12580     12552     12581     12582     12583     12584
     12585     12586     12587     12588     12589     12590     12591     12592
     12593     12594     12595     12596     12597     12598     12599     12600
     12601     12602     12603     12604     12605     12606     12607     12608
     12609     12610     12611     12612     12613     12614     12615     12616
     12617     12618     12619     12620     12621     12622     12623     12624
     12625     12626     12627     12628     12629     12630     12631     12632
     12633     12634     12635     12636     12637     12638     12581     12583
     12581     12625     12581     12639     12583     12585     12583     12640
     12585     12587     12585     12595     12587     12589     12587     12627
     12589     12591     12589     12613     12591     12593     12591     12605
     12593     12595     12593     12641     12595     12597     12597     12599
     12597     12601     12597     12603     12605     12607     12605     12609
     12605     12611     12613     12615     12613     12642     12615     12617
     12615     12643     12617     12619     12617     12627     12619     12621
     12619     12631     12621     12623     12621     12644     12623     12625
     12623     12629     12625     12627     12629     12645     12631     12633
     12631     12635     12631     12637     12646     12599     12647     12599
     12648     12601     12649     12601     12650     12603     12651     12603
     12652     12607     12653     12607     12654     12609     12655     12609
     12656     12611     12657     12611     12658     12629     12659     12629
     12660     12633     12661     12633     12662     12635     12663     12635
     12664     12637     12665     12637     12666     12667     12668     12669
     12670     12671     12672     12673     12674     12675     12676     12677
     12678     12679     12680     12681     12682     12683     12684     12685
     12686     12687     12688     12689     12690     12691     12692     12693
     12694     12695     12696     12697     12698     12699     12700     12701
     12702     12703     12704     12705     12706     12707     12708     12709
     12710     12711     12712     12713     12714     12715     12716     12717
     12718     12719     12720     12721     12722     12723     12666     12668
     12666     12710     12666     12724     12668     12670     12668     12725
     12670     12672     12670     12680     12672     12674     12672     12712
     12674     12676     12674     12698     12676     12678     12676     12690
     12678     12680     12678     12726     12680     12682     12682     12684
     12682     12686     12682     12688     12690     12692     12690     12694
     12690     12696     12698     12700     12698     12727     12700     12702
     12700     12728     12702     12704     12702     12712     12704     12706
     12704     12716     12706     12708     12706     12729     12708     12710
     12708     12714     12710     12712     12714     12730     12716     12718
     12716     12720     12716     12722     12731     12684     12732     12684
     12733     12686     12734     12686     12735     12688     12736     12688
     12737     12692     12738     12692     12739     12694     12740     12694
     12741     12696     12742     12696     12743     12714     12744     12714
     12745     12718     12746     12718     12747     12720     12748     12720
     12749     12722     12750     12722     12751     12752     12753     12754
     12755     12756     12757     12758     12759     12760     12761     12762
     12763     12764     12765     12766     12767     12768     12769     12770
     12771     12772     12773     12774     12775     12776     12777     12778
     12779     12780     12781     12782     12783     12784     12785     12786
     12787     12788     12789     12790     12791     12792     12793     12794
     12795     12796     12797     12798     12799     12800     12801     12802
     12803     12804     12805     12806     12807     12808     12751     12753
     12751     12795     12751     12809     12753     12755     12753     12810
     12755     12757     12755     12765     12757     12759     12757     12797
     12759     12761     12759     12783     12761     12763     12761     12775
     12763     12765     12763     12811     12765     12767     12767     12769
     12767     12771     12767     12773     12775     12777     12775     12779
     12775     12781     12783     12785     12783     12812     12785     12787
     12785     12813     12787     12789     12787     12797     12789     12791
     12789     12801     12791     12793     12791     12814     12793     12795
     12793     12799     12795     12797     12799     12815     12801     12803
     12801     12805     12801     12807     12816     12769     12817     12769
     12818     12771     12819     12771     12820     12773     12821     12773
     12822     12777     12823     12777     12824     12779     12825     12779
     12826     12781     12827     12781     12828     12799     12829     12799
     12830     12803     12831     12803     12832     12805     12833     12805
     12834     12807     12835     12807     12836     12837     12838     12839
     12840     12841     12842     12843     12844     12845     12846     12847
     12848     12849     12850     12851     12852     12853     12854     12855
     12856     12857     12858     12859     12860     12861     12862     12863
     12864     12865     12866     12867     12868     12869     12870     12871
     12872     12873     12874     12875     12876     12877     12878     12879
     12880     12881     12882     12883     12884     12885     12886     12887
     12888     12889     12890     12891     12892     12893     12836     12838
     12836     12880     12836     12894     12838     12840     12838     12895
     12840     12842     12840     12850     12842     12844     12842     12882
     12844     12846     12844     12868     12846     12848     12846     12860
     12848     12850     12848     12896     12850     12852     12852     12854
     12852     12856     12852     12858     12860     12862     12860     12864
     12860     12866     12868     12870     12868     12897     12870     12872
     12870     12898     12872     12874     12872     12882     12874     12876
     12874     12886     12876     12878     12876     12899     12878     12880
     12878     12884     12880     12882     12884     12900     12886     12888
     12886     12890     12886     12892     12901     12854     12902     12854
     12903     12856     12904     12856     12905     12858     12906     12858
     12907     12862     12908     12862     12909     12864     12910     12864
     12911     12866     12912     12866     12913     12884     12914     12884
     12915     12888     12916     12888     12917     12890     12918     12890
     12919     12892     12920     12892     12921     12922     12923     12924
     12925     12926     12927     12928     12929     12930     12931     12932
     12933     12934     12935     12936     12937     12938     12939     12940
     12941     12942     12943     12944     12945     12946     12947     12948
     12949     12950     12951     12952     12953     12954     12955     12956
     12957     12958     12959     12960     12961     12962     12963     12964
     12965     12966     12967     12968     12969     12970     12971     12972
     12973     12974     12975     12976     12977     12978     12921     12923
     12921     12965     12921     12979     12923     12925     12923     12980
     12925     12927     12925     12935     12927     12929     12927     12967
     12929     12931     12929     12953     12931     12933     12931     12945
     12933     12935     12933     12981     12935     12937     12937     12939
     12937     12941     12937     12943     12945     12947     12945     12949
     12945     12951     12953     12955     12953     12982     12955     12957
     12955     12983     12957     12959     12957     12967     12959     12961
     12959     12971     12961     12963     12961     12984     12963     12965
     12963     12969     12965     12967     12969     12985     12971     12973
     12971     12975     12971     12977     12986     12939     12987     12939
     12988     12941     12989     12941     12990     12943     12991     12943
     12992     12947     12993     12947     12994     12949     12995     12949
     12996     12951     12997     12951     12998     12969     12999     12969
     13000     12973     13001     12973     13002     12975     13003     12975
     13004     12977     13005     12977     13006     13007     13008     13009
     13010     13011     13012     13013     13014     13015     13016     13017
     13018     13019     13020     13021     13022     13023     13024     13025
     13026     13027     13028     13029     13030     13031     13032     13033
     13034     13035     13036     13037     13038     13039     13040     13041
     13042     13043     13044     13045     13046     13047     13048     13049
     13050     13051     13052     13053     13054     13055     13056     13057
     13058     13059     13060     13061     13062     13063     13006     13008
     13006     13050     13006     13064     13008     13010     13008     13065
     13010     13012     13010     13020     13012     13014     13012     13052
     13014     13016     13014     13038     13016     13018     13016     13030
     13018     13020     13018     13066     13020     13022     13022     13024
     13022     13026     13022     13028     13030     13032     13030     13034
     13030     13036     13038     13040     13038     13067     13040     13042
     13040     13068     13042     13044     13042     13052     13044     13046
     13044     13056     13046     13048     13046     13069     13048     13050
     13048     13054     13050     13052     13054     13070     13056     13058
     13056     13060     13056     13062     13071     13024     13072     13024
     13073     13026     13074     13026     13075     13028     13076     13028
     13077     13032     13078     13032     13079     13034     13080     13034
     13081     13036     13082     13036     13083     13054     13084     13054
     13085     13058     13086     13058     13087     13060     13088     13060
     13089     13062     13090     13062     13091     13092     13093     13094
     13095     13096     13097     13098     13099     13100     13101     13102
     13103     13104     13105     13106     13107     13108     13109     13110
     13111     13112     13113     13114     13115     13116     13117     13118
     13119     13120     13121     13122     13123     13124     13125     13126
     13127     13128     13129     13130     13131     13132     13133     13134
     13135     13136     13137     13138     13139     13140     13141     13142
     13143     13144     13145     13146     13147     13148     13091     13093
     13091     13135     13091     13149     13093     13095     13093     13150
     13095     13097     13095     13105     13097     13099     13097     13137
     13099     13101     13099     13123     13101     13103     13101     13115
     13103     13105     13103     13151     13105     13107     13107     13109
     13107     13111     13107     13113     13115     13117     13115     13119
     13115     13121     13123     13125     13123     13152     13125     13127
     13125     13153     13127     13129     13127     13137     13129     13131
     13129     13141     13131     13133     13131     13154     13133     13135
     13133     13139     13135     13137     13139     13155     13141     13143
     13141     13145     13141     13147     13156     13109     13157     13109
     13158     13111     13159     13111     13160     13113     13161     13113
     13162     13117     13163     13117     13164     13119     13165     13119
     13166     13121     13167     13121     13168     13139     13169     13139
     13170     13143     13171     13143     13172     13145     13173     13145
     13174     13147     13175     13147     13176     13177     13178     13179
     13180     13181     13182     13183     13184     13185     13186     13187
     13188     13189     13190     13191     13192     13193     13194     13195
     13196     13197     13198     13199     13200     13201     13202     13203
     13204     13205     13206     13207     13208     13209     13210     13211
     13212     13213     13214     13215     13216     13217     13218     13219
     13220     13221     13222     13223     13224     13225     13226     13227
     13228     13229     13230     13231     13232     13233     13176     13178
     13176     13220     13176     13234     13178     13180     13178     13235
     13180     13182     13180     13190     13182     13184     13182     13222
     13184     13186     13184     13208     13186     13188     13186     13200
     13188     13190     13188     13236     13190     13192     13192     13194
     13192     13196     13192     13198     13200     13202     13200     13204
     13200     13206     13208     13210     13208     13237     13210     13212
     13210     13238     13212     13214     13212     13222     13214     13216
     13214     13226     13216     13218     13216     13239     13218     13220
     13218     13224     13220     13222     13224     13240     13226     13228
     13226     13230     13226     13232     13241     13194     13242     13194
     13243     13196     13244     13196     13245     13198     13246     13198
     13247     13202     13248     13202     13249     13204     13250     13204
     13251     13206     13252     13206     13253     13224     13254     13224
     13255     13228     13256     13228     13257     13230     13258     13230
     13259     13232     13260     13232     13261     13262     13263     13264
     13265     13266     13267     13268     13269     13270     13271     13272
     13273     13274     13275     13276     13277     13278     13279     13280
     13281     13282     13283     13284     13285     13286     13287     13288
     13289     13290     13291     13292     13293     13294     13295     13296
     13297     13298     13299     13300     13301     13302     13303     13304
     13305     13306     13307     13308     13309     13310     13311     13312
     13313     13314     13315     13316     13317     13318     13261     13263
     13261     13305     13261     13319     13263     13265     13263     13320
     13265     13267     13265     13275     13267     13269     13267     13307
     13269     13271     13269     13293     13271     13273     13271     13285
     13273     13275     13273     13321     13275     13277     13277     13279
     13277     13281     13277     13283     13285     13287     13285     13289
     13285     13291     13293     13295     13293     13322     13295     13297
     13295     13323     13297     13299     13297     13307     13299     13301
     13299     13311     13301     13303     13301     13324     13303     13305
     13303     13309     13305     13307     13309     13325     13311     13313
     13311     13315     13311     13317     13326     13279     13327     13279
     13328     13281     13329     13281     13330     13283     13331     13283
     13332     13287     13333     13287     13334     13289     13335     13289
     13336     13291     13337     13291     13338     13309     13339     13309
     13340     13313     13341     13313     13342     13315     13343     13315
     13344     13317     13345     13317     13346     13347     13348     13349
     13350     13351     13352     13353     13354     13355     13356     13357
     13358     13359     13360     13361     13362     13363     13364     13365
     13366     13367     13368     13369     13370     13371     13372     13373
     13374     13375     13376     13377     13378     13379     13380     13381
     13382     13383     13384     13385     13386     13387     13388     13389
     13390     13391     13392     13393     13394     13395     13396     13397
     13398     13399     13400     13401     13402     13403     13346     13348
     13346     13390     13346     13404     13348     13350     13348     13405
     13350     13352     13350     13360     13352     13354     13352     13392
     13354     13356     13354     13378     13356     13358     13356     13370
     13358     13360     13358     13406     13360     13362     13362     13364
     13362     13366     13362     13368     13370     13372     13370     13374
     13370     13376     13378     13380     13378     13407     13380     13382
     13380     13408     13382     13384     13382     13392     13384     13386
     13384     13396     13386     13388     13386     13409     13388     13390
     13388     13394     13390     13392     13394     13410     13396     13398
     13396     13400     13396     13402     13411     13364     13412     13364
     13413     13366     13414     13366     13415     13368     13416     13368
     13417     13372     13418     13372     13419     13374     13420     13374
     13421     13376     13422     13376     13423     13394     13424     13394
     13425     13398     13426     13398     13427     13400     13428     13400
     13429     13402     13430     13402     13431     13432     13433     13434
     13435     13436     13437     13438     13439     13440     13441     13442
     13443     13444     13445     13446     13447     13448     13449     13450
     13451     13452     13453     13454     13455     13456     13457     13458
     13459     13460     13461     13462     13463     13464     13465     13466
     13467     13468     13469     13470     13471     13472     13473     13474
     13475     13476     13477     13478     13479     13480     13481     13482
     13483     13484     13485     13486     13487     13488     13431     13433
     13431     13475     13431     13489     13433     13435     13433     13490
     13435     13437     13435     13445     13437     13439     13437     13477
     13439     13441     13439     13463     13441     13443     13441     13455
     13443     13445     13443     13491     13445     13447     13447     13449
     13447     13451     13447     13453     13455     13457     13455     13459
     13455     13461     13463     13465     13463     13492     13465     13467
     13465     13493     13467     13469     13467     13477     13469     13471
     13469     13481     13471     13473     13471     13494     13473     13475
     13473     13479     13475     13477     13479     13495     13481     13483
     13481     13485     13481     13487     13496     13449     13497     13449
     13498     13451     13499     13451     13500     13453     13501     13453
     13502     13457     13503     13457     13504     13459     13505     13459
     13506     13461     13507     13461     13508     13479     13509     13479
     13510     13483     13511     13483     13512     13485     13513     13485
     13514     13487     13515     13487     13516     13517     13518     13519
     13520     13521     13522     13523     13524     13525     13526     13527
     13528     13529     13530     13531     13532     13533     13534     13535
     13536     13537     13538     13539     13540     13541     13542     13543
     13544     13545     13546     13547     13548     13549     13550     13551
     13552     13553     13554     13555     13556     13557     13558     13559
     13560     13561     13562     13563     13564     13565     13566     13567
     13568     13569     13570     13571     13572     13573     13516     13518
     13516     13560     13516     13574     13518     13520     13518     13575
     13520     13522     13520     13530     13522     13524     13522     13562
     13524     13526     13524     13548     13526     13528     13526     13540
     13528     13530     13528     13576     13530     13532     13532     13534
     13532     13536     13532     13538     13540     13542     13540     13544
     13540     13546     13548     13550     13548     13577     13550     13552
     13550     13578     13552     13554     13552     13562     13554     13556
     13554     13566     13556     13558     13556     13579     13558     13560
     13558     13564     13560     13562     13564     13580     13566     13568
     13566     13570     13566     13572     13581     13534     13582     13534
     13583     13536     13584     13536     13585     13538     13586     13538
     13587     13542     13588     13542     13589     13544     13590     13544
     13591     13546     13592     13546     13593     13564     13594     13564
     13595     13568     13596     13568     13597     13570     13598     13570
     13599     13572     13600     13572     13601     13602     13603     13604
     13605     13606     13607     13608     13609     13610     13611     13612
     13613     13614     13615     13616     13617     13618     13619     13620
     13621     13622     13623     13624     13625     13626     13627     13628
     13629     13630     13631     13632     13633     13634     13635     13636
     13637     13638     13639     13640     13641     13642     13643     13644
     13645     13646     13647     13648     13649     13650     13651     13652
     13653     13654     13655     13656     13657     13658     13601     13603
     13601     13645     13601     13659     13603     13605     13603     13660
     13605     13607     13605     13615     13607     13609     13607     13647
     13609     13611     13609     13633     13611     13613     13611     13625
     13613     13615     13613     13661     13615     13617     13617     13619
     13617     13621     13617     13623     13625     13627     13625     13629
     13625     13631     13633     13635     13633     13662     13635     13637
     13635     13663     13637     13639     13637     13647     13639     13641
     13639     13651     13641     13643     13641     13664     13643     13645
     13643     13649     13645     13647     13649     13665     13651     13653
     13651     13655     13651     13657     13666     13619     13667     13619
     13668     13621     13669     13621     13670     13623     13671     13623
     13672     13627     13673     13627     13674     13629     13675     13629
     13676     13631     13677     13631     13678     13649     13679     13649
     13680     13653     13681     13653     13682     13655     13683     13655
     13684     13657     13685     13657     13686     13687     13688     13689
     13690     13691     13692     13693     13694     13695     13696     13697
     13698     13699     13700     13701     13702     13703     13704     13705
     13706     13707     13708     13709     13710     13711     13712     13713
     13714     13715     13716     13717     13718     13719     13720     13721
     13722     13723     13724     13725     13726     13727     13728     13729
     13730     13731     13732     13733     13734     13735     13736     13737
     13738     13739     13740     13741     13742     13743     13686     13688
     13686     13730     13686     13744     13688     13690     13688     13745
     13690     13692     13690     13700     13692     13694     13692     13732
     13694     13696     13694     13718     13696     13698     13696     13710
     13698     13700     13698     13746     13700     13702     13702     13704
     13702     13706     13702     13708     13710     13712     13710     13714
     13710     13716     13718     13720     13718     13747     13720     13722
     13720     13748     13722     13724     13722     13732     13724     13726
     13724     13736     13726     13728     13726     13749     13728     13730
     13728     13734     13730     13732     13734     13750     13736     13738
     13736     13740     13736     13742     13751     13704     13752     13704
     13753     13706     13754     13706     13755     13708     13756     13708
     13757     13712     13758     13712     13759     13714     13760     13714
     13761     13716     13762     13716     13763     13734     13764     13734
     13765     13738     13766     13738     13767     13740     13768     13740
     13769     13742     13770     13742     13771     13772     13773     13774
     13771     13773     13773     13775     13773     13776     13771     13777
     13771     13778     13771     13779     13773     13780     13773     13781
     13782     13783     13784     13785     13782     13784     13784     13786
     13784     13787     13782     13788     13782     13789     13782     13790
     13784     13791     13784     13792     13793     13794     13795     13796
     13793     13795     13795     13797     13795     13798     13793     13799
     13793     13800     13793     13801     13795     13802     13795     13803
     13804     13805     13806     13807     13804     13806     13806     13808
     13806     13809     13804     13810     13804     13811     13804     13812
     13806     13813     13806     13814     13815     13816     13817     13818
     13815     13817     13817     13819     13817     13820     13815     13821
     13815     13822     13815     13823     13817     13824     13817     13825
     13826     13827     13828     13829     13826     13828     13828     13830
     13828     13831     13826     13832     13826     13833     13826     13834
     13828     13835     13828     13836     13837     13838     13839     13840
     13837     13839     13839     13841     13839     13842     13837     13843
     13837     13844     13837     13845     13839     13846     13839     13847
     13848     13849     13850     13851     13848     13850     13850     13852
     13850     13853     13848     13854     13848     13855     13848     13856
     13850     13857     13850     13858     13859     13860     13861     13862
     13859     13861     13861     13863     13861     13864     13859     13865
     13859     13866     13859     13867     13861     13868     13861     13869
     13870     13871     13872     13873     13870     13872     13872     13874
     13872     13875     13870     13876     13870     13877     13870     13878
     13872     13879     13872     13880     13881     13882     13883     13884
     13881     13883     13883     13885     13883     13886     13881     13887
     13881     13888     13881     13889     13883     13890     13883     13891
     13892     13893     13894     13895     13892     13894     13894     13896
     13894     13897     13892     13898     13892     13899     13892     13900
     13894     13901     13894     13902     13903     13904     13905     13906
     13903     13905     13905     13907     13905     13908     13903     13909
     13903     13910     13903     13911     13905     13912     13905     13913
     13914     13915     13916     13917     13914     13916     13916     13918
     13916     13919     13914     13920     13914     13921     13914     13922
     13916     13923     13916     13924     13925     13926     13927     13928
     13925     13927     13927     13929     13927     13930     13925     13931
     13925     13932     13925     13933     13927     13934     13927     13935
     13936     13937     13938     13939     13936     13938     13938     13940
     13938     13941     13936     13942     13936     13943     13936     13944
     13938     13945     13938     13946     13947     13948     13949     13950
     13947     13949     13949     13951     13949     13952     13947     13953
     13947     13954     13947     13955     13949     13956     13949     13957
     13958     13959     13960     13961     13958     13960     13960     13962
     13960     13963     13958     13964     13958     13965     13958     13966
     13960     13967     13960     13968     13969     13970     13971     13972
     13969     13971     13971     13973     13971     13974     13969     13975
     13969     13976     13969     13977     13971     13978     13971     13979
     13980     13981     13982     13983     13980     13982     13982     13984
     13982     13985     13980     13986     13980     13987     13980     13988
     13982     13989     13982     13990     13991     13992     13993     13994
     13991     13993     13993     13995     13993     13996     13991     13997
     13991     13998     13991     13999     13993     14000     13993     14001
     14002     14003     14004     14005     14002     14004     14004     14006
     14004     14007     14002     14008     14002     14009     14002     14010
     14004     14011     14004     14012     14013     14014     14015     14016
     14013     14015     14015     14017     14015     14018     14013     14019
     14013     14020     14013     14021     14015     14022     14015     14023
     14024     14025     14026     14027     14024     14026     14026     14028
     14026     14029     14024     14030     14024     14031     14024     14032
     14026     14033     14026     14034     14035     14036     14037     14038
     14035     14037     14037     14039     14037     14040     14035     14041
     14035     14042     14035     14043     14037     14044     14037     14045
     14046     14047     14048     14049     14046     14048     14048     14050
     14048     14051     14046     14052     14046     14053     14046     14054
     14048     14055     14048     14056     14057     14058     14059     14060
     14057     14059     14059     14061     14059     14062     14057     14063
     14057     14064     14057     14065     14059     14066     14059     14067
     14068     14069     14070     14071     14068     14070     14070     14072
     14070     14073     14068     14074     14068     14075     14068     14076
     14070     14077     14070     14078     14079     14080     14081     14082
     14079     14081     14081     14083     14081     14084     14079     14085
     14079     14086     14079     14087     14081     14088     14081     14089
     14090     14091     14092     14093     14090     14092     14092     14094
     14092     14095     14090     14096     14090     14097     14090     14098
     14092     14099     14092     14100     14101     14102     14103     14104
     14101     14103     14103     14105     14103     14106     14101     14107
     14101     14108     14101     14109     14103     14110     14103     14111
     14112     14113     14114     14115     14112     14114     14114     14116
     14114     14117     14112     14118     14112     14119     14112     14120
     14114     14121     14114     14122     14123     14124     14125     14126
     14123     14125     14125     14127     14125     14128     14123     14129
     14123     14130     14123     14131     14125     14132     14125     14133
     14134     14135     14136     14137     14134     14136     14136     14138
     14136     14139     14134     14140     14134     14141     14134     14142
     14136     14143     14136     14144     14145     14146     14147     14148
     14145     14147     14147     14149     14147     14150     14145     14151
     14145     14152     14145     14153     14147     14154     14147     14155
     14156     14157     14158     14159     14156     14158     14158     14160
     14158     14161     14156     14162     14156     14163     14156     14164
     14158     14165     14158     14166     14167     14168     14169     14170
     14167     14169     14169     14171     14169     14172     14167     14173
     14167     14174     14167     14175     14169     14176     14169     14177
     14178     14179     14180     14181     14178     14180     14180     14182
     14180     14183     14178     14184     14178     14185     14178     14186
     14180     14187     14180     14188     14189     14190     14191     14192
     14189     14191     14191     14193     14191     14194     14189     14195
     14189     14196     14189     14197     14191     14198     14191     14199
     14200     14201     14202     14203     14200     14202     14202     14204
     14202     14205     14200     14206     14200     14207     14200     14208
     14202     14209     14202     14210     14211     14212     14213     14214
     14211     14213     14213     14215     14213     14216     14211     14217
     14211     14218     14211     14219     14213     14220     14213     14221
     14222     14223     14224     14225     14222     14224     14224     14226
     14224     14227     14222     14228     14222     14229     14222     14230
     14224     14231     14224     14232     14233     14234     14235     14236
     14233     14235     14235     14237     14235     14238     14233     14239
     14233     14240     14233     14241     14235     14242     14235     14243
     14244     14245     14246     14247     14244     14246     14246     14248
     14246     14249     14244     14250     14244     14251     14244     14252
     14246     14253     14246     14254     14255     14256     14257     14258
     14255     14257     14257     14259     14257     14260     14255     14261
     14255     14262     14255     14263     14257     14264     14257     14265
     14266     14267     14268     14269     14266     14268     14268     14270
     14268     14271     14266     14272     14266     14273     14266     14274
     14268     14275     14268     14276     14277     14278     14279     14280
     14277     14279     14279     14281     14279     14282     14277     14283
     14277     14284     14277     14285     14279     14286     14279     14287
     14288     14289     14290     14291     14288     14290     14290     14292
     14290     14293     14288     14294     14288     14295     14288     14296
     14290     14297     14290     14298     14299     14300     14301     14302
     14299     14301     14301     14303     14301     14304     14299     14305
     14299     14306     14299     14307     14301     14308     14301     14309
     14310     14311     14312     14313     14310     14312     14312     14314
     14312     14315     14310     14316     14310     14317     14310     14318
     14312     14319     14312     14320     14321     14322     14323     14324
     14321     14323     14323     14325     14323     14326     14321     14327
     14321     14328     14321     14329     14323     14330     14323     14331
     14332     14333     14334     14335     14332     14334     14334     14336
     14334     14337     14332     14338     14332     14339     14332     14340
     14334     14341     14334     14342     14343     14344     14345     14346
     14343     14345     14345     14347     14345     14348     14343     14349
     14343     14350     14343     14351     14345     14352     14345     14353
     14354     14355     14356     14357     14354     14356     14356     14358
     14356     14359     14354     14360     14354     14361     14354     14362
     14356     14363     14356     14364     14365     14366     14367     14368
     14365     14367     14367     14369     14367     14370     14365     14371
     14365     14372     14365     14373     14367     14374     14367     14375
     14376     14377     14378     14379     14376     14378     14378     14380
     14378     14381     14376     14382     14376     14383     14376     14384
     14378     14385     14378     14386     14387     14388     14389     14390
     14387     14389     14389     14391     14389     14392     14387     14393
     14387     14394     14387     14395     14389     14396     14389     14397
     14398     14399     14400     14401     14398     14400     14400     14402
     14400     14403     14398     14404     14398     14405     14398     14406
     14400     14407     14400     14408     14409     14410     14411     14412
     14409     14411     14411     14413     14411     14414     14409     14415
     14409     14416     14409     14417     14411     14418     14411     14419
     14420     14421     14422     14423     14420     14422     14422     14424
     14422     14425     14420     14426     14420     14427     14420     14428
     14422     14429     14422     14430     14431     14432     14433     14434
     14431     14433     14433     14435     14433     14436     14431     14437
     14431     14438     14431     14439     14433     14440     14433     14441
     14442     14443     14444     14445     14442     14444     14444     14446
     14444     14447     14442     14448     14442     14449     14442     14450
     14444     14451     14444     14452     14453     14454     14455     14456
     14453     14455     14455     14457     14455     14458     14453     14459
     14453     14460     14453     14461     14455     14462     14455     14463
     14464     14465     14466     14467     14464     14466     14466     14468
     14466     14469     14464     14470     14464     14471     14464     14472
     14466     14473     14466     14474     14475     14476     14477     14478
     14475     14477     14477     14479     14477     14480     14475     14481
     14475     14482     14475     14483     14477     14484     14477     14485
     14486     14487     14488     14489     14486     14488     14488     14490
     14488     14491     14486     14492     14486     14493     14486     14494
     14488     14495     14488     14496     14497     14498     14499     14500
     14497     14499     14499     14501     14499     14502     14497     14503
     14497     14504     14497     14505     14499     14506     14499     14507
     14508     14509     14510     14511     14508     14510     14510     14512
     14510     14513     14508     14514     14508     14515     14508     14516
     14510     14517     14510     14518     14519     14520     14521     14522
     14519     14521     14521     14523     14521     14524     14519     14525
     14519     14526     14519     14527     14521     14528     14521     14529
     14530     14531     14532     14533     14530     14532     14532     14534
     14532     14535     14530     14536     14530     14537     14530     14538
     14532     14539     14532     14540     14541     14542     14543     14544
     14541     14543     14543     14545     14543     14546     14541     14547
     14541     14548     14541     14549     14543     14550     14543     14551
     14552     14553     14554     14555     14552     14554     14554     14556
     14554     14557     14552     14558     14552     14559     14552     14560
     14554     14561     14554     14562     14563     14564     14565     14566
     14563     14565     14565     14567     14565     14568     14563     14569
     14563     14570     14563     14571     14565     14572     14565     14573
     14574     14575     14576     14577     14574     14576     14576     14578
     14576     14579     14574     14580     14574     14581     14574     14582
     14576     14583     14576     14584     14585     14586     14587     14588
     14585     14587     14587     14589     14587     14590     14585     14591
     14585     14592     14585     14593     14587     14594     14587     14595
     14596     14597     14598     14599     14596     14598     14598     14600
     14598     14601     14596     14602     14596     14603     14596     14604
     14598     14605     14598     14606     14607     14608     14609     14610
     14607     14609     14609     14611     14609     14612     14607     14613
     14607     14614     14607     14615     14609     14616     14609     14617
     14618     14619     14620     14621     14618     14620     14620     14622
     14620     14623     14618     14624     14618     14625     14618     14626
     14620     14627     14620     14628     14629     14630     14631     14632
     14629     14631     14631     14633     14631     14634     14629     14635
     14629     14636     14629     14637     14631     14638     14631     14639
     14640     14641     14642     14643     14640     14642     14642     14644
     14642     14645     14640     14646     14640     14647     14640     14648
     14642     14649     14642     14650     14651     14652     14653     14654
     14651     14653     14653     14655     14653     14656     14651     14657
     14651     14658     14651     14659     14653     14660     14653     14661
     14662     14663     14664     14665     14662     14664     14664     14666
     14664     14667     14662     14668     14662     14669     14662     14670
     14664     14671     14664     14672     14673     14674     14675     14676
     14673     14675     14675     14677     14675     14678     14673     14679
     14673     14680     14673     14681     14675     14682     14675     14683
     14684     14685     14686     14687     14684     14686     14686     14688
     14686     14689     14684     14690     14684     14691     14684     14692
     14686     14693     14686     14694     14695     14696     14697     14698
     14695     14697     14697     14699     14697     14700     14695     14701
     14695     14702     14695     14703     14697     14704     14697     14705
     14706     14707     14708     14709     14706     14708     14708     14710
     14708     14711     14706     14712     14706     14713     14706     14714
     14708     14715     14708     14716     14717     14718     14719     14720
     14717     14719     14719     14721     14719     14722     14717     14723
     14717     14724     14717     14725     14719     14726     14719     14727
     14728     14729     14730     14731     14728     14730     14730     14732
     14730     14733     14728     14734     14728     14735     14728     14736
     14730     14737     14730     14738     14739     14740     14741     14742
     14739     14741     14741     14743     14741     14744     14739     14745
     14739     14746     14739     14747     14741     14748     14741     14749
     14750     14751     14752     14753     14750     14752     14752     14754
     14752     14755     14750     14756     14750     14757     14750     14758
     14752     14759     14752     14760     14761     14762     14763     14764
     14761     14763     14763     14765     14763     14766     14761     14767
     14761     14768     14761     14769     14763     14770     14763     14771
     14772     14773     14774     14775     14772     14774     14774     14776
     14774     14777     14772     14778     14772     14779     14772     14780
     14774     14781     14774     14782     14783     14784     14785     14786
     14783     14785     14785     14787     14785     14788     14783     14789
     14783     14790     14783     14791     14785     14792     14785     14793
     14794     14795     14796     14797     14794     14796     14796     14798
     14796     14799     14794     14800     14794     14801     14794     14802
     14796     14803     14796     14804     14805     14806     14807     14808
     14805     14807     14807     14809     14807     14810     14805     14811
     14805     14812     14805     14813     14807     14814     14807     14815
     14816     14817     14818     14819     14816     14818     14818     14820
     14818     14821     14816     14822     14816     14823     14816     14824
     14818     14825     14818     14826     14827     14828     14829     14830
     14827     14829     14829     14831     14829     14832     14827     14833
     14827     14834     14827     14835     14829     14836     14829     14837
     14838     14839     14840     14841     14838     14840     14840     14842
     14840     14843     14838     14844     14838     14845     14838     14846
     14840     14847     14840     14848     14849     14850     14851     14852
     14849     14851     14851     14853     14851     14854     14849     14855
     14849     14856     14849     14857     14851     14858     14851     14859
     14860     14861     14862     14863     14860     14862     14862     14864
     14862     14865     14860     14866     14860     14867     14860     14868
     14862     14869     14862     14870     14871     14872     14873     14874
     14871     14873     14873     14875     14873     14876     14871     14877
     14871     14878     14871     14879     14873     14880     14873     14881
     14882     14883     14884     14885     14882     14884     14884     14886
     14884     14887     14882     14888     14882     14889     14882     14890
     14884     14891     14884     14892     14893     14894     14895     14896
     14893     14895     14895     14897     14895     14898     14893     14899
     14893     14900     14893     14901     14895     14902     14895     14903
     14904     14905     14906     14907     14904     14906     14906     14908
     14906     14909     14904     14910     14904     14911     14904     14912
     14906     14913     14906     14914     14915     14916     14917     14918
     14915     14917     14917     14919     14917     14920     14915     14921
     14915     14922     14915     14923     14917     14924     14917     14925
     14926     14927     14928     14929     14926     14928     14928     14930
     14928     14931     14926     14932     14926     14933     14926     14934
     14928     14935     14928     14936     14937     14938     14939     14940
     14937     14939     14939     14941     14939     14942     14937     14943
     14937     14944     14937     14945     14939     14946     14939     14947
     14948     14949     14950     14951     14948     14950     14950     14952
     14950     14953     14948     14954     14948     14955     14948     14956
     14950     14957     14950     14958     14959     14960     14961     14962
     14959     14961     14961     14963     14961     14964     14959     14965
     14959     14966     14959     14967     14961     14968     14961     14969
     14970     14971     14972     14973     14970     14972     14972     14974
     14972     14975     14970     14976     14970     14977     14970     14978
     14972     14979     14972     14980     14981     14982     14983     14984
     14981     14983     14983     14985     14983     14986     14981     14987
     14981     14988     14981     14989     14983     14990     14983     14991
     14992     14993     14994     14995     14992     14994     14994     14996
     14994     14997     14992     14998     14992     14999     14992     15000
     14994     15001     14994     15002     15003     15004     15005     15006
     15003     15005     15005     15007     15005     15008     15003     15009
     15003     15010     15003     15011     15005     15012     15005     15013
     15014     15015     15016     15017     15014     15016     15016     15018
     15016     15019     15014     15020     15014     15021     15014     15022
     15016     15023     15016     15024     15025     15026     15027     15028
     15025     15027     15027     15029     15027     15030     15025     15031
     15025     15032     15025     15033     15027     15034     15027     15035
     15036     15037     15038     15039     15036     15038     15038     15040
     15038     15041     15036     15042     15036     15043     15036     15044
     15038     15045     15038     15046     15047     15048     15049     15050
     15047     15049     15049     15051     15049     15052     15047     15053
     15047     15054     15047     15055     15049     15056     15049     15057
     15058     15059     15060     15061     15058     15060     15060     15062
     15060     15063     15058     15064     15058     15065     15058     15066
     15060     15067     15060     15068     15069     15070     15071     15072
     15069     15071     15071     15073     15071     15074     15069     15075
     15069     15076     15069     15077     15071     15078     15071     15079
     15080     15081     15082     15083     15080     15082     15082     15084
     15082     15085     15080     15086     15080     15087     15080     15088
     15082     15089     15082     15090     15091     15092     15093     15094
     15091     15093     15093     15095     15093     15096     15091     15097
     15091     15098     15091     15099     15093     15100     15093     15101
     15102     15103     15104     15105     15102     15104     15104     15106
     15104     15107     15102     15108     15102     15109     15102     15110
     15104     15111     15104     15112     15113     15114     15115     15116
     15113     15115     15115     15117     15115     15118     15113     15119
     15113     15120     15113     15121     15115     15122     15115     15123
     15124     15125     15126     15127     15124     15126     15126     15128
     15126     15129     15124     15130     15124     15131     15124     15132
     15126     15133     15126     15134     15135     15136     15137     15138
     15135     15137     15137     15139     15137     15140     15135     15141
     15135     15142     15135     15143     15137     15144     15137     15145
     15146     15147     15148     15149     15146     15148     15148     15150
     15148     15151     15146     15152     15146     15153     15146     15154
     15148     15155     15148     15156     15157     15158     15159     15160
     15157     15159     15159     15161     15159     15162     15157     15163
     15157     15164     15157     15165     15159     15166     15159     15167
     15168     15169     15170     15171     15168     15170     15170     15172
     15170     15173     15168     15174     15168     15175     15168     15176
     15170     15177     15170     15178     15179     15180     15181     15182
     15179     15181     15181     15183     15181     15184     15179     15185
     15179     15186     15179     15187     15181     15188     15181     15189
     15190     15191     15192     15193     15190     15192     15192     15194
     15192     15195     15190     15196     15190     15197     15190     15198
     15192     15199     15192     15200     15201     15202     15203     15204
     15201     15203     15203     15205     15203     15206     15201     15207
     15201     15208     15201     15209     15203     15210     15203     15211
     15212     15213     15214     15215     15212     15214     15214     15216
     15214     15217     15212     15218     15212     15219     15212     15220
     15214     15221     15214     15222     15223     15224     15225     15226
     15223     15225     15225     15227     15225     15228     15223     15229
     15223     15230     15223     15231     15225     15232     15225     15233
     15234     15235     15236     15237     15234     15236     15236     15238
     15236     15239     15234     15240     15234     15241     15234     15242
     15236     15243     15236     15244     15245     15246     15247     15248
     15245     15247     15247     15249     15247     15250     15245     15251
     15245     15252     15245     15253     15247     15254     15247     15255
     15256     15257     15258     15259     15256     15258     15258     15260
     15258     15261     15256     15262     15256     15263     15256     15264
     15258     15265     15258     15266     15267     15268     15269     15270
     15267     15269     15269     15271     15269     15272     15267     15273
     15267     15274     15267     15275     15269     15276     15269     15277
     15278     15279     15280     15281     15278     15280     15280     15282
     15280     15283     15278     15284     15278     15285     15278     15286
     15280     15287     15280     15288     15289     15290     15291     15292
     15289     15291     15291     15293     15291     15294     15289     15295
     15289     15296     15289     15297     15291     15298     15291     15299
     15300     15301     15302     15303     15300     15302     15302     15304
     15302     15305     15300     15306     15300     15307     15300     15308
     15302     15309     15302     15310     15311     15312     15313     15314
     15311     15313     15313     15315     15313     15316     15311     15317
     15311     15318     15311     15319     15313     15320     15313     15321
     15322     15323     15324     15325     15322     15324     15324     15326
     15324     15327     15322     15328     15322     15329     15322     15330
     15324     15331     15324     15332     15333     15334     15335     15336
     15333     15335     15335     15337     15335     15338     15333     15339
     15333     15340     15333     15341     15335     15342     15335     15343
     15344     15345     15346     15347     15344     15346     15346     15348
     15346     15349     15344     15350     15344     15351     15344     15352
     15346     15353     15346     15354     15355     15356     15357     15358
     15355     15357     15357     15359     15357     15360     15355     15361
     15355     15362     15355     15363     15357     15364     15357     15365
     15366     15367     15368     15369     15366     15368     15368     15370
     15368     15371     15366     15372     15366     15373     15366     15374
     15368     15375     15368     15376     15377     15378     15379     15380
     15377     15379     15379     15381     15379     15382     15377     15383
     15377     15384     15377     15385     15379     15386     15379     15387
     15388     15389     15390     15391     15388     15390     15390     15392
     15390     15393     15388     15394     15388     15395     15388     15396
     15390     15397     15390     15398     15399     15400     15401     15402
     15399     15401     15401     15403     15401     15404     15399     15405
     15399     15406     15399     15407     15401     15408     15401     15409
     15410     15411     15412     15413     15410     15412     15412     15414
     15412     15415     15410     15416     15410     15417     15410     15418
     15412     15419     15412     15420     15421     15422     15423     15424
     15421     15423     15423     15425     15423     15426     15421     15427
     15421     15428     15421     15429     15423     15430     15423     15431
     15432     15433     15434     15435     15432     15434     15434     15436
     15434     15437     15432     15438     15432     15439     15432     15440
     15434     15441     15434     15442     15443     15444     15445     15446
     15443     15445     15445     15447     15445     15448     15443     15449
     15443     15450     15443     15451     15445     15452     15445     15453
     15454     15455     15456     15457     15454     15456     15456     15458
     15456     15459     15454     15460     15454     15461     15454     15462
     15456     15463     15456     15464     15465     15466     15467     15468
     15465     15467     15467     15469     15467     15470     15465     15471
     15465     15472     15465     15473     15467     15474     15467     15475
     15476     15477     15478     15479     15476     15478     15478     15480
     15478     15481     15476     15482     15476     15483     15476     15484
     15478     15485     15478     15486     15487     15488     15489     15490
     15487     15489     15489     15491     15489     15492     15487     15493
     15487     15494     15487     15495     15489     15496     15489     15497
     15498     15499     15500     15501     15498     15500     15500     15502
     15500     15503     15498     15504     15498     15505     15498     15506
     15500     15507     15500     15508     15509     15510     15511     15512
     15509     15511     15511     15513     15511     15514     15509     15515
     15509     15516     15509     15517     15511     15518     15511     15519
     15520     15521     15522     15523     15520     15522     15522     15524
     15522     15525     15520     15526     15520     15527     15520     15528
     15522     15529     15522     15530     15531     15532     15533     15534
     15531     15533     15533     15535     15533     15536     15531     15537
     15531     15538     15531     15539     15533     15540     15533     15541
     15542     15543     15544     15545     15542     15544     15544     15546
     15544     15547     15542     15548     15542     15549     15542     15550
     15544     15551     15544     15552     15553     15554     15555     15556
     15553     15555     15555     15557     15555     15558     15553     15559
     15553     15560     15553     15561     15555     15562     15555     15563
     15564     15565     15566     15567     15564     15566     15566     15568
     15566     15569     15564     15570     15564     15571     15564     15572
     15566     15573     15566     15574     15575     15576     15577     15578
     15575     15577     15577     15579     15577     15580     15575     15581
     15575     15582     15575     15583     15577     15584     15577     15585
     15586     15587     15588     15589     15586     15588     15588     15590
     15588     15591     15586     15592     15586     15593     15586     15594
     15588     15595     15588     15596     15597     15598     15599     15600
     15597     15599     15599     15601     15599     15602     15597     15603
     15597     15604     15597     15605     15599     15606     15599     15607
     15608     15609     15610     15611     15608     15610     15610     15612
     15610     15613     15608     15614     15608     15615     15608     15616
     15610     15617     15610     15618     15619     15620     15621     15622
     15619     15621     15621     15623     15621     15624     15619     15625
     15619     15626     15619     15627     15621     15628     15621     15629
     15630     15631     15632     15633     15630     15632     15632     15634
     15632     15635     15630     15636     15630     15637     15630     15638
     15632     15639     15632     15640     15641     15642     15643     15644
     15641     15643     15643     15645     15643     15646     15641     15647
     15641     15648     15641     15649     15643     15650     15643     15651
     15652     15653     15654     15655     15652     15654     15654     15656
     15654     15657     15652     15658     15652     15659     15652     15660
     15654     15661     15654     15662     15663     15664     15665     15666
     15663     15665     15665     15667     15665     15668     15663     15669
     15663     15670     15663     15671     15665     15672     15665     15673
     15674     15675     15676     15677     15674     15676     15676     15678
     15676     15679     15674     15680     15674     15681     15674     15682
     15676     15683     15676     15684     15685     15686     15687     15688
     15685     15687     15687     15689     15687     15690     15685     15691
     15685     15692     15685     15693     15687     15694     15687     15695
     15696     15697     15698     15699     15696     15698     15698     15700
     15698     15701     15696     15702     15696     15703     15696     15704
     15698     15705     15698     15706     15707     15708     15709     15710
     15707     15709     15709     15711     15709     15712     15707     15713
     15707     15714     15707     15715     15709     15716     15709     15717
     15718     15719     15720     15721     15718     15720     15720     15722
     15720     15723     15718     15724     15718     15725     15718     15726
     15720     15727     15720     15728     15729     15730     15731     15732
     15729     15731     15731     15733     15731     15734     15729     15735
     15729     15736     15729     15737     15731     15738     15731     15739
     15740     15741     15742     15743     15740     15742     15742     15744
     15742     15745     15740     15746     15740     15747     15740     15748
     15742     15749     15742     15750     15751     15752     15753     15754
     15751     15753     15753     15755     15753     15756     15751     15757
     15751     15758     15751     15759     15753     15760     15753     15761
     15762     15763     15764     15765     15762     15764     15764     15766
     15764     15767     15762     15768     15762     15769     15762     15770
     15764     15771     15764     15772     15773     15774     15775     15776
     15773     15775     15775     15777     15775     15778     15773     15779
     15773     15780     15773     15781     15775     15782     15775     15783
     15784     15785     15786     15787     15784     15786     15786     15788
     15786     15789     15784     15790     15784     15791     15784     15792
     15786     15793     15786     15794     15795     15796     15797     15798
     15795     15797     15797     15799     15797     15800     15795     15801
     15795     15802     15795     15803     15797     15804     15797     15805
     15806     15807     15808     15809     15806     15808     15808     15810
     15808     15811     15806     15812     15806     15813     15806     15814
     15808     15815     15808     15816     15817     15818     15819     15820
     15817     15819     15819     15821     15819     15822     15817     15823
     15817     15824     15817     15825     15819     15826     15819     15827
     15828     15829     15830     15831     15828     15830     15830     15832
     15830     15833     15828     15834     15828     15835     15828     15836
     15830     15837     15830     15838     15839     15840     15841     15842
     15839     15841     15841     15843     15841     15844     15839     15845
     15839     15846     15839     15847     15841     15848     15841     15849
     15850     15851     15852     15853     15850     15852     15852     15854
     15852     15855     15850     15856     15850     15857     15850     15858
     15852     15859     15852     15860     15861     15862     15863     15864
     15861     15863     15863     15865     15863     15866     15861     15867
     15861     15868     15861     15869     15863     15870     15863     15871
     15872     15873     15874     15875     15872     15874     15874     15876
     15874     15877     15872     15878     15872     15879     15872     15880
     15874     15881     15874     15882     15883     15884     15885     15886
     15883     15885     15885     15887     15885     15888     15883     15889
     15883     15890     15883     15891     15885     15892     15885     15893
     15894     15895     15896     15897     15894     15896     15896     15898
     15896     15899     15894     15900     15894     15901     15894     15902
     15896     15903     15896     15904     15905     15906     15907     15908
     15905     15907     15907     15909     15907     15910     15905     15911
     15905     15912     15905     15913     15907     15914     15907     15915
     15916     15917     15918     15919     15916     15918     15918     15920
     15918     15921     15916     15922     15916     15923     15916     15924
     15918     15925     15918     15926     15927     15928     15929     15930
     15927     15929     15929     15931     15929     15932     15927     15933
     15927     15934     15927     15935     15929     15936     15929     15937
     15938     15939     15940     15941     15938     15940     15940     15942
     15940     15943     15938     15944     15938     15945     15938     15946
     15940     15947     15940     15948     15949     15950     15951     15952
     15949     15951     15951     15953     15951     15954     15949     15955
     15949     15956     15949     15957     15951     15958     15951     15959
     15960     15961     15962     15963     15960     15962     15962     15964
     15962     15965     15960     15966     15960     15967     15960     15968
     15962     15969     15962     15970     15971     15972     15973     15974
     15971     15973     15973     15975     15973     15976     15971     15977
     15971     15978     15971     15979     15973     15980     15973     15981
     15982     15983     15984     15985     15982     15984     15984     15986
     15984     15987     15982     15988     15982     15989     15982     15990
     15984     15991     15984     15992     15993     15994     15995     15996
     15993     15995     15995     15997     15995     15998     15993     15999
     15993     16000     15993     16001     15995     16002     15995     16003
     16004     16005     16006     16007     16004     16006     16006     16008
     16006     16009     16004     16010     16004     16011     16004     16012
     16006     16013     16006     16014     16015     16016     16017     16018
     16015     16017     16017     16019     16017     16020     16015     16021
     16015     16022     16015     16023     16017     16024     16017     16025
     16026     16027     16028     16029     16026     16028     16028     16030
     16028     16031     16026     16032     16026     16033     16026     16034
     16028     16035     16028     16036     16037     16038     16039     16040
     16037     16039     16039     16041     16039     16042     16037     16043
     16037     16044     16037     16045     16039     16046     16039     16047
     16048     16049     16050     16051     16048     16050     16050     16052
     16050     16053     16048     16054     16048     16055     16048     16056
     16050     16057     16050     16058     16059     16060     16061     16062
     16059     16061     16061     16063     16061     16064     16059     16065
     16059     16066     16059     16067     16061     16068     16061     16069
     16070     16071     16072     16073     16070     16072     16072     16074
     16072     16075     16070     16076     16070     16077     16070     16078
     16072     16079     16072     16080     16081     16082     16083     16084
     16081     16083     16083     16085     16083     16086     16081     16087
     16081     16088     16081     16089     16083     16090     16083     16091
     16092     16093     16094     16095     16092     16094     16094     16096
     16094     16097     16092     16098     16092     16099     16092     16100
     16094     16101     16094     16102     16103     16104     16105     16106
     16103     16105     16105     16107     16105     16108     16103     16109
     16103     16110     16103     16111     16105     16112     16105     16113
     16114     16115     16116     16117     16114     16116     16116     16118
     16116     16119     16114     16120     16114     16121     16114     16122
     16116     16123     16116     16124     16125     16126     16127     16128
     16125     16127     16127     16129     16127     16130     16125     16131
     16125     16132     16125     16133     16127     16134     16127     16135
     16136     16137     16138     16139     16136     16138     16138     16140
     16138     16141     16136     16142     16136     16143     16136     16144
     16138     16145     16138     16146     16147     16148     16149     16150
     16147     16149     16149     16151     16149     16152     16147     16153
     16147     16154     16147     16155     16149     16156     16149     16157
     16158     16159     16160     16161     16158     16160     16160     16162
     16160     16163     16158     16164     16158     16165     16158     16166
     16160     16167     16160     16168     16169     16170     16171     16172
     16169     16171     16171     16173     16171     16174     16169     16175
     16169     16176     16169     16177     16171     16178     16171     16179
     16180     16181     16182     16183     16180     16182     16182     16184
     16182     16185     16180     16186     16180     16187     16180     16188
     16182     16189     16182     16190     16191     16192     16193     16194
     16191     16193     16193     16195     16193     16196     16191     16197
     16191     16198     16191     16199     16193     16200     16193     16201
     16202     16203     16204     16205     16202     16204     16204     16206
     16204     16207     16202     16208     16202     16209     16202     16210
     16204     16211     16204     16212     16213     16214     16215     16216
     16213     16215     16215     16217     16215     16218     16213     16219
     16213     16220     16213     16221     16215     16222     16215     16223
     16224     16225     16226     16227     16224     16226     16226     16228
     16226     16229     16224     16230     16224     16231     16224     16232
     16226     16233     16226     16234     16235     16236     16237     16238
     16235     16237     16237     16239     16237     16240     16235     16241
     16235     16242     16235     16243     16237     16244     16237     16245
     16246     16247     16248     16249     16246     16248     16248     16250
     16248     16251     16246     16252     16246     16253     16246     16254
     16248     16255     16248     16256     16257     16258     16259     16260
     16257     16259     16259     16261     16259     16262     16257     16263
     16257     16264     16257     16265     16259     16266     16259     16267
     16268     16269     16270     16271     16268     16270     16270     16272
     16270     16273     16268     16274     16268     16275     16268     16276
     16270     16277     16270     16278     16279     16280     16281     16282
     16279     16281     16281     16283     16281     16284     16279     16285
     16279     16286     16279     16287     16281     16288     16281     16289
     16290     16291     16292     16293     16290     16292     16292     16294
     16292     16295     16290     16296     16290     16297     16290     16298
     16292     16299     16292     16300     16301     16302     16303     16304
     16301     16303     16303     16305     16303     16306     16301     16307
     16301     16308     16301     16309     16303     16310     16303     16311
     16312     16313     16314     16315     16312     16314     16314     16316
     16314     16317     16312     16318     16312     16319     16312     16320
     16314     16321     16314     16322     16323     16324     16325     16326
     16323     16325     16325     16327     16325     16328     16323     16329
     16323     16330     16323     16331     16325     16332     16325     16333
     16334     16335     16336     16337     16334     16336     16336     16338
     16336     16339     16334     16340     16334     16341     16334     16342
     16336     16343     16336     16344     16345     16346     16347     16348
     16345     16347     16347     16349     16347     16350     16345     16351
     16345     16352     16345     16353     16347     16354     16347     16355
     16356     16357     16358     16359     16356     16358     16358     16360
     16358     16361     16356     16362     16356     16363     16356     16364
     16358     16365     16358     16366     16367     16368     16369     16370
     16367     16369     16369     16371     16369     16372     16367     16373
     16367     16374     16367     16375     16369     16376     16369     16377
     16378     16379     16380     16381     16378     16380     16380     16382
     16380     16383     16378     16384     16378     16385     16378     16386
     16380     16387     16380     16388     16389     16390     16391     16392
     16389     16391     16391     16393     16391     16394     16389     16395
     16389     16396     16389     16397     16391     16398     16391     16399
     16400     16401     16402     16403     16400     16402     16402     16404
     16402     16405     16400     16406     16400     16407     16400     16408
     16402     16409     16402     16410     16411     16412     16413     16414
     16411     16413     16413     16415     16413     16416     16411     16417
     16411     16418     16411     16419     16413     16420     16413     16421
     16422     16423     16424     16425     16422     16424     16424     16426
     16424     16427     16422     16428     16422     16429     16422     16430
     16424     16431     16424     16432     16433     16434     16435     16436
     16433     16435     16435     16437     16435     16438     16433     16439
     16433     16440     16433     16441     16435     16442     16435     16443
     16444     16445     16446     16447     16444     16446     16446     16448
     16446     16449     16444     16450     16444     16451     16444     16452
     16446     16453     16446     16454     16455     16456     16457     16458
     16455     16457     16457     16459     16457     16460     16455     16461
     16455     16462     16455     16463     16457     16464     16457     16465
     16466     16467     16468     16469     16466     16468     16468     16470
     16468     16471     16466     16472     16466     16473     16466     16474
     16468     16475     16468     16476     16477     16478     16479     16480
     16477     16479     16479     16481     16479     16482     16477     16483
     16477     16484     16477     16485     16479     16486     16479     16487
     16488     16489     16490     16491     16488     16490     16490     16492
     16490     16493     16488     16494     16488     16495     16488     16496
     16490     16497     16490     16498     16499     16500     16501     16502
     16499     16501     16501     16503     16501     16504     16499     16505
     16499     16506     16499     16507     16501     16508     16501     16509
     16510     16511     16512     16513     16510     16512     16512     16514
     16512     16515     16510     16516     16510     16517     16510     16518
     16512     16519     16512     16520     16521     16522     16523     16524
     16521     16523     16523     16525     16523     16526     16521     16527
     16521     16528     16521     16529     16523     16530     16523     16531
     16532     16533     16534     16535     16532     16534     16534     16536
     16534     16537     16532     16538     16532     16539     16532     16540
     16534     16541     16534     16542     16543     16544     16545     16546
     16543     16545     16545     16547     16545     16548     16543     16549
     16543     16550     16543     16551     16545     16552     16545     16553
     16554     16555     16556     16557     16554     16556     16556     16558
     16556     16559     16554     16560     16554     16561     16554     16562
     16556     16563     16556     16564     16565     16566     16567     16568
     16565     16567     16567     16569     16567     16570     16565     16571
     16565     16572     16565     16573     16567     16574     16567     16575
     16576     16577     16578     16579     16576     16578     16578     16580
     16578     16581     16576     16582     16576     16583     16576     16584
     16578     16585     16578     16586     16587     16588     16589     16590
     16587     16589     16589     16591     16589     16592     16587     16593
     16587     16594     16587     16595     16589     16596     16589     16597
     16598     16599     16600     16601     16598     16600     16600     16602
     16600     16603     16598     16604     16598     16605     16598     16606
     16600     16607     16600     16608     16609     16610     16611     16612
     16609     16611     16611     16613     16611     16614     16609     16615
     16609     16616     16609     16617     16611     16618     16611     16619
     16620     16621     16622     16623     16620     16622     16622     16624
     16622     16625     16620     16626     16620     16627     16620     16628
     16622     16629     16622     16630     16631     16632     16633     16634
     16631     16633     16633     16635     16633     16636     16631     16637
     16631     16638     16631     16639     16633     16640     16633     16641
     16642     16643     16644     16645     16642     16644     16644     16646
     16644     16647     16642     16648     16642     16649     16642     16650
     16644     16651     16644     16652     16653     16654     16655     16656
     16653     16655     16655     16657     16655     16658     16653     16659
     16653     16660     16653     16661     16655     16662     16655     16663
     16664     16665     16666     16667     16664     16666     16666     16668
     16666     16669     16664     16670     16664     16671     16664     16672
     16666     16673     16666     16674     16675     16676     16677     16678
     16675     16677     16677     16679     16677     16680     16675     16681
     16675     16682     16675     16683     16677     16684     16677     16685
     16686     16687     16688     16689     16686     16688     16688     16690
     16688     16691     16686     16692     16686     16693     16686     16694
     16688     16695     16688     16696     16697     16698     16699     16700
     16697     16699     16699     16701     16699     16702     16697     16703
     16697     16704     16697     16705     16699     16706     16699     16707
     16708     16709     16710     16711     16708     16710     16710     16712
     16710     16713     16708     16714     16708     16715     16708     16716
     16710     16717     16710     16718     16719     16720     16721     16722
     16719     16721     16721     16723     16721     16724     16719     16725
     16719     16726     16719     16727     16721     16728     16721     16729
     16730     16731     16732     16733     16730     16732     16732     16734
     16732     16735     16730     16736     16730     16737     16730     16738
     16732     16739     16732     16740     16741     16742     16743     16744
     16741     16743     16743     16745     16743     16746     16741     16747
     16741     16748     16741     16749     16743     16750     16743     16751
     16752     16753     16754     16755     16752     16754     16754     16756
     16754     16757     16752     16758     16752     16759     16752     16760
     16754     16761     16754     16762     16763     16764     16765     16766
     16763     16765     16765     16767     16765     16768     16763     16769
     16763     16770     16763     16771     16765     16772     16765     16773
     16774     16775     16776     16777     16774     16776     16776     16778
     16776     16779     16774     16780     16774     16781     16774     16782
     16776     16783     16776     16784     16785     16786     16787     16788
     16785     16787     16787     16789     16787     16790     16785     16791
     16785     16792     16785     16793     16787     16794     16787     16795
     16796     16797     16798     16799     16796     16798     16798     16800
     16798     16801     16796     16802     16796     16803     16796     16804
     16798     16805     16798     16806     16807     16808     16809     16810
     16807     16809     16809     16811     16809     16812     16807     16813
     16807     16814     16807     16815     16809     16816     16809     16817
     16818     16819     16820     16821     16818     16820     16820     16822
     16820     16823     16818     16824     16818     16825     16818     16826
     16820     16827     16820     16828     16829     16830     16831     16832
     16829     16831     16831     16833     16831     16834     16829     16835
     16829     16836     16829     16837     16831     16838     16831     16839
     16840     16841     16842     16843     16840     16842     16842     16844
     16842     16845     16840     16846     16840     16847     16840     16848
     16842     16849     16842     16850     16851     16852     16853     16854
     16851     16853     16853     16855     16853     16856     16851     16857
     16851     16858     16851     16859     16853     16860     16853     16861
     16862     16863     16864     16865     16862     16864     16864     16866
     16864     16867     16862     16868     16862     16869     16862     16870
     16864     16871     16864     16872     16873     16874     16875     16876
     16873     16875     16875     16877     16875     16878     16873     16879
     16873     16880     16873     16881     16875     16882     16875     16883
     16884     16885     16886     16887     16884     16886     16886     16888
     16886     16889     16884     16890     16884     16891     16884     16892
     16886     16893     16886     16894     16895     16896     16897     16898
     16895     16897     16897     16899     16897     16900     16895     16901
     16895     16902     16895     16903     16897     16904     16897     16905
     16906     16907     16908     16909     16906     16908     16908     16910
     16908     16911     16906     16912     16906     16913     16906     16914
     16908     16915     16908     16916     16917     16918     16919     16920
     16917     16919     16919     16921     16919     16922     16917     16923
     16917     16924     16917     16925     16919     16926     16919     16927
     16928     16929     16930     16931     16928     16930     16930     16932
     16930     16933     16928     16934     16928     16935     16928     16936
     16930     16937     16930     16938     16939     16940     16941     16942
     16939     16941     16941     16943     16941     16944     16939     16945
     16939     16946     16939     16947     16941     16948     16941     16949
     16950     16951     16952     16953     16950     16952     16952     16954
     16952     16955     16950     16956     16950     16957     16950     16958
     16952     16959     16952     16960     16961     16962     16963     16964
     16961     16963     16963     16965     16963     16966     16961     16967
     16961     16968     16961     16969     16963     16970     16963     16971
     16972     16973     16974     16975     16972     16974     16974     16976
     16974     16977     16972     16978     16972     16979     16972     16980
     16974     16981     16974     16982     16983     16984     16985     16986
     16983     16985     16985     16987     16985     16988     16983     16989
     16983     16990     16983     16991     16985     16992     16985     16993
     16994     16995     16996     16997     16994     16996     16996     16998
     16996     16999     16994     17000     16994     17001     16994     17002
     16996     17003     16996     17004     17005     17006     17007     17008
     17005     17007     17007     17009     17007     17010     17005     17011
     17005     17012     17005     17013     17007     17014     17007     17015
     17016     17017     17018     17019     17016     17018     17018     17020
     17018     17021     17016     17022     17016     17023     17016     17024
     17018     17025     17018     17026     17027     17028     17029     17030
     17027     17029     17029     17031     17029     17032     17027     17033
     17027     17034     17027     17035     17029     17036     17029     17037
     17038     17039     17040     17041     17038     17040     17040     17042
     17040     17043     17038     17044     17038     17045     17038     17046
     17040     17047     17040     17048     17049     17050     17051     17052
     17049     17051     17051     17053     17051     17054     17049     17055
     17049     17056     17049     17057     17051     17058     17051     17059
     17060     17061     17062     17063     17060     17062     17062     17064
     17062     17065     17060     17066     17060     17067     17060     17068
     17062     17069     17062     17070     17071     17072     17073     17074
     17071     17073     17073     17075     17073     17076     17071     17077
     17071     17078     17071     17079     17073     17080     17073     17081
     17082     17083     17084     17085     17082     17084     17084     17086
     17084     17087     17082     17088     17082     17089     17082     17090
     17084     17091     17084     17092     17093     17094     17095     17096
     17093     17095     17095     17097     17095     17098     17093     17099
     17093     17100     17093     17101     17095     17102     17095     17103
     17104     17105     17106     17107     17104     17106     17106     17108
     17106     17109     17104     17110     17104     17111     17104     17112
     17106     17113     17106     17114     17115     17116     17117     17118
     17115     17117     17117     17119     17117     17120     17115     17121
     17115     17122     17115     17123     17117     17124     17117     17125
     17126     17127     17128     17129     17126     17128     17128     17130
     17128     17131     17126     17132     17126     17133     17126     17134
     17128     17135     17128     17136     17137     17138     17139     17140
     17137     17139     17139     17141     17139     17142     17137     17143
     17137     17144     17137     17145     17139     17146     17139     17147
     17148     17149     17150     17151     17148     17150     17150     17152
     17150     17153     17148     17154     17148     17155     17148     17156
     17150     17157     17150     17158     17159     17160     17161     17162
     17159     17161     17161     17163     17161     17164     17159     17165
     17159     17166     17159     17167     17161     17168     17161     17169
     17170     17171     17172     17173     17170     17172     17172     17174
     17172     17175     17170     17176     17170     17177     17170     17178
     17172     17179     17172     17180     17181     17182     17183     17184
     17181     17183     17183     17185     17183     17186     17181     17187
     17181     17188     17181     17189     17183     17190     17183     17191
     17192     17193     17194     17195     17192     17194     17194     17196
     17194     17197     17192     17198     17192     17199     17192     17200
     17194     17201     17194     17202     17203     17204     17205     17206
     17203     17205     17205     17207     17205     17208     17203     17209
     17203     17210     17203     17211     17205     17212     17205     17213
     17214     17215     17216     17217     17214     17216     17216     17218
     17216     17219     17214     17220     17214     17221     17214     17222
     17216     17223     17216     17224     17225     17226     17227     17228
     17225     17227     17227     17229     17227     17230     17225     17231
     17225     17232     17225     17233     17227     17234     17227     17235
     17236     17237     17238     17239     17236     17238     17238     17240
     17238     17241     17236     17242     17236     17243     17236     17244
     17238     17245     17238     17246     17247     17248     17249     17250
     17247     17249     17249     17251     17249     17252     17247     17253
     17247     17254     17247     17255     17249     17256     17249     17257
     17258     17259     17260     17261     17258     17260     17260     17262
     17260     17263     17258     17264     17258     17265     17258     17266
     17260     17267     17260     17268     17269     17270     17271     17272
     17269     17271     17271     17273     17271     17274     17269     17275
     17269     17276     17269     17277     17271     17278     17271     17279
     17280     17281     17282     17283     17280     17282     17282     17284
     17282     17285     17280     17286     17280     17287     17280     17288
     17282     17289     17282     17290     17291     17292     17293     17294
     17291     17293     17293     17295     17293     17296     17291     17297
     17291     17298     17291     17299     17293     17300     17293     17301
     17302     17303     17304     17305     17302     17304     17304     17306
     17304     17307     17302     17308     17302     17309     17302     17310
     17304     17311     17304     17312     17313     17314     17315     17316
     17313     17315     17315     17317     17315     17318     17313     17319
     17313     17320     17313     17321     17315     17322     17315     17323
     17324     17325     17326     17327     17324     17326     17326     17328
     17326     17329     17324     17330     17324     17331     17324     17332
     17326     17333     17326     17334     17335     17336     17337     17338
     17335     17337     17337     17339     17337     17340     17335     17341
     17335     17342     17335     17343     17337     17344     17337     17345
     17346     17347     17348     17349     17346     17348     17348     17350
     17348     17351     17346     17352     17346     17353     17346     17354
     17348     17355     17348     17356     17357     17358     17359     17360
     17357     17359     17359     17361     17359     17362     17357     17363
     17357     17364     17357     17365     17359     17366     17359     17367
     17368     17369     17370     17371     17368     17370     17370     17372
     17370     17373     17368     17374     17368     17375     17368     17376
     17370     17377     17370     17378     17379     17380     17381     17382
     17379     17381     17381     17383     17381     17384     17379     17385
     17379     17386     17379     17387     17381     17388     17381     17389
     17390     17391     17392     17393     17390     17392     17392     17394
     17392     17395     17390     17396     17390     17397     17390     17398
     17392     17399     17392     17400     17401     17402     17403     17404
     17401     17403     17403     17405     17403     17406     17401     17407
     17401     17408     17401     17409     17403     17410     17403     17411
     17412     17413     17414     17415     17412     17414     17414     17416
     17414     17417     17412     17418     17412     17419     17412     17420
     17414     17421     17414     17422     17423     17424     17425     17426
     17423     17425     17425     17427     17425     17428     17423     17429
     17423     17430     17423     17431     17425     17432     17425     17433
     17434     17435     17436     17437     17434     17436     17436     17438
     17436     17439     17434     17440     17434     17441     17434     17442
     17436     17443     17436     17444     17445     17446     17447     17448
     17445     17447     17447     17449     17447     17450     17445     17451
     17445     17452     17445     17453     17447     17454     17447     17455
     17456     17457     17458     17459     17456     17458     17458     17460
     17458     17461     17456     17462     17456     17463     17456     17464
     17458     17465     17458     17466     17467     17468     17469     17470
     17467     17469     17469     17471     17469     17472     17467     17473
     17467     17474     17467     17475     17469     17476     17469     17477
     17478     17479     17480     17481     17478     17480     17480     17482
     17480     17483     17478     17484     17478     17485     17478     17486
     17480     17487     17480     17488     17489     17490     17491     17492
     17489     17491     17491     17493     17491     17494     17489     17495
     17489     17496     17489     17497     17491     17498     17491     17499
     17500     17501     17502     17503     17500     17502     17502     17504
     17502     17505     17500     17506     17500     17507     17500     17508
     17502     17509     17502     17510     17511     17512     17513     17514
     17511     17513     17513     17515     17513     17516     17511     17517
     17511     17518     17511     17519     17513     17520     17513     17521
     17522     17523     17524     17525     17522     17524     17524     17526
     17524     17527     17522     17528     17522     17529     17522     17530
     17524     17531     17524     17532     17533     17534     17535     17536
     17533     17535     17535     17537     17535     17538     17533     17539
     17533     17540     17533     17541     17535     17542     17535     17543
     17544     17545     17546     17547     17544     17546     17546     17548
     17546     17549     17544     17550     17544     17551     17544     17552
     17546     17553     17546     17554     17555     17556     17557     17558
     17555     17557     17557     17559     17557     17560     17555     17561
     17555     17562     17555     17563     17557     17564     17557     17565
     17566     17567     17568     17569     17566     17568     17568     17570
     17568     17571     17566     17572     17566     17573     17566     17574
     17568     17575     17568     17576     17577     17578     17579     17580
     17577     17579     17579     17581     17579     17582     17577     17583
     17577     17584     17577     17585     17579     17586     17579     17587
     17588     17589     17590     17591     17588     17590     17590     17592
     17590     17593     17588     17594     17588     17595     17588     17596
     17590     17597     17590     17598     17599     17600     17601     17602
     17599     17601     17601     17603     17601     17604     17599     17605
     17599     17606     17599     17607     17601     17608     17601     17609
     17610     17611     17612     17613     17610     17612     17612     17614
     17612     17615     17610     17616     17610     17617     17610     17618
     17612     17619     17612     17620     17621     17622     17623     17624
     17621     17623     17623     17625     17623     17626     17621     17627
     17621     17628     17621     17629     17623     17630     17623     17631
     17632     17633     17634     17635     17632     17634     17634     17636
     17634     17637     17632     17638     17632     17639     17632     17640
     17634     17641     17634     17642     17643     17644     17645     17646
     17643     17645     17645     17647     17645     17648     17643     17649
     17643     17650     17643     17651     17645     17652     17645     17653
     17654     17655     17656     17657     17654     17656     17656     17658
     17656     17659     17654     17660     17654     17661     17654     17662
     17656     17663     17656     17664     17665     17666     17667     17668
     17665     17667     17667     17669     17667     17670     17665     17671
     17665     17672     17665     17673     17667     17674     17667     17675
     17676     17677     17678     17679     17676     17678     17678     17680
     17678     17681     17676     17682     17676     17683     17676     17684
     17678     17685     17678     17686     17687     17688     17689     17690
     17687     17689     17689     17691     17689     17692     17687     17693
     17687     17694     17687     17695     17689     17696     17689     17697
     17698     17699     17700     17701     17698     17700     17700     17702
     17700     17703     17698     17704     17698     17705     17698     17706
     17700     17707     17700     17708     17709     17710     17711     17712
     17709     17711     17711     17713     17711     17714     17709     17715
     17709     17716     17709     17717     17711     17718     17711     17719
     17720     17721     17722     17723     17720     17722     17722     17724
     17722     17725     17720     17726     17720     17727     17720     17728
     17722     17729     17722     17730     17731     17732     17733     17734
     17731     17733     17733     17735     17733     17736     17731     17737
     17731     17738     17731     17739     17733     17740     17733     17741
     17742     17743     17744     17745     17742     17744     17744     17746
     17744     17747     17742     17748     17742     17749     17742     17750
     17744     17751     17744     17752     17753     17754     17755     17756
     17753     17755     17755     17757     17755     17758     17753     17759
     17753     17760     17753     17761     17755     17762     17755     17763
     17764     17765     17766     17767     17764     17766     17766     17768
     17766     17769     17764     17770     17764     17771     17764     17772
     17766     17773     17766     17774     17775     17776     17777     17778
     17775     17777     17777     17779     17777     17780     17775     17781
     17775     17782     17775     17783     17777     17784     17777     17785
     17786     17787     17788     17789     17786     17788     17788     17790
     17788     17791     17786     17792     17786     17793     17786     17794
     17788     17795     17788     17796     17797     17798     17799     17800
     17797     17799     17799     17801     17799     17802     17797     17803
     17797     17804     17797     17805     17799     17806     17799     17807
     17808     17809     17810     17811     17808     17810     17810     17812
     17810     17813     17808     17814     17808     17815     17808     17816
     17810     17817     17810     17818     17819     17820     17821     17822
     17819     17821     17821     17823     17821     17824     17819     17825
     17819     17826     17819     17827     17821     17828     17821     17829
     17830     17831     17832     17833     17830     17832     17832     17834
     17832     17835     17830     17836     17830     17837     17830     17838
     17832     17839     17832     17840     17841     17842     17843     17844
     17841     17843     17843     17845     17843     17846     17841     17847
     17841     17848     17841     17849     17843     17850     17843     17851
     17852     17853     17854     17855     17852     17854     17854     17856
     17854     17857     17852     17858     17852     17859     17852     17860
     17854     17861     17854     17862     17863     17864     17865     17866
     17863     17865     17865     17867     17865     17868     17863     17869
     17863     17870     17863     17871     17865     17872     17865     17873
     17874     17875     17876     17877     17874     17876     17876     17878
     17876     17879     17874     17880     17874     17881     17874     17882
     17876     17883     17876     17884     17885     17886     17887     17888
     17885     17887     17887     17889     17887     17890     17885     17891
     17885     17892     17885     17893     17887     17894     17887     17895
     17896     17897     17898     17899     17896     17898     17898     17900
     17898     17901     17896     17902     17896     17903     17896     17904
     17898     17905     17898     17906     17907     17908     17909     17910
     17907     17909     17909     17911     17909     17912     17907     17913
     17907     17914     17907     17915     17909     17916     17909     17917
     17918     17919     17920     17921     17918     17920     17920     17922
     17920     17923     17918     17924     17918     17925     17918     17926
     17920     17927     17920     17928     17929     17930     17931     17932
     17929     17931     17931     17933     17931     17934     17929     17935
     17929     17936     17929     17937     17931     17938     17931     17939
     17940     17941     17942     17943     17940     17942     17942     17944
     17942     17945     17940     17946     17940     17947     17940     17948
     17942     17949     17942     17950     17951     17952     17953     17954
     17951     17953     17953     17955     17953     17956     17951     17957
     17951     17958     17951     17959     17953     17960     17953     17961
     17962     17963     17964     17965     17962     17964     17964     17966
     17964     17967     17962     17968     17962     17969     17962     17970
     17964     17971     17964     17972     17973     17974     17975     17976
     17973     17975     17975     17977     17975     17978     17973     17979
     17973     17980     17973     17981     17975     17982     17975     17983
     17984     17985     17986     17987     17984     17986     17986     17988
     17986     17989     17984     17990     17984     17991     17984     17992
     17986     17993     17986     17994     17995     17996     17997     17998
     17995     17997     17997     17999     17997     18000     17995     18001
     17995     18002     17995     18003     17997     18004     17997     18005
     18006     18007     18008     18009     18006     18008     18008     18010
     18008     18011     18006     18012     18006     18013     18006     18014
     18008     18015     18008     18016     18017     18018     18019     18020
     18017     18019     18019     18021     18019     18022     18017     18023
     18017     18024     18017     18025     18019     18026     18019     18027
     18028     18029     18030     18031     18028     18030     18030     18032
     18030     18033     18028     18034     18028     18035     18028     18036
     18030     18037     18030     18038     18039     18040     18041     18042
     18039     18041     18041     18043     18041     18044     18039     18045
     18039     18046     18039     18047     18041     18048     18041     18049
     18050     18051     18052     18053     18050     18052     18052     18054
     18052     18055     18050     18056     18050     18057     18050     18058
     18052     18059     18052     18060     18061     18062     18063     18064
     18061     18063     18063     18065     18063     18066     18061     18067
     18061     18068     18061     18069     18063     18070     18063     18071
     18072     18073     18074     18075     18072     18074     18074     18076
     18074     18077     18072     18078     18072     18079     18072     18080
     18074     18081     18074     18082     18083     18084     18085     18086
     18083     18085     18085     18087     18085     18088     18083     18089
     18083     18090     18083     18091     18085     18092     18085     18093
     18094     18095     18096     18097     18094     18096     18096     18098
     18096     18099     18094     18100     18094     18101     18094     18102
     18096     18103     18096     18104     18105     18106     18107     18108
     18105     18107     18107     18109     18107     18110     18105     18111
     18105     18112     18105     18113     18107     18114     18107     18115
     18116     18117     18118     18119     18116     18118     18118     18120
     18118     18121     18116     18122     18116     18123     18116     18124
     18118     18125     18118     18126     18127     18128     18129     18130
     18127     18129     18129     18131     18129     18132     18127     18133
     18127     18134     18127     18135     18129     18136     18129     18137
     18138     18139     18140     18141     18138     18140     18140     18142
     18140     18143     18138     18144     18138     18145     18138     18146
     18140     18147     18140     18148     18149     18150     18151     18152
     18149     18151     18151     18153     18151     18154     18149     18155
     18149     18156     18149     18157     18151     18158     18151     18159
     18160     18161     18162     18163     18160     18162     18162     18164
     18162     18165     18160     18166     18160     18167     18160     18168
     18162     18169     18162     18170     18171     18172     18173     18174
     18171     18173     18173     18175     18173     18176     18171     18177
     18171     18178     18171     18179     18173     18180     18173     18181
     18182     18183     18184     18185     18182     18184     18184     18186
     18184     18187     18182     18188     18182     18189     18182     18190
     18184     18191     18184     18192     18193     18194     18195     18196
     18193     18195     18195     18197     18195     18198     18193     18199
     18193     18200     18193     18201     18195     18202     18195     18203
     18204     18205     18206     18207     18204     18206     18206     18208
     18206     18209     18204     18210     18204     18211     18204     18212
     18206     18213     18206     18214     18215     18216     18217     18218
     18215     18217     18217     18219     18217     18220     18215     18221
     18215     18222     18215     18223     18217     18224     18217     18225
     18226     18227     18228     18229     18226     18228     18228     18230
     18228     18231     18226     18232     18226     18233     18226     18234
     18228     18235     18228     18236     18237     18238     18239     18240
     18237     18239     18239     18241     18239     18242     18237     18243
     18237     18244     18237     18245     18239     18246     18239     18247
     18248     18249     18250     18251     18248     18250     18250     18252
     18250     18253     18248     18254     18248     18255     18248     18256
     18250     18257     18250     18258     18259     18260     18261     18262
     18259     18261     18261     18263     18261     18264     18259     18265
     18259     18266     18259     18267     18261     18268     18261     18269
     18270     18271     18272     18273     18270     18272     18272     18274
     18272     18275     18270     18276     18270     18277     18270     18278
     18272     18279     18272     18280     18281     18282     18283     18284
     18281     18283     18283     18285     18283     18286     18281     18287
     18281     18288     18281     18289     18283     18290     18283     18291
     18292     18293     18294     18295     18292     18294     18294     18296
     18294     18297     18292     18298     18292     18299     18292     18300
     18294     18301     18294     18302     18303     18304     18305     18306
     18303     18305     18305     18307     18305     18308     18303     18309
     18303     18310     18303     18311     18305     18312     18305     18313
     18314     18315     18316     18317     18314     18316     18316     18318
     18316     18319     18314     18320     18314     18321     18314     18322
     18316     18323     18316     18324     18325     18326     18327     18328
     18325     18327     18327     18329     18327     18330     18325     18331
     18325     18332     18325     18333     18327     18334     18327     18335
     18336     18337     18338     18339     18336     18338     18338     18340
     18338     18341     18336     18342     18336     18343     18336     18344
     18338     18345     18338     18346     18347     18348     18349     18350
     18347     18349     18349     18351     18349     18352     18347     18353
     18347     18354     18347     18355     18349     18356     18349     18357
     18358     18359     18360     18361     18358     18360     18360     18362
     18360     18363     18358     18364     18358     18365     18358     18366
     18360     18367     18360     18368     18369     18370     18371     18372
     18369     18371     18371     18373     18371     18374     18369     18375
     18369     18376     18369     18377     18371     18378     18371     18379
     18380     18381     18382     18383     18380     18382     18382     18384
     18382     18385     18380     18386     18380     18387     18380     18388
     18382     18389     18382     18390     18391     18392     18393     18394
     18391     18393     18393     18395     18393     18396     18391     18397
     18391     18398     18391     18399     18393     18400     18393     18401
     18402     18403     18404     18405     18402     18404     18404     18406
     18404     18407     18402     18408     18402     18409     18402     18410
     18404     18411     18404     18412     18413     18414     18415     18416
     18413     18415     18415     18417     18415     18418     18413     18419
     18413     18420     18413     18421     18415     18422     18415     18423
     18424     18425     18426     18427     18424     18426     18426     18428
     18426     18429     18424     18430     18424     18431     18424     18432
     18426     18433     18426     18434     18435     18436     18437     18438
     18435     18437     18437     18439     18437     18440     18435     18441
     18435     18442     18435     18443     18437     18444     18437     18445
     18446     18447     18448     18449     18446     18448     18448     18450
     18448     18451     18446     18452     18446     18453     18446     18454
     18448     18455     18448     18456     18457     18458     18459     18460
     18457     18459     18459     18461     18459     18462     18457     18463
     18457     18464     18457     18465     18459     18466     18459     18467
     18468     18469     18470     18471     18468     18470     18470     18472
     18470     18473     18468     18474     18468     18475     18468     18476
     18470     18477     18470     18478     18479     18480     18481     18482
     18479     18481     18481     18483     18481     18484     18479     18485
     18479     18486     18479     18487     18481     18488     18481     18489
     18490     18491     18492     18493     18490     18492     18492     18494
     18492     18495     18490     18496     18490     18497     18490     18498
     18492     18499     18492     18500     18501     18502     18503     18504
     18501     18503     18503     18505     18503     18506     18501     18507
     18501     18508     18501     18509     18503     18510     18503     18511
     18512     18513     18514     18515     18512     18514     18514     18516
     18514     18517     18512     18518     18512     18519     18512     18520
     18514     18521     18514     18522     18523     18524     18525     18526
     18523     18525     18525     18527     18525     18528     18523     18529
     18523     18530     18523     18531     18525     18532     18525     18533
     18534     18535     18536     18537     18534     18536     18536     18538
     18536     18539     18534     18540     18534     18541     18534     18542
     18536     18543     18536     18544     18545     18546     18547     18548
     18545     18547     18547     18549     18547     18550     18545     18551
     18545     18552     18545     18553     18547     18554     18547     18555
     18556     18557     18558     18559     18556     18558     18558     18560
     18558     18561     18556     18562     18556     18563     18556     18564
     18558     18565     18558     18566     18567     18568     18569     18570
     18567     18569     18569     18571     18569     18572     18567     18573
     18567     18574     18567     18575     18569     18576     18569     18577
     18578     18579     18580     18581     18578     18580     18580     18582
     18580     18583     18578     18584     18578     18585     18578     18586
     18580     18587     18580     18588     18589     18590     18591     18592
     18589     18591     18591     18593     18591     18594     18589     18595
     18589     18596     18589     18597     18591     18598     18591     18599
     18600     18601     18602     18603     18600     18602     18602     18604
     18602     18605     18600     18606     18600     18607     18600     18608
     18602     18609     18602     18610     18611     18612     18613     18614
     18611     18613     18613     18615     18613     18616     18611     18617
     18611     18618     18611     18619     18613     18620     18613     18621
     18622     18623     18624     18625     18622     18624     18624     18626
     18624     18627     18622     18628     18622     18629     18622     18630
     18624     18631     18624     18632     18633     18634     18635     18636
     18633     18635     18635     18637     18635     18638     18633     18639
     18633     18640     18633     18641     18635     18642     18635     18643
     18644     18645     18646     18647     18644     18646     18646     18648
     18646     18649     18644     18650     18644     18651     18644     18652
     18646     18653     18646     18654     18655     18656     18657     18658
     18655     18657     18657     18659     18657     18660     18655     18661
     18655     18662     18655     18663     18657     18664     18657     18665
     18666     18667     18668     18669     18666     18668     18668     18670
     18668     18671     18666     18672     18666     18673     18666     18674
     18668     18675     18668     18676     18677     18678     18679     18680
     18677     18679     18679     18681     18679     18682     18677     18683
     18677     18684     18677     18685     18679     18686     18679     18687
     18688     18689     18690     18691     18688     18690     18690     18692
     18690     18693     18688     18694     18688     18695     18688     18696
     18690     18697     18690     18698     18699     18700     18701     18702
     18699     18701     18701     18703     18701     18704     18699     18705
     18699     18706     18699     18707     18701     18708     18701     18709
     18710     18711     18712     18713     18710     18712     18712     18714
     18712     18715     18710     18716     18710     18717     18710     18718
     18712     18719     18712     18720     18721     18722     18723     18724
     18721     18723     18723     18725     18723     18726     18721     18727
     18721     18728     18721     18729     18723     18730     18723     18731
     18732     18733     18734     18735     18732     18734     18734     18736
     18734     18737     18732     18738     18732     18739     18732     18740
     18734     18741     18734     18742     18743     18744     18745     18746
     18743     18745     18745     18747     18745     18748     18743     18749
     18743     18750     18743     18751     18745     18752     18745     18753
     18754     18755     18756     18757     18754     18756     18756     18758
     18756     18759     18754     18760     18754     18761     18754     18762
     18756     18763     18756     18764     18765     18766     18767     18768
     18765     18767     18767     18769     18767     18770     18765     18771
     18765     18772     18765     18773     18767     18774     18767     18775
     18776     18777     18778     18779     18776     18778     18778     18780
     18778     18781     18776     18782     18776     18783     18776     18784
     18778     18785     18778     18786     18787     18788     18789     18790
     18787     18789     18789     18791     18789     18792     18787     18793
     18787     18794     18787     18795     18789     18796     18789     18797
     18798     18799     18800     18801     18798     18800     18800     18802
     18800     18803     18798     18804     18798     18805     18798     18806
     18800     18807     18800     18808     18809     18810     18811     18812
     18809     18811     18811     18813     18811     18814     18809     18815
     18809     18816     18809     18817     18811     18818     18811     18819
     18820     18821     18822     18823     18820     18822     18822     18824
     18822     18825     18820     18826     18820     18827     18820     18828
     18822     18829     18822     18830     18831     18832     18833     18834
     18831     18833     18833     18835     18833     18836     18831     18837
     18831     18838     18831     18839     18833     18840     18833     18841
     18842     18843     18844     18845     18842     18844     18844     18846
     18844     18847     18842     18848     18842     18849     18842     18850
     18844     18851     18844     18852     18853     18854     18855     18856
     18853     18855     18855     18857     18855     18858     18853     18859
     18853     18860     18853     18861     18855     18862     18855     18863
     18864     18865     18866     18867     18864     18866     18866     18868
     18866     18869     18864     18870     18864     18871     18864     18872
     18866     18873     18866     18874     18875     18876     18877     18878
     18875     18877     18877     18879     18877     18880     18875     18881
     18875     18882     18875     18883     18877     18884     18877     18885
     18886     18887     18888     18889     18886     18888     18888     18890
     18888     18891     18886     18892     18886     18893     18886     18894
     18888     18895     18888     18896     18897     18898     18899     18900
     18897     18899     18899     18901     18899     18902     18897     18903
     18897     18904     18897     18905     18899     18906     18899     18907
     18908     18909     18910     18911     18908     18910     18910     18912
     18910     18913     18908     18914     18908     18915     18908     18916
     18910     18917     18910     18918     18919     18920     18921     18922
     18919     18921     18921     18923     18921     18924     18919     18925
     18919     18926     18919     18927     18921     18928     18921     18929
     18930     18931     18932     18933     18930     18932     18932     18934
     18932     18935     18930     18936     18930     18937     18930     18938
     18932     18939     18932     18940     18941     18942     18943     18944
     18941     18943     18943     18945     18943     18946     18941     18947
     18941     18948     18941     18949     18943     18950     18943     18951
     18952     18953     18954     18955     18952     18954     18954     18956
     18954     18957     18952     18958     18952     18959     18952     18960
     18954     18961     18954     18962     18963     18964     18965     18966
     18963     18965     18965     18967     18965     18968     18963     18969
     18963     18970     18963     18971     18965     18972     18965     18973
     18974     18975     18976     18977     18974     18976     18976     18978
     18976     18979     18974     18980     18974     18981     18974     18982
     18976     18983     18976     18984     18985     18986     18987     18988
     18985     18987     18987     18989     18987     18990     18985     18991
     18985     18992     18985     18993     18987     18994     18987     18995
     18996     18997     18998     18999     18996     18998     18998     19000
     18998     19001     18996     19002     18996     19003     18996     19004
     18998     19005     18998     19006     19007     19008     19009     19010
     19007     19009     19009     19011     19009     19012     19007     19013
     19007     19014     19007     19015     19009     19016     19009     19017
     19018     19019     19020     19021     19018     19020     19020     19022
     19020     19023     19018     19024     19018     19025     19018     19026
     19020     19027     19020     19028     19029     19030     19031     19032
     19029     19031     19031     19033     19031     19034     19029     19035
     19029     19036     19029     19037     19031     19038     19031     19039
     19040     19041     19042     19043     19040     19042     19042     19044
     19042     19045     19040     19046     19040     19047     19040     19048
     19042     19049     19042     19050     19051     19052     19053     19054
     19051     19053     19053     19055     19053     19056     19051     19057
     19051     19058     19051     19059     19053     19060     19053     19061
     19062     19063     19064     19065     19062     19064     19064     19066
     19064     19067     19062     19068     19062     19069     19062     19070
     19064     19071     19064     19072     19073     19074     19075     19076
     19073     19075     19075     19077     19075     19078     19073     19079
     19073     19080     19073     19081     19075     19082     19075     19083
     19084     19085     19086     19087     19084     19086     19086     19088
     19086     19089     19084     19090     19084     19091     19084     19092
     19086     19093     19086     19094     19095     19096     19097     19098
     19095     19097     19097     19099     19097     19100     19095     19101
     19095     19102     19095     19103     19097     19104     19097     19105
     19106     19107     19108     19109     19106     19108     19108     19110
     19108     19111     19106     19112     19106     19113     19106     19114
     19108     19115     19108     19116     19117     19118     19119     19120
     19117     19119     19119     19121     19119     19122     19117     19123
     19117     19124     19117     19125     19119     19126     19119     19127
     19128     19129     19130     19131     19128     19130     19130     19132
     19130     19133     19128     19134     19128     19135     19128     19136
     19130     19137     19130     19138     19139     19140     19141     19142
     19139     19141     19141     19143     19141     19144     19139     19145
     19139     19146     19139     19147     19141     19148     19141     19149
     19150     19151     19152     19153     19150     19152     19152     19154
     19152     19155     19150     19156     19150     19157     19150     19158
     19152     19159     19152     19160     19161     19162     19163     19164
     19161     19163     19163     19165     19163     19166     19161     19167
     19161     19168     19161     19169     19163     19170     19163     19171
     19172     19173     19174     19175     19172     19174     19174     19176
     19174     19177     19172     19178     19172     19179     19172     19180
     19174     19181     19174     19182     19183     19184     19185     19186
     19183     19185     19185     19187     19185     19188     19183     19189
     19183     19190     19183     19191     19185     19192     19185     19193
     19194     19195     19196     19197     19194     19196     19196     19198
     19196     19199     19194     19200     19194     19201     19194     19202
     19196     19203     19196     19204     19205     19206     19207     19208
     19205     19207     19207     19209     19207     19210     19205     19211
     19205     19212     19205     19213     19207     19214     19207     19215
     19216     19217     19218     19219     19216     19218     19218     19220
     19218     19221     19216     19222     19216     19223     19216     19224
     19218     19225     19218     19226     19227     19228     19229     19230
     19227     19229     19229     19231     19229     19232     19227     19233
     19227     19234     19227     19235     19229     19236     19229     19237
     19238     19239     19240     19241     19238     19240     19240     19242
     19240     19243     19238     19244     19238     19245     19238     19246
     19240     19247     19240     19248     19249     19250     19251     19252
     19249     19251     19251     19253     19251     19254     19249     19255
     19249     19256     19249     19257     19251     19258     19251     19259
     19260     19261     19262     19263     19260     19262     19262     19264
     19262     19265     19260     19266     19260     19267     19260     19268
     19262     19269     19262     19270     19271     19272     19273     19274
     19271     19273     19273     19275     19273     19276     19271     19277
     19271     19278     19271     19279     19273     19280     19273     19281
     19282     19283     19284     19285     19282     19284     19284     19286
     19284     19287     19282     19288     19282     19289     19282     19290
     19284     19291     19284     19292     19293     19294     19295     19296
     19293     19295     19295     19297     19295     19298     19293     19299
     19293     19300     19293     19301     19295     19302     19295     19303
     19304     19305     19306     19307     19304     19306     19306     19308
     19306     19309     19304     19310     19304     19311     19304     19312
     19306     19313     19306     19314     19315     19316     19317     19318
     19315     19317     19317     19319     19317     19320     19315     19321
     19315     19322     19315     19323     19317     19324     19317     19325
     19326     19327     19328     19329     19326     19328     19328     19330
     19328     19331     19326     19332     19326     19333     19326     19334
     19328     19335     19328     19336     19337     19338     19339     19340
     19337     19339     19339     19341     19339     19342     19337     19343
     19337     19344     19337     19345     19339     19346     19339     19347
     19348     19349     19350     19351     19348     19350     19350     19352
     19350     19353     19348     19354     19348     19355     19348     19356
     19350     19357     19350     19358     19359     19360     19361     19362
     19359     19361     19361     19363     19361     19364     19359     19365
     19359     19366     19359     19367     19361     19368     19361     19369
     19370     19371     19372     19373     19370     19372     19372     19374
     19372     19375     19370     19376     19370     19377     19370     19378
     19372     19379     19372     19380     19381     19382     19383     19384
     19381     19383     19383     19385     19383     19386     19381     19387
     19381     19388     19381     19389     19383     19390     19383     19391
     19392     19393     19394     19395     19392     19394     19394     19396
     19394     19397     19392     19398     19392     19399     19392     19400
     19394     19401     19394     19402     19403     19404     19405     19406
     19403     19405     19405     19407     19405     19408     19403     19409
     19403     19410     19403     19411     19405     19412     19405     19413
     19414     19415     19416     19417     19414     19416     19416     19418
     19416     19419     19414     19420     19414     19421     19414     19422
     19416     19423     19416     19424     19425     19426     19427     19428
     19425     19427     19427     19429     19427     19430     19425     19431
     19425     19432     19425     19433     19427     19434     19427     19435
     19436     19437     19438     19439     19436     19438     19438     19440
     19438     19441     19436     19442     19436     19443     19436     19444
     19438     19445     19438     19446     19447     19448     19449     19450
     19447     19449     19449     19451     19449     19452     19447     19453
     19447     19454     19447     19455     19449     19456     19449     19457
     19458     19459     19460     19461     19458     19460     19460     19462
     19460     19463     19458     19464     19458     19465     19458     19466
     19460     19467     19460     19468     19469     19470     19471     19472
     19469     19471     19471     19473     19471     19474     19469     19475
     19469     19476     19469     19477     19471     19478     19471     19479
     19480     19481     19482     19483     19480     19482     19482     19484
     19482     19485     19480     19486     19480     19487     19480     19488
     19482     19489     19482     19490     19491     19492     19493     19494
     19491     19493     19493     19495     19493     19496     19491     19497
     19491     19498     19491     19499     19493     19500     19493     19501
     19502     19503     19504     19505     19502     19504     19504     19506
     19504     19507     19502     19508     19502     19509     19502     19510
     19504     19511     19504     19512     19513     19514     19515     19516
     19513     19515     19515     19517     19515     19518     19513     19519
     19513     19520     19513     19521     19515     19522     19515     19523
     19524     19525     19526     19527     19524     19526     19526     19528
     19526     19529     19524     19530     19524     19531     19524     19532
     19526     19533     19526     19534     19535     19536     19537     19538
     19535     19537     19537     19539     19537     19540     19535     19541
     19535     19542     19535     19543     19537     19544     19537     19545
     19546     19547     19548     19549     19546     19548     19548     19550
     19548     19551     19546     19552     19546     19553     19546     19554
     19548     19555     19548     19556     19557     19558     19559     19560
     19557     19559     19559     19561     19559     19562     19557     19563
     19557     19564     19557     19565     19559     19566     19559     19567
     19568     19569     19570     19571     19568     19570     19570     19572
     19570     19573     19568     19574     19568     19575     19568     19576
     19570     19577     19570     19578     19579     19580     19581     19582
     19579     19581     19581     19583     19581     19584     19579     19585
     19579     19586     19579     19587     19581     19588     19581     19589
     19590     19591     19592     19593     19590     19592     19592     19594
     19592     19595     19590     19596     19590     19597     19590     19598
     19592     19599     19592     19600     19601     19602     19603     19604
     19601     19603     19603     19605     19603     19606     19601     19607
     19601     19608     19601     19609     19603     19610     19603     19611
     19612     19613     19614     19615     19612     19614     19614     19616
     19614     19617     19612     19618     19612     19619     19612     19620
     19614     19621     19614     19622     19623     19624     19625     19626
     19623     19625     19625     19627     19625     19628     19623     19629
     19623     19630     19623     19631     19625     19632     19625     19633
     19634     19635     19636     19637     19634     19636     19636     19638
     19636     19639     19634     19640     19634     19641     19634     19642
     19636     19643     19636     19644     19645     19646     19647     19648
     19645     19647     19647     19649     19647     19650     19645     19651
     19645     19652     19645     19653     19647     19654     19647     19655
     19656     19657     19658     19659     19656     19658     19658     19660
     19658     19661     19656     19662     19656     19663     19656     19664
     19658     19665     19658     19666     19667     19668     19669     19670
     19667     19669     19669     19671     19669     19672     19667     19673
     19667     19674     19667     19675     19669     19676     19669     19677
     19678     19679     19680     19681     19678     19680     19680     19682
     19680     19683     19678     19684     19678     19685     19678     19686
     19680     19687     19680     19688     19689     19690     19691     19692
     19689     19691     19691     19693     19691     19694     19689     19695
     19689     19696     19689     19697     19691     19698     19691     19699
     19700     19701     19702     19703     19700     19702     19702     19704
     19702     19705     19700     19706     19700     19707     19700     19708
     19702     19709     19702     19710     19711     19712     19713     19714
     19711     19713     19713     19715     19713     19716     19711     19717
     19711     19718     19711     19719     19713     19720     19713     19721
     19722     19723     19724     19725     19722     19724     19724     19726
     19724     19727     19722     19728     19722     19729     19722     19730
     19724     19731     19724     19732     19733     19734     19735     19736
     19733     19735     19735     19737     19735     19738     19733     19739
     19733     19740     19733     19741     19735     19742     19735     19743
     19744     19745     19746     19747     19744     19746     19746     19748
     19746     19749     19744     19750     19744     19751     19744     19752
     19746     19753     19746     19754     19755     19756     19757     19758
     19755     19757     19757     19759     19757     19760     19755     19761
     19755     19762     19755     19763     19757     19764     19757     19765
     19766     19767     19768     19769     19766     19768     19768     19770
     19768     19771     19766     19772     19766     19773     19766     19774
     19768     19775     19768     19776     19777     19778     19779     19780
     19777     19779     19779     19781     19779     19782     19777     19783
     19777     19784     19777     19785     19779     19786     19779     19787
     19788     19789     19790     19791     19788     19790     19790     19792
     19790     19793     19788     19794     19788     19795     19788     19796
     19790     19797     19790     19798     19799     19800     19801     19802
     19799     19801     19801     19803     19801     19804     19799     19805
     19799     19806     19799     19807     19801     19808     19801     19809
     19810     19811     19812     19813     19810     19812     19812     19814
     19812     19815     19810     19816     19810     19817     19810     19818
     19812     19819     19812     19820     19821     19822     19823     19824
     19821     19823     19823     19825     19823     19826     19821     19827
     19821     19828     19821     19829     19823     19830     19823     19831
     19832     19833     19834     19835     19832     19834     19834     19836
     19834     19837     19832     19838     19832     19839     19832     19840
     19834     19841     19834     19842     19843     19844     19845     19846
     19843     19845     19845     19847     19845     19848     19843     19849
     19843     19850     19843     19851     19845     19852     19845     19853
     19854     19855     19856     19857     19854     19856     19856     19858
     19856     19859     19854     19860     19854     19861     19854     19862
     19856     19863     19856     19864     19865     19866     19867     19868
     19865     19867     19867     19869     19867     19870     19865     19871
     19865     19872     19865     19873     19867     19874     19867     19875
     19876     19877     19878     19879     19876     19878     19878     19880
     19878     19881     19876     19882     19876     19883     19876     19884
     19878     19885     19878     19886     19887     19888     19889     19890
     19887     19889     19889     19891     19889     19892     19887     19893
     19887     19894     19887     19895     19889     19896     19889     19897
     19898     19899     19900     19901     19898     19900     19900     19902
     19900     19903     19898     19904     19898     19905     19898     19906
     19900     19907     19900     19908     19909     19910     19911     19912
     19909     19911     19911     19913     19911     19914     19909     19915
     19909     19916     19909     19917     19911     19918     19911     19919
     19920     19921     19922     19923     19920     19922     19922     19924
     19922     19925     19920     19926     19920     19927     19920     19928
     19922     19929     19922     19930     19931     19932     19933     19934
     19931     19933     19933     19935     19933     19936     19931     19937
     19931     19938     19931     19939     19933     19940     19933     19941
     19942     19943     19944     19945     19942     19944     19944     19946
     19944     19947     19942     19948     19942     19949     19942     19950
     19944     19951     19944     19952     19953     19954     19955     19956
     19953     19955     19955     19957     19955     19958     19953     19959
     19953     19960     19953     19961     19955     19962     19955     19963
     19964     19965     19966     19967     19964     19966     19966     19968
     19966     19969     19964     19970     19964     19971     19964     19972
     19966     19973     19966     19974     19975     19976     19977     19978
     19975     19977     19977     19979     19977     19980     19975     19981
     19975     19982     19975     19983     19977     19984     19977     19985
     19986     19987     19988     19989     19986     19988     19988     19990
     19988     19991     19986     19992     19986     19993     19986     19994
     19988     19995     19988     19996     19997     19998     19999     20000
     19997     19999     19999     20001     19999     20002     19997     20003
     19997     20004     19997     20005     19999     20006     19999     20007
     20008     20009     20010     20011     20008     20010     20010     20012
     20010     20013     20008     20014     20008     20015     20008     20016
     20010     20017     20010     20018     20019     20020     20021     20022
     20019     20021     20021     20023     20021     20024     20019     20025
     20019     20026     20019     20027     20021     20028     20021     20029
     20030     20031     20032     20033     20030     20032     20032     20034
     20032     20035     20030     20036     20030     20037     20030     20038
     20032     20039     20032     20040     20041     20042     20043     20044
     20041     20043     20043     20045     20043     20046     20041     20047
     20041     20048     20041     20049     20043     20050     20043     20051
     20052     20053     20054     20055     20052     20054     20054     20056
     20054     20057     20052     20058     20052     20059     20052     20060
     20054     20061     20054     20062     20063     20064     20065     20066
     20063     20065     20065     20067     20065     20068     20063     20069
     20063     20070     20063     20071     20065     20072     20065     20073
     20074     20075     20076     20077     20074     20076     20076     20078
     20076     20079     20074     20080     20074     20081     20074     20082
     20076     20083     20076     20084     20085     20086     20087     20088
     20085     20087     20087     20089     20087     20090     20085     20091
     20085     20092     20085     20093     20087     20094     20087     20095
     20096     20097     20098     20099     20096     20098     20098     20100
     20098     20101     20096     20102     20096     20103     20096     20104
     20098     20105     20098     20106     20107     20108     20109     20110
     20107     20109     20109     20111     20109     20112     20107     20113
     20107     20114     20107     20115     20109     20116     20109     20117
     20118     20119     20120     20121     20118     20120     20120     20122
     20120     20123     20118     20124     20118     20125     20118     20126
     20120     20127     20120     20128     20129     20130     20131     20132
     20129     20131     20131     20133     20131     20134     20129     20135
     20129     20136     20129     20137     20131     20138     20131     20139
     20140     20141     20142     20143     20140     20142     20142     20144
     20142     20145     20140     20146     20140     20147     20140     20148
     20142     20149     20142     20150     20151     20152     20153     20154
     20151     20153     20153     20155     20153     20156     20151     20157
     20151     20158     20151     20159     20153     20160     20153     20161
     20162     20163     20164     20165     20162     20164     20164     20166
     20164     20167     20162     20168     20162     20169     20162     20170
     20164     20171     20164     20172     20173     20174     20175     20176
     20173     20175     20175     20177     20175     20178     20173     20179
     20173     20180     20173     20181     20175     20182     20175     20183
     20184     20185     20186     20187     20184     20186     20186     20188
     20186     20189     20184     20190     20184     20191     20184     20192
     20186     20193     20186     20194     20195     20196     20197     20198
     20195     20197     20197     20199     20197     20200     20195     20201
     20195     20202     20195     20203     20197     20204     20197     20205
     20206     20207     20208     20209     20206     20208     20208     20210
     20208     20211     20206     20212     20206     20213     20206     20214
     20208     20215     20208     20216     20217     20218     20219     20220
     20217     20219     20219     20221     20219     20222     20217     20223
     20217     20224     20217     20225     20219     20226     20219     20227
     20228     20229     20230     20231     20228     20230     20230     20232
     20230     20233     20228     20234     20228     20235     20228     20236
     20230     20237     20230     20238     20239     20240     20241     20242
     20239     20241     20241     20243     20241     20244     20239     20245
     20239     20246     20239     20247     20241     20248     20241     20249
     20250     20251     20252     20253     20250     20252     20252     20254
     20252     20255     20250     20256     20250     20257     20250     20258
     20252     20259     20252     20260     20261     20262     20263     20264
     20261     20263     20263     20265     20263     20266     20261     20267
     20261     20268     20261     20269     20263     20270     20263     20271
     20272     20273     20274     20275     20272     20274     20274     20276
     20274     20277     20272     20278     20272     20279     20272     20280
     20274     20281     20274     20282     20283     20284     20285     20286
     20283     20285     20285     20287     20285     20288     20283     20289
     20283     20290     20283     20291     20285     20292     20285     20293
     20294     20295     20296     20297     20294     20296     20296     20298
     20296     20299     20294     20300     20294     20301     20294     20302
     20296     20303     20296     20304     20305     20306     20307     20308
     20305     20307     20307     20309     20307     20310     20305     20311
     20305     20312     20305     20313     20307     20314     20307     20315
     20316     20317     20318     20319     20316     20318     20318     20320
     20318     20321     20316     20322     20316     20323     20316     20324
     20318     20325     20318     20326     20327     20328     20329     20330
     20327     20329     20329     20331     20329     20332     20327     20333
     20327     20334     20327     20335     20329     20336     20329     20337
     20338     20339     20340     20341     20338     20340     20340     20342
     20340     20343     20338     20344     20338     20345     20338     20346
     20340     20347     20340     20348     20349     20350     20351     20352
     20349     20351     20351     20353     20351     20354     20349     20355
     20349     20356     20349     20357     20351     20358     20351     20359
     20360     20361     20362     20363     20360     20362     20362     20364
     20362     20365     20360     20366     20360     20367     20360     20368
     20362     20369     20362     20370     20371     20372     20373     20374
     20371     20373     20373     20375     20373     20376     20371     20377
     20371     20378     20371     20379     20373     20380     20373     20381
     20382     20383     20384     20385     20382     20384     20384     20386
     20384     20387     20382     20388     20382     20389     20382     20390
     20384     20391     20384     20392     20393     20394     20395     20396
     20393     20395     20395     20397     20395     20398     20393     20399
     20393     20400     20393     20401     20395     20402     20395     20403
     20404     20405     20406     20407     20404     20406     20406     20408
     20406     20409     20404     20410     20404     20411     20404     20412
     20406     20413     20406     20414     20415     20416     20417     20418
     20415     20417     20417     20419     20417     20420     20415     20421
     20415     20422     20415     20423     20417     20424     20417     20425
     20426     20427     20428     20429     20426     20428     20428     20430
     20428     20431     20426     20432     20426     20433     20426     20434
     20428     20435     20428     20436     20437     20438     20439     20440
     20437     20439     20439     20441     20439     20442     20437     20443
     20437     20444     20437     20445     20439     20446     20439     20447
     20448     20449     20450     20451     20448     20450     20450     20452
     20450     20453     20448     20454     20448     20455     20448     20456
     20450     20457     20450     20458     20459     20460     20461     20462
     20459     20461     20461     20463     20461     20464     20459     20465
     20459     20466     20459     20467     20461     20468     20461     20469
     20470     20471     20472     20473     20470     20472     20472     20474
     20472     20475     20470     20476     20470     20477     20470     20478
     20472     20479     20472     20480     20481     20482     20483     20484
     20481     20483     20483     20485     20483     20486     20481     20487
     20481     20488     20481     20489     20483     20490     20483     20491
     20492     20493     20494     20495     20492     20494     20494     20496
     20494     20497     20492     20498     20492     20499     20492     20500
     20494     20501     20494     20502     20503     20504     20505     20506
     20503     20505     20505     20507     20505     20508     20503     20509
     20503     20510     20503     20511     20505     20512     20505     20513
     20514     20515     20516     20517     20514     20516     20516     20518
     20516     20519     20514     20520     20514     20521     20514     20522
     20516     20523     20516     20524     20525     20526     20527     20528
     20525     20527     20527     20529     20527     20530     20525     20531
     20525     20532     20525     20533     20527     20534     20527     20535
     20536     20537     20538     20539     20536     20538     20538     20540
     20538     20541     20536     20542     20536     20543     20536     20544
     20538     20545     20538     20546     20547     20548     20549     20550
     20547     20549     20549     20551     20549     20552     20547     20553
     20547     20554     20547     20555     20549     20556     20549     20557
     20558     20559     20560     20561     20558     20560     20560     20562
     20560     20563     20558     20564     20558     20565     20558     20566
     20560     20567     20560     20568     20569     20570     20571     20572
     20569     20571     20571     20573     20571     20574     20569     20575
     20569     20576     20569     20577     20571     20578     20571     20579
     20580     20581     20582     20583     20580     20582     20582     20584
     20582     20585     20580     20586     20580     20587     20580     20588
     20582     20589     20582     20590     20591     20592     20593     20594
     20591     20593     20593     20595     20593     20596     20591     20597
     20591     20598     20591     20599     20593     20600     20593     20601
     20602     20603     20604     20605     20602     20604     20604     20606
     20604     20607     20602     20608     20602     20609     20602     20610
     20604     20611     20604     20612     20613     20614     20615     20616
     20613     20615     20615     20617     20615     20618     20613     20619
     20613     20620     20613     20621     20615     20622     20615     20623
     20624     20625     20626     20627     20624     20626     20626     20628
     20626     20629     20624     20630     20624     20631     20624     20632
     20626     20633     20626     20634     20635     20636     20637     20638
     20635     20637     20637     20639     20637     20640     20635     20641
     20635     20642     20635     20643     20637     20644     20637     20645
     20646     20647     20648     20649     20646     20648     20648     20650
     20648     20651     20646     20652     20646     20653     20646     20654
     20648     20655     20648     20656     20657     20658     20659     20660
     20657     20659     20659     20661     20659     20662     20657     20663
     20657     20664     20657     20665     20659     20666     20659     20667
     20668     20669     20670     20671     20668     20670     20670     20672
     20670     20673     20668     20674     20668     20675     20668     20676
     20670     20677     20670     20678     20679     20680     20681     20682
     20679     20681     20681     20683     20681     20684     20679     20685
     20679     20686     20679     20687     20681     20688     20681     20689
     20690     20691     20692     20693     20690     20692     20692     20694
     20692     20695     20690     20696     20690     20697     20690     20698
     20692     20699     20692     20700     20701     20702     20703     20704
     20701     20703     20703     20705     20703     20706     20701     20707
     20701     20708     20701     20709     20703     20710     20703     20711
     20712     20713     20714     20715     20712     20714     20714     20716
     20714     20717     20712     20718     20712     20719     20712     20720
     20714     20721     20714     20722     20723     20724     20725     20726
     20723     20725     20725     20727     20725     20728     20723     20729
     20723     20730     20723     20731     20725     20732     20725     20733
     20734     20735     20736     20737     20734     20736     20736     20738
     20736     20739     20734     20740     20734     20741     20734     20742
     20736     20743     20736     20744     20745     20746     20747     20748
     20745     20747     20747     20749     20747     20750     20745     20751
     20745     20752     20745     20753     20747     20754     20747     20755
     20756     20757     20758     20759     20756     20758     20758     20760
     20758     20761     20756     20762     20756     20763     20756     20764
     20758     20765     20758     20766     20767     20768     20769     20770
     20767     20769     20769     20771     20769     20772     20767     20773
     20767     20774     20767     20775     20769     20776     20769     20777
     20778     20779     20780     20781     20778     20780     20780     20782
     20780     20783     20778     20784     20778     20785     20778     20786
     20780     20787     20780     20788     20789     20790     20791     20792
     20789     20791     20791     20793     20791     20794     20789     20795
     20789     20796     20789     20797     20791     20798     20791     20799
     20800     20801     20802     20803     20800     20802     20802     20804
     20802     20805     20800     20806     20800     20807     20800     20808
     20802     20809     20802     20810     20811     20812     20813     20814
     20811     20813     20813     20815     20813     20816     20811     20817
     20811     20818     20811     20819     20813     20820     20813     20821
     20822     20823     20824     20825     20822     20824     20824     20826
     20824     20827     20822     20828     20822     20829     20822     20830
     20824     20831     20824     20832     20833     20834     20835     20836
     20833     20835     20835     20837     20835     20838     20833     20839
     20833     20840     20833     20841     20835     20842     20835     20843
     20844     20845     20846     20847     20844     20846     20846     20848
     20846     20849     20844     20850     20844     20851     20844     20852
     20846     20853     20846     20854     20855     20856     20857     20858
     20855     20857     20857     20859     20857     20860     20855     20861
     20855     20862     20855     20863     20857     20864     20857     20865
     20866     20867     20868     20869     20866     20868     20868     20870
     20868     20871     20866     20872     20866     20873     20866     20874
     20868     20875     20868     20876     20877     20878     20879     20880
     20877     20879     20879     20881     20879     20882     20877     20883
     20877     20884     20877     20885     20879     20886     20879     20887
     20888     20889     20890     20891     20888     20890     20890     20892
     20890     20893     20888     20894     20888     20895     20888     20896
     20890     20897     20890     20898     20899     20900     20901     20902
     20899     20901     20901     20903     20901     20904     20899     20905
     20899     20906     20899     20907     20901     20908     20901     20909
     20910     20911     20912     20913     20910     20912     20912     20914
     20912     20915     20910     20916     20910     20917     20910     20918
     20912     20919     20912     20920     20921     20922     20923     20924
     20921     20923     20923     20925     20923     20926     20921     20927
     20921     20928     20921     20929     20923     20930     20923     20931
     20932     20933     20934     20935     20932     20934     20934     20936
     20934     20937     20932     20938     20932     20939     20932     20940
     20934     20941     20934     20942     20943     20944     20945     20946
     20943     20945     20945     20947     20945     20948     20943     20949
     20943     20950     20943     20951     20945     20952     20945     20953
     20954     20955     20956     20957     20954     20956     20956     20958
     20956     20959     20954     20960     20954     20961     20954     20962
     20956     20963     20956     20964     20965     20966     20967     20968
     20965     20967     20967     20969     20967     20970     20965     20971
     20965     20972     20965     20973     20967     20974     20967     20975
     20976     20977     20978     20979     20976     20978     20978     20980
     20978     20981     20976     20982     20976     20983     20976     20984
     20978     20985     20978     20986     20987     20988     20989     20990
     20987     20989     20989     20991     20989     20992     20987     20993
     20987     20994     20987     20995     20989     20996     20989     20997
     20998     20999     21000     21001     20998     21000     21000     21002
     21000     21003     20998     21004     20998     21005     20998     21006
     21000     21007     21000     21008     21009     21010     21011     21012
     21009     21011     21011     21013     21011     21014     21009     21015
     21009     21016     21009     21017     21011     21018     21011     21019
     21020     21021     21022     21023     21020     21022     21022     21024
     21022     21025     21020     21026     21020     21027     21020     21028
     21022     21029     21022     21030     21031     21032     21033     21034
     21031     21033     21033     21035     21033     21036     21031     21037
     21031     21038     21031     21039     21033     21040     21033     21041
     21042     21043     21044     21045     21042     21044     21044     21046
     21044     21047     21042     21048     21042     21049     21042     21050
     21044     21051     21044     21052     21053     21054     21055     21056
     21053     21055     21055     21057     21055     21058     21053     21059
     21053     21060     21053     21061     21055     21062     21055     21063
     21064     21065     21066     21067     21064     21066     21066     21068
     21066     21069     21064     21070     21064     21071     21064     21072
     21066     21073     21066     21074     21075     21076     21077     21078
     21075     21077     21077     21079     21077     21080     21075     21081
     21075     21082     21075     21083     21077     21084     21077     21085
     21086     21087     21088     21089     21086     21088     21088     21090
     21088     21091     21086     21092     21086     21093     21086     21094
     21088     21095     21088     21096     21097     21098     21099     21100
     21097     21099     21099     21101     21099     21102     21097     21103
     21097     21104     21097     21105     21099     21106     21099     21107
     21108     21109     21110     21111     21108     21110     21110     21112
     21110     21113     21108     21114     21108     21115     21108     21116
     21110     21117     21110     21118     21119     21120     21121     21122
     21119     21121     21121     21123     21121     21124     21119     21125
     21119     21126     21119     21127     21121     21128     21121     21129
     21130     21131     21132     21133     21130     21132     21132     21134
     21132     21135     21130     21136     21130     21137     21130     21138
     21132     21139     21132     21140     21141     21142     21143     21144
     21141     21143     21143     21145     21143     21146     21141     21147
     21141     21148     21141     21149     21143     21150     21143     21151
     21152     21153     21154     21155     21152     21154     21154     21156
     21154     21157     21152     21158     21152     21159     21152     21160
     21154     21161     21154     21162     21163     21164     21165     21166
     21163     21165     21165     21167     21165     21168     21163     21169
     21163     21170     21163     21171     21165     21172     21165     21173
     21174     21175     21176     21177     21174     21176     21176     21178
     21176     21179     21174     21180     21174     21181     21174     21182
     21176     21183     21176     21184     21185     21186     21187     21188
     21185     21187     21187     21189     21187     21190     21185     21191
     21185     21192     21185     21193     21187     21194     21187     21195
     21196     21197     21198     21199     21196     21198     21198     21200
     21198     21201     21196     21202     21196     21203     21196     21204
     21198     21205     21198     21206     21207     21208     21209     21210
     21207     21209     21209     21211     21209     21212     21207     21213
     21207     21214     21207     21215     21209     21216     21209     21217
     21218     21219     21220     21221     21218     21220     21220     21222
     21220     21223     21218     21224     21218     21225     21218     21226
     21220     21227     21220     21228     21229     21230     21231     21232
     21229     21231     21231     21233     21231     21234     21229     21235
     21229     21236     21229     21237     21231     21238     21231     21239
     21240     21241     21242     21243     21240     21242     21242     21244
     21242     21245     21240     21246     21240     21247     21240     21248
     21242     21249     21242     21250     21251     21252     21253     21254
     21251     21253     21253     21255     21253     21256     21251     21257
     21251     21258     21251     21259     21253     21260     21253     21261
     21262     21263     21264     21265     21262     21264     21264     21266
     21264     21267     21262     21268     21262     21269     21262     21270
     21264     21271     21264     21272     21273     21274     21275     21276
     21273     21275     21275     21277     21275     21278     21273     21279
     21273     21280     21273     21281     21275     21282     21275     21283
     21284     21285     21286     21287     21284     21286     21286     21288
     21286     21289     21284     21290     21284     21291     21284     21292
     21286     21293     21286     21294     21295     21296     21297     21298
     21295     21297     21297     21299     21297     21300     21295     21301
     21295     21302     21295     21303     21297     21304     21297     21305
     21306     21307     21308     21309     21306     21308     21308     21310
     21308     21311     21306     21312     21306     21313     21306     21314
     21308     21315     21308     21316     21317     21318     21319     21320
     21317     21319     21319     21321     21319     21322     21317     21323
     21317     21324     21317     21325     21319     21326     21319     21327
     21328     21329     21330     21331     21328     21330     21330     21332
     21330     21333     21328     21334     21328     21335     21328     21336
     21330     21337     21330     21338     21339     21340     21341     21342
     21339     21341     21341     21343     21341     21344     21339     21345
     21339     21346     21339     21347     21341     21348     21341     21349
     21350     21351     21352     21353     21350     21352     21352     21354
     21352     21355     21350     21356     21350     21357     21350     21358
     21352     21359     21352     21360     21361     21362     21363     21364
     21361     21363     21363     21365     21363     21366     21361     21367
     21361     21368     21361     21369     21363     21370     21363     21371
     21372     21373     21374     21375     21372     21374     21374     21376
     21374     21377     21372     21378     21372     21379     21372     21380
     21374     21381     21374     21382     21383     21384     21385     21386
     21383     21385     21385     21387     21385     21388     21383     21389
     21383     21390     21383     21391     21385     21392     21385     21393
     21394     21395     21396     21397     21394     21396     21396     21398
     21396     21399     21394     21400     21394     21401     21394     21402
     21396     21403     21396     21404     21405     21406     21407     21408
     21405     21407     21407     21409     21407     21410     21405     21411
     21405     21412     21405     21413     21407     21414     21407     21415
     21416     21417     21418     21419     21416     21418     21418     21420
     21418     21421     21416     21422     21416     21423     21416     21424
     21418     21425     21418     21426     21427     21428     21429     21430
     21427     21429     21429     21431     21429     21432     21427     21433
     21427     21434     21427     21435     21429     21436     21429     21437
     21438     21439     21440     21441     21438     21440     21440     21442
     21440     21443     21438     21444     21438     21445     21438     21446
     21440     21447     21440     21448     21449     21450     21451     21452
     21449     21451     21451     21453     21451     21454     21449     21455
     21449     21456     21449     21457     21451     21458     21451     21459
     21460     21461     21462     21463     21460     21462     21462     21464
     21462     21465     21460     21466     21460     21467     21460     21468
     21462     21469     21462     21470     21471     21472     21473     21474
     21471     21473     21473     21475     21473     21476     21471     21477
     21471     21478     21471     21479     21473     21480     21473     21481
     21482     21483     21484     21485     21482     21484     21484     21486
     21484     21487     21482     21488     21482     21489     21482     21490
     21484     21491     21484     21492     21493     21494     21495     21496
     21493     21495     21495     21497     21495     21498     21493     21499
     21493     21500     21493     21501     21495     21502     21495     21503
     21504     21505     21506     21507     21504     21506     21506     21508
     21506     21509     21504     21510     21504     21511     21504     21512
     21506     21513     21506     21514     21515     21516     21517     21518
     21515     21517     21517     21519     21517     21520     21515     21521
     21515     21522     21515     21523     21517     21524     21517     21525
     21526     21527     21528     21529     21526     21528     21528     21530
     21528     21531     21526     21532     21526     21533     21526     21534
     21528     21535     21528     21536     21537     21538     21539     21540
     21537     21539     21539     21541     21539     21542     21537     21543
     21537     21544     21537     21545     21539     21546     21539     21547
     21548     21549     21550     21551     21548     21550     21550     21552
     21550     21553     21548     21554     21548     21555     21548     21556
     21550     21557     21550     21558     21559     21560     21561     21562
     21559     21561     21561     21563     21561     21564     21559     21565
     21559     21566     21559     21567     21561     21568     21561     21569
     21570     21571     21572     21573     21570     21572     21572     21574
     21572     21575     21570     21576     21570     21577     21570     21578
     21572     21579     21572     21580     21581     21582     21583     21584
     21581     21583     21583     21585     21583     21586     21581     21587
     21581     21588     21581     21589     21583     21590     21583     21591
     21592     21593     21594     21595     21592     21594     21594     21596
     21594     21597     21592     21598     21592     21599     21592     21600
     21594     21601     21594     21602     21603     21604     21605     21606
     21603     21605     21605     21607     21605     21608     21603     21609
     21603     21610     21603     21611     21605     21612     21605     21613
     21614     21615     21616     21617     21614     21616     21616     21618
     21616     21619     21614     21620     21614     21621     21614     21622
     21616     21623     21616     21624     21625     21626     21627     21628
     21625     21627     21627     21629     21627     21630     21625     21631
     21625     21632     21625     21633     21627     21634     21627     21635
     21636     21637     21638     21639     21636     21638     21638     21640
     21638     21641     21636     21642     21636     21643     21636     21644
     21638     21645     21638     21646     21647     21648     21649     21650
     21647     21649     21649     21651     21649     21652     21647     21653
     21647     21654     21647     21655     21649     21656     21649     21657
     21658     21659     21660     21661     21658     21660     21660     21662
     21660     21663     21658     21664     21658     21665     21658     21666
     21660     21667     21660     21668     21669     21670     21671     21672
     21669     21671     21671     21673     21671     21674     21669     21675
     21669     21676     21669     21677     21671     21678     21671     21679
     21680     21681     21682     21683     21680     21682     21682     21684
     21682     21685     21680     21686     21680     21687     21680     21688
     21682     21689     21682     21690     21691     21692     21693     21694
     21691     21693     21693     21695     21693     21696     21691     21697
     21691     21698     21691     21699     21693     21700     21693     21701
     21702     21703     21704     21705     21702     21704     21704     21706
     21704     21707     21702     21708     21702     21709     21702     21710
     21704     21711     21704     21712     21713     21714     21715     21716
     21713     21715     21715     21717     21715     21718     21713     21719
     21713     21720     21713     21721     21715     21722     21715     21723
     21724     21725     21726     21727     21724     21726     21726     21728
     21726     21729     21724     21730     21724     21731     21724     21732
     21726     21733     21726     21734     21735     21736     21737     21738
     21735     21737     21737     21739     21737     21740     21735     21741
     21735     21742     21735     21743     21737     21744     21737     21745
     21746     21747     21748     21749     21746     21748     21748     21750
     21748     21751     21746     21752     21746     21753     21746     21754
     21748     21755     21748     21756     21757     21758     21759     21760
     21757     21759     21759     21761     21759     21762     21757     21763
     21757     21764     21757     21765     21759     21766     21759     21767
     21768     21769     21770     21771     21768     21770     21770     21772
     21770     21773     21768     21774     21768     21775     21768     21776
     21770     21777     21770     21778     21779     21780     21781     21782
     21779     21781     21781     21783     21781     21784     21779     21785
     21779     21786     21779     21787     21781     21788     21781     21789
     21790     21791     21792     21793     21790     21792     21792     21794
     21792     21795     21790     21796     21790     21797     21790     21798
     21792     21799     21792     21800     21801     21802     21803     21804
     21801     21803     21803     21805     21803     21806     21801     21807
     21801     21808     21801     21809     21803     21810     21803     21811
     21812     21813     21814     21815     21812     21814     21814     21816
     21814     21817     21812     21818     21812     21819     21812     21820
     21814     21821     21814     21822     21823     21824     21825     21826
     21823     21825     21825     21827     21825     21828     21823     21829
     21823     21830     21823     21831     21825     21832     21825     21833
     21834     21835     21836     21837     21834     21836     21836     21838
     21836     21839     21834     21840     21834     21841     21834     21842
     21836     21843     21836     21844     21845     21846     21847     21848
     21845     21847     21847     21849     21847     21850     21845     21851
     21845     21852     21845     21853     21847     21854     21847     21855
     21856     21857     21858     21859     21856     21858     21858     21860
     21858     21861     21856     21862     21856     21863     21856     21864
     21858     21865     21858     21866     21867     21868     21869     21870
     21867     21869     21869     21871     21869     21872     21867     21873
     21867     21874     21867     21875     21869     21876     21869     21877
     21878     21879     21880     21881     21878     21880     21880     21882
     21880     21883     21878     21884     21878     21885     21878     21886
     21880     21887     21880     21888     21889     21890     21891     21892
     21889     21891     21891     21893     21891     21894     21889     21895
     21889     21896     21889     21897     21891     21898     21891     21899
     21900     21901     21902     21903     21900     21902     21902     21904
     21902     21905     21900     21906     21900     21907     21900     21908
     21902     21909     21902     21910     21911     21912     21913     21914
     21911     21913     21913     21915     21913     21916     21911     21917
     21911     21918     21911     21919     21913     21920     21913     21921
     21922     21923     21924     21925     21922     21924     21924     21926
     21924     21927     21922     21928     21922     21929     21922     21930
     21924     21931     21924     21932     21933     21934     21935     21936
     21933     21935     21935     21937     21935     21938     21933     21939
     21933     21940     21933     21941     21935     21942     21935     21943
     21944     21945     21946     21947     21944     21946     21946     21948
     21946     21949     21944     21950     21944     21951     21944     21952
     21946     21953     21946     21954     21955     21956     21957     21958
     21955     21957     21957     21959     21957     21960     21955     21961
     21955     21962     21955     21963     21957     21964     21957     21965
     21966     21967     21968     21969     21966     21968     21968     21970
     21968     21971     21966     21972     21966     21973     21966     21974
     21968     21975     21968     21976     21977     21978     21979     21980
     21977     21979     21979     21981     21979     21982     21977     21983
     21977     21984     21977     21985     21979     21986     21979     21987
     21988     21989     21990     21991     21988     21990     21990     21992
     21990     21993     21988     21994     21988     21995     21988     21996
     21990     21997     21990     21998     21999     22000     22001     22002
     21999     22001     22001     22003     22001     22004     21999     22005
     21999     22006     21999     22007     22001     22008     22001     22009
     22010     22011     22012     22013     22010     22012     22012     22014
     22012     22015     22010     22016     22010     22017     22010     22018
     22012     22019     22012     22020     22021     22022     22023     22024
     22021     22023     22023     22025     22023     22026     22021     22027
     22021     22028     22021     22029     22023     22030     22023     22031
     22032     22033     22034     22035     22032     22034     22034     22036
     22034     22037     22032     22038     22032     22039     22032     22040
     22034     22041     22034     22042     22043     22044     22045     22046
     22043     22045     22045     22047     22045     22048     22043     22049
     22043     22050     22043     22051     22045     22052     22045     22053
     22054     22055     22056     22057     22054     22056     22056     22058
     22056     22059     22054     22060     22054     22061     22054     22062
     22056     22063     22056     22064     22065     22066     22067     22068
     22065     22067     22067     22069     22067     22070     22065     22071
     22065     22072     22065     22073     22067     22074     22067     22075
     22076     22077     22078     22079     22076     22078     22078     22080
     22078     22081     22076     22082     22076     22083     22076     22084
     22078     22085     22078     22086     22087     22088     22089     22090
     22087     22089     22089     22091     22089     22092     22087     22093
     22087     22094     22087     22095     22089     22096     22089     22097
     22098     22099     22100     22101     22098     22100     22100     22102
     22100     22103     22098     22104     22098     22105     22098     22106
     22100     22107     22100     22108     22109     22110     22111     22112
     22109     22111     22111     22113     22111     22114     22109     22115
     22109     22116     22109     22117     22111     22118     22111     22119
     22120     22121     22122     22123     22120     22122     22122     22124
     22122     22125     22120     22126     22120     22127     22120     22128
     22122     22129     22122     22130     22131     22132     22133     22134
     22131     22133     22133     22135     22133     22136     22131     22137
     22131     22138     22131     22139     22133     22140     22133     22141
     22142     22143     22144     22145     22142     22144     22144     22146
     22144     22147     22142     22148     22142     22149     22142     22150
     22144     22151     22144     22152     22153     22154     22155     22156
     22153     22155     22155     22157     22155     22158     22153     22159
     22153     22160     22153     22161     22155     22162     22155     22163
     22164     22165     22166     22167     22164     22166     22166     22168
     22166     22169     22164     22170     22164     22171     22164     22172
     22166     22173     22166     22174     22175     22176     22177     22178
     22175     22177     22177     22179     22177     22180     22175     22181
     22175     22182     22175     22183     22177     22184     22177     22185
     22186     22187     22188     22189     22186     22188     22188     22190
     22188     22191     22186     22192     22186     22193     22186     22194
     22188     22195     22188     22196     22197     22198     22199     22200
     22197     22199     22199     22201     22199     22202     22197     22203
     22197     22204     22197     22205     22199     22206     22199     22207
     22208     22209     22210     22211     22208     22210     22210     22212
     22210     22213     22208     22214     22208     22215     22208     22216
     22210     22217     22210     22218     22219     22220     22221     22222
     22219     22221     22221     22223     22221     22224     22219     22225
     22219     22226     22219     22227     22221     22228     22221     22229
     22230     22231     22232     22233     22230     22232     22232     22234
     22232     22235     22230     22236     22230     22237     22230     22238
     22232     22239     22232     22240     22241     22242     22243     22244
     22241     22243     22243     22245     22243     22246     22241     22247
     22241     22248     22241     22249     22243     22250     22243     22251
     22252     22253     22254     22255     22252     22254     22254     22256
     22254     22257     22252     22258     22252     22259     22252     22260
     22254     22261     22254     22262     22263     22264     22265     22266
     22263     22265     22265     22267     22265     22268     22263     22269
     22263     22270     22263     22271     22265     22272     22265     22273
     22274     22275     22276     22277     22274     22276     22276     22278
     22276     22279     22274     22280     22274     22281     22274     22282
     22276     22283     22276     22284     22285     22286     22287     22288
     22285     22287     22287     22289     22287     22290     22285     22291
     22285     22292     22285     22293     22287     22294     22287     22295
     22296     22297     22298     22299     22296     22298     22298     22300
     22298     22301     22296     22302     22296     22303     22296     22304
     22298     22305     22298     22306     22307     22308     22309     22310
     22307     22309     22309     22311     22309     22312     22307     22313
     22307     22314     22307     22315     22309     22316     22309     22317
     22318     22319     22320     22321     22318     22320     22320     22322
     22320     22323     22318     22324     22318     22325     22318     22326
     22320     22327     22320     22328     22329     22330     22331     22332
     22329     22331     22331     22333     22331     22334     22329     22335
     22329     22336     22329     22337     22331     22338     22331     22339
     22340     22341     22342     22343     22340     22342     22342     22344
     22342     22345     22340     22346     22340     22347     22340     22348
     22342     22349     22342     22350     22351     22352     22353     22354
     22351     22353     22353     22355     22353     22356     22351     22357
     22351     22358     22351     22359     22353     22360     22353     22361
     22362     22363     22364     22365     22362     22364     22364     22366
     22364     22367     22362     22368     22362     22369     22362     22370
     22364     22371     22364     22372     22373     22374     22375     22376
     22373     22375     22375     22377     22375     22378     22373     22379
     22373     22380     22373     22381     22375     22382     22375     22383
     22384     22385     22386     22387     22384     22386     22386     22388
     22386     22389     22384     22390     22384     22391     22384     22392
     22386     22393     22386     22394     22395     22396     22397     22398
     22395     22397     22397     22399     22397     22400     22395     22401
     22395     22402     22395     22403     22397     22404     22397     22405
     22406     22407     22408     22409     22406     22408     22408     22410
     22408     22411     22406     22412     22406     22413     22406     22414
     22408     22415     22408     22416     22417     22418     22419     22420
     22417     22419     22419     22421     22419     22422     22417     22423
     22417     22424     22417     22425     22419     22426     22419     22427
     22428     22429     22430     22431     22428     22430     22430     22432
     22430     22433     22428     22434     22428     22435     22428     22436
     22430     22437     22430     22438     22439     22440     22441     22442
     22439     22441     22441     22443     22441     22444     22439     22445
     22439     22446     22439     22447     22441     22448     22441     22449
     22450     22451     22452     22453     22450     22452     22452     22454
     22452     22455     22450     22456     22450     22457     22450     22458
     22452     22459     22452     22460     22461     22462     22463     22464
     22461     22463     22463     22465     22463     22466     22461     22467
     22461     22468     22461     22469     22463     22470     22463     22471
     22472     22473     22474     22475     22472     22474     22474     22476
     22474     22477     22472     22478     22472     22479     22472     22480
     22474     22481     22474     22482     22483     22484     22485     22486
     22483     22485     22485     22487     22485     22488     22483     22489
     22483     22490     22483     22491     22485     22492     22485     22493
     22494     22495     22496     22497     22494     22496     22496     22498
     22496     22499     22494     22500     22494     22501     22494     22502
     22496     22503     22496     22504     22505     22506     22507     22508
     22505     22507     22507     22509     22507     22510     22505     22511
     22505     22512     22505     22513     22507     22514     22507     22515
     22516     22517     22518     22519     22516     22518     22518     22520
     22518     22521     22516     22522     22516     22523     22516     22524
     22518     22525     22518     22526     22527     22528     22529     22530
     22527     22529     22529     22531     22529     22532     22527     22533
     22527     22534     22527     22535     22529     22536     22529     22537
     22538     22539     22540     22541     22538     22540     22540     22542
     22540     22543     22538     22544     22538     22545     22538     22546
     22540     22547     22540     22548     22549     22550     22551     22552
     22549     22551     22551     22553     22551     22554     22549     22555
     22549     22556     22549     22557     22551     22558     22551     22559
     22560     22561     22562     22563     22560     22562     22562     22564
     22562     22565     22560     22566     22560     22567     22560     22568
     22562     22569     22562     22570     22571     22572     22573     22574
     22571     22573     22573     22575     22573     22576     22571     22577
     22571     22578     22571     22579     22573     22580     22573     22581
     22582     22583     22584     22585     22582     22584     22584     22586
     22584     22587     22582     22588     22582     22589     22582     22590
     22584     22591     22584     22592     22593     22594     22595     22596
     22593     22595     22595     22597     22595     22598     22593     22599
     22593     22600     22593     22601     22595     22602     22595     22603
     22604     22605     22606     22607     22604     22606     22606     22608
     22606     22609     22604     22610     22604     22611     22604     22612
     22606     22613     22606     22614     22615     22616     22617     22618
     22615     22617     22617     22619     22617     22620     22615     22621
     22615     22622     22615     22623     22617     22624     22617     22625
     22626     22627     22628     22629     22626     22628     22628     22630
     22628     22631     22626     22632     22626     22633     22626     22634
     22628     22635     22628     22636     22637     22638     22639     22640
     22637     22639     22639     22641     22639     22642     22637     22643
     22637     22644     22637     22645     22639     22646     22639     22647
     22648     22649     22650     22651     22648     22650     22650     22652
     22650     22653     22648     22654     22648     22655     22648     22656
     22650     22657     22650     22658     22659     22660     22661     22662
     22659     22661     22661     22663     22661     22664     22659     22665
     22659     22666     22659     22667     22661     22668     22661     22669
     22670     22671     22672     22673     22670     22672     22672     22674
     22672     22675     22670     22676     22670     22677     22670     22678
     22672     22679     22672     22680     22681     22682     22683     22684
     22681     22683     22683     22685     22683     22686     22681     22687
     22681     22688     22681     22689     22683     22690     22683     22691
     22692     22693     22694     22695     22692     22694     22694     22696
     22694     22697     22692     22698     22692     22699     22692     22700
     22694     22701     22694     22702     22703     22704     22705     22706
     22703     22705     22705     22707     22705     22708     22703     22709
     22703     22710     22703     22711     22705     22712     22705     22713
     22714     22715     22716     22717     22714     22716     22716     22718
     22716     22719     22714     22720     22714     22721     22714     22722
     22716     22723     22716     22724     22725     22726     22727     22728
     22725     22727     22727     22729     22727     22730     22725     22731
     22725     22732     22725     22733     22727     22734     22727     22735
     22736     22737     22738     22739     22736     22738     22738     22740
     22738     22741     22736     22742     22736     22743     22736     22744
     22738     22745     22738     22746     22747     22748     22749     22750
     22747     22749     22749     22751     22749     22752     22747     22753
     22747     22754     22747     22755     22749     22756     22749     22757
     22758     22759     22760     22761     22758     22760     22760     22762
     22760     22763     22758     22764     22758     22765     22758     22766
     22760     22767     22760     22768     22769     22770     22771     22772
     22769     22771     22771     22773     22771     22774     22769     22775
     22769     22776     22769     22777     22771     22778     22771     22779
     22780     22781     22782     22783     22780     22782     22782     22784
     22782     22785     22780     22786     22780     22787     22780     22788
     22782     22789     22782     22790     22791     22792     22793     22794
     22791     22793     22793     22795     22793     22796     22791     22797
     22791     22798     22791     22799     22793     22800     22793     22801
     22802     22803     22804     22805     22802     22804     22804     22806
     22804     22807     22802     22808     22802     22809     22802     22810
     22804     22811     22804     22812     22813     22814     22815     22816
     22813     22815     22815     22817     22815     22818     22813     22819
     22813     22820     22813     22821     22815     22822     22815     22823
     22824     22825     22826     22827     22824     22826     22826     22828
     22826     22829     22824     22830     22824     22831     22824     22832
     22826     22833     22826     22834     22835     22836     22837     22838
     22835     22837     22837     22839     22837     22840     22835     22841
     22835     22842     22835     22843     22837     22844     22837     22845
     22846     22847     22848     22849     22846     22848     22848     22850
     22848     22851     22846     22852     22846     22853     22846     22854
     22848     22855     22848     22856     22857     22858     22859     22860
     22857     22859     22859     22861     22859     22862     22857     22863
     22857     22864     22857     22865     22859     22866     22859     22867
     22868     22869     22870     22871     22868     22870     22870     22872
     22870     22873     22868     22874     22868     22875     22868     22876
     22870     22877     22870     22878     22879     22880     22881     22882
     22879     22881     22881     22883     22881     22884     22879     22885
     22879     22886     22879     22887     22881     22888     22881     22889
     22890     22891     22892     22893     22890     22892     22892     22894
     22892     22895     22890     22896     22890     22897     22890     22898
     22892     22899     22892     22900     22901     22902     22903     22904
     22901     22903     22903     22905     22903     22906     22901     22907
     22901     22908     22901     22909     22903     22910     22903     22911
     22912     22913     22914     22915     22912     22914     22914     22916
     22914     22917     22912     22918     22912     22919     22912     22920
     22914     22921     22914     22922     22923     22924     22925     22926
     22923     22925     22925     22927     22925     22928     22923     22929
     22923     22930     22923     22931     22925     22932     22925     22933
     22934     22935     22936     22937     22934     22936     22936     22938
     22936     22939     22934     22940     22934     22941     22934     22942
     22936     22943     22936     22944     22945     22946     22947     22948
     22945     22947     22947     22949     22947     22950     22945     22951
     22945     22952     22945     22953     22947     22954     22947     22955
     22956     22957     22958     22959     22956     22958     22958     22960
     22958     22961     22956     22962     22956     22963     22956     22964
     22958     22965     22958     22966     22967     22968     22969     22970
     22967     22969     22969     22971     22969     22972     22967     22973
     22967     22974     22967     22975     22969     22976     22969     22977
     22978     22979     22980     22981     22978     22980     22980     22982
     22980     22983     22978     22984     22978     22985     22978     22986
     22980     22987     22980     22988     22989     22990     22991     22992
     22989     22991     22991     22993     22991     22994     22989     22995
     22989     22996     22989     22997     22991     22998     22991     22999
     23000     23001     23002     23003     23000     23002     23002     23004
     23002     23005     23000     23006     23000     23007     23000     23008
     23002     23009     23002     23010     23011     23012     23013     23014
     23011     23013     23013     23015     23013     23016     23011     23017
     23011     23018     23011     23019     23013     23020     23013     23021
     23022     23023     23024     23025     23022     23024     23024     23026
     23024     23027     23022     23028     23022     23029     23022     23030
     23024     23031     23024     23032     23033     23034     23035     23036
     23033     23035     23035     23037     23035     23038     23033     23039
     23033     23040     23033     23041     23035     23042     23035     23043
     23044     23045     23046     23047     23044     23046     23046     23048
     23046     23049     23044     23050     23044     23051     23044     23052
     23046     23053     23046     23054     23055     23056     23057     23058
     23055     23057     23057     23059     23057     23060     23055     23061
     23055     23062     23055     23063     23057     23064     23057     23065
     23066     23067     23068     23069     23066     23068     23068     23070
     23068     23071     23066     23072     23066     23073     23066     23074
     23068     23075     23068     23076     23077     23078     23079     23080
     23077     23079     23079     23081     23079     23082     23077     23083
     23077     23084     23077     23085     23079     23086     23079     23087
     23088     23089     23090     23091     23088     23090     23090     23092
     23090     23093     23088     23094     23088     23095     23088     23096
     23090     23097     23090     23098     23099     23100     23101     23102
     23099     23101     23101     23103     23101     23104     23099     23105
     23099     23106     23099     23107     23101     23108     23101     23109
     23110     23111     23112     23113     23110     23112     23112     23114
     23112     23115     23110     23116     23110     23117     23110     23118
     23112     23119     23112     23120     23121     23122     23123     23124
     23121     23123     23123     23125     23123     23126     23121     23127
     23121     23128     23121     23129     23123     23130     23123     23131
     23132     23133     23134     23135     23132     23134     23134     23136
     23134     23137     23132     23138     23132     23139     23132     23140
     23134     23141     23134     23142     23143     23144     23145     23146
     23143     23145     23145     23147     23145     23148     23143     23149
     23143     23150     23143     23151     23145     23152     23145     23153
     23154     23155     23156     23157     23154     23156     23156     23158
     23156     23159     23154     23160     23154     23161     23154     23162
     23156     23163     23156     23164     23165     23166     23167     23168
     23165     23167     23167     23169     23167     23170     23165     23171
     23165     23172     23165     23173     23167     23174     23167     23175
     23176     23177     23178     23179     23176     23178     23178     23180
     23178     23181     23176     23182     23176     23183     23176     23184
     23178     23185     23178     23186     23187     23188     23189     23190
     23187     23189     23189     23191     23189     23192     23187     23193
     23187     23194     23187     23195     23189     23196     23189     23197
     23198     23199     23200     23201     23198     23200     23200     23202
     23200     23203     23198     23204     23198     23205     23198     23206
     23200     23207     23200     23208     23209     23210     23211     23212
     23209     23211     23211     23213     23211     23214     23209     23215
     23209     23216     23209     23217     23211     23218     23211     23219
     23220     23221     23222     23223     23220     23222     23222     23224
     23222     23225     23220     23226     23220     23227     23220     23228
     23222     23229     23222     23230     23231     23232     23233     23234
     23231     23233     23233     23235     23233     23236     23231     23237
     23231     23238     23231     23239     23233     23240     23233     23241
     23242     23243     23244     23245     23242     23244     23244     23246
     23244     23247     23242     23248     23242     23249     23242     23250
     23244     23251     23244     23252     23253     23254     23255     23256
     23253     23255     23255     23257     23255     23258     23253     23259
     23253     23260     23253     23261     23255     23262     23255     23263
     23264     23265     23266     23267     23264     23266     23266     23268
     23266     23269     23264     23270     23264     23271     23264     23272
     23266     23273     23266     23274     23275     23276     23277     23278
     23275     23277     23277     23279     23277     23280     23275     23281
     23275     23282     23275     23283     23277     23284     23277     23285
     23286     23287     23288     23289     23286     23288     23288     23290
     23288     23291     23286     23292     23286     23293     23286     23294
     23288     23295     23288     23296     23297     23298     23299     23300
     23297     23299     23299     23301     23299     23302     23297     23303
     23297     23304     23297     23305     23299     23306     23299     23307
     23308     23309     23310     23311     23308     23310     23310     23312
     23310     23313     23308     23314     23308     23315     23308     23316
     23310     23317     23310     23318     23319     23320     23321     23322
     23319     23321     23321     23323     23321     23324     23319     23325
     23319     23326     23319     23327     23321     23328     23321     23329
     23330     23331     23332     23333     23330     23332     23332     23334
     23332     23335     23330     23336     23330     23337     23330     23338
     23332     23339     23332     23340     23341     23342     23343     23344
     23341     23343     23343     23345     23343     23346     23341     23347
     23341     23348     23341     23349     23343     23350     23343     23351
     23352     23353     23354     23355     23352     23354     23354     23356
     23354     23357     23352     23358     23352     23359     23352     23360
     23354     23361     23354     23362     23363     23364     23365     23366
     23363     23365     23365     23367     23365     23368     23363     23369
     23363     23370     23363     23371     23365     23372     23365     23373
     23374     23375     23376     23377     23374     23376     23376     23378
     23376     23379     23374     23380     23374     23381     23374     23382
     23376     23383     23376     23384     23385     23386     23387     23388
     23385     23387     23387     23389     23387     23390     23385     23391
     23385     23392     23385     23393     23387     23394     23387     23395
     23396     23397     23398     23399     23396     23398     23398     23400
     23398     23401     23396     23402     23396     23403     23396     23404
     23398     23405     23398     23406     23407     23408     23409     23410
     23407     23409     23409     23411     23409     23412     23407     23413
     23407     23414     23407     23415     23409     23416     23409     23417
     23418     23419     23420     23421     23418     23420     23420     23422
     23420     23423     23418     23424     23418     23425     23418     23426
     23420     23427     23420     23428     23429     23430     23431     23432
     23429     23431     23431     23433     23431     23434     23429     23435
     23429     23436     23429     23437     23431     23438     23431     23439
     23440     23441     23442     23443     23440     23442     23442     23444
     23442     23445     23440     23446     23440     23447     23440     23448
     23442     23449     23442     23450     23451     23452     23453     23454
     23451     23453     23453     23455     23453     23456     23451     23457
     23451     23458     23451     23459     23453     23460     23453     23461
     23462     23463     23464     23465     23462     23464     23464     23466
     23464     23467     23462     23468     23462     23469     23462     23470
     23464     23471     23464     23472     23473     23474     23475     23476
     23473     23475     23475     23477     23475     23478     23473     23479
     23473     23480     23473     23481     23475     23482     23475     23483
     23484     23485     23486     23487     23484     23486     23486     23488
     23486     23489     23484     23490     23484     23491     23484     23492
     23486     23493     23486     23494     23495     23496     23497     23498
     23495     23497     23497     23499     23497     23500     23495     23501
     23495     23502     23495     23503     23497     23504     23497     23505
     23506     23507     23508     23509     23506     23508     23508     23510
     23508     23511     23506     23512     23506     23513     23506     23514
     23508     23515     23508     23516     23517     23518     23519     23520
     23517     23519     23519     23521     23519     23522     23517     23523
     23517     23524     23517     23525     23519     23526     23519     23527
     23528     23529     23530     23531     23528     23530     23530     23532
     23530     23533     23528     23534     23528     23535     23528     23536
     23530     23537     23530     23538     23539     23540     23541     23542
     23539     23541     23541     23543     23541     23544     23539     23545
     23539     23546     23539     23547     23541     23548     23541     23549
     23550     23551     23552     23553     23550     23552     23552     23554
     23552     23555     23550     23556     23550     23557     23550     23558
     23552     23559     23552     23560     23561     23562     23563     23564
     23561     23563     23563     23565     23563     23566     23561     23567
     23561     23568     23561     23569     23563     23570     23563     23571
     23572     23573     23574     23575     23572     23574     23574     23576
     23574     23577     23572     23578     23572     23579     23572     23580
     23574     23581     23574     23582     23583     23584     23585     23586
     23583     23585     23585     23587     23585     23588     23583     23589
     23583     23590     23583     23591     23585     23592     23585     23593
     23594     23595     23596     23597     23594     23596     23596     23598
     23596     23599     23594     23600     23594     23601     23594     23602
     23596     23603     23596     23604     23605     23606     23607     23608
     23605     23607     23607     23609     23607     23610     23605     23611
     23605     23612     23605     23613     23607     23614     23607     23615
     23616     23617     23618     23619     23616     23618     23618     23620
     23618     23621     23616     23622     23616     23623     23616     23624
     23618     23625     23618     23626     23627     23628     23629     23630
     23627     23629     23629     23631     23629     23632     23627     23633
     23627     23634     23627     23635     23629     23636     23629     23637
     23638     23639     23640     23641     23638     23640     23640     23642
     23640     23643     23638     23644     23638     23645     23638     23646
     23640     23647     23640     23648     23649     23650     23651     23652
     23649     23651     23651     23653     23651     23654     23649     23655
     23649     23656     23649     23657     23651     23658     23651     23659
     23660     23661     23662     23663     23660     23662     23662     23664
     23662     23665     23660     23666     23660     23667     23660     23668
     23662     23669     23662     23670     23671     23672     23673     23674
     23671     23673     23673     23675     23673     23676     23671     23677
     23671     23678     23671     23679     23673     23680     23673     23681
     23682     23683     23684     23685     23682     23684     23684     23686
     23684     23687     23682     23688     23682     23689     23682     23690
     23684     23691     23684     23692     23693     23694     23695     23696
     23693     23695     23695     23697     23695     23698     23693     23699
     23693     23700     23693     23701     23695     23702     23695     23703
     23704     23705     23706     23707     23704     23706     23706     23708
     23706     23709     23704     23710     23704     23711     23704     23712
     23706     23713     23706     23714     23715     23716     23717     23718
     23715     23717     23717     23719     23717     23720     23715     23721
     23715     23722     23715     23723     23717     23724     23717     23725
     23726     23727     23728     23729     23726     23728     23728     23730
     23728     23731     23726     23732     23726     23733     23726     23734
     23728     23735     23728     23736     23737     23738     23739     23740
     23737     23739     23739     23741     23739     23742     23737     23743
     23737     23744     23737     23745     23739     23746     23739     23747
     23748     23749     23750     23751     23748     23750     23750     23752
     23750     23753     23748     23754     23748     23755     23748     23756
     23750     23757     23750     23758     23759     23760     23761     23762
     23759     23761     23761     23763     23761     23764     23759     23765
     23759     23766     23759     23767     23761     23768     23761     23769
     23770     23771     23772     23773     23770     23772     23772     23774
     23772     23775     23770     23776     23770     23777     23770     23778
     23772     23779     23772     23780     23781     23782     23783     23784
     23781     23783     23783     23785     23783     23786     23781     23787
     23781     23788     23781     23789     23783     23790     23783     23791
     23792     23793     23794     23795     23792     23794     23794     23796
     23794     23797     23792     23798     23792     23799     23792     23800
     23794     23801     23794     23802     23803     23804     23805     23806
     23803     23805     23805     23807     23805     23808     23803     23809
     23803     23810     23803     23811     23805     23812     23805     23813
     23814     23815     23816     23817     23814     23816     23816     23818
     23816     23819     23814     23820     23814     23821     23814     23822
     23816     23823     23816     23824     23825     23826     23827     23828
     23825     23827     23827     23829     23827     23830     23825     23831
     23825     23832     23825     23833     23827     23834     23827     23835
     23836     23837     23838     23839     23836     23838     23838     23840
     23838     23841     23836     23842     23836     23843     23836     23844
     23838     23845     23838     23846     23847     23848     23849     23850
     23847     23849     23849     23851     23849     23852     23847     23853
     23847     23854     23847     23855     23849     23856     23849     23857
     23858     23859     23860     23861     23858     23860     23860     23862
     23860     23863     23858     23864     23858     23865     23858     23866
     23860     23867     23860     23868     23869     23870     23871     23872
     23869     23871     23871     23873     23871     23874     23869     23875
     23869     23876     23869     23877     23871     23878     23871     23879
     23880     23881     23882     23883     23880     23882     23882     23884
     23882     23885     23880     23886     23880     23887     23880     23888
     23882     23889     23882     23890     23891     23892     23893     23894
     23891     23893     23893     23895     23893     23896     23891     23897
     23891     23898     23891     23899     23893     23900     23893     23901
     23902     23903     23904     23905     23902     23904     23904     23906
     23904     23907     23902     23908     23902     23909     23902     23910
     23904     23911     23904     23912     23913     23914     23915     23916
     23913     23915     23915     23917     23915     23918     23913     23919
     23913     23920     23913     23921     23915     23922     23915     23923
     23924     23925     23926     23927     23924     23926     23926     23928
     23926     23929     23924     23930     23924     23931     23924     23932
     23926     23933     23926     23934     23935     23936     23937     23938
     23935     23937     23937     23939     23937     23940     23935     23941
     23935     23942     23935     23943     23937     23944     23937     23945
     23946     23947     23948     23949     23946     23948     23948     23950
     23948     23951     23946     23952     23946     23953     23946     23954
     23948     23955     23948     23956     23957     23958     23959     23960
     23957     23959     23959     23961     23959     23962     23957     23963
     23957     23964     23957     23965     23959     23966     23959     23967
     23968     23969     23970     23971     23968     23970     23970     23972
     23970     23973     23968     23974     23968     23975     23968     23976
     23970     23977     23970     23978     23979     23980     23981     23982
     23979     23981     23981     23983     23981     23984     23979     23985
     23979     23986     23979     23987     23981     23988     23981     23989
     23990     23991     23992     23993     23990     23992     23992     23994
     23992     23995     23990     23996     23990     23997     23990     23998
     23992     23999     23992     24000     24001     24002     24003     24004
     24001     24003     24003     24005     24003     24006     24001     24007
     24001     24008     24001     24009     24003     24010     24003     24011
     24012     24013     24014     24015     24012     24014     24014     24016
     24014     24017     24012     24018     24012     24019     24012     24020
     24014     24021     24014     24022     24023     24024     24025     24026
     24023     24025     24025     24027     24025     24028     24023     24029
     24023     24030     24023     24031     24025     24032     24025     24033
     24034     24035     24036     24037     24034     24036     24036     24038
     24036     24039     24034     24040     24034     24041     24034     24042
     24036     24043     24036     24044     24045     24046     24047     24048
     24045     24047     24047     24049     24047     24050     24045     24051
     24045     24052     24045     24053     24047     24054     24047     24055
     24056     24057     24058     24059     24056     24058     24058     24060
     24058     24061     24056     24062     24056     24063     24056     24064
     24058     24065     24058     24066     24067     24068     24069     24070
     24067     24069     24069     24071     24069     24072     24067     24073
     24067     24074     24067     24075     24069     24076     24069     24077
     24078     24079     24080     24081     24078     24080     24080     24082
     24080     24083     24078     24084     24078     24085     24078     24086
     24080     24087     24080     24088     24089     24090     24091     24092
     24089     24091     24091     24093     24091     24094     24089     24095
     24089     24096     24089     24097     24091     24098     24091     24099
     24100     24101     24102     24103     24100     24102     24102     24104
     24102     24105     24100     24106     24100     24107     24100     24108
     24102     24109     24102     24110     24111     24112     24113     24114
     24111     24113     24113     24115     24113     24116     24111     24117
     24111     24118     24111     24119     24113     24120     24113     24121
     24122     24123     24124     24125     24122     24124     24124     24126
     24124     24127     24122     24128     24122     24129     24122     24130
     24124     24131     24124     24132     24133     24134     24135     24136
     24133     24135     24135     24137     24135     24138     24133     24139
     24133     24140     24133     24141     24135     24142     24135     24143
     24144     24145     24146     24147     24144     24146     24146     24148
     24146     24149     24144     24150     24144     24151     24144     24152
     24146     24153     24146     24154     24155     24156     24157     24158
     24155     24157     24157     24159     24157     24160     24155     24161
     24155     24162     24155     24163     24157     24164     24157     24165
     24166     24167     24168     24169     24166     24168     24168     24170
     24168     24171     24166     24172     24166     24173     24166     24174
     24168     24175     24168     24176     24177     24178     24179     24180
     24177     24179     24179     24181     24179     24182     24177     24183
     24177     24184     24177     24185     24179     24186     24179     24187
     24188     24189     24190     24191     24188     24190     24190     24192
     24190     24193     24188     24194     24188     24195     24188     24196
     24190     24197     24190     24198     24199     24200     24201     24202
     24199     24201     24201     24203     24201     24204     24199     24205
     24199     24206     24199     24207     24201     24208     24201     24209
     24210     24211     24212     24213     24210     24212     24212     24214
     24212     24215     24210     24216     24210     24217     24210     24218
     24212     24219     24212     24220     24221     24222     24223     24224
     24221     24223     24223     24225     24223     24226     24221     24227
     24221     24228     24221     24229     24223     24230     24223     24231
     24232     24233     24234     24235     24232     24234     24234     24236
     24234     24237     24232     24238     24232     24239     24232     24240
     24234     24241     24234     24242     24243     24244     24245     24246
     24243     24245     24245     24247     24245     24248     24243     24249
     24243     24250     24243     24251     24245     24252     24245     24253
     24254     24255     24256     24257     24254     24256     24256     24258
     24256     24259     24254     24260     24254     24261     24254     24262
     24256     24263     24256     24264     24265     24266     24267     24268
     24265     24267     24267     24269     24267     24270     24265     24271
     24265     24272     24265     24273     24267     24274     24267     24275
     24276     24277     24278     24279     24276     24278     24278     24280
     24278     24281     24276     24282     24276     24283     24276     24284
     24278     24285     24278     24286     24287     24288     24289     24290
     24287     24289     24289     24291     24289     24292     24287     24293
     24287     24294     24287     24295     24289     24296     24289     24297
     24298     24299     24300     24301     24298     24300     24300     24302
     24300     24303     24298     24304     24298     24305     24298     24306
     24300     24307     24300     24308     24309     24310     24311     24312
     24309     24311     24311     24313     24311     24314     24309     24315
     24309     24316     24309     24317     24311     24318     24311     24319
     24320     24321     24322     24323     24320     24322     24322     24324
     24322     24325     24320     24326     24320     24327     24320     24328
     24322     24329     24322     24330     24331     24332     24333     24334
     24331     24333     24333     24335     24333     24336     24331     24337
     24331     24338     24331     24339     24333     24340     24333     24341
     24342     24343     24344     24345     24342     24344     24344     24346
     24344     24347     24342     24348     24342     24349     24342     24350
     24344     24351     24344     24352     24353     24354     24355     24356
     24353     24355     24355     24357     24355     24358     24353     24359
     24353     24360     24353     24361     24355     24362     24355     24363
     24364     24365     24366     24367     24364     24366     24366     24368
     24366     24369     24364     24370     24364     24371     24364     24372
     24366     24373     24366     24374     24375     24376     24377     24378
     24375     24377     24377     24379     24377     24380     24375     24381
     24375     24382     24375     24383     24377     24384     24377     24385
     24386     24387     24388     24389     24386     24388     24388     24390
     24388     24391     24386     24392     24386     24393     24386     24394
     24388     24395     24388     24396     24397     24398     24399     24400
     24397     24399     24399     24401     24399     24402     24397     24403
     24397     24404     24397     24405     24399     24406     24399     24407
     24408     24409     24410     24411     24408     24410     24410     24412
     24410     24413     24408     24414     24408     24415     24408     24416
     24410     24417     24410     24418     24419     24420     24421     24422
     24419     24421     24421     24423     24421     24424     24419     24425
     24419     24426     24419     24427     24421     24428     24421     24429
     24430     24431     24432     24433     24430     24432     24432     24434
     24432     24435     24430     24436     24430     24437     24430     24438
     24432     24439     24432     24440     24441     24442     24443     24444
     24441     24443     24443     24445     24443     24446     24441     24447
     24441     24448     24441     24449     24443     24450     24443     24451
     24452     24453     24454     24455     24452     24454     24454     24456
     24454     24457     24452     24458     24452     24459     24452     24460
     24454     24461     24454     24462     24463     24464     24465     24466
     24463     24465     24465     24467     24465     24468     24463     24469
     24463     24470     24463     24471     24465     24472     24465     24473
     24474     24475     24476     24477     24474     24476     24476     24478
     24476     24479     24474     24480     24474     24481     24474     24482
     24476     24483     24476     24484     24485     24486     24487     24488
     24485     24487     24487     24489     24487     24490     24485     24491
     24485     24492     24485     24493     24487     24494     24487     24495
     24496     24497     24498     24499     24496     24498     24498     24500
     24498     24501     24496     24502     24496     24503     24496     24504
     24498     24505     24498     24506     24507     24508     24509     24510
     24507     24509     24509     24511     24509     24512     24507     24513
     24507     24514     24507     24515     24509     24516     24509     24517
     24518     24519     24520     24521     24518     24520     24520     24522
     24520     24523     24518     24524     24518     24525     24518     24526
     24520     24527     24520     24528     24529     24530     24531     24532
     24529     24531     24531     24533     24531     24534     24529     24535
     24529     24536     24529     24537     24531     24538     24531     24539
     24540     24541     24542     24543     24540     24542     24542     24544
     24542     24545     24540     24546     24540     24547     24540     24548
     24542     24549     24542     24550     24551     24552     24553     24554
     24551     24553     24553     24555     24553     24556     24551     24557
     24551     24558     24551     24559     24553     24560     24553     24561
     24562     24563     24564     24565     24562     24564     24564     24566
     24564     24567     24562     24568     24562     24569     24562     24570
     24564     24571     24564     24572     24573     24574     24575     24576
     24573     24575     24575     24577     24575     24578     24573     24579
     24573     24580     24573     24581     24575     24582     24575     24583
     24584     24585     24586     24587     24584     24586     24586     24588
     24586     24589     24584     24590     24584     24591     24584     24592
     24586     24593     24586     24594     24595     24596     24597     24598
     24595     24597     24597     24599     24597     24600     24595     24601
     24595     24602     24595     24603     24597     24604     24597     24605
     24606     24607     24608     24609     24606     24608     24608     24610
     24608     24611     24606     24612     24606     24613     24606     24614
     24608     24615     24608     24616     24617     24618     24619     24620
     24617     24619     24619     24621     24619     24622     24617     24623
     24617     24624     24617     24625     24619     24626     24619     24627
     24628     24629     24630     24631     24628     24630     24630     24632
     24630     24633     24628     24634     24628     24635     24628     24636
     24630     24637     24630     24638     24639     24640     24641     24642
     24639     24641     24641     24643     24641     24644     24639     24645
     24639     24646     24639     24647     24641     24648     24641     24649
     24650     24651     24652     24653     24650     24652     24652     24654
     24652     24655     24650     24656     24650     24657     24650     24658
     24652     24659     24652     24660     24661     24662     24663     24664
     24661     24663     24663     24665     24663     24666     24661     24667
     24661     24668     24661     24669     24663     24670     24663     24671
     24672     24673     24674     24675     24672     24674     24674     24676
     24674     24677     24672     24678     24672     24679     24672     24680
     24674     24681     24674     24682     24683     24684     24685     24686
     24683     24685     24685     24687     24685     24688     24683     24689
     24683     24690     24683     24691     24685     24692     24685     24693
     24694     24695     24696     24697     24694     24696     24696     24698
     24696     24699     24694     24700     24694     24701     24694     24702
     24696     24703     24696     24704     24705     24706     24707     24708
     24705     24707     24707     24709     24707     24710     24705     24711
     24705     24712     24705     24713     24707     24714     24707     24715
     24716     24717     24718     24719     24716     24718     24718     24720
     24718     24721     24716     24722     24716     24723     24716     24724
     24718     24725     24718     24726     24727     24728     24729     24730
     24727     24729     24729     24731     24729     24732     24727     24733
     24727     24734     24727     24735     24729     24736     24729     24737
     24738     24739     24740     24741     24738     24740     24740     24742
     24740     24743     24738     24744     24738     24745     24738     24746
     24740     24747     24740     24748     24749     24750     24751     24752
     24749     24751     24751     24753     24751     24754     24749     24755
     24749     24756     24749     24757     24751     24758     24751     24759
     24760     24761     24762     24763     24760     24762     24762     24764
     24762     24765     24760     24766     24760     24767     24760     24768
     24762     24769     24762     24770     24771     24772     24773     24774
     24771     24773     24773     24775     24773     24776     24771     24777
     24771     24778     24771     24779     24773     24780     24773     24781
     24782     24783     24784     24785     24782     24784     24784     24786
     24784     24787     24782     24788     24782     24789     24782     24790
     24784     24791     24784     24792     24793     24794     24795     24796
     24793     24795     24795     24797     24795     24798     24793     24799
     24793     24800     24793     24801     24795     24802     24795     24803
     24804     24805     24806     24807     24804     24806     24806     24808
     24806     24809     24804     24810     24804     24811     24804     24812
     24806     24813     24806     24814     24815     24816     24817     24818
     24815     24817     24817     24819     24817     24820     24815     24821
     24815     24822     24815     24823     24817     24824     24817     24825
     24826     24827     24828     24829     24826     24828     24828     24830
     24828     24831     24826     24832     24826     24833     24826     24834
     24828     24835     24828     24836     24837     24838     24839     24840
     24837     24839     24839     24841     24839     24842     24837     24843
     24837     24844     24837     24845     24839     24846     24839     24847
     24848     24849     24850     24851     24848     24850     24850     24852
     24850     24853     24848     24854     24848     24855     24848     24856
     24850     24857     24850     24858     24859     24860     24861     24862
     24859     24861     24861     24863     24861     24864     24859     24865
     24859     24866     24859     24867     24861     24868     24861     24869
     24870     24871     24872     24873     24870     24872     24872     24874
     24872     24875     24870     24876     24870     24877     24870     24878
     24872     24879     24872     24880     24881     24882     24883     24884
     24881     24883     24883     24885     24883     24886     24881     24887
     24881     24888     24881     24889     24883     24890     24883     24891
     24892     24893     24894     24895     24892     24894     24894     24896
     24894     24897     24892     24898     24892     24899     24892     24900
     24894     24901     24894     24902     24903     24904     24905     24906
     24903     24905     24905     24907     24905     24908     24903     24909
     24903     24910     24903     24911     24905     24912     24905     24913
     24914     24915     24916     24917     24914     24916     24916     24918
     24916     24919     24914     24920     24914     24921     24914     24922
     24916     24923     24916     24924     24925     24926     24927     24928
     24925     24927     24927     24929     24927     24930     24925     24931
     24925     24932     24925     24933     24927     24934     24927     24935
     24936     24937     24938     24939     24936     24938     24938     24940
     24938     24941     24936     24942     24936     24943     24936     24944
     24938     24945     24938     24946     24947     24948     24949     24950
     24947     24949     24949     24951     24949     24952     24947     24953
     24947     24954     24947     24955     24949     24956     24949     24957
     24958     24959     24960     24961     24958     24960     24960     24962
     24960     24963     24958     24964     24958     24965     24958     24966
     24960     24967     24960     24968     24969     24970     24971     24972
     24969     24971     24971     24973     24971     24974     24969     24975
     24969     24976     24969     24977     24971     24978     24971     24979
     24980     24981     24982     24983     24980     24982     24982     24984
     24982     24985     24980     24986     24980     24987     24980     24988
     24982     24989     24982     24990     24991     24992     24993     24994
     24991     24993     24993     24995     24993     24996     24991     24997
     24991     24998     24991     24999     24993     25000     24993     25001
     25002     25003     25004     25005     25002     25004     25004     25006
     25004     25007     25002     25008     25002     25009     25002     25010
     25004     25011     25004     25012     25013     25014     25015     25016
     25013     25015     25015     25017     25015     25018     25013     25019
     25013     25020     25013     25021     25015     25022     25015     25023
     25024     25025     25026     25027     25024     25026     25026     25028
     25026     25029     25024     25030     25024     25031     25024     25032
     25026     25033     25026     25034     25035     25036     25037     25038
     25035     25037     25037     25039     25037     25040     25035     25041
     25035     25042     25035     25043     25037     25044     25037     25045
     25046     25047     25048     25049     25046     25048     25048     25050
     25048     25051     25046     25052     25046     25053     25046     25054
     25048     25055     25048     25056     25057     25058     25059     25060
     25057     25059     25059     25061     25059     25062     25057     25063
     25057     25064     25057     25065     25059     25066     25059     25067
     25068     25069     25070     25071     25068     25070     25070     25072
     25070     25073     25068     25074     25068     25075     25068     25076
     25070     25077     25070     25078     25079     25080     25081     25082
     25079     25081     25081     25083     25081     25084     25079     25085
     25079     25086     25079     25087     25081     25088     25081     25089
     25090     25091     25092     25093     25090     25092     25092     25094
     25092     25095     25090     25096     25090     25097     25090     25098
     25092     25099     25092     25100     25101     25102     25103     25104
     25101     25103     25103     25105     25103     25106     25101     25107
     25101     25108     25101     25109     25103     25110     25103     25111
     25112     25113     25114     25115     25112     25114     25114     25116
     25114     25117     25112     25118     25112     25119     25112     25120
     25114     25121     25114     25122     25123     25124     25125     25126
     25123     25125     25125     25127     25125     25128     25123     25129
     25123     25130     25123     25131     25125     25132     25125     25133
     25134     25135     25136     25137     25134     25136     25136     25138
     25136     25139     25134     25140     25134     25141     25134     25142
     25136     25143     25136     25144     25145     25146     25147     25148
     25145     25147     25147     25149     25147     25150     25145     25151
     25145     25152     25145     25153     25147     25154     25147     25155
     25156     25157     25158     25159     25156     25158     25158     25160
     25158     25161     25156     25162     25156     25163     25156     25164
     25158     25165     25158     25166     25167     25168     25169     25170
     25167     25169     25169     25171     25169     25172     25167     25173
     25167     25174     25167     25175     25169     25176     25169     25177
     25178     25179     25180     25181     25178     25180     25180     25182
     25180     25183     25178     25184     25178     25185     25178     25186
     25180     25187     25180     25188     25189     25190     25191     25192
     25189     25191     25191     25193     25191     25194     25189     25195
     25189     25196     25189     25197     25191     25198     25191     25199
     25200     25201     25202     25203     25200     25202     25202     25204
     25202     25205     25200     25206     25200     25207     25200     25208
     25202     25209     25202     25210     25211     25212     25213     25214
     25211     25213     25213     25215     25213     25216     25211     25217
     25211     25218     25211     25219     25213     25220     25213     25221
     25222     25223     25224     25225     25222     25224     25224     25226
     25224     25227     25222     25228     25222     25229     25222     25230
     25224     25231     25224     25232     25233     25234     25235     25236
     25233     25235     25235     25237     25235     25238     25233     25239
     25233     25240     25233     25241     25235     25242     25235     25243
     25244     25245     25246     25247     25244     25246     25246     25248
     25246     25249     25244     25250     25244     25251     25244     25252
     25246     25253     25246     25254     25255     25256     25257     25258
     25255     25257     25257     25259     25257     25260     25255     25261
     25255     25262     25255     25263     25257     25264     25257     25265
     25266     25267     25268     25269     25266     25268     25268     25270
     25268     25271     25266     25272     25266     25273     25266     25274
     25268     25275     25268     25276     25277     25278     25279     25280
     25277     25279     25279     25281     25279     25282     25277     25283
     25277     25284     25277     25285     25279     25286     25279     25287
     25288     25289     25290     25291     25288     25290     25290     25292
     25290     25293     25288     25294     25288     25295     25288     25296
     25290     25297     25290     25298     25299     25300     25301     25302
     25299     25301     25301     25303     25301     25304     25299     25305
     25299     25306     25299     25307     25301     25308     25301     25309
     25310     25311     25312     25313     25310     25312     25312     25314
     25312     25315     25310     25316     25310     25317     25310     25318
     25312     25319     25312     25320     25321     25322     25323     25324
     25321     25323     25323     25325     25323     25326     25321     25327
     25321     25328     25321     25329     25323     25330     25323     25331
     25332     25333     25334     25335     25332     25334     25334     25336
     25334     25337     25332     25338     25332     25339     25332     25340
     25334     25341     25334     25342     25343     25344     25345     25346
     25343     25345     25345     25347     25345     25348     25343     25349
     25343     25350     25343     25351     25345     25352     25345     25353
     25354     25355     25356     25357     25354     25356     25356     25358
     25356     25359     25354     25360     25354     25361     25354     25362
     25356     25363     25356     25364     25365     25366     25367     25368
     25365     25367     25367     25369     25367     25370     25365     25371
     25365     25372     25365     25373     25367     25374     25367     25375
     25376     25377     25378     25379     25376     25378     25378     25380
     25378     25381     25376     25382     25376     25383     25376     25384
     25378     25385     25378     25386     25387     25388     25389     25390
     25387     25389     25389     25391     25389     25392     25387     25393
     25387     25394     25387     25395     25389     25396     25389     25397
     25398     25399     25400     25401     25398     25400     25400     25402
     25400     25403     25398     25404     25398     25405     25398     25406
     25400     25407     25400     25408     25409     25410     25411     25412
     25409     25411     25411     25413     25411     25414     25409     25415
     25409     25416     25409     25417     25411     25418     25411     25419
     25420     25421     25422     25423     25420     25422     25422     25424
     25422     25425     25420     25426     25420     25427     25420     25428
     25422     25429     25422     25430     25431     25432     25433     25434
     25431     25433     25433     25435     25433     25436     25431     25437
     25431     25438     25431     25439     25433     25440     25433     25441
     25442     25443     25444     25445     25442     25444     25444     25446
     25444     25447     25442     25448     25442     25449     25442     25450
     25444     25451     25444     25452     25453     25454     25455     25456
     25453     25455     25455     25457     25455     25458     25453     25459
     25453     25460     25453     25461     25455     25462     25455     25463
     25464     25465     25466     25467     25464     25466     25466     25468
     25466     25469     25464     25470     25464     25471     25464     25472
     25466     25473     25466     25474     25475     25476     25477     25478
     25475     25477     25477     25479     25477     25480     25475     25481
     25475     25482     25475     25483     25477     25484     25477     25485
     25486     25487     25488     25489     25486     25488     25488     25490
     25488     25491     25486     25492     25486     25493     25486     25494
     25488     25495     25488     25496     25497     25498     25499     25500
     25497     25499     25499     25501     25499     25502     25497     25503
     25497     25504     25497     25505     25499     25506     25499     25507
     25508     25509     25510     25511     25508     25510     25510     25512
     25510     25513     25508     25514     25508     25515     25508     25516
     25510     25517     25510     25518     25519     25520     25521     25522
     25519     25521     25521     25523     25521     25524     25519     25525
     25519     25526     25519     25527     25521     25528     25521     25529
     25530     25531     25532     25533     25530     25532     25532     25534
     25532     25535     25530     25536     25530     25537     25530     25538
     25532     25539     25532     25540     25541     25542     25543     25544
     25541     25543     25543     25545     25543     25546     25541     25547
     25541     25548     25541     25549     25543     25550     25543     25551
     25552     25553     25554     25555     25552     25554     25554     25556
     25554     25557     25552     25558     25552     25559     25552     25560
     25554     25561     25554     25562     25563     25564     25565     25566
     25563     25565     25565     25567     25565     25568     25563     25569
     25563     25570     25563     25571     25565     25572     25565     25573
     25574     25575     25576     25577     25574     25576     25576     25578
     25576     25579     25574     25580     25574     25581     25574     25582
     25576     25583     25576     25584     25585     25586     25587     25588
     25585     25587     25587     25589     25587     25590     25585     25591
     25585     25592     25585     25593     25587     25594     25587     25595
     25596     25597     25598     25599     25596     25598     25598     25600
     25598     25601     25596     25602     25596     25603     25596     25604
     25598     25605     25598     25606     25607     25608     25609     25610
     25607     25609     25609     25611     25609     25612     25607     25613
     25607     25614     25607     25615     25609     25616     25609     25617
     25618     25619     25620     25621     25618     25620     25620     25622
     25620     25623     25618     25624     25618     25625     25618     25626
     25620     25627     25620     25628     25629     25630     25631     25632
     25629     25631     25631     25633     25631     25634     25629     25635
     25629     25636     25629     25637     25631     25638     25631     25639
     25640     25641     25642     25643     25640     25642     25642     25644
     25642     25645     25640     25646     25640     25647     25640     25648
     25642     25649     25642     25650     25651     25652     25653     25654
     25651     25653     25653     25655     25653     25656     25651     25657
     25651     25658     25651     25659     25653     25660     25653     25661
     25662     25663     25664     25665     25662     25664     25664     25666
     25664     25667     25662     25668     25662     25669     25662     25670
     25664     25671     25664     25672     25673     25674     25675     25676
     25673     25675     25675     25677     25675     25678     25673     25679
     25673     25680     25673     25681     25675     25682     25675     25683
     25684     25685     25686     25687     25684     25686     25686     25688
     25686     25689     25684     25690     25684     25691     25684     25692
     25686     25693     25686     25694     25695     25696     25697     25698
     25695     25697     25697     25699     25697     25700     25695     25701
     25695     25702     25695     25703     25697     25704     25697     25705
     25706     25707     25708     25709     25706     25708     25708     25710
     25708     25711     25706     25712     25706     25713     25706     25714
     25708     25715     25708     25716     25717     25718     25719     25720
     25717     25719     25719     25721     25719     25722     25717     25723
     25717     25724     25717     25725     25719     25726     25719     25727
     25728     25729     25730     25731     25728     25730     25730     25732
     25730     25733     25728     25734     25728     25735     25728     25736
     25730     25737     25730     25738     25739     25740     25741     25742
     25739     25741     25741     25743     25741     25744     25739     25745
     25739     25746     25739     25747     25741     25748     25741     25749
     25750     25751     25752     25753     25750     25752     25752     25754
     25752     25755     25750     25756     25750     25757     25750     25758
     25752     25759     25752     25760     25761     25762     25763     25764
     25761     25763     25763     25765     25763     25766     25761     25767
     25761     25768     25761     25769     25763     25770     25763     25771
     25772     25773     25774     25775     25772     25774     25774     25776
     25774     25777     25772     25778     25772     25779     25772     25780
     25774     25781     25774     25782     25783     25784     25785     25786
     25783     25785     25785     25787     25785     25788     25783     25789
     25783     25790     25783     25791     25785     25792     25785     25793
     25794     25795     25796     25797     25794     25796     25796     25798
     25796     25799     25794     25800     25794     25801     25794     25802
     25796     25803     25796     25804     25805     25806     25807     25808
     25805     25807     25807     25809     25807     25810     25805     25811
     25805     25812     25805     25813     25807     25814     25807     25815
     25816     25817     25818     25819     25816     25818     25818     25820
     25818     25821     25816     25822     25816     25823     25816     25824
     25818     25825     25818     25826     25827     25828     25829     25830
     25827     25829     25829     25831     25829     25832     25827     25833
     25827     25834     25827     25835     25829     25836     25829     25837
     25838     25839     25840     25841     25838     25840     25840     25842
     25840     25843     25838     25844     25838     25845     25838     25846
     25840     25847     25840     25848     25849     25850     25851     25852
     25849     25851     25851     25853     25851     25854     25849     25855
     25849     25856     25849     25857     25851     25858     25851     25859
     25860     25861     25862     25863     25860     25862     25862     25864
     25862     25865     25860     25866     25860     25867     25860     25868
     25862     25869     25862     25870     25871     25872     25873     25874
     25871     25873     25873     25875     25873     25876     25871     25877
     25871     25878     25871     25879     25873     25880     25873     25881
     25882     25883     25884     25885     25882     25884     25884     25886
     25884     25887     25882     25888     25882     25889     25882     25890
     25884     25891     25884     25892     25893     25894     25895     25896
     25893     25895     25895     25897     25895     25898     25893     25899
     25893     25900     25893     25901     25895     25902     25895     25903
     25904     25905     25906     25907     25904     25906     25906     25908
     25906     25909     25904     25910     25904     25911     25904     25912
     25906     25913     25906     25914     25915     25916     25917     25918
     25915     25917     25917     25919     25917     25920     25915     25921
     25915     25922     25915     25923     25917     25924     25917     25925
     25926     25927     25928     25929     25926     25928     25928     25930
     25928     25931     25926     25932     25926     25933     25926     25934
     25928     25935     25928     25936     25937     25938     25939     25940
     25937     25939     25939     25941     25939     25942     25937     25943
     25937     25944     25937     25945     25939     25946     25939     25947
     25948     25949     25950     25951     25948     25950     25950     25952
     25950     25953     25948     25954     25948     25955     25948     25956
     25950     25957     25950     25958     25959     25960     25961     25962
     25959     25961     25961     25963     25961     25964     25959     25965
     25959     25966     25959     25967     25961     25968     25961     25969
     25970     25971     25972     25973     25970     25972     25972     25974
     25972     25975     25970     25976     25970     25977     25970     25978
     25972     25979     25972     25980     25981     25982     25983     25984
     25981     25983     25983     25985     25983     25986     25981     25987
     25981     25988     25981     25989     25983     25990     25983     25991
     25992     25993     25994     25995     25992     25994     25994     25996
     25994     25997     25992     25998     25992     25999     25992     26000
     25994     26001     25994     26002     26003     26004     26005     26006
     26003     26005     26005     26007     26005     26008     26003     26009
     26003     26010     26003     26011     26005     26012     26005     26013
     26014     26015     26016     26017     26014     26016     26016     26018
     26016     26019     26014     26020     26014     26021     26014     26022
     26016     26023     26016     26024     26025     26026     26027     26028
     26025     26027     26027     26029     26027     26030     26025     26031
     26025     26032     26025     26033     26027     26034     26027     26035
     26036     26037     26038     26039     26036     26038     26038     26040
     26038     26041     26036     26042     26036     26043     26036     26044
     26038     26045     26038     26046     26047     26048     26049     26050
     26047     26049     26049     26051     26049     26052     26047     26053
     26047     26054     26047     26055     26049     26056     26049     26057
     26058     26059     26060     26061     26058     26060     26060     26062
     26060     26063     26058     26064     26058     26065     26058     26066
     26060     26067     26060     26068     26069     26070     26071     26072
     26069     26071     26071     26073     26071     26074     26069     26075
     26069     26076     26069     26077     26071     26078     26071     26079
     26080     26081     26082     26083     26080     26082     26082     26084
     26082     26085     26080     26086     26080     26087     26080     26088
     26082     26089     26082     26090     26091     26092     26093     26094
     26091     26093     26093     26095     26093     26096     26091     26097
     26091     26098     26091     26099     26093     26100     26093     26101
     26102     26103     26104     26105     26102     26104     26104     26106
     26104     26107     26102     26108     26102     26109     26102     26110
     26104     26111     26104     26112     26113     26114     26115     26116
     26113     26115     26115     26117     26115     26118     26113     26119
     26113     26120     26113     26121     26115     26122     26115     26123
     26124     26125     26126     26127     26124     26126     26126     26128
     26126     26129     26124     26130     26124     26131     26124     26132
     26126     26133     26126     26134     26135     26136     26137     26138
     26135     26137     26137     26139     26137     26140     26135     26141
     26135     26142     26135     26143     26137     26144     26137     26145
     26146     26147     26148     26149     26146     26148     26148     26150
     26148     26151     26146     26152     26146     26153     26146     26154
     26148     26155     26148     26156     26157     26158     26159     26160
     26157     26159     26159     26161     26159     26162     26157     26163
     26157     26164     26157     26165     26159     26166     26159     26167
     26168     26169     26170     26171     26168     26170     26170     26172
     26170     26173     26168     26174     26168     26175     26168     26176
     26170     26177     26170     26178     26179     26180     26181     26182
     26179     26181     26181     26183     26181     26184     26179     26185
     26179     26186     26179     26187     26181     26188     26181     26189
     26190     26191     26192     26193     26190     26192     26192     26194
     26192     26195     26190     26196     26190     26197     26190     26198
     26192     26199     26192     26200     26201     26202     26203     26204
     26201     26203     26203     26205     26203     26206     26201     26207
     26201     26208     26201     26209     26203     26210     26203     26211
     26212     26213     26214     26215     26212     26214     26214     26216
     26214     26217     26212     26218     26212     26219     26212     26220
     26214     26221     26214     26222     26223     26224     26225     26226
     26223     26225     26225     26227     26225     26228     26223     26229
     26223     26230     26223     26231     26225     26232     26225     26233
     26234     26235     26236     26237     26234     26236     26236     26238
     26236     26239     26234     26240     26234     26241     26234     26242
     26236     26243     26236     26244     26245     26246     26247     26248
     26245     26247     26247     26249     26247     26250     26245     26251
     26245     26252     26245     26253     26247     26254     26247     26255
     26256     26257     26258     26259     26256     26258     26258     26260
     26258     26261     26256     26262     26256     26263     26256     26264
     26258     26265     26258     26266     26267     26268     26269     26270
     26267     26269     26269     26271     26269     26272     26267     26273
     26267     26274     26267     26275     26269     26276     26269     26277
     26278     26279     26280     26281     26278     26280     26280     26282
     26280     26283     26278     26284     26278     26285     26278     26286
     26280     26287     26280     26288     26289     26290     26291     26292
     26289     26291     26291     26293     26291     26294     26289     26295
     26289     26296     26289     26297     26291     26298     26291     26299
     26300     26301     26302     26303     26300     26302     26302     26304
     26302     26305     26300     26306     26300     26307     26300     26308
     26302     26309     26302     26310     26311     26312     26313     26314
     26311     26313     26313     26315     26313     26316     26311     26317
     26311     26318     26311     26319     26313     26320     26313     26321
     26322     26323     26324     26325     26322     26324     26324     26326
     26324     26327     26322     26328     26322     26329     26322     26330
     26324     26331     26324     26332     26333     26334     26335     26336
     26333     26335     26335     26337     26335     26338     26333     26339
     26333     26340     26333     26341     26335     26342     26335     26343
     26344     26345     26346     26347     26344     26346     26346     26348
     26346     26349     26344     26350     26344     26351     26344     26352
     26346     26353     26346     26354     26355     26356     26357     26358
     26355     26357     26357     26359     26357     26360     26355     26361
     26355     26362     26355     26363     26357     26364     26357     26365
     26366     26367     26368     26369     26366     26368     26368     26370
     26368     26371     26366     26372     26366     26373     26366     26374
     26368     26375     26368     26376     26377     26378     26379     26380
     26377     26379     26379     26381     26379     26382     26377     26383
     26377     26384     26377     26385     26379     26386     26379     26387
     26388     26389     26390     26391     26388     26390     26390     26392
     26390     26393     26388     26394     26388     26395     26388     26396
     26390     26397     26390     26398     26399     26400     26401     26402
     26399     26401     26401     26403     26401     26404     26399     26405
     26399     26406     26399     26407     26401     26408     26401     26409
     26410     26411     26412     26413     26410     26412     26412     26414
     26412     26415     26410     26416     26410     26417     26410     26418
     26412     26419     26412     26420     26421     26422     26423     26424
     26421     26423     26423     26425     26423     26426     26421     26427
     26421     26428     26421     26429     26423     26430     26423     26431
     26432     26433     26434     26435     26432     26434     26434     26436
     26434     26437     26432     26438     26432     26439     26432     26440
     26434     26441     26434     26442     26443     26444     26445     26446
     26443     26445     26445     26447     26445     26448     26443     26449
     26443     26450     26443     26451     26445     26452     26445     26453
     26454     26455     26456     26457     26454     26456     26456     26458
     26456     26459     26454     26460     26454     26461     26454     26462
     26456     26463     26456     26464     26465     26466     26467     26468
     26465     26467     26467     26469     26467     26470     26465     26471
     26465     26472     26465     26473     26467     26474     26467     26475
     26476     26477     26478     26479     26476     26478     26478     26480
     26478     26481     26476     26482     26476     26483     26476     26484
     26478     26485     26478     26486     26487     26488     26489     26490
     26487     26489     26489     26491     26489     26492     26487     26493
     26487     26494     26487     26495     26489     26496     26489     26497
     26498     26499     26500     26501     26498     26500     26500     26502
     26500     26503     26498     26504     26498     26505     26498     26506
     26500     26507     26500     26508     26509     26510     26511     26512
     26509     26511     26511     26513     26511     26514     26509     26515
     26509     26516     26509     26517     26511     26518     26511     26519
     26520     26521     26522     26523     26520     26522     26522     26524
     26522     26525     26520     26526     26520     26527     26520     26528
     26522     26529     26522     26530     26531     26532     26533     26534
     26531     26533     26533     26535     26533     26536     26531     26537
     26531     26538     26531     26539     26533     26540     26533     26541
     26542     26543     26544     26545     26542     26544     26544     26546
     26544     26547     26542     26548     26542     26549     26542     26550
     26544     26551     26544     26552     26553     26554     26555     26556
     26553     26555     26555     26557     26555     26558     26553     26559
     26553     26560     26553     26561     26555     26562     26555     26563
     26564     26565     26566     26567     26564     26566     26566     26568
     26566     26569     26564     26570     26564     26571     26564     26572
     26566     26573     26566     26574     26575     26576     26577     26578
     26575     26577     26577     26579     26577     26580     26575     26581
     26575     26582     26575     26583     26577     26584     26577     26585
     26586     26587     26588     26589     26586     26588     26588     26590
     26588     26591     26586     26592     26586     26593     26586     26594
     26588     26595     26588     26596     26597     26598     26599     26600
     26597     26599     26599     26601     26599     26602     26597     26603
     26597     26604     26597     26605     26599     26606     26599     26607
     26608     26609     26610     26611     26608     26610     26610     26612
     26610     26613     26608     26614     26608     26615     26608     26616
     26610     26617     26610     26618     26619     26620     26621     26622
     26619     26621     26621     26623     26621     26624     26619     26625
     26619     26626     26619     26627     26621     26628     26621     26629
     26630     26631     26632     26633     26630     26632     26632     26634
     26632     26635     26630     26636     26630     26637     26630     26638
     26632     26639     26632     26640     26641     26642     26643     26644
     26641     26643     26643     26645     26643     26646     26641     26647
     26641     26648     26641     26649     26643     26650     26643     26651
     26652     26653     26654     26655     26652     26654     26654     26656
     26654     26657     26652     26658     26652     26659     26652     26660
     26654     26661     26654     26662     26663     26664     26665     26666
     26663     26665     26665     26667     26665     26668     26663     26669
     26663     26670     26663     26671     26665     26672     26665     26673
     26674     26675     26676     26677     26674     26676     26676     26678
     26676     26679     26674     26680     26674     26681     26674     26682
     26676     26683     26676     26684     26685     26686     26687     26688
     26685     26687     26687     26689     26687     26690     26685     26691
     26685     26692     26685     26693     26687     26694     26687     26695
     26696     26697     26698     26699     26696     26698     26698     26700
     26698     26701     26696     26702     26696     26703     26696     26704
     26698     26705     26698     26706     26707     26708     26709     26710
     26707     26709     26709     26711     26709     26712     26707     26713
     26707     26714     26707     26715     26709     26716     26709     26717
     26718     26719     26720     26721     26718     26720     26720     26722
     26720     26723     26718     26724     26718     26725     26718     26726
     26720     26727     26720     26728     26729     26730     26731     26732
     26729     26731     26731     26733     26731     26734     26729     26735
     26729     26736     26729     26737     26731     26738     26731     26739
     26740     26741     26742     26743     26740     26742     26742     26744
     26742     26745     26740     26746     26740     26747     26740     26748
     26742     26749     26742     26750     26751     26752     26753     26754
     26751     26753     26753     26755     26753     26756     26751     26757
     26751     26758     26751     26759     26753     26760     26753     26761
     26762     26763     26764     26765     26762     26764     26764     26766
     26764     26767     26762     26768     26762     26769     26762     26770
     26764     26771     26764     26772     26773     26774     26775     26776
     26773     26775     26775     26777     26775     26778     26773     26779
     26773     26780     26773     26781     26775     26782     26775     26783
     26784     26785     26786     26787     26784     26786     26786     26788
     26786     26789     26784     26790     26784     26791     26784     26792
     26786     26793     26786     26794     26795     26796     26797     26798
     26795     26797     26797     26799     26797     26800     26795     26801
     26795     26802     26795     26803     26797     26804     26797     26805
     26806     26807     26808     26809     26806     26808     26808     26810
     26808     26811     26806     26812     26806     26813     26806     26814
     26808     26815     26808     26816     26817     26818     26819     26820
     26817     26819     26819     26821     26819     26822     26817     26823
     26817     26824     26817     26825     26819     26826     26819     26827
     26828     26829     26830     26831     26828     26830     26830     26832
     26830     26833     26828     26834     26828     26835     26828     26836
     26830     26837     26830     26838     26839     26840     26841     26842
     26839     26841     26841     26843     26841     26844     26839     26845
     26839     26846     26839     26847     26841     26848     26841     26849
     26850     26851     26852     26853     26850     26852     26852     26854
     26852     26855     26850     26856     26850     26857     26850     26858
     26852     26859     26852     26860     26861     26862     26863     26864
     26861     26863     26863     26865     26863     26866     26861     26867
     26861     26868     26861     26869     26863     26870     26863     26871
     26872     26873     26874     26875     26872     26874     26874     26876
     26874     26877     26872     26878     26872     26879     26872     26880
     26874     26881     26874     26882     26883     26884     26885     26886
     26883     26885     26885     26887     26885     26888     26883     26889
     26883     26890     26883     26891     26885     26892     26885     26893
     26894     26895     26896     26897     26894     26896     26896     26898
     26896     26899     26894     26900     26894     26901     26894     26902
     26896     26903     26896     26904     26905     26906     26907     26908
     26905     26907     26907     26909     26907     26910     26905     26911
     26905     26912     26905     26913     26907     26914     26907     26915
     26916     26917     26918     26919     26916     26918     26918     26920
     26918     26921     26916     26922     26916     26923     26916     26924
     26918     26925     26918     26926     26927     26928     26929     26930
     26927     26929     26929     26931     26929     26932     26927     26933
     26927     26934     26927     26935     26929     26936     26929     26937
     26938     26939     26940     26941     26938     26940     26940     26942
     26940     26943     26938     26944     26938     26945     26938     26946
     26940     26947     26940     26948     26949     26950     26951     26952
     26949     26951     26951     26953     26951     26954     26949     26955
     26949     26956     26949     26957     26951     26958     26951     26959
     26960     26961     26962     26963     26960     26962     26962     26964
     26962     26965     26960     26966     26960     26967     26960     26968
     26962     26969     26962     26970     26971     26972     26973     26974
     26971     26973     26973     26975     26973     26976     26971     26977
     26971     26978     26971     26979     26973     26980     26973     26981
     26982     26983     26984     26985     26982     26984     26984     26986
     26984     26987     26982     26988     26982     26989     26982     26990
     26984     26991     26984     26992     26993     26994     26995     26996
     26993     26995     26995     26997     26995     26998     26993     26999
     26993     27000     26993     27001     26995     27002     26995     27003
     27004     27005     27006     27007     27004     27006     27006     27008
     27006     27009     27004     27010     27004     27011     27004     27012
     27006     27013     27006     27014     27015     27016     27017     27018
     27015     27017     27017     27019     27017     27020     27015     27021
     27015     27022     27015     27023     27017     27024     27017     27025
     27026     27027     27028     27029     27026     27028     27028     27030
     27028     27031     27026     27032     27026     27033     27026     27034
     27028     27035     27028     27036     27037     27038     27039     27040
     27037     27039     27039     27041     27039     27042     27037     27043
     27037     27044     27037     27045     27039     27046     27039     27047
     27048     27049     27050     27051     27048     27050     27050     27052
     27050     27053     27048     27054     27048     27055     27048     27056
     27050     27057     27050     27058     27059     27060     27061     27062
     27059     27061     27061     27063     27061     27064     27059     27065
     27059     27066     27059     27067     27061     27068     27061     27069
     27070     27071     27072     27073     27070     27072     27072     27074
     27072     27075     27070     27076     27070     27077     27070     27078
     27072     27079     27072     27080     27081     27082     27083     27084
     27081     27083     27083     27085     27083     27086     27081     27087
     27081     27088     27081     27089     27083     27090     27083     27091
     27092     27093     27094     27095     27092     27094     27094     27096
     27094     27097     27092     27098     27092     27099     27092     27100
     27094     27101     27094     27102     27103     27104     27105     27106
     27103     27105     27105     27107     27105     27108     27103     27109
     27103     27110     27103     27111     27105     27112     27105     27113
     27114     27115     27116     27117     27114     27116     27116     27118
     27116     27119     27114     27120     27114     27121     27114     27122
     27116     27123     27116     27124     27125     27126     27127     27128
     27125     27127     27127     27129     27127     27130     27125     27131
     27125     27132     27125     27133     27127     27134     27127     27135
     27136     27137     27138     27139     27136     27138     27138     27140
     27138     27141     27136     27142     27136     27143     27136     27144
     27138     27145     27138     27146     27147     27148     27149     27150
     27147     27149     27149     27151     27149     27152     27147     27153
     27147     27154     27147     27155     27149     27156     27149     27157
     27158     27159     27160     27161     27158     27160     27160     27162
     27160     27163     27158     27164     27158     27165     27158     27166
     27160     27167     27160     27168     27169     27170     27171     27172
     27169     27171     27171     27173     27171     27174     27169     27175
     27169     27176     27169     27177     27171     27178     27171     27179
     27180     27181     27182     27183     27180     27182     27182     27184
     27182     27185     27180     27186     27180     27187     27180     27188
     27182     27189     27182     27190     27191     27192     27193     27194
     27191     27193     27193     27195     27193     27196     27191     27197
     27191     27198     27191     27199     27193     27200     27193     27201
     27202     27203     27204     27205     27202     27204     27204     27206
     27204     27207     27202     27208     27202     27209     27202     27210
     27204     27211     27204     27212     27213     27214     27215     27216
     27213     27215     27215     27217     27215     27218     27213     27219
     27213     27220     27213     27221     27215     27222     27215     27223
     27224     27225     27226     27227     27224     27226     27226     27228
     27226     27229     27224     27230     27224     27231     27224     27232
     27226     27233     27226     27234     27235     27236     27237     27238
     27235     27237     27237     27239     27237     27240     27235     27241
     27235     27242     27235     27243     27237     27244     27237     27245
     27246     27247     27248     27249     27246     27248     27248     27250
     27248     27251     27246     27252     27246     27253     27246     27254
     27248     27255     27248     27256     27257     27258     27259     27260
     27257     27259     27259     27261     27259     27262     27257     27263
     27257     27264     27257     27265     27259     27266     27259     27267
     27268     27269     27270     27271     27268     27270     27270     27272
     27270     27273     27268     27274     27268     27275     27268     27276
     27270     27277     27270     27278     27279     27280     27281     27282
     27279     27281     27281     27283     27281     27284     27279     27285
     27279     27286     27279     27287     27281     27288     27281     27289
     27290     27291     27292     27293     27290     27292     27292     27294
     27292     27295     27290     27296     27290     27297     27290     27298
     27292     27299     27292     27300     27301     27302     27303     27304
     27301     27303     27303     27305     27303     27306     27301     27307
     27301     27308     27301     27309     27303     27310     27303     27311
     27312     27313     27314     27315     27312     27314     27314     27316
     27314     27317     27312     27318     27312     27319     27312     27320
     27314     27321     27314     27322     27323     27324     27325     27326
     27323     27325     27325     27327     27325     27328     27323     27329
     27323     27330     27323     27331     27325     27332     27325     27333
     27334     27335     27336     27337     27334     27336     27336     27338
     27336     27339     27334     27340     27334     27341     27334     27342
     27336     27343     27336     27344     27345     27346     27347     27348
     27345     27347     27347     27349     27347     27350     27345     27351
     27345     27352     27345     27353     27347     27354     27347     27355
     27356     27357     27358     27359     27356     27358     27358     27360
     27358     27361     27356     27362     27356     27363     27356     27364
     27358     27365     27358     27366     27367     27368     27369     27370
     27367     27369     27369     27371     27369     27372     27367     27373
     27367     27374     27367     27375     27369     27376     27369     27377
     27378     27379     27380     27381     27378     27380     27380     27382
     27380     27383     27378     27384     27378     27385     27378     27386
     27380     27387     27380     27388     27389     27390     27391     27392
     27389     27391     27391     27393     27391     27394     27389     27395
     27389     27396     27389     27397     27391     27398     27391     27399
     27400     27401     27402     27403     27400     27402     27402     27404
     27402     27405     27400     27406     27400     27407     27400     27408
     27402     27409     27402     27410     27411     27412     27413     27414
     27411     27413     27413     27415     27413     27416     27411     27417
     27411     27418     27411     27419     27413     27420     27413     27421
     27422     27423     27424     27425     27422     27424     27424     27426
     27424     27427     27422     27428     27422     27429     27422     27430
     27424     27431     27424     27432     27433     27434     27435     27436
     27433     27435     27435     27437     27435     27438     27433     27439
     27433     27440     27433     27441     27435     27442     27435     27443
     27444     27445     27446     27447     27444     27446     27446     27448
     27446     27449     27444     27450     27444     27451     27444     27452
     27446     27453     27446     27454     27455     27456     27457     27458
     27455     27457     27457     27459     27457     27460     27455     27461
     27455     27462     27455     27463     27457     27464     27457     27465
     27466     27467     27468     27469     27466     27468     27468     27470
     27468     27471     27466     27472     27466     27473     27466     27474
     27468     27475     27468     27476     27477     27478     27479     27480
     27477     27479     27479     27481     27479     27482     27477     27483
     27477     27484     27477     27485     27479     27486     27479     27487
     27488     27489     27490     27491     27488     27490     27490     27492
     27490     27493     27488     27494     27488     27495     27488     27496
     27490     27497     27490     27498     27499     27500     27501     27502
     27499     27501     27501     27503     27501     27504     27499     27505
     27499     27506     27499     27507     27501     27508     27501     27509
     27510     27511     27512     27513     27510     27512     27512     27514
     27512     27515     27510     27516     27510     27517     27510     27518
     27512     27519     27512     27520     27521     27522     27523     27524
     27521     27523     27523     27525     27523     27526     27521     27527
     27521     27528     27521     27529     27523     27530     27523     27531
     27532     27533     27534     27535     27532     27534     27534     27536
     27534     27537     27532     27538     27532     27539     27532     27540
     27534     27541     27534     27542     27543     27544     27545     27546
     27543     27545     27545     27547     27545     27548     27543     27549
     27543     27550     27543     27551     27545     27552     27545     27553
     27554     27555     27556     27557     27554     27556     27556     27558
     27556     27559     27554     27560     27554     27561     27554     27562
     27556     27563     27556     27564     27565     27566     27567     27568
     27565     27567     27567     27569     27567     27570     27565     27571
     27565     27572     27565     27573     27567     27574     27567     27575
     27576     27577     27578     27579     27576     27578     27578     27580
     27578     27581     27576     27582     27576     27583     27576     27584
     27578     27585     27578     27586     27587     27588     27589     27590
     27587     27589     27589     27591     27589     27592     27587     27593
     27587     27594     27587     27595     27589     27596     27589     27597
     27598     27599     27600     27601     27598     27600     27600     27602
     27600     27603     27598     27604     27598     27605     27598     27606
     27600     27607     27600     27608     27609     27610     27611     27612
     27609     27611     27611     27613     27611     27614     27609     27615
     27609     27616     27609     27617     27611     27618     27611     27619
     27620     27621     27622     27623     27620     27622     27622     27624
     27622     27625     27620     27626     27620     27627     27620     27628
     27622     27629     27622     27630     27631     27632     27633     27634
     27631     27633     27633     27635     27633     27636     27631     27637
     27631     27638     27631     27639     27633     27640     27633     27641
     27642     27643     27644     27645     27642     27644     27644     27646
     27644     27647     27642     27648     27642     27649     27642     27650
     27644     27651     27644     27652     27653     27654     27655     27656
     27653     27655     27655     27657     27655     27658     27653     27659
     27653     27660     27653     27661     27655     27662     27655     27663
     27664     27665     27666     27667     27664     27666     27666     27668
     27666     27669     27664     27670     27664     27671     27664     27672
     27666     27673     27666     27674     27675     27676     27677     27678
     27675     27677     27677     27679     27677     27680     27675     27681
     27675     27682     27675     27683     27677     27684     27677     27685
     27686     27687     27688     27689     27686     27688     27688     27690
     27688     27691     27686     27692     27686     27693     27686     27694
     27688     27695     27688     27696     27697     27698     27699     27700
     27697     27699     27699     27701     27699     27702     27697     27703
     27697     27704     27697     27705     27699     27706     27699     27707
     27708     27709     27710     27711     27708     27710     27710     27712
     27710     27713     27708     27714     27708     27715     27708     27716
     27710     27717     27710     27718     27719     27720     27721     27722
     27719     27721     27721     27723     27721     27724     27719     27725
     27719     27726     27719     27727     27721     27728     27721     27729
     27730     27731     27732     27733     27730     27732     27732     27734
     27732     27735     27730     27736     27730     27737     27730     27738
     27732     27739     27732     27740     27741     27742     27743     27744
     27741     27743     27743     27745     27743     27746     27741     27747
     27741     27748     27741     27749     27743     27750     27743     27751
     27752     27753     27754     27755     27752     27754     27754     27756
     27754     27757     27752     27758     27752     27759     27752     27760
     27754     27761     27754     27762     27763     27764     27765     27766
     27763     27765     27765     27767     27765     27768     27763     27769
     27763     27770     27763     27771     27765     27772     27765     27773
     27774     27775     27776     27777     27774     27776     27776     27778
     27776     27779     27774     27780     27774     27781     27774     27782
     27776     27783     27776     27784     27785     27786     27787     27788
     27785     27787     27787     27789     27787     27790     27785     27791
     27785     27792     27785     27793     27787     27794     27787     27795
     27796     27797     27798     27799     27796     27798     27798     27800
     27798     27801     27796     27802     27796     27803     27796     27804
     27798     27805     27798     27806     27807     27808     27809     27810
     27807     27809     27809     27811     27809     27812     27807     27813
     27807     27814     27807     27815     27809     27816     27809     27817
     27818     27819     27820     27821     27818     27820     27820     27822
     27820     27823     27818     27824     27818     27825     27818     27826
     27820     27827     27820     27828     27829     27830     27831     27832
     27829     27831     27831     27833     27831     27834     27829     27835
     27829     27836     27829     27837     27831     27838     27831     27839
     27840     27841     27842     27843     27840     27842     27842     27844
     27842     27845     27840     27846     27840     27847     27840     27848
     27842     27849     27842     27850     27851     27852     27853     27854
     27851     27853     27853     27855     27853     27856     27851     27857
     27851     27858     27851     27859     27853     27860     27853     27861
     27862     27863     27864     27865     27862     27864     27864     27866
     27864     27867     27862     27868     27862     27869     27862     27870
     27864     27871     27864     27872     27873     27874     27875     27876
     27873     27875     27875     27877     27875     27878     27873     27879
     27873     27880     27873     27881     27875     27882     27875     27883
     27884     27885     27886     27887     27884     27886     27886     27888
     27886     27889     27884     27890     27884     27891     27884     27892
     27886     27893     27886     27894     27895     27896     27897     27898
     27895     27897     27897     27899     27897     27900     27895     27901
     27895     27902     27895     27903     27897     27904     27897     27905
     27906     27907     27908     27909     27906     27908     27908     27910
     27908     27911     27906     27912     27906     27913     27906     27914
     27908     27915     27908     27916     27917     27918     27919     27920
     27917     27919     27919     27921     27919     27922     27917     27923
     27917     27924     27917     27925     27919     27926     27919     27927
     27928     27929     27930     27931     27928     27930     27930     27932
     27930     27933     27928     27934     27928     27935     27928     27936
     27930     27937     27930     27938     27939     27940     27941     27942
     27939     27941     27941     27943     27941     27944     27939     27945
     27939     27946     27939     27947     27941     27948     27941     27949
     27950     27951     27952     27953     27950     27952     27952     27954
     27952     27955     27950     27956     27950     27957     27950     27958
     27952     27959     27952     27960     27961     27962     27963     27964
     27961     27963     27963     27965     27963     27966     27961     27967
     27961     27968     27961     27969     27963     27970     27963     27971
     27972     27973     27974     27975     27972     27974     27974     27976
     27974     27977     27972     27978     27972     27979     27972     27980
     27974     27981     27974     27982     27983     27984     27985     27986
     27983     27985     27985     27987     27985     27988     27983     27989
     27983     27990     27983     27991     27985     27992     27985     27993
     27994     27995     27996     27997     27994     27996     27996     27998
     27996     27999     27994     28000     27994     28001     27994     28002
     27996     28003     27996     28004     28005     28006     28007     28008
     28005     28007     28007     28009     28007     28010     28005     28011
     28005     28012     28005     28013     28007     28014     28007     28015
     28016     28017     28018     28019     28016     28018     28018     28020
     28018     28021     28016     28022     28016     28023     28016     28024
     28018     28025     28018     28026     28027     28028     28029     28030
     28027     28029     28029     28031     28029     28032     28027     28033
     28027     28034     28027     28035     28029     28036     28029     28037
     28038     28039     28040     28041     28038     28040     28040     28042
     28040     28043     28038     28044     28038     28045     28038     28046
     28040     28047     28040     28048     28049     28050     28051     28052
     28049     28051     28051     28053     28051     28054     28049     28055
     28049     28056     28049     28057     28051     28058     28051     28059
     28060     28061     28062     28063     28060     28062     28062     28064
     28062     28065     28060     28066     28060     28067     28060     28068
     28062     28069     28062     28070     28071     28072     28073     28074
     28071     28073     28073     28075     28073     28076     28071     28077
     28071     28078     28071     28079     28073     28080     28073     28081
     28082     28083     28084     28085     28082     28084     28084     28086
     28084     28087     28082     28088     28082     28089     28082     28090
     28084     28091     28084     28092     28093     28094     28095     28096
     28093     28095     28095     28097     28095     28098     28093     28099
     28093     28100     28093     28101     28095     28102     28095     28103
     28104     28105     28106     28107     28104     28106     28106     28108
     28106     28109     28104     28110     28104     28111     28104     28112
     28106     28113     28106     28114     28115     28116     28117     28118
     28115     28117     28117     28119     28117     28120     28115     28121
     28115     28122     28115     28123     28117     28124     28117     28125
     28126     28127     28128     28129     28126     28128     28128     28130
     28128     28131     28126     28132     28126     28133     28126     28134
     28128     28135     28128     28136     28137     28138     28139     28140
     28137     28139     28139     28141     28139     28142     28137     28143
     28137     28144     28137     28145     28139     28146     28139     28147
     28148     28149     28150     28151     28148     28150     28150     28152
     28150     28153     28148     28154     28148     28155     28148     28156
     28150     28157     28150     28158     28159     28160     28161     28162
     28159     28161     28161     28163     28161     28164     28159     28165
     28159     28166     28159     28167     28161     28168     28161     28169
     28170     28171     28172     28173     28170     28172     28172     28174
     28172     28175     28170     28176     28170     28177     28170     28178
     28172     28179     28172     28180     28181     28182     28183     28184
     28181     28183     28183     28185     28183     28186     28181     28187
     28181     28188     28181     28189     28183     28190     28183     28191
     28192     28193     28194     28195     28192     28194     28194     28196
     28194     28197     28192     28198     28192     28199     28192     28200
     28194     28201     28194     28202     28203     28204     28205     28206
     28203     28205     28205     28207     28205     28208     28203     28209
     28203     28210     28203     28211     28205     28212     28205     28213
     28214     28215     28216     28217     28214     28216     28216     28218
     28216     28219     28214     28220     28214     28221     28214     28222
     28216     28223     28216     28224     28225     28226     28227     28228
     28225     28227     28227     28229     28227     28230     28225     28231
     28225     28232     28225     28233     28227     28234     28227     28235
     28236     28237     28238     28239     28236     28238     28238     28240
     28238     28241     28236     28242     28236     28243     28236     28244
     28238     28245     28238     28246     28247     28248     28249     28250
     28247     28249     28249     28251     28249     28252     28247     28253
     28247     28254     28247     28255     28249     28256     28249     28257
     28258     28259     28260     28261     28258     28260     28260     28262
     28260     28263     28258     28264     28258     28265     28258     28266
     28260     28267     28260     28268     28269     28270     28271     28272
     28269     28271     28271     28273     28271     28274     28269     28275
     28269     28276     28269     28277     28271     28278     28271     28279
     28280     28281     28282     28283     28280     28282     28282     28284
     28282     28285     28280     28286     28280     28287     28280     28288
     28282     28289     28282     28290     28291     28292     28293     28294
     28291     28293     28293     28295     28293     28296     28291     28297
     28291     28298     28291     28299     28293     28300     28293     28301
     28302     28303     28304     28305     28302     28304     28304     28306
     28304     28307     28302     28308     28302     28309     28302     28310
     28304     28311     28304     28312     28313     28314     28315     28316
     28313     28315     28315     28317     28315     28318     28313     28319
     28313     28320     28313     28321     28315     28322     28315     28323
     28324     28325     28326     28327     28324     28326     28326     28328
     28326     28329     28324     28330     28324     28331     28324     28332
     28326     28333     28326     28334     28335     28336     28337     28338
     28335     28337     28337     28339     28337     28340     28335     28341
     28335     28342     28335     28343     28337     28344     28337     28345
     28346     28347     28348     28349     28346     28348     28348     28350
     28348     28351     28346     28352     28346     28353     28346     28354
     28348     28355     28348     28356     28357     28358     28359     28360
     28357     28359     28359     28361     28359     28362     28357     28363
     28357     28364     28357     28365     28359     28366     28359     28367
     28368     28369     28370     28371     28368     28370     28370     28372
     28370     28373     28368     28374     28368     28375     28368     28376
     28370     28377     28370     28378     28379     28380     28381     28382
     28379     28381     28381     28383     28381     28384     28379     28385
     28379     28386     28379     28387     28381     28388     28381     28389
     28390     28391     28392     28393     28390     28392     28392     28394
     28392     28395     28390     28396     28390     28397     28390     28398
     28392     28399     28392     28400     28401     28402     28403     28404
     28401     28403     28403     28405     28403     28406     28401     28407
     28401     28408     28401     28409     28403     28410     28403     28411
     28412     28413     28414     28415     28412     28414     28414     28416
     28414     28417     28412     28418     28412     28419     28412     28420
     28414     28421     28414     28422     28423     28424     28425     28426
     28423     28425     28425     28427     28425     28428     28423     28429
     28423     28430     28423     28431     28425     28432     28425     28433
     28434     28435     28436     28437     28434     28436     28436     28438
     28436     28439     28434     28440     28434     28441     28434     28442
     28436     28443     28436     28444     28445     28446     28447     28448
     28445     28447     28447     28449     28447     28450     28445     28451
     28445     28452     28445     28453     28447     28454     28447     28455
     28456     28457     28458     28459     28456     28458     28458     28460
     28458     28461     28456     28462     28456     28463     28456     28464
     28458     28465     28458     28466     28467     28468     28469     28470
     28467     28469     28469     28471     28469     28472     28467     28473
     28467     28474     28467     28475     28469     28476     28469     28477
     28478     28479     28480     28481     28478     28480     28480     28482
     28480     28483     28478     28484     28478     28485     28478     28486
     28480     28487     28480     28488     28489     28490     28491     28492
     28489     28491     28491     28493     28491     28494     28489     28495
     28489     28496     28489     28497     28491     28498     28491     28499
     28500     28501     28502     28503     28500     28502     28502     28504
     28502     28505     28500     28506     28500     28507     28500     28508
     28502     28509     28502     28510     28511     28512     28513     28514
     28511     28513     28513     28515     28513     28516     28511     28517
     28511     28518     28511     28519     28513     28520     28513     28521
     28522     28523     28524     28525     28522     28524     28524     28526
     28524     28527     28522     28528     28522     28529     28522     28530
     28524     28531     28524     28532     28533     28534     28535     28536
     28533     28535     28535     28537     28535     28538     28533     28539
     28533     28540     28533     28541     28535     28542     28535     28543
     28544     28545     28546     28547     28544     28546     28546     28548
     28546     28549     28544     28550     28544     28551     28544     28552
     28546     28553     28546     28554     28555     28556     28557     28558
     28555     28557     28557     28559     28557     28560     28555     28561
     28555     28562     28555     28563     28557     28564     28557     28565
     28566     28567     28568     28569     28566     28568     28568     28570
     28568     28571     28566     28572     28566     28573     28566     28574
     28568     28575     28568     28576     28577     28578     28579     28580
     28577     28579     28579     28581     28579     28582     28577     28583
     28577     28584     28577     28585     28579     28586     28579     28587
     28588     28589     28590     28591     28588     28590     28590     28592
     28590     28593     28588     28594     28588     28595     28588     28596
     28590     28597     28590     28598     28599     28600     28601     28602
     28599     28601     28601     28603     28601     28604     28599     28605
     28599     28606     28599     28607     28601     28608     28601     28609
     28610     28611     28612     28613     28610     28612     28612     28614
     28612     28615     28610     28616     28610     28617     28610     28618
     28612     28619     28612     28620     28621     28622     28623     28624
     28621     28623     28623     28625     28623     28626     28621     28627
     28621     28628     28621     28629     28623     28630     28623     28631
     28632     28633     28634     28635     28632     28634     28634     28636
     28634     28637     28632     28638     28632     28639     28632     28640
     28634     28641     28634     28642     28643     28644     28645     28646
     28643     28645     28645     28647     28645     28648     28643     28649
     28643     28650     28643     28651     28645     28652     28645     28653
     28654     28655     28656     28657     28654     28656     28656     28658
     28656     28659     28654     28660     28654     28661     28654     28662
     28656     28663     28656     28664     28665     28666     28667     28668
     28665     28667     28667     28669     28667     28670     28665     28671
     28665     28672     28665     28673     28667     28674     28667     28675
     28676     28677     28678     28679     28676     28678     28678     28680
     28678     28681     28676     28682     28676     28683     28676     28684
     28678     28685     28678     28686     28687     28688     28689     28690
     28687     28689     28689     28691     28689     28692     28687     28693
     28687     28694     28687     28695     28689     28696     28689     28697
     28698     28699     28700     28701     28698     28700     28700     28702
     28700     28703     28698     28704     28698     28705     28698     28706
     28700     28707     28700     28708     28709     28710     28711     28712
     28709     28711     28711     28713     28711     28714     28709     28715
     28709     28716     28709     28717     28711     28718     28711     28719
     28720     28721     28722     28723     28720     28722     28722     28724
     28722     28725     28720     28726     28720     28727     28720     28728
     28722     28729     28722     28730     28731     28732     28733     28734
     28731     28733     28733     28735     28733     28736     28731     28737
     28731     28738     28731     28739     28733     28740     28733     28741
     28742     28743     28744     28745     28742     28744     28744     28746
     28744     28747     28742     28748     28742     28749     28742     28750
     28744     28751     28744     28752     28753     28754     28755     28756
     28753     28755     28755     28757     28755     28758     28753     28759
     28753     28760     28753     28761     28755     28762     28755     28763
     28764     28765     28766     28767     28764     28766     28766     28768
     28766     28769     28764     28770     28764     28771     28764     28772
     28766     28773     28766     28774     28775     28776     28777     28778
     28775     28777     28777     28779     28777     28780     28775     28781
     28775     28782     28775     28783     28777     28784     28777     28785
     28786     28787     28788     28789     28786     28788     28788     28790
     28788     28791     28786     28792     28786     28793     28786     28794
     28788     28795     28788     28796     28797     28798     28799     28800
     28797     28799     28799     28801     28799     28802     28797     28803
     28797     28804     28797     28805     28799     28806     28799     28807
     28808     28809     28810     28811     28808     28810     28810     28812
     28810     28813     28808     28814     28808     28815     28808     28816
     28810     28817     28810     28818     28819     28820     28821     28822
     28819     28821     28821     28823     28821     28824     28819     28825
     28819     28826     28819     28827     28821     28828     28821     28829
     28830     28831     28832     28833     28830     28832     28832     28834
     28832     28835     28830     28836     28830     28837     28830     28838
     28832     28839     28832     28840     28841     28842     28843     28844
     28841     28843     28843     28845     28843     28846     28841     28847
     28841     28848     28841     28849     28843     28850     28843     28851
     28852     28853     28854     28855     28852     28854     28854     28856
     28854     28857     28852     28858     28852     28859     28852     28860
     28854     28861     28854     28862     28863     28864     28865     28866
     28863     28865     28865     28867     28865     28868     28863     28869
     28863     28870     28863     28871     28865     28872     28865     28873
     28874     28875     28876     28877     28874     28876     28876     28878
     28876     28879     28874     28880     28874     28881     28874     28882
     28876     28883     28876     28884     28885     28886     28887     28888
     28885     28887     28887     28889     28887     28890     28885     28891
     28885     28892     28885     28893     28887     28894     28887     28895
     28896     28897     28898     28899     28896     28898     28898     28900
     28898     28901     28896     28902     28896     28903     28896     28904
     28898     28905     28898     28906     28907     28908     28909     28910
     28907     28909     28909     28911     28909     28912     28907     28913
     28907     28914     28907     28915     28909     28916     28909     28917
     28918     28919     28920     28921     28918     28920     28920     28922
     28920     28923     28918     28924     28918     28925     28918     28926
     28920     28927     28920     28928     28929     28930     28931     28932
     28929     28931     28931     28933     28931     28934     28929     28935
     28929     28936     28929     28937     28931     28938     28931     28939
     28940     28941     28942     28943     28940     28942     28942     28944
     28942     28945     28940     28946     28940     28947     28940     28948
     28942     28949     28942     28950     28951     28952     28953     28954
     28951     28953     28953     28955     28953     28956     28951     28957
     28951     28958     28951     28959     28953     28960     28953     28961
     28962     28963     28964     28965     28962     28964     28964     28966
     28964     28967     28962     28968     28962     28969     28962     28970
     28964     28971     28964     28972     28973     28974     28975     28976
     28973     28975     28975     28977     28975     28978     28973     28979
     28973     28980     28973     28981     28975     28982     28975     28983
     28984     28985     28986     28987     28984     28986     28986     28988
     28986     28989     28984     28990     28984     28991     28984     28992
     28986     28993     28986     28994     28995     28996     28997     28998
     28995     28997     28997     28999     28997     29000     28995     29001
     28995     29002     28995     29003     28997     29004     28997     29005
     29006     29007     29008     29009     29006     29008     29008     29010
     29008     29011     29006     29012     29006     29013     29006     29014
     29008     29015     29008     29016     29017     29018     29019     29020
     29017     29019     29019     29021     29019     29022     29017     29023
     29017     29024     29017     29025     29019     29026     29019     29027
     29028     29029     29030     29031     29028     29030     29030     29032
     29030     29033     29028     29034     29028     29035     29028     29036
     29030     29037     29030     29038     29039     29040     29041     29042
     29039     29041     29041     29043     29041     29044     29039     29045
     29039     29046     29039     29047     29041     29048     29041     29049
     29050     29051     29052     29053     29050     29052     29052     29054
     29052     29055     29050     29056     29050     29057     29050     29058
     29052     29059     29052     29060     29061     29062     29063     29064
     29061     29063     29063     29065     29063     29066     29061     29067
     29061     29068     29061     29069     29063     29070     29063     29071
     29072     29073     29074     29075     29072     29074     29074     29076
     29074     29077     29072     29078     29072     29079     29072     29080
     29074     29081     29074     29082     29083     29084     29085     29086
     29083     29085     29085     29087     29085     29088     29083     29089
     29083     29090     29083     29091     29085     29092     29085     29093
     29094     29095     29096     29097     29094     29096     29096     29098
     29096     29099     29094     29100     29094     29101     29094     29102
     29096     29103     29096     29104     29105     29106     29107     29108
     29105     29107     29107     29109     29107     29110     29105     29111
     29105     29112     29105     29113     29107     29114     29107     29115
     29116     29117     29118     29119     29116     29118     29118     29120
     29118     29121     29116     29122     29116     29123     29116     29124
     29118     29125     29118     29126     29127     29128     29129     29130
     29127     29129     29129     29131     29129     29132     29127     29133
     29127     29134     29127     29135     29129     29136     29129     29137
     29138     29139     29140     29141     29138     29140     29140     29142
     29140     29143     29138     29144     29138     29145     29138     29146
     29140     29147     29140     29148     29149     29150     29151     29152
     29149     29151     29151     29153     29151     29154     29149     29155
     29149     29156     29149     29157     29151     29158     29151     29159
     29160     29161     29162     29163     29160     29162     29162     29164
     29162     29165     29160     29166     29160     29167     29160     29168
     29162     29169     29162     29170     29171     29172     29173     29174
     29171     29173     29173     29175     29173     29176     29171     29177
     29171     29178     29171     29179     29173     29180     29173     29181
     29182     29183     29184     29185     29182     29184     29184     29186
     29184     29187     29182     29188     29182     29189     29182     29190
     29184     29191     29184     29192     29193     29194     29195     29196
     29193     29195     29195     29197     29195     29198     29193     29199
     29193     29200     29193     29201     29195     29202     29195     29203
     29204     29205     29206     29207     29204     29206     29206     29208
     29206     29209     29204     29210     29204     29211     29204     29212
     29206     29213     29206     29214     29215     29216     29217     29218
     29215     29217     29217     29219     29217     29220     29215     29221
     29215     29222     29215     29223     29217     29224     29217     29225
     29226     29227     29228     29229     29226     29228     29228     29230
     29228     29231     29226     29232     29226     29233     29226     29234
     29228     29235     29228     29236     29237     29238     29239     29240
     29237     29239     29239     29241     29239     29242     29237     29243
     29237     29244     29237     29245     29239     29246     29239     29247
     29248     29249     29250     29251     29248     29250     29250     29252
     29250     29253     29248     29254     29248     29255     29248     29256
     29250     29257     29250     29258     29259     29260     29261     29262
     29259     29261     29261     29263     29261     29264     29259     29265
     29259     29266     29259     29267     29261     29268     29261     29269
     29270     29271     29272     29273     29270     29272     29272     29274
     29272     29275     29270     29276     29270     29277     29270     29278
     29272     29279     29272     29280     29281     29282     29283     29284
     29281     29283     29283     29285     29283     29286     29281     29287
     29281     29288     29281     29289     29283     29290     29283     29291
     29292     29293     29294     29295     29292     29294     29294     29296
     29294     29297     29292     29298     29292     29299     29292     29300
     29294     29301     29294     29302     29303     29304     29305     29306
     29303     29305     29305     29307     29305     29308     29303     29309
     29303     29310     29303     29311     29305     29312     29305     29313
     29314     29315     29316     29317     29314     29316     29316     29318
     29316     29319     29314     29320     29314     29321     29314     29322
     29316     29323     29316     29324     29325     29326     29327     29328
     29325     29327     29327     29329     29327     29330     29325     29331
     29325     29332     29325     29333     29327     29334     29327     29335
     29336     29337     29338     29339     29336     29338     29338     29340
     29338     29341     29336     29342     29336     29343     29336     29344
     29338     29345     29338     29346     29347     29348     29349     29350
     29347     29349     29349     29351     29349     29352     29347     29353
     29347     29354     29347     29355     29349     29356     29349     29357
     29358     29359     29360     29361     29358     29360     29360     29362
     29360     29363     29358     29364     29358     29365     29358     29366
     29360     29367     29360     29368     29369     29370     29371     29372
     29369     29371     29371     29373     29371     29374     29369     29375
     29369     29376     29369     29377     29371     29378     29371     29379
     29380     29381     29382     29383     29380     29382     29382     29384
     29382     29385     29380     29386     29380     29387     29380     29388
     29382     29389     29382     29390     29391     29392     29393     29394
     29391     29393     29393     29395     29393     29396     29391     29397
     29391     29398     29391     29399     29393     29400     29393     29401
     29402     29403     29404     29405     29402     29404     29404     29406
     29404     29407     29402     29408     29402     29409     29402     29410
     29404     29411     29404     29412     29413     29414     29415     29416
     29413     29415     29415     29417     29415     29418     29413     29419
     29413     29420     29413     29421     29415     29422     29415     29423
     29424     29425     29426     29427     29424     29426     29426     29428
     29426     29429     29424     29430     29424     29431     29424     29432
     29426     29433     29426     29434     29435     29436     29437     29438
     29435     29437     29437     29439     29437     29440     29435     29441
     29435     29442     29435     29443     29437     29444     29437     29445
     29446     29447     29448     29449     29446     29448     29448     29450
     29448     29451     29446     29452     29446     29453     29446     29454
     29448     29455     29448     29456     29457     29458     29459     29460
     29457     29459     29459     29461     29459     29462     29457     29463
     29457     29464     29457     29465     29459     29466     29459     29467
     29468     29469     29470     29471     29468     29470     29470     29472
     29470     29473     29468     29474     29468     29475     29468     29476
     29470     29477     29470     29478     29479     29480     29481     29482
     29479     29481     29481     29483     29481     29484     29479     29485
     29479     29486     29479     29487     29481     29488     29481     29489
     29490     29491     29492     29493     29490     29492     29492     29494
     29492     29495     29490     29496     29490     29497     29490     29498
     29492     29499     29492     29500     29501     29502     29503     29504
     29501     29503     29503     29505     29503     29506     29501     29507
     29501     29508     29501     29509     29503     29510     29503     29511
     29512     29513     29514     29515     29512     29514     29514     29516
     29514     29517     29512     29518     29512     29519     29512     29520
     29514     29521     29514     29522     29523     29524     29525     29526
     29523     29525     29525     29527     29525     29528     29523     29529
     29523     29530     29523     29531     29525     29532     29525     29533
     29534     29535     29536     29537     29534     29536     29536     29538
     29536     29539     29534     29540     29534     29541     29534     29542
     29536     29543     29536     29544     29545     29546     29547     29548
     29545     29547     29547     29549     29547     29550     29545     29551
     29545     29552     29545     29553     29547     29554     29547     29555
     29556     29557     29558     29559     29556     29558     29558     29560
     29558     29561     29556     29562     29556     29563     29556     29564
     29558     29565     29558     29566     29567     29568     29569     29570
     29567     29569     29569     29571     29569     29572     29567     29573
     29567     29574     29567     29575     29569     29576     29569     29577
     29578     29579     29580     29581     29578     29580     29580     29582
     29580     29583     29578     29584     29578     29585     29578     29586
     29580     29587     29580     29588     29589     29590     29591     29592
     29589     29591     29591     29593     29591     29594     29589     29595
     29589     29596     29589     29597     29591     29598     29591     29599
     29600     29601     29602     29603     29600     29602     29602     29604
     29602     29605     29600     29606     29600     29607     29600     29608
     29602     29609     29602     29610     29611     29612     29613     29614
     29611     29613     29613     29615     29613     29616     29611     29617
     29611     29618     29611     29619     29613     29620     29613     29621
     29622     29623     29624     29625     29622     29624     29624     29626
     29624     29627     29622     29628     29622     29629     29622     29630
     29624     29631     29624     29632     29633     29634     29635     29636
     29633     29635     29635     29637     29635     29638     29633     29639
     29633     29640     29633     29641     29635     29642     29635     29643
     29644     29645     29646     29647     29644     29646     29646     29648
     29646     29649     29644     29650     29644     29651     29644     29652
     29646     29653     29646     29654     29655     29656     29657     29658
     29655     29657     29657     29659     29657     29660     29655     29661
     29655     29662     29655     29663     29657     29664     29657     29665
     29666     29667     29668     29669     29666     29668     29668     29670
     29668     29671     29666     29672     29666     29673     29666     29674
     29668     29675     29668     29676     29677     29678     29679     29680
     29677     29679     29679     29681     29679     29682     29677     29683
     29677     29684     29677     29685     29679     29686     29679     29687
     29688     29689     29690     29691     29688     29690     29690     29692
     29690     29693     29688     29694     29688     29695     29688     29696
     29690     29697     29690     29698     29699     29700     29701     29702
     29699     29701     29701     29703     29701     29704     29699     29705
     29699     29706     29699     29707     29701     29708     29701     29709
     29710     29711     29712     29713     29710     29712     29712     29714
     29712     29715     29710     29716     29710     29717     29710     29718
     29712     29719     29712     29720     29721     29722     29723     29724
     29721     29723     29723     29725     29723     29726     29721     29727
     29721     29728     29721     29729     29723     29730     29723     29731
     29732     29733     29734     29735     29732     29734     29734     29736
     29734     29737     29732     29738     29732     29739     29732     29740
     29734     29741     29734     29742     29743     29744     29745     29746
     29743     29745     29745     29747     29745     29748     29743     29749
     29743     29750     29743     29751     29745     29752     29745     29753
     29754     29755     29756     29757     29754     29756     29756     29758
     29756     29759     29754     29760     29754     29761     29754     29762
     29756     29763     29756     29764     29765     29766     29767     29768
     29765     29767     29767     29769     29767     29770     29765     29771
     29765     29772     29765     29773     29767     29774     29767     29775
     29776     29777     29778     29779     29776     29778     29778     29780
     29778     29781     29776     29782     29776     29783     29776     29784
     29778     29785     29778     29786     29787     29788     29789     29790
     29787     29789     29789     29791     29789     29792     29787     29793
     29787     29794     29787     29795     29789     29796     29789     29797
     29798     29799     29800     29801     29798     29800     29800     29802
     29800     29803     29798     29804     29798     29805     29798     29806
     29800     29807     29800     29808     29809     29810     29811     29812
     29809     29811     29811     29813     29811     29814     29809     29815
     29809     29816     29809     29817     29811     29818     29811     29819
     29820     29821     29822     29823     29820     29822     29822     29824
     29822     29825     29820     29826     29820     29827     29820     29828
     29822     29829     29822     29830     29831     29832     29833     29834
     29831     29833     29833     29835     29833     29836     29831     29837
     29831     29838     29831     29839     29833     29840     29833     29841
     29842     29843     29844     29845     29842     29844     29844     29846
     29844     29847     29842     29848     29842     29849     29842     29850
     29844     29851     29844     29852     29853     29854     29855     29856
     29853     29855     29855     29857     29855     29858     29853     29859
     29853     29860     29853     29861     29855     29862     29855     29863
     29864     29865     29866     29867     29864     29866     29866     29868
     29866     29869     29864     29870     29864     29871     29864     29872
     29866     29873     29866     29874     29875     29876     29877     29878
     29875     29877     29877     29879     29877     29880     29875     29881
     29875     29882     29875     29883     29877     29884     29877     29885
     29886     29887     29888     29889     29886     29888     29888     29890
     29888     29891     29886     29892     29886     29893     29886     29894
     29888     29895     29888     29896     29897     29898     29899     29900
     29897     29899     29899     29901     29899     29902     29897     29903
     29897     29904     29897     29905     29899     29906     29899     29907
     29908     29909     29910     29911     29908     29910     29910     29912
     29910     29913     29908     29914     29908     29915     29908     29916
     29910     29917     29910     29918     29919     29920     29921     29922
     29919     29921     29921     29923     29921     29924     29919     29925
     29919     29926     29919     29927     29921     29928     29921     29929
     29930     29931     29932     29933     29930     29932     29932     29934
     29932     29935     29930     29936     29930     29937     29930     29938
     29932     29939     29932     29940     29941     29942     29943     29944
     29941     29943     29943     29945     29943     29946     29941     29947
     29941     29948     29941     29949     29943     29950     29943     29951
     29952     29953     29954     29955     29952     29954     29954     29956
     29954     29957     29952     29958     29952     29959     29952     29960
     29954     29961     29954     29962     29963     29964     29965     29966
     29963     29965     29965     29967     29965     29968     29963     29969
     29963     29970     29963     29971     29965     29972     29965     29973
     29974     29975     29976     29977     29974     29976     29976     29978
     29976     29979     29974     29980     29974     29981     29974     29982
     29976     29983     29976     29984     29985     29986     29987     29988
     29985     29987     29987     29989     29987     29990     29985     29991
     29985     29992     29985     29993     29987     29994     29987     29995
     29996     29997     29998     29999     29996     29998     29998     30000
     29998     30001     29996     30002     29996     30003     29996     30004
     29998     30005     29998     30006     30007     30008     30009     30010
     30007     30009     30009     30011     30009     30012     30007     30013
     30007     30014     30007     30015     30009     30016     30009     30017
     30018     30019     30020     30021     30018     30020     30020     30022
     30020     30023     30018     30024     30018     30025     30018     30026
     30020     30027     30020     30028     30029     30030     30031     30032
     30029     30031     30031     30033     30031     30034     30029     30035
     30029     30036     30029     30037     30031     30038     30031     30039
     30040     30041     30042     30043     30040     30042     30042     30044
     30042     30045     30040     30046     30040     30047     30040     30048
     30042     30049     30042     30050     30051     30052     30053     30054
     30051     30053     30053     30055     30053     30056     30051     30057
     30051     30058     30051     30059     30053     30060     30053     30061
     30062     30063     30064     30065     30062     30064     30064     30066
     30064     30067     30062     30068     30062     30069     30062     30070
     30064     30071     30064     30072     30073     30074     30075     30076
     30073     30075     30075     30077     30075     30078     30073     30079
     30073     30080     30073     30081     30075     30082     30075     30083
     30084     30085     30086     30087     30084     30086     30086     30088
     30086     30089     30084     30090     30084     30091     30084     30092
     30086     30093     30086     30094     30095     30096     30097     30098
     30095     30097     30097     30099     30097     30100     30095     30101
     30095     30102     30095     30103     30097     30104     30097     30105
     30106     30107     30108     30109     30106     30108     30108     30110
     30108     30111     30106     30112     30106     30113     30106     30114
     30108     30115     30108     30116     30117     30118     30119     30120
     30117     30119     30119     30121     30119     30122     30117     30123
     30117     30124     30117     30125     30119     30126     30119     30127
     30128     30129     30130     30131     30128     30130     30130     30132
     30130     30133     30128     30134     30128     30135     30128     30136
     30130     30137     30130     30138     30139     30140     30141     30142
     30139     30141     30141     30143     30141     30144     30139     30145
     30139     30146     30139     30147     30141     30148     30141     30149
     30150     30151     30152     30153     30150     30152     30152     30154
     30152     30155     30150     30156     30150     30157     30150     30158
     30152     30159     30152     30160     30161     30162     30163     30164
     30161     30163     30163     30165     30163     30166     30161     30167
     30161     30168     30161     30169     30163     30170     30163     30171
     30172     30173     30174     30175     30172     30174     30174     30176
     30174     30177     30172     30178     30172     30179     30172     30180
     30174     30181     30174     30182     30183     30184     30185     30186
     30183     30185     30185     30187     30185     30188     30183     30189
     30183     30190     30183     30191     30185     30192     30185     30193
     30194     30195     30196     30197     30194     30196     30196     30198
     30196     30199     30194     30200     30194     30201     30194     30202
     30196     30203     30196     30204     30205     30206     30207     30208
     30205     30207     30207     30209     30207     30210     30205     30211
     30205     30212     30205     30213     30207     30214     30207     30215
     30216     30217     30218     30219     30216     30218     30218     30220
     30218     30221     30216     30222     30216     30223     30216     30224
     30218     30225     30218     30226     30227     30228     30229     30230
     30227     30229     30229     30231     30229     30232     30227     30233
     30227     30234     30227     30235     30229     30236     30229     30237
     30238     30239     30240     30241     30238     30240     30240     30242
     30240     30243     30238     30244     30238     30245     30238     30246
     30240     30247     30240     30248     30249     30250     30251     30252
     30249     30251     30251     30253     30251     30254     30249     30255
     30249     30256     30249     30257     30251     30258     30251     30259
     30260     30261     30262     30263     30260     30262     30262     30264
     30262     30265     30260     30266     30260     30267     30260     30268
     30262     30269     30262     30270     30271     30272     30273     30274
     30271     30273     30273     30275     30273     30276     30271     30277
     30271     30278     30271     30279     30273     30280     30273     30281
     30282     30283     30284     30285     30282     30284     30284     30286
     30284     30287     30282     30288     30282     30289     30282     30290
     30284     30291     30284     30292     30293     30294     30295     30296
     30293     30295     30295     30297     30295     30298     30293     30299
     30293     30300     30293     30301     30295     30302     30295     30303
     30304     30305     30306     30307     30304     30306     30306     30308
     30306     30309     30304     30310     30304     30311     30304     30312
     30306     30313     30306     30314     30315     30316     30317     30318
     30315     30317     30317     30319     30317     30320     30315     30321
     30315     30322     30315     30323     30317     30324     30317     30325
     30326     30327     30328     30329     30326     30328     30328     30330
     30328     30331     30326     30332     30326     30333     30326     30334
     30328     30335     30328     30336     30337     30338     30339     30340
     30337     30339     30339     30341     30339     30342     30337     30343
     30337     30344     30337     30345     30339     30346     30339     30347
     30348     30349     30350     30351     30348     30350     30350     30352
     30350     30353     30348     30354     30348     30355     30348     30356
     30350     30357     30350     30358     30359     30360     30361     30362
     30359     30361     30361     30363     30361     30364     30359     30365
     30359     30366     30359     30367     30361     30368     30361     30369
     30370     30371     30372     30373     30370     30372     30372     30374
     30372     30375     30370     30376     30370     30377     30370     30378
     30372     30379     30372     30380     30381     30382     30383     30384
     30381     30383     30383     30385     30383     30386     30381     30387
     30381     30388     30381     30389     30383     30390     30383     30391
     30392     30393     30394     30395     30392     30394     30394     30396
     30394     30397     30392     30398     30392     30399     30392     30400
     30394     30401     30394     30402     30403     30404     30405     30406
     30403     30405     30405     30407     30405     30408     30403     30409
     30403     30410     30403     30411     30405     30412     30405     30413
     30414     30415     30416     30417     30414     30416     30416     30418
     30416     30419     30414     30420     30414     30421     30414     30422
     30416     30423     30416     30424     30425     30426     30427     30428
     30425     30427     30427     30429     30427     30430     30425     30431
     30425     30432     30425     30433     30427     30434     30427     30435
     30436     30437     30438     30439     30436     30438     30438     30440
     30438     30441     30436     30442     30436     30443     30436     30444
     30438     30445     30438     30446     30447     30448     30449     30450
     30447     30449     30449     30451     30449     30452     30447     30453
     30447     30454     30447     30455     30449     30456     30449     30457
     30458     30459     30460     30461     30458     30460     30460     30462
     30460     30463     30458     30464     30458     30465     30458     30466
     30460     30467     30460     30468     30469     30470     30471     30472
     30469     30471     30471     30473     30471     30474     30469     30475
     30469     30476     30469     30477     30471     30478     30471     30479
     30480     30481     30482     30483     30480     30482     30482     30484
     30482     30485     30480     30486     30480     30487     30480     30488
     30482     30489     30482     30490     30491     30492     30493     30494
     30491     30493     30493     30495     30493     30496     30491     30497
     30491     30498     30491     30499     30493     30500     30493     30501
     30502     30503     30504     30505     30502     30504     30504     30506
     30504     30507     30502     30508     30502     30509     30502     30510
     30504     30511     30504     30512     30513     30514     30515     30516
     30513     30515     30515     30517     30515     30518     30513     30519
     30513     30520     30513     30521     30515     30522     30515     30523
     30524     30525     30526     30527     30524     30526     30526     30528
     30526     30529     30524     30530     30524     30531     30524     30532
     30526     30533     30526     30534     30535     30536     30537     30538
     30535     30537     30537     30539     30537     30540     30535     30541
     30535     30542     30535     30543     30537     30544     30537     30545
     30546     30547     30548     30549     30546     30548     30548     30550
     30548     30551     30546     30552     30546     30553     30546     30554
     30548     30555     30548     30556     30557     30558     30559     30560
     30557     30559     30559     30561     30559     30562     30557     30563
     30557     30564     30557     30565     30559     30566     30559     30567
     30568     30569     30570     30571     30568     30570     30570     30572
     30570     30573     30568     30574     30568     30575     30568     30576
     30570     30577     30570     30578     30579     30580     30581     30582
     30579     30581     30581     30583     30581     30584     30579     30585
     30579     30586     30579     30587     30581     30588     30581     30589
     30590     30591     30592     30593     30590     30592     30592     30594
     30592     30595     30590     30596     30590     30597     30590     30598
     30592     30599     30592     30600     30601     30602     30603     30604
     30601     30603     30603     30605     30603     30606     30601     30607
     30601     30608     30601     30609     30603     30610     30603     30611
     30612     30613     30614     30615     30612     30614     30614     30616
     30614     30617     30612     30618     30612     30619     30612     30620
     30614     30621     30614     30622     30623     30624     30625     30626
     30623     30625     30625     30627     30625     30628     30623     30629
     30623     30630     30623     30631     30625     30632     30625     30633
     30634     30635     30636     30637     30634     30636     30636     30638
     30636     30639     30634     30640     30634     30641     30634     30642
     30636     30643     30636     30644     30645     30646     30647     30648
     30645     30647     30647     30649     30647     30650     30645     30651
     30645     30652     30645     30653     30647     30654     30647     30655
     30656     30657     30658     30659     30656     30658     30658     30660
     30658     30661     30656     30662     30656     30663     30656     30664
     30658     30665     30658     30666     30667     30668     30669     30670
     30667     30669     30669     30671     30669     30672     30667     30673
     30667     30674     30667     30675     30669     30676     30669     30677
     30678     30679     30680     30681     30678     30680     30680     30682
     30680     30683     30678     30684     30678     30685     30678     30686
     30680     30687     30680     30688     30689     30690     30691     30692
     30689     30691     30691     30693     30691     30694     30689     30695
     30689     30696     30689     30697     30691     30698     30691     30699
     30700     30701     30702     30703     30700     30702     30702     30704
     30702     30705     30700     30706     30700     30707     30700     30708
     30702     30709     30702     30710     30711     30712     30713     30714
     30711     30713     30713     30715     30713     30716     30711     30717
     30711     30718     30711     30719     30713     30720     30713     30721
     30722     30723     30724     30725     30722     30724     30724     30726
     30724     30727     30722     30728     30722     30729     30722     30730
     30724     30731     30724     30732     30733     30734     30735     30736
     30733     30735     30735     30737     30735     30738     30733     30739
     30733     30740     30733     30741     30735     30742     30735     30743
     30744     30745     30746     30747     30744     30746     30746     30748
     30746     30749     30744     30750     30744     30751     30744     30752
     30746     30753     30746     30754     30755     30756     30757     30758
     30755     30757     30757     30759     30757     30760     30755     30761
     30755     30762     30755     30763     30757     30764     30757     30765
     30766     30767     30768     30769     30766     30768     30768     30770
     30768     30771     30766     30772     30766     30773     30766     30774
     30768     30775     30768     30776     30777     30778     30779     30780
     30777     30779     30779     30781     30779     30782     30777     30783
     30777     30784     30777     30785     30779     30786     30779     30787
     30788     30789     30790     30791     30788     30790     30790     30792
     30790     30793     30788     30794     30788     30795     30788     30796
     30790     30797     30790     30798     30799     30800     30801     30802
     30799     30801     30801     30803     30801     30804     30799     30805
     30799     30806     30799     30807     30801     30808     30801     30809
     30810     30811     30812     30813     30810     30812     30812     30814
     30812     30815     30810     30816     30810     30817     30810     30818
     30812     30819     30812     30820     30821     30822     30823     30824
     30821     30823     30823     30825     30823     30826     30821     30827
     30821     30828     30821     30829     30823     30830     30823     30831
     30832     30833     30834     30835     30832     30834     30834     30836
     30834     30837     30832     30838     30832     30839     30832     30840
     30834     30841     30834     30842     30843     30844     30845     30846
     30843     30845     30845     30847     30845     30848     30843     30849
     30843     30850     30843     30851     30845     30852     30845     30853
     30854     30855     30856     30857     30854     30856     30856     30858
     30856     30859     30854     30860     30854     30861     30854     30862
     30856     30863     30856     30864     30865     30866     30867     30868
     30865     30867     30867     30869     30867     30870     30865     30871
     30865     30872     30865     30873     30867     30874     30867     30875
     30876     30877     30878     30879     30876     30878     30878     30880
     30878     30881     30876     30882     30876     30883     30876     30884
     30878     30885     30878     30886     30887     30888     30889     30890
     30887     30889     30889     30891     30889     30892     30887     30893
     30887     30894     30887     30895     30889     30896     30889     30897
     30898     30899     30900     30901     30898     30900     30900     30902
     30900     30903     30898     30904     30898     30905     30898     30906
     30900     30907     30900     30908     30909     30910     30911     30912
     30909     30911     30911     30913     30911     30914     30909     30915
     30909     30916     30909     30917     30911     30918     30911     30919
     30920     30921     30922     30923     30920     30922     30922     30924
     30922     30925     30920     30926     30920     30927     30920     30928
     30922     30929     30922     30930     30931     30932     30933     30934
     30931     30933     30933     30935     30933     30936     30931     30937
     30931     30938     30931     30939     30933     30940     30933     30941
     30942     30943     30944     30945     30942     30944     30944     30946
     30944     30947     30942     30948     30942     30949     30942     30950
     30944     30951     30944     30952     30953     30954     30955     30956
     30953     30955     30955     30957     30955     30958     30953     30959
     30953     30960     30953     30961     30955     30962     30955     30963
     30964     30965     30966     30967     30964     30966     30966     30968
     30966     30969     30964     30970     30964     30971     30964     30972
     30966     30973     30966     30974     30975     30976     30977     30978
     30975     30977     30977     30979     30977     30980     30975     30981
     30975     30982     30975     30983     30977     30984     30977     30985
     30986     30987     30988     30989     30986     30988     30988     30990
     30988     30991     30986     30992     30986     30993     30986     30994
     30988     30995     30988     30996     30997     30998     30999     31000
     30997     30999     30999     31001     30999     31002     30997     31003
     30997     31004     30997     31005     30999     31006     30999     31007
     31008     31009     31010     31011     31008     31010     31010     31012
     31010     31013     31008     31014     31008     31015     31008     31016
     31010     31017     31010     31018     31019     31020     31021     31022
     31019     31021     31021     31023     31021     31024     31019     31025
     31019     31026     31019     31027     31021     31028     31021     31029
     31030     31031     31032     31033     31030     31032     31032     31034
     31032     31035     31030     31036     31030     31037     31030     31038
     31032     31039     31032     31040     31041     31042     31043     31044
     31041     31043     31043     31045     31043     31046     31041     31047
     31041     31048     31041     31049     31043     31050     31043     31051
     31052     31053     31054     31055     31052     31054     31054     31056
     31054     31057     31052     31058     31052     31059     31052     31060
     31054     31061     31054     31062     31063     31064     31065     31066
     31063     31065     31065     31067     31065     31068     31063     31069
     31063     31070     31063     31071     31065     31072     31065     31073
     31074     31075     31076     31077     31074     31076     31076     31078
     31076     31079     31074     31080     31074     31081     31074     31082
     31076     31083     31076     31084     31085     31086     31087     31088
     31085     31087     31087     31089     31087     31090     31085     31091
     31085     31092     31085     31093     31087     31094     31087     31095
     31096     31097     31098     31099     31096     31098     31098     31100
     31098     31101     31096     31102     31096     31103     31096     31104
     31098     31105     31098     31106     31107     31108     31109     31110
     31107     31109     31109     31111     31109     31112     31107     31113
     31107     31114     31107     31115     31109     31116     31109     31117
     31118     31119     31120     31121     31118     31120     31120     31122
     31120     31123     31118     31124     31118     31125     31118     31126
     31120     31127     31120     31128     31129     31130     31131     31132
     31129     31131     31131     31133     31131     31134     31129     31135
     31129     31136     31129     31137     31131     31138     31131     31139
     31140     31141     31142     31143     31140     31142     31142     31144
     31142     31145     31140     31146     31140     31147     31140     31148
     31142     31149     31142     31150     31151     31152     31153     31154
     31151     31153     31153     31155     31153     31156     31151     31157
     31151     31158     31151     31159     31153     31160     31153     31161
     31162     31163     31164     31165     31162     31164     31164     31166
     31164     31167     31162     31168     31162     31169     31162     31170
     31164     31171     31164     31172     31173     31174     31175     31176
     31173     31175     31175     31177     31175     31178     31173     31179
     31173     31180     31173     31181     31175     31182     31175     31183
     31184     31185     31186     31187     31184     31186     31186     31188
     31186     31189     31184     31190     31184     31191     31184     31192
     31186     31193     31186     31194     31195     31196     31197     31198
     31195     31197     31197     31199     31197     31200     31195     31201
     31195     31202     31195     31203     31197     31204     31197     31205
     31206     31207     31208     31209     31206     31208     31208     31210
     31208     31211     31206     31212     31206     31213     31206     31214
     31208     31215     31208     31216     31217     31218     31219     31220
     31217     31219     31219     31221     31219     31222     31217     31223
     31217     31224     31217     31225     31219     31226     31219     31227
     31228     31229     31230     31231     31228     31230     31230     31232
     31230     31233     31228     31234     31228     31235     31228     31236
     31230     31237     31230     31238     31239     31240     31241     31242
     31239     31241     31241     31243     31241     31244     31239     31245
     31239     31246     31239     31247     31241     31248     31241     31249
     31250     31251     31252     31253     31250     31252     31252     31254
     31252     31255     31250     31256     31250     31257     31250     31258
     31252     31259     31252     31260     31261     31262     31263     31264
     31261     31263     31263     31265     31263     31266     31261     31267
     31261     31268     31261     31269     31263     31270     31263     31271
     31272     31273     31274     31275     31272     31274     31274     31276
     31274     31277     31272     31278     31272     31279     31272     31280
     31274     31281     31274     31282     31283     31284     31285     31286
     31283     31285     31285     31287     31285     31288     31283     31289
     31283     31290     31283     31291     31285     31292     31285     31293
     31294     31295     31296     31297     31294     31296     31296     31298
     31296     31299     31294     31300     31294     31301     31294     31302
     31296     31303     31296     31304     31305     31306     31307     31308
     31305     31307     31307     31309     31307     31310     31305     31311
     31305     31312     31305     31313     31307     31314     31307     31315
     31316     31317     31318     31319     31316     31318     31318     31320
     31318     31321     31316     31322     31316     31323     31316     31324
     31318     31325     31318     31326     31327     31328     31329     31330
     31327     31329     31329     31331     31329     31332     31327     31333
     31327     31334     31327     31335     31329     31336     31329     31337
     31338     31339     31340     31341     31338     31340     31340     31342
     31340     31343     31338     31344     31338     31345     31338     31346
     31340     31347     31340     31348     31349     31350     31351     31352
     31349     31351     31351     31353     31351     31354     31349     31355
     31349     31356     31349     31357     31351     31358     31351     31359
     31360     31361     31362     31363     31360     31362     31362     31364
     31362     31365     31360     31366     31360     31367     31360     31368
     31362     31369     31362     31370     31371     31372     31373     31374
     31371     31373     31373     31375     31373     31376     31371     31377
     31371     31378     31371     31379     31373     31380     31373     31381
     31382     31383     31384     31385     31382     31384     31384     31386
     31384     31387     31382     31388     31382     31389     31382     31390
     31384     31391     31384     31392     31393     31394     31395     31396
     31393     31395     31395     31397     31395     31398     31393     31399
     31393     31400     31393     31401     31395     31402     31395     31403
     31404     31405     31406     31407     31404     31406     31406     31408
     31406     31409     31404     31410     31404     31411     31404     31412
     31406     31413     31406     31414     31415     31416     31417     31418
     31415     31417     31417     31419     31417     31420     31415     31421
     31415     31422     31415     31423     31417     31424     31417     31425
     31426     31427     31428     31429     31426     31428     31428     31430
     31428     31431     31426     31432     31426     31433     31426     31434
     31428     31435     31428     31436     31437     31438     31439     31440
     31437     31439     31439     31441     31439     31442     31437     31443
     31437     31444     31437     31445     31439     31446     31439     31447
     31448     31449     31450     31451     31448     31450     31450     31452
     31450     31453     31448     31454     31448     31455     31448     31456
     31450     31457     31450     31458     31459     31460     31461     31462
     31459     31461     31461     31463     31461     31464     31459     31465
     31459     31466     31459     31467     31461     31468     31461     31469
     31470     31471     31472     31473     31470     31472     31472     31474
     31472     31475     31470     31476     31470     31477     31470     31478
     31472     31479     31472     31480     31481     31482     31483     31484
     31481     31483     31483     31485     31483     31486     31481     31487
     31481     31488     31481     31489     31483     31490     31483     31491
     31492     31493     31494     31495     31492     31494     31494     31496
     31494     31497     31492     31498     31492     31499     31492     31500
     31494     31501     31494     31502     31503     31504     31505     31506
     31503     31505     31505     31507     31505     31508     31503     31509
     31503     31510     31503     31511     31505     31512     31505     31513
     31514     31515     31516     31517     31514     31516     31516     31518
     31516     31519     31514     31520     31514     31521     31514     31522
     31516     31523     31516     31524     31525     31526     31527     31528
     31525     31527     31527     31529     31527     31530     31525     31531
     31525     31532     31525     31533     31527     31534     31527     31535
     31536     31537     31538     31539     31536     31538     31538     31540
     31538     31541     31536     31542     31536     31543     31536     31544
     31538     31545     31538     31546     31547     31548     31549     31550
     31547     31549     31549     31551     31549     31552     31547     31553
     31547     31554     31547     31555     31549     31556     31549     31557
     31558     31559     31560     31561     31558     31560     31560     31562
     31560     31563     31558     31564     31558     31565     31558     31566
     31560     31567     31560     31568     31569     31570     31571     31572
     31569     31571     31571     31573     31571     31574     31569     31575
     31569     31576     31569     31577     31571     31578     31571     31579
     31580     31581     31582     31583     31580     31582     31582     31584
     31582     31585     31580     31586     31580     31587     31580     31588
     31582     31589     31582     31590     31591     31592     31593     31594
     31591     31593     31593     31595     31593     31596     31591     31597
     31591     31598     31591     31599     31593     31600     31593     31601
     31602     31603     31604     31605     31602     31604     31604     31606
     31604     31607     31602     31608     31602     31609     31602     31610
     31604     31611     31604     31612     31613     31614     31615     31616
     31613     31615     31615     31617     31615     31618     31613     31619
     31613     31620     31613     31621     31615     31622     31615     31623
     31624     31625     31626     31627     31624     31626     31626     31628
     31626     31629     31624     31630     31624     31631     31624     31632
     31626     31633     31626     31634     31635     31636     31637     31638
     31635     31637     31637     31639     31637     31640     31635     31641
     31635     31642     31635     31643     31637     31644     31637     31645
     31646     31647     31648     31649     31646     31648     31648     31650
     31648     31651     31646     31652     31646     31653     31646     31654
     31648     31655     31648     31656     31657     31658     31659     31660
     31657     31659     31659     31661     31659     31662     31657     31663
     31657     31664     31657     31665     31659     31666     31659     31667
     31668     31669     31670     31671     31668     31670     31670     31672
     31670     31673     31668     31674     31668     31675     31668     31676
     31670     31677     31670     31678     31679     31680     31681     31682
     31679     31681     31681     31683     31681     31684     31679     31685
     31679     31686     31679     31687     31681     31688     31681     31689
     31690     31691     31692     31693     31690     31692     31692     31694
     31692     31695     31690     31696     31690     31697     31690     31698
     31692     31699     31692     31700     31701     31702     31703     31704
     31701     31703     31703     31705     31703     31706     31701     31707
     31701     31708     31701     31709     31703     31710     31703     31711
     31712     31713     31714     31715     31712     31714     31714     31716
     31714     31717     31712     31718     31712     31719     31712     31720
     31714     31721     31714     31722     31723     31724     31725     31726
     31723     31725     31725     31727     31725     31728     31723     31729
     31723     31730     31723     31731     31725     31732     31725     31733
     31734     31735     31736     31737     31734     31736     31736     31738
     31736     31739     31734     31740     31734     31741     31734     31742
     31736     31743     31736     31744     31745     31746     31747     31748
     31745     31747     31747     31749     31747     31750     31745     31751
     31745     31752     31745     31753     31747     31754     31747     31755
     31756     31757     31758     31759     31756     31758     31758     31760
     31758     31761     31756     31762     31756     31763     31756     31764
     31758     31765     31758     31766     31767     31768     31769     31770
     31767     31769     31769     31771     31769     31772     31767     31773
     31767     31774     31767     31775     31769     31776     31769     31777
     31778     31779     31780     31781     31778     31780     31780     31782
     31780     31783     31778     31784     31778     31785     31778     31786
     31780     31787     31780     31788     31789     31790     31791     31792
     31789     31791     31791     31793     31791     31794     31789     31795
     31789     31796     31789     31797     31791     31798     31791     31799
     31800     31801     31802     31803     31800     31802     31802     31804
     31802     31805     31800     31806     31800     31807     31800     31808
     31802     31809     31802     31810     31811     31812     31813     31814
     31811     31813     31813     31815     31813     31816     31811     31817
     31811     31818     31811     31819     31813     31820     31813     31821
     31822     31823     31824     31825     31822     31824     31824     31826
     31824     31827     31822     31828     31822     31829     31822     31830
     31824     31831     31824     31832     31833     31834     31835     31836
     31833     31835     31835     31837     31835     31838     31833     31839
     31833     31840     31833     31841     31835     31842     31835     31843
     31844     31845     31846     31847     31844     31846     31846     31848
     31846     31849     31844     31850     31844     31851     31844     31852
     31846     31853     31846     31854     31855     31856     31857     31858
     31855     31857     31857     31859     31857     31860     31855     31861
     31855     31862     31855     31863     31857     31864     31857     31865
     31866     31867     31868     31869     31866     31868     31868     31870
     31868     31871     31866     31872     31866     31873     31866     31874
     31868     31875     31868     31876     31877     31878     31879     31880
     31877     31879     31879     31881     31879     31882     31877     31883
     31877     31884     31877     31885     31879     31886     31879     31887
     31888     31889     31890     31891     31888     31890     31890     31892
     31890     31893     31888     31894     31888     31895     31888     31896
     31890     31897     31890     31898     31899     31900     31901     31902
     31899     31901     31901     31903     31901     31904     31899     31905
     31899     31906     31899     31907     31901     31908     31901     31909
     31910     31911     31912     31913     31910     31912     31912     31914
     31912     31915     31910     31916     31910     31917     31910     31918
     31912     31919     31912     31920     31921     31922     31923     31924
     31921     31923     31923     31925     31923     31926     31921     31927
     31921     31928     31921     31929     31923     31930     31923     31931
     31932     31933     31934     31935     31932     31934     31934     31936
     31934     31937     31932     31938     31932     31939     31932     31940
     31934     31941     31934     31942     31943     31944     31945     31946
     31943     31945     31945     31947     31945     31948     31943     31949
     31943     31950     31943     31951     31945     31952     31945     31953
     31954     31955     31956     31957     31954     31956     31956     31958
     31956     31959     31954     31960     31954     31961     31954     31962
     31956     31963     31956     31964     31965     31966     31967     31968
     31965     31967     31967     31969     31967     31970     31965     31971
     31965     31972     31965     31973     31967     31974     31967     31975
     31976     31977     31978     31979     31976     31978     31978     31980
     31978     31981     31976     31982     31976     31983     31976     31984
     31978     31985     31978     31986     31987     31988     31989     31990
     31987     31989     31989     31991     31989     31992     31987     31993
     31987     31994     31987     31995     31989     31996     31989     31997
     31998     31999     32000     32001     31998     32000     32000     32002
     32000     32003     31998     32004     31998     32005     31998     32006
     32000     32007     32000     32008     32009     32010     32011     32012
     32009     32011     32011     32013     32011     32014     32009     32015
     32009     32016     32009     32017     32011     32018     32011     32019
     32020     32021     32022     32023     32020     32022     32022     32024
     32022     32025     32020     32026     32020     32027     32020     32028
     32022     32029     32022     32030     32031     32032     32033     32034
     32031     32033     32033     32035     32033     32036     32031     32037
     32031     32038     32031     32039     32033     32040     32033     32041
     32042     32043     32044     32045     32042     32044     32044     32046
     32044     32047     32042     32048     32042     32049     32042     32050
     32044     32051     32044     32052     32053     32054     32055     32056
     32053     32055     32055     32057     32055     32058     32053     32059
     32053     32060     32053     32061     32055     32062     32055     32063
     32064     32065     32066     32067     32064     32066     32066     32068
     32066     32069     32064     32070     32064     32071     32064     32072
     32066     32073     32066     32074     32075     32076     32077     32078
     32075     32077     32077     32079     32077     32080     32075     32081
     32075     32082     32075     32083     32077     32084     32077     32085
     32086     32087     32088     32089     32086     32088     32088     32090
     32088     32091     32086     32092     32086     32093     32086     32094
     32088     32095     32088     32096     32097     32098     32099     32100
     32097     32099     32099     32101     32099     32102     32097     32103
     32097     32104     32097     32105     32099     32106     32099     32107
     32108     32109     32110     32111     32108     32110     32110     32112
     32110     32113     32108     32114     32108     32115     32108     32116
     32110     32117     32110     32118     32119     32120     32121     32122
     32119     32121     32121     32123     32121     32124     32119     32125
     32119     32126     32119     32127     32121     32128     32121     32129
     32130     32131     32132     32133     32130     32132     32132     32134
     32132     32135     32130     32136     32130     32137     32130     32138
     32132     32139     32132     32140     32141     32142     32143     32144
     32141     32143     32143     32145     32143     32146     32141     32147
     32141     32148     32141     32149     32143     32150     32143     32151
     32152     32153     32154     32155     32152     32154     32154     32156
     32154     32157     32152     32158     32152     32159     32152     32160
     32154     32161     32154     32162     32163     32164     32165     32166
     32163     32165     32165     32167     32165     32168     32163     32169
     32163     32170     32163     32171     32165     32172     32165     32173
     32174     32175     32176     32177     32174     32176     32176     32178
     32176     32179     32174     32180     32174     32181     32174     32182
     32176     32183     32176     32184     32185     32186     32187     32188
     32185     32187     32187     32189     32187     32190     32185     32191
     32185     32192     32185     32193     32187     32194     32187     32195
     32196     32197     32198     32199     32196     32198     32198     32200
     32198     32201     32196     32202     32196     32203     32196     32204
     32198     32205     32198     32206     32207     32208     32209     32210
     32207     32209     32209     32211     32209     32212     32207     32213
     32207     32214     32207     32215     32209     32216     32209     32217
     32218     32219     32220     32221     32218     32220     32220     32222
     32220     32223     32218     32224     32218     32225     32218     32226
     32220     32227     32220     32228     32229     32230     32231     32232
     32229     32231     32231     32233     32231     32234     32229     32235
     32229     32236     32229     32237     32231     32238     32231     32239
     32240     32241     32242     32243     32240     32242     32242     32244
     32242     32245     32240     32246     32240     32247     32240     32248
     32242     32249     32242     32250     32251     32252     32253     32254
     32251     32253     32253     32255     32253     32256     32251     32257
     32251     32258     32251     32259     32253     32260     32253     32261
     32262     32263     32264     32265     32262     32264     32264     32266
     32264     32267     32262     32268     32262     32269     32262     32270
     32264     32271     32264     32272     32273     32274     32275     32276
     32273     32275     32275     32277     32275     32278     32273     32279
     32273     32280     32273     32281     32275     32282     32275     32283
     32284     32285     32286     32287     32284     32286     32286     32288
     32286     32289     32284     32290     32284     32291     32284     32292
     32286     32293     32286     32294     32295     32296     32297     32298
     32295     32297     32297     32299     32297     32300     32295     32301
     32295     32302     32295     32303     32297     32304     32297     32305
     32306     32307     32308     32309     32306     32308     32308     32310
     32308     32311     32306     32312     32306     32313     32306     32314
     32308     32315     32308     32316     32317     32318     32319     32320
     32317     32319     32319     32321     32319     32322     32317     32323
     32317     32324     32317     32325     32319     32326     32319     32327
     32328     32329     32330     32331     32328     32330     32330     32332
     32330     32333     32328     32334     32328     32335     32328     32336
     32330     32337     32330     32338     32339     32340     32341     32342
     32339     32341     32341     32343     32341     32344     32339     32345
     32339     32346     32339     32347     32341     32348     32341     32349
     32350     32351     32352     32353     32350     32352     32352     32354
     32352     32355     32350     32356     32350     32357     32350     32358
     32352     32359     32352     32360     32361     32362     32363     32364
     32361     32363     32363     32365     32363     32366     32361     32367
     32361     32368     32361     32369     32363     32370     32363     32371
     32372     32373     32374     32375     32372     32374     32374     32376
     32374     32377     32372     32378     32372     32379     32372     32380
     32374     32381     32374     32382     32383     32384     32385     32386
     32383     32385     32385     32387     32385     32388     32383     32389
     32383     32390     32383     32391     32385     32392     32385     32393
     32394     32395     32396     32397     32394     32396     32396     32398
     32396     32399     32394     32400     32394     32401     32394     32402
     32396     32403     32396     32404     32405     32406     32407     32408
     32405     32407     32407     32409     32407     32410     32405     32411
     32405     32412     32405     32413     32407     32414     32407     32415
     32416     32417     32418     32419     32416     32418     32418     32420
     32418     32421     32416     32422     32416     32423     32416     32424
     32418     32425     32418     32426     32427     32428     32429     32430
     32427     32429     32429     32431     32429     32432     32427     32433
     32427     32434     32427     32435     32429     32436     32429     32437
     32438     32439     32440     32441     32438     32440     32440     32442
     32440     32443     32438     32444     32438     32445     32438     32446
     32440     32447     32440     32448     32449     32450     32451     32452
     32449     32451     32451     32453     32451     32454     32449     32455
     32449     32456     32449     32457     32451     32458     32451     32459
     32460     32461     32462     32463     32460     32462     32462     32464
     32462     32465     32460     32466     32460     32467     32460     32468
     32462     32469     32462     32470     32471     32472     32473     32474
     32471     32473     32473     32475     32473     32476     32471     32477
     32471     32478     32471     32479     32473     32480     32473     32481
     32482     32483     32484     32485     32482     32484     32484     32486
     32484     32487     32482     32488     32482     32489     32482     32490
     32484     32491     32484     32492     32493     32494     32495     32496
     32493     32495     32495     32497     32495     32498     32493     32499
     32493     32500     32493     32501     32495     32502     32495     32503
     32504     32505     32506     32507     32504     32506     32506     32508
     32506     32509     32504     32510     32504     32511     32504     32512
     32506     32513     32506     32514     32515     32516     32517     32518
     32515     32517     32517     32519     32517     32520     32515     32521
     32515     32522     32515     32523     32517     32524     32517     32525
     32526     32527     32528     32529     32526     32528     32528     32530
     32528     32531     32526     32532     32526     32533     32526     32534
     32528     32535     32528     32536     32537     32538     32539     32540
     32537     32539     32539     32541     32539     32542     32537     32543
     32537     32544     32537     32545     32539     32546     32539     32547
     32548     32549     32550     32551     32548     32550     32550     32552
     32550     32553     32548     32554     32548     32555     32548     32556
     32550     32557     32550     32558     32559     32560     32561     32562
     32559     32561     32561     32563     32561     32564     32559     32565
     32559     32566     32559     32567     32561     32568     32561     32569
     32570     32571     32572     32573     32570     32572     32572     32574
     32572     32575     32570     32576     32570     32577     32570     32578
     32572     32579     32572     32580     32581     32582     32583     32584
     32581     32583     32583     32585     32583     32586     32581     32587
     32581     32588     32581     32589     32583     32590     32583     32591
     32592     32593     32594     32595     32592     32594     32594     32596
     32594     32597     32592     32598     32592     32599     32592     32600
     32594     32601     32594     32602     32603     32604     32605     32606
     32603     32605     32605     32607     32605     32608     32603     32609
     32603     32610     32603     32611     32605     32612     32605     32613
     32614     32615     32616     32617     32614     32616     32616     32618
     32616     32619     32614     32620     32614     32621     32614     32622
     32616     32623     32616     32624     32625     32626     32627     32628
     32625     32627     32627     32629     32627     32630     32625     32631
     32625     32632     32625     32633     32627     32634     32627     32635
     32636     32637     32638     32639     32636     32638     32638     32640
     32638     32641     32636     32642     32636     32643     32636     32644
     32638     32645     32638     32646     32647     32648     32649     32650
     32647     32649     32649     32651     32649     32652     32647     32653
     32647     32654     32647     32655     32649     32656     32649     32657
     32658     32659     32660     32661     32658     32660     32660     32662
     32660     32663     32658     32664     32658     32665     32658     32666
     32660     32667     32660     32668     32669     32670     32671     32672
     32669     32671     32671     32673     32671     32674     32669     32675
     32669     32676     32669     32677     32671     32678     32671     32679
     32680     32681     32682     32683     32680     32682     32682     32684
     32682     32685     32680     32686     32680     32687     32680     32688
     32682     32689     32682     32690     32691     32692     32693     32694
     32691     32693     32693     32695     32693     32696     32691     32697
     32691     32698     32691     32699     32693     32700     32693     32701
     32702     32703     32704     32705     32702     32704     32704     32706
     32704     32707     32702     32708     32702     32709     32702     32710
     32704     32711     32704     32712     32713     32714     32715     32716
     32713     32715     32715     32717     32715     32718     32713     32719
     32713     32720     32713     32721     32715     32722     32715     32723
     32724     32725     32726     32727     32724     32726     32726     32728
     32726     32729     32724     32730     32724     32731     32724     32732
     32726     32733     32726     32734     32735     32736     32737     32738
     32735     32737     32737     32739     32737     32740     32735     32741
     32735     32742     32735     32743     32737     32744     32737     32745
     32746     32747     32748     32749     32746     32748     32748     32750
     32748     32751     32746     32752     32746     32753     32746     32754
     32748     32755     32748     32756     32757     32758     32759     32760
     32757     32759     32759     32761     32759     32762     32757     32763
     32757     32764     32757     32765     32759     32766     32759     32767
     32768     32769     32770     32771     32768     32770     32770     32772
     32770     32773     32768     32774     32768     32775     32768     32776
     32770     32777     32770     32778     32779     32780     32781     32782
     32779     32781     32781     32783     32781     32784     32779     32785
     32779     32786     32779     32787     32781     32788     32781     32789
     32790     32791     32792     32793     32790     32792     32792     32794
     32792     32795     32790     32796     32790     32797     32790     32798
     32792     32799     32792     32800     32801     32802     32803     32804
     32801     32803     32803     32805     32803     32806     32801     32807
     32801     32808     32801     32809     32803     32810     32803     32811
     32812     32813     32814     32815     32812     32814     32814     32816
     32814     32817     32812     32818     32812     32819     32812     32820
     32814     32821     32814     32822     32823     32824     32825     32826
     32823     32825     32825     32827     32825     32828     32823     32829
     32823     32830     32823     32831     32825     32832     32825     32833
     32834     32835     32836     32837     32834     32836     32836     32838
     32836     32839     32834     32840     32834     32841     32834     32842
     32836     32843     32836     32844     32845     32846     32847     32848
     32845     32847     32847     32849     32847     32850     32845     32851
     32845     32852     32845     32853     32847     32854     32847     32855
     32856     32857     32858     32859     32856     32858     32858     32860
     32858     32861     32856     32862     32856     32863     32856     32864
     32858     32865     32858     32866     32867     32868     32869     32870
     32867     32869     32869     32871     32869     32872     32867     32873
     32867     32874     32867     32875     32869     32876     32869     32877
     32878     32879     32880     32881     32878     32880     32880     32882
     32880     32883     32878     32884     32878     32885     32878     32886
     32880     32887     32880     32888     32889     32890     32891     32892
     32889     32891     32891     32893     32891     32894     32889     32895
     32889     32896     32889     32897     32891     32898     32891     32899
     32900     32901     32902     32903     32900     32902     32902     32904
     32902     32905     32900     32906     32900     32907     32900     32908
     32902     32909     32902     32910     32911     32912     32913     32914
     32911     32913     32913     32915     32913     32916     32911     32917
     32911     32918     32911     32919     32913     32920     32913     32921
     32922     32923     32924     32925     32922     32924     32924     32926
     32924     32927     32922     32928     32922     32929     32922     32930
     32924     32931     32924     32932     32933     32934     32935     32936
     32933     32935     32935     32937     32935     32938     32933     32939
     32933     32940     32933     32941     32935     32942     32935     32943
     32944     32945     32946     32947     32944     32946     32946     32948
     32946     32949     32944     32950     32944     32951     32944     32952
     32946     32953     32946     32954     32955     32956     32957     32958
     32955     32957     32957     32959     32957     32960     32955     32961
     32955     32962     32955     32963     32957     32964     32957     32965
     32966     32967     32968     32969     32966     32968     32968     32970
     32968     32971     32966     32972     32966     32973     32966     32974
     32968     32975     32968     32976     32977     32978     32979     32980
     32977     32979     32979     32981     32979     32982     32977     32983
     32977     32984     32977     32985     32979     32986     32979     32987
     32988     32989     32990     32991     32988     32990     32990     32992
     32990     32993     32988     32994     32988     32995     32988     32996
     32990     32997     32990     32998     32999     33000     33001     33002
     32999     33001     33001     33003     33001     33004     32999     33005
     32999     33006     32999     33007     33001     33008     33001     33009
     33010     33011     33012     33013     33010     33012     33012     33014
     33012     33015     33010     33016     33010     33017     33010     33018
     33012     33019     33012     33020     33021     33022     33023     33024
     33021     33023     33023     33025     33023     33026     33021     33027
     33021     33028     33021     33029     33023     33030     33023     33031
     33032     33033     33034     33035     33032     33034     33034     33036
     33034     33037     33032     33038     33032     33039     33032     33040
     33034     33041     33034     33042     33043     33044     33045     33046
     33043     33045     33045     33047     33045     33048     33043     33049
     33043     33050     33043     33051     33045     33052     33045     33053
     33054     33055     33056     33057     33054     33056     33056     33058
     33056     33059     33054     33060     33054     33061     33054     33062
     33056     33063     33056     33064     33065     33066     33067     33068
     33065     33067     33067     33069     33067     33070     33065     33071
     33065     33072     33065     33073     33067     33074     33067     33075
     33076     33077     33078     33079     33076     33078     33078     33080
     33078     33081     33076     33082     33076     33083     33076     33084
     33078     33085     33078     33086     33087     33088     33089     33090
     33087     33089     33089     33091     33089     33092     33087     33093
     33087     33094     33087     33095     33089     33096     33089     33097
     33098     33099     33100     33101     33098     33100     33100     33102
     33100     33103     33098     33104     33098     33105     33098     33106
     33100     33107     33100     33108     33109     33110     33111     33112
     33109     33111     33111     33113     33111     33114     33109     33115
     33109     33116     33109     33117     33111     33118     33111     33119
     33120     33121     33122     33123     33120     33122     33122     33124
     33122     33125     33120     33126     33120     33127     33120     33128
     33122     33129     33122     33130     33131     33132     33133     33134
     33131     33133     33133     33135     33133     33136     33131     33137
     33131     33138     33131     33139     33133     33140     33133     33141
     33142     33143     33144     33145     33142     33144     33144     33146
     33144     33147     33142     33148     33142     33149     33142     33150
     33144     33151     33144     33152     33153     33154     33155     33156
     33153     33155     33155     33157     33155     33158     33153     33159
     33153     33160     33153     33161     33155     33162     33155     33163
     33164     33165     33166     33167     33164     33166     33166     33168
     33166     33169     33164     33170     33164     33171     33164     33172
     33166     33173     33166     33174     33175     33176     33177     33178
     33175     33177     33177     33179     33177     33180     33175     33181
     33175     33182     33175     33183     33177     33184     33177     33185
     33186     33187     33188     33189     33186     33188     33188     33190
     33188     33191     33186     33192     33186     33193     33186     33194
     33188     33195     33188     33196     33197     33198     33199     33200
     33197     33199     33199     33201     33199     33202     33197     33203
     33197     33204     33197     33205     33199     33206     33199     33207
     33208     33209     33210     33211     33208     33210     33210     33212
     33210     33213     33208     33214     33208     33215     33208     33216
     33210     33217     33210     33218     33219     33220     33221     33222
     33219     33221     33221     33223     33221     33224     33219     33225
     33219     33226     33219     33227     33221     33228     33221     33229
     33230     33231     33232     33233     33230     33232     33232     33234
     33232     33235     33230     33236     33230     33237     33230     33238
     33232     33239     33232     33240     33241     33242     33243     33244
     33241     33243     33243     33245     33243     33246     33241     33247
     33241     33248     33241     33249     33243     33250     33243     33251
     33252     33253     33254     33255     33252     33254     33254     33256
     33254     33257     33252     33258     33252     33259     33252     33260
     33254     33261     33254     33262     33263     33264     33265     33266
     33263     33265     33265     33267     33265     33268     33263     33269
     33263     33270     33263     33271     33265     33272     33265     33273
     33274     33275     33276     33277     33274     33276     33276     33278
     33276     33279     33274     33280     33274     33281     33274     33282
     33276     33283     33276     33284     33285     33286     33287     33288
     33285     33287     33287     33289     33287     33290     33285     33291
     33285     33292     33285     33293     33287     33294     33287     33295
     33296     33297     33298     33299     33296     33298     33298     33300
     33298     33301     33296     33302     33296     33303     33296     33304
     33298     33305     33298     33306     33307     33308     33309     33310
     33307     33309     33309     33311     33309     33312     33307     33313
     33307     33314     33307     33315     33309     33316     33309     33317
     33318     33319     33320     33321     33318     33320     33320     33322
     33320     33323     33318     33324     33318     33325     33318     33326
     33320     33327     33320     33328     33329     33330     33331     33332
     33329     33331     33331     33333     33331     33334     33329     33335
     33329     33336     33329     33337     33331     33338     33331     33339
     33340     33341     33342     33343     33340     33342     33342     33344
     33342     33345     33340     33346     33340     33347     33340     33348
     33342     33349     33342     33350     33351     33352     33353     33354
     33351     33353     33353     33355     33353     33356     33351     33357
     33351     33358     33351     33359     33353     33360     33353     33361
     33362     33363     33364     33365     33362     33364     33364     33366
     33364     33367     33362     33368     33362     33369     33362     33370
     33364     33371     33364     33372     33373     33374     33375     33376
     33373     33375     33375     33377     33375     33378     33373     33379
     33373     33380     33373     33381     33375     33382     33375     33383
     33384     33385     33386     33387     33384     33386     33386     33388
     33386     33389     33384     33390     33384     33391     33384     33392
     33386     33393     33386     33394     33395     33396     33397     33398
     33395     33397     33397     33399     33397     33400     33395     33401
     33395     33402     33395     33403     33397     33404     33397     33405
     33406     33407     33408     33409     33406     33408     33408     33410
     33408     33411     33406     33412     33406     33413     33406     33414
     33408     33415     33408     33416     33417     33418     33419     33420
     33417     33419     33419     33421     33419     33422     33417     33423
     33417     33424     33417     33425     33419     33426     33419     33427
     33428     33429     33430     33431     33428     33430     33430     33432
     33430     33433     33428     33434     33428     33435     33428     33436
     33430     33437     33430     33438     33439     33440     33441     33442
     33439     33441     33441     33443     33441     33444     33439     33445
     33439     33446     33439     33447     33441     33448     33441     33449
     33450     33451     33452     33453     33450     33452     33452     33454
     33452     33455     33450     33456     33450     33457     33450     33458
     33452     33459     33452     33460     33461     33462     33463     33464
     33461     33463     33463     33465     33463     33466     33461     33467
     33461     33468     33461     33469     33463     33470     33463     33471
     33472     33473     33474     33475     33472     33474     33474     33476
     33474     33477     33472     33478     33472     33479     33472     33480
     33474     33481     33474     33482     33483     33484     33485     33486
     33483     33485     33485     33487     33485     33488     33483     33489
     33483     33490     33483     33491     33485     33492     33485     33493
     33494     33495     33496     33497     33494     33496     33496     33498
     33496     33499     33494     33500     33494     33501     33494     33502
     33496     33503     33496     33504     33505     33506     33507     33508
     33505     33507     33507     33509     33507     33510     33505     33511
     33505     33512     33505     33513     33507     33514     33507     33515
     33516     33517     33518     33519     33516     33518     33518     33520
     33518     33521     33516     33522     33516     33523     33516     33524
     33518     33525     33518     33526     33527     33528     33529     33530
     33527     33529     33529     33531     33529     33532     33527     33533
     33527     33534     33527     33535     33529     33536     33529     33537
     33538     33539     33540     33541     33538     33540     33540     33542
     33540     33543     33538     33544     33538     33545     33538     33546
     33540     33547     33540     33548     33549     33550     33551     33552
     33549     33551     33551     33553     33551     33554     33549     33555
     33549     33556     33549     33557     33551     33558     33551     33559
     33560     33561     33562     33563     33560     33562     33562     33564
     33562     33565     33560     33566     33560     33567     33560     33568
     33562     33569     33562     33570     33571     33572     33573     33574
     33571     33573     33573     33575     33573     33576     33571     33577
     33571     33578     33571     33579     33573     33580     33573     33581
     33582     33583     33584     33585     33582     33584     33584     33586
     33584     33587     33582     33588     33582     33589     33582     33590
     33584     33591     33584     33592     33593     33594     33595     33596
     33593     33595     33595     33597     33595     33598     33593     33599
     33593     33600     33593     33601     33595     33602     33595     33603
     33604     33605     33606     33607     33604     33606     33606     33608
     33606     33609     33604     33610     33604     33611     33604     33612
     33606     33613     33606     33614     33615     33616     33617     33618
     33615     33617     33617     33619     33617     33620     33615     33621
     33615     33622     33615     33623     33617     33624     33617     33625
     33626     33627     33628     33629     33626     33628     33628     33630
     33628     33631     33626     33632     33626     33633     33626     33634
     33628     33635     33628     33636     33637     33638     33639     33640
     33637     33639     33639     33641     33639     33642     33637     33643
     33637     33644     33637     33645     33639     33646     33639     33647
     33648     33649     33650     33651     33648     33650     33650     33652
     33650     33653     33648     33654     33648     33655     33648     33656
     33650     33657     33650     33658     33659     33660     33661     33662
     33659     33661     33661     33663     33661     33664     33659     33665
     33659     33666     33659     33667     33661     33668     33661     33669
     33670     33671     33672     33673     33670     33672     33672     33674
     33672     33675     33670     33676     33670     33677     33670     33678
     33672     33679     33672     33680     33681     33682     33683     33684
     33681     33683     33683     33685     33683     33686     33681     33687
     33681     33688     33681     33689     33683     33690     33683     33691
     33692     33693     33694     33695     33692     33694     33694     33696
     33694     33697     33692     33698     33692     33699     33692     33700
     33694     33701     33694     33702     33703     33704     33705     33706
     33703     33705     33705     33707     33705     33708     33703     33709
     33703     33710     33703     33711     33705     33712     33705     33713
     33714     33715     33716     33717     33714     33716     33716     33718
     33716     33719     33714     33720     33714     33721     33714     33722
     33716     33723     33716     33724     33725     33726     33727     33728
     33725     33727     33727     33729     33727     33730     33725     33731
     33725     33732     33725     33733     33727     33734     33727     33735
     33736     33737     33738     33739     33736     33738     33738     33740
     33738     33741     33736     33742     33736     33743     33736     33744
     33738     33745     33738     33746     33747     33748     33749     33750
     33747     33749     33749     33751     33749     33752     33747     33753
     33747     33754     33747     33755     33749     33756     33749     33757
     33758     33759     33760     33761     33758     33760     33760     33762
     33760     33763     33758     33764     33758     33765     33758     33766
     33760     33767     33760     33768     33769     33770     33771     33772
     33769     33771     33771     33773     33771     33774     33769     33775
     33769     33776     33769     33777     33771     33778     33771     33779
     33780     33781     33782     33783     33780     33782     33782     33784
     33782     33785     33780     33786     33780     33787     33780     33788
     33782     33789     33782     33790     33791     33792     33793     33794
     33791     33793     33793     33795     33793     33796     33791     33797
     33791     33798     33791     33799     33793     33800     33793     33801
     33802     33803     33804     33805     33802     33804     33804     33806
     33804     33807     33802     33808     33802     33809     33802     33810
     33804     33811     33804     33812     33813     33814     33815     33816
     33813     33815     33815     33817     33815     33818     33813     33819
     33813     33820     33813     33821     33815     33822     33815     33823
     33824     33825     33826     33827     33824     33826     33826     33828
     33826     33829     33824     33830     33824     33831     33824     33832
     33826     33833     33826     33834     33835     33836     33837     33838
     33835     33837     33837     33839     33837     33840     33835     33841
     33835     33842     33835     33843     33837     33844     33837     33845
     33846     33847     33848     33849     33846     33848     33848     33850
     33848     33851     33846     33852     33846     33853     33846     33854
     33848     33855     33848     33856     33857     33858     33859     33860
     33857     33859     33859     33861     33859     33862     33857     33863
     33857     33864     33857     33865     33859     33866     33859     33867
     33868     33869     33870     33871     33868     33870     33870     33872
     33870     33873     33868     33874     33868     33875     33868     33876
     33870     33877     33870     33878     33879     33880     33881     33882
     33879     33881     33881     33883     33881     33884     33879     33885
     33879     33886     33879     33887     33881     33888     33881     33889
     33890     33891     33892     33893     33890     33892     33892     33894
     33892     33895     33890     33896     33890     33897     33890     33898
     33892     33899     33892     33900     33901     33902     33903     33904
     33901     33903     33903     33905     33903     33906     33901     33907
     33901     33908     33901     33909     33903     33910     33903     33911
     33912     33913     33914     33915     33912     33914     33914     33916
     33914     33917     33912     33918     33912     33919     33912     33920
     33914     33921     33914     33922     33923     33924     33925     33926
     33923     33925     33925     33927     33925     33928     33923     33929
     33923     33930     33923     33931     33925     33932     33925     33933
     33934     33935     33936     33937     33934     33936     33936     33938
     33936     33939     33934     33940     33934     33941     33934     33942
     33936     33943     33936     33944     33945     33946     33947     33948
     33945     33947     33947     33949     33947     33950     33945     33951
     33945     33952     33945     33953     33947     33954     33947     33955
     33956     33957     33958     33959     33956     33958     33958     33960
     33958     33961     33956     33962     33956     33963     33956     33964
     33958     33965     33958     33966     33967     33968     33969     33970
     33967     33969     33969     33971     33969     33972     33967     33973
     33967     33974     33967     33975     33969     33976     33969     33977
     33978     33979     33980     33981     33978     33980     33980     33982
     33980     33983     33978     33984     33978     33985     33978     33986
     33980     33987     33980     33988     33989     33990     33991     33992
     33989     33991     33991     33993     33991     33994     33989     33995
     33989     33996     33989     33997     33991     33998     33991     33999
     34000     34001     34002     34003     34000     34002     34002     34004
     34002     34005     34000     34006     34000     34007     34000     34008
     34002     34009     34002     34010     34011     34012     34013     34014
     34011     34013     34013     34015     34013     34016     34011     34017
     34011     34018     34011     34019     34013     34020     34013     34021
     34022     34023     34024     34025     34022     34024     34024     34026
     34024     34027     34022     34028     34022     34029     34022     34030
     34024     34031     34024     34032     34033     34034     34035     34036
     34033     34035     34035     34037     34035     34038     34033     34039
     34033     34040     34033     34041     34035     34042     34035     34043
     34044     34045     34046     34047     34044     34046     34046     34048
     34046     34049     34044     34050     34044     34051     34044     34052
     34046     34053     34046     34054     34055     34056     34057     34058
     34055     34057     34057     34059     34057     34060     34055     34061
     34055     34062     34055     34063     34057     34064     34057     34065
     34066     34067     34068     34069     34066     34068     34068     34070
     34068     34071     34066     34072     34066     34073     34066     34074
     34068     34075     34068     34076     34077     34078     34079     34080
     34077     34079     34079     34081     34079     34082     34077     34083
     34077     34084     34077     34085     34079     34086     34079     34087
     34088     34089     34090     34091     34088     34090     34090     34092
     34090     34093     34088     34094     34088     34095     34088     34096
     34090     34097     34090     34098     34099     34100     34101     34102
     34099     34101     34101     34103     34101     34104     34099     34105
     34099     34106     34099     34107     34101     34108     34101     34109
     34110     34111     34112     34113     34110     34112     34112     34114
     34112     34115     34110     34116     34110     34117     34110     34118
     34112     34119     34112     34120     34121     34122     34123     34124
     34121     34123     34123     34125     34123     34126     34121     34127
     34121     34128     34121     34129     34123     34130     34123     34131
     34132     34133     34134     34135     34132     34134     34134     34136
     34134     34137     34132     34138     34132     34139     34132     34140
     34134     34141     34134     34142     34143     34144     34145     34146
     34143     34145     34145     34147     34145     34148     34143     34149
     34143     34150     34143     34151     34145     34152     34145     34153
     34154     34155     34156     34157     34154     34156     34156     34158
     34156     34159     34154     34160     34154     34161     34154     34162
     34156     34163     34156     34164     34165     34166     34167     34168
     34165     34167     34167     34169     34167     34170     34165     34171
     34165     34172     34165     34173     34167     34174     34167     34175
     34176     34177     34178     34179     34176     34178     34178     34180
     34178     34181     34176     34182     34176     34183     34176     34184
     34178     34185     34178     34186     34187     34188     34189     34190
     34187     34189     34189     34191     34189     34192     34187     34193
     34187     34194     34187     34195     34189     34196     34189     34197
     34198     34199     34200     34201     34198     34200     34200     34202
     34200     34203     34198     34204     34198     34205     34198     34206
     34200     34207     34200     34208     34209     34210     34211     34212
     34209     34211     34211     34213     34211     34214     34209     34215
     34209     34216     34209     34217     34211     34218     34211     34219
     34220     34221     34222     34223     34220     34222     34222     34224
     34222     34225     34220     34226     34220     34227     34220     34228
     34222     34229     34222     34230     34231     34232     34233     34234
     34231     34233     34233     34235     34233     34236     34231     34237
     34231     34238     34231     34239     34233     34240     34233     34241
     34242     34243     34244     34245     34242     34244     34244     34246
     34244     34247     34242     34248     34242     34249     34242     34250
     34244     34251     34244     34252     34253     34254     34255     34256
     34253     34255     34255     34257     34255     34258     34253     34259
     34253     34260     34253     34261     34255     34262     34255     34263
     34264     34265     34266     34267     34264     34266     34266     34268
     34266     34269     34264     34270     34264     34271     34264     34272
     34266     34273     34266     34274     34275     34276     34277     34278
     34275     34277     34277     34279     34277     34280     34275     34281
     34275     34282     34275     34283     34277     34284     34277     34285
     34286     34287     34288     34289     34286     34288     34288     34290
     34288     34291     34286     34292     34286     34293     34286     34294
     34288     34295     34288     34296     34297     34298     34299     34300
     34297     34299     34299     34301     34299     34302     34297     34303
     34297     34304     34297     34305     34299     34306     34299     34307
     34308     34309     34310     34311     34308     34310     34310     34312
     34310     34313     34308     34314     34308     34315     34308     34316
     34310     34317     34310     34318     34319     34320     34321     34322
     34319     34321     34321     34323     34321     34324     34319     34325
     34319     34326     34319     34327     34321     34328     34321     34329
     34330     34331     34332     34333     34330     34332     34332     34334
     34332     34335     34330     34336     34330     34337     34330     34338
     34332     34339     34332     34340     34341     34342     34343     34344
     34341     34343     34343     34345     34343     34346     34341     34347
     34341     34348     34341     34349     34343     34350     34343     34351
     34352     34353     34354     34355     34352     34354     34354     34356
     34354     34357     34352     34358     34352     34359     34352     34360
     34354     34361     34354     34362     34363     34364     34365     34366
     34363     34365     34365     34367     34365     34368     34363     34369
     34363     34370     34363     34371     34365     34372     34365     34373
     34374     34375     34376     34377     34374     34376     34376     34378
     34376     34379     34374     34380     34374     34381     34374     34382
     34376     34383     34376     34384     34385     34386     34387     34388
     34385     34387     34387     34389     34387     34390     34385     34391
     34385     34392     34385     34393     34387     34394     34387     34395
     34396     34397     34398     34399     34396     34398     34398     34400
     34398     34401     34396     34402     34396     34403     34396     34404
     34398     34405     34398     34406     34407     34408     34409     34410
     34407     34409     34409     34411     34409     34412     34407     34413
     34407     34414     34407     34415     34409     34416     34409     34417
     34418     34419     34420     34421     34418     34420     34420     34422
     34420     34423     34418     34424     34418     34425     34418     34426
     34420     34427     34420     34428     34429     34430     34431     34432
     34429     34431     34431     34433     34431     34434     34429     34435
     34429     34436     34429     34437     34431     34438     34431     34439
     34440     34441     34442     34443     34440     34442     34442     34444
     34442     34445     34440     34446     34440     34447     34440     34448
     34442     34449     34442     34450     34451     34452     34453     34454
     34451     34453     34453     34455     34453     34456     34451     34457
     34451     34458     34451     34459     34453     34460     34453     34461
     34462     34463     34464     34465     34462     34464     34464     34466
     34464     34467     34462     34468     34462     34469     34462     34470
     34464     34471     34464     34472     34473     34474     34475     34476
     34473     34475     34475     34477     34475     34478     34473     34479
     34473     34480     34473     34481     34475     34482     34475     34483
     34484     34485     34486     34487     34484     34486     34486     34488
     34486     34489     34484     34490     34484     34491     34484     34492
     34486     34493     34486     34494     34495     34496     34497     34498
     34495     34497     34497     34499     34497     34500     34495     34501
     34495     34502     34495     34503     34497     34504     34497     34505
     34506     34507     34508     34509     34506     34508     34508     34510
     34508     34511     34506     34512     34506     34513     34506     34514
     34508     34515     34508     34516     34517     34518     34519     34520
     34517     34519     34519     34521     34519     34522     34517     34523
     34517     34524     34517     34525     34519     34526     34519     34527
     34528     34529     34530     34531     34528     34530     34530     34532
     34530     34533     34528     34534     34528     34535     34528     34536
     34530     34537     34530     34538     34539     34540     34541     34542
     34539     34541     34541     34543     34541     34544     34539     34545
     34539     34546     34539     34547     34541     34548     34541     34549
     34550     34551     34552     34553     34550     34552     34552     34554
     34552     34555     34550     34556     34550     34557     34550     34558
     34552     34559     34552     34560     34561     34562     34563     34564
     34561     34563     34563     34565     34563     34566     34561     34567
     34561     34568     34561     34569     34563     34570     34563     34571
     34572     34573     34574     34575     34572     34574     34574     34576
     34574     34577     34572     34578     34572     34579     34572     34580
     34574     34581     34574     34582     34583     34584     34585     34586
     34583     34585     34585     34587     34585     34588     34583     34589
     34583     34590     34583     34591     34585     34592     34585     34593
     34594     34595     34596     34597     34594     34596     34596     34598
     34596     34599     34594     34600     34594     34601     34594     34602
     34596     34603     34596     34604     34605     34606     34607     34608
     34605     34607     34607     34609     34607     34610     34605     34611
     34605     34612     34605     34613     34607     34614     34607     34615
     34616     34617     34618     34619     34616     34618     34618     34620
     34618     34621     34616     34622     34616     34623     34616     34624
     34618     34625     34618     34626     34627     34628     34629     34630
     34627     34629     34629     34631     34629     34632     34627     34633
     34627     34634     34627     34635     34629     34636     34629     34637
     34638     34639     34640     34641     34638     34640     34640     34642
     34640     34643     34638     34644     34638     34645     34638     34646
     34640     34647     34640     34648     34649     34650     34651     34652
     34649     34651     34651     34653     34651     34654     34649     34655
     34649     34656     34649     34657     34651     34658     34651     34659
     34660     34661     34662     34663     34660     34662     34662     34664
     34662     34665     34660     34666     34660     34667     34660     34668
     34662     34669     34662     34670     34671     34672     34673     34674
     34671     34673     34673     34675     34673     34676     34671     34677
     34671     34678     34671     34679     34673     34680     34673     34681
     34682     34683     34684     34685     34682     34684     34684     34686
     34684     34687     34682     34688     34682     34689     34682     34690
     34684     34691     34684     34692     34693     34694     34695     34696
     34693     34695     34695     34697     34695     34698     34693     34699
     34693     34700     34693     34701     34695     34702     34695     34703
     34704     34705     34706     34707     34704     34706     34706     34708
     34706     34709     34704     34710     34704     34711     34704     34712
     34706     34713     34706     34714     34715     34716     34717     34718
     34715     34717     34717     34719     34717     34720     34715     34721
     34715     34722     34715     34723     34717     34724     34717     34725
     34726     34727     34728     34729     34726     34728     34728     34730
     34728     34731     34726     34732     34726     34733     34726     34734
     34728     34735     34728     34736     34737     34738     34739     34740
     34737     34739     34739     34741     34739     34742     34737     34743
     34737     34744     34737     34745     34739     34746     34739     34747
     34748     34749     34750     34751     34748     34750     34750     34752
     34750     34753     34748     34754     34748     34755     34748     34756
     34750     34757     34750     34758     34759     34760     34761     34762
     34759     34761     34761     34763     34761     34764     34759     34765
     34759     34766     34759     34767     34761     34768     34761     34769
     34770     34771     34772     34773     34770     34772     34772     34774
     34772     34775     34770     34776     34770     34777     34770     34778
     34772     34779     34772     34780     34781     34782     34783     34784
     34781     34783     34783     34785     34783     34786     34781     34787
     34781     34788     34781     34789     34783     34790     34783     34791
     34792     34793     34794     34795     34792     34794     34794     34796
     34794     34797     34792     34798     34792     34799     34792     34800
     34794     34801     34794     34802     34803     34804     34805     34806
     34803     34805     34805     34807     34805     34808     34803     34809
     34803     34810     34803     34811     34805     34812     34805     34813
     34814     34815     34816     34817     34814     34816     34816     34818
     34816     34819     34814     34820     34814     34821     34814     34822
     34816     34823     34816     34824     34825     34826     34827     34828
     34825     34827     34827     34829     34827     34830     34825     34831
     34825     34832     34825     34833     34827     34834     34827     34835
     34836     34837     34838     34839     34836     34838     34838     34840
     34838     34841     34836     34842     34836     34843     34836     34844
     34838     34845     34838     34846     34847     34848     34849     34850
     34847     34849     34849     34851     34849     34852     34847     34853
     34847     34854     34847     34855     34849     34856     34849     34857
     34858     34859     34860     34861     34858     34860     34860     34862
     34860     34863     34858     34864     34858     34865     34858     34866
     34860     34867     34860     34868     34869     34870     34871     34872
     34869     34871     34871     34873     34871     34874     34869     34875
     34869     34876     34869     34877     34871     34878     34871     34879
     34880     34881     34882     34883     34880     34882     34882     34884
     34882     34885     34880     34886     34880     34887     34880     34888
     34882     34889     34882     34890     34891     34892     34893     34894
     34891     34893     34893     34895     34893     34896     34891     34897
     34891     34898     34891     34899     34893     34900     34893     34901
     34902     34903     34904     34905     34902     34904     34904     34906
     34904     34907     34902     34908     34902     34909     34902     34910
     34904     34911     34904     34912     34913     34914     34915     34916
     34913     34915     34915     34917     34915     34918     34913     34919
     34913     34920     34913     34921     34915     34922     34915     34923
     34924     34925     34926     34927     34924     34926     34926     34928
     34926     34929     34924     34930     34924     34931     34924     34932
     34926     34933     34926     34934     34935     34936     34937     34938
     34935     34937     34937     34939     34937     34940     34935     34941
     34935     34942     34935     34943     34937     34944     34937     34945
     34946     34947     34948     34949     34946     34948     34948     34950
     34948     34951     34946     34952     34946     34953     34946     34954
     34948     34955     34948     34956     34957     34958     34959     34960
     34957     34959     34959     34961     34959     34962     34957     34963
     34957     34964     34957     34965     34959     34966     34959     34967
     34968     34969     34970     34971     34968     34970     34970     34972
     34970     34973     34968     34974     34968     34975     34968     34976
     34970     34977     34970     34978     34979     34980     34981     34982
     34979     34981     34981     34983     34981     34984     34979     34985
     34979     34986     34979     34987     34981     34988     34981     34989
     34990     34991     34992     34993     34990     34992     34992     34994
     34992     34995     34990     34996     34990     34997     34990     34998
     34992     34999     34992     35000     35001     35002     35003     35004
     35001     35003     35003     35005     35003     35006     35001     35007
     35001     35008     35001     35009     35003     35010     35003     35011
     35012     35013     35014     35015     35012     35014     35014     35016
     35014     35017     35012     35018     35012     35019     35012     35020
     35014     35021     35014     35022     35023     35024     35025     35026
     35023     35025     35025     35027     35025     35028     35023     35029
     35023     35030     35023     35031     35025     35032     35025     35033
     35034     35035     35036     35037     35034     35036     35036     35038
     35036     35039     35034     35040     35034     35041     35034     35042
     35036     35043     35036     35044     35045     35046     35047     35048
     35045     35047     35047     35049     35047     35050     35045     35051
     35045     35052     35045     35053     35047     35054     35047     35055
     35056     35057     35058     35059     35056     35058     35058     35060
     35058     35061     35056     35062     35056     35063     35056     35064
     35058     35065     35058     35066     35067     35068     35069     35070
     35067     35069     35069     35071     35069     35072     35067     35073
     35067     35074     35067     35075     35069     35076     35069     35077
     35078     35079     35080     35081     35078     35080     35080     35082
     35080     35083     35078     35084     35078     35085     35078     35086
     35080     35087     35080     35088     35089     35090     35091     35092
     35089     35091     35091     35093     35091     35094     35089     35095
     35089     35096     35089     35097     35091     35098     35091     35099
     35100     35101     35102     35103     35100     35102     35102     35104
     35102     35105     35100     35106     35100     35107     35100     35108
     35102     35109     35102     35110     35111     35112     35113     35114
     35111     35113     35113     35115     35113     35116     35111     35117
     35111     35118     35111     35119     35113     35120     35113     35121
     35122     35123     35124     35125     35122     35124     35124     35126
     35124     35127     35122     35128     35122     35129     35122     35130
     35124     35131     35124     35132     35133     35134     35135     35136
     35133     35135     35135     35137     35135     35138     35133     35139
     35133     35140     35133     35141     35135     35142     35135     35143
     35144     35145     35146     35147     35144     35146     35146     35148
     35146     35149     35144     35150     35144     35151     35144     35152
     35146     35153     35146     35154     35155     35156     35157     35158
     35155     35157     35157     35159     35157     35160     35155     35161
     35155     35162     35155     35163     35157     35164     35157     35165
     35166     35167     35168     35169     35166     35168     35168     35170
     35168     35171     35166     35172     35166     35173     35166     35174
     35168     35175     35168     35176     35177     35178     35179     35180
     35177     35179     35179     35181     35179     35182     35177     35183
     35177     35184     35177     35185     35179     35186     35179     35187
     35188     35189     35190     35191     35188     35190     35190     35192
     35190     35193     35188     35194     35188     35195     35188     35196
     35190     35197     35190     35198     35199     35200     35201     35202
     35199     35201     35201     35203     35201     35204     35199     35205
     35199     35206     35199     35207     35201     35208     35201     35209
     35210     35211     35212     35213     35210     35212     35212     35214
     35212     35215     35210     35216     35210     35217     35210     35218
     35212     35219     35212     35220     35221     35222     35223     35224
     35221     35223     35223     35225     35223     35226     35221     35227
     35221     35228     35221     35229     35223     35230     35223     35231
     35232     35233     35234     35235     35232     35234     35234     35236
     35234     35237     35232     35238     35232     35239     35232     35240
     35234     35241     35234     35242     35243     35244     35245     35246
     35243     35245     35245     35247     35245     35248     35243     35249
     35243     35250     35243     35251     35245     35252     35245     35253
     35254     35255     35256     35257     35254     35256     35256     35258
     35256     35259     35254     35260     35254     35261     35254     35262
     35256     35263     35256     35264     35265     35266     35267     35268
     35265     35267     35267     35269     35267     35270     35265     35271
     35265     35272     35265     35273     35267     35274     35267     35275
     35276     35277     35278     35279     35276     35278     35278     35280
     35278     35281     35276     35282     35276     35283     35276     35284
     35278     35285     35278     35286     35287     35288     35289     35290
     35287     35289     35289     35291     35289     35292     35287     35293
     35287     35294     35287     35295     35289     35296     35289     35297
     35298     35299     35300     35301     35298     35300     35300     35302
     35300     35303     35298     35304     35298     35305     35298     35306
     35300     35307     35300     35308     35309     35310     35311     35312
     35309     35311     35311     35313     35311     35314     35309     35315
     35309     35316     35309     35317     35311     35318     35311     35319
     35320     35321     35322     35323     35320     35322     35322     35324
     35322     35325     35320     35326     35320     35327     35320     35328
     35322     35329     35322     35330     35331     35332     35333     35334
     35331     35333     35333     35335     35333     35336     35331     35337
     35331     35338     35331     35339     35333     35340     35333     35341
     35342     35343     35344     35345     35342     35344     35344     35346
     35344     35347     35342     35348     35342     35349     35342     35350
     35344     35351     35344     35352     35353     35354     35355     35356
     35353     35355     35355     35357     35355     35358     35353     35359
     35353     35360     35353     35361     35355     35362     35355     35363
     35364     35365     35366     35367     35364     35366     35366     35368
     35366     35369     35364     35370     35364     35371     35364     35372
     35366     35373     35366     35374     35375     35376     35377     35378
     35375     35377     35377     35379     35377     35380     35375     35381
     35375     35382     35375     35383     35377     35384     35377     35385
     35386     35387     35388     35389     35386     35388     35388     35390
     35388     35391     35386     35392     35386     35393     35386     35394
     35388     35395     35388     35396     35397     35398     35399     35400
     35397     35399     35399     35401     35399     35402     35397     35403
     35397     35404     35397     35405     35399     35406     35399     35407
     35408     35409     35410     35411     35408     35410     35410     35412
     35410     35413     35408     35414     35408     35415     35408     35416
     35410     35417     35410     35418     35419     35420     35421     35422
     35419     35421     35421     35423     35421     35424     35419     35425
     35419     35426     35419     35427     35421     35428     35421     35429
     35430     35431     35432     35433     35430     35432     35432     35434
     35432     35435     35430     35436     35430     35437     35430     35438
     35432     35439     35432     35440     35441     35442     35443     35444
     35441     35443     35443     35445     35443     35446     35441     35447
     35441     35448     35441     35449     35443     35450     35443     35451
     35452     35453     35454     35455     35452     35454     35454     35456
     35454     35457     35452     35458     35452     35459     35452     35460
     35454     35461     35454     35462     35463     35464     35465     35466
     35463     35465     35465     35467     35465     35468     35463     35469
     35463     35470     35463     35471     35465     35472     35465     35473
     35474     35475     35476     35477     35474     35476     35476     35478
     35476     35479     35474     35480     35474     35481     35474     35482
     35476     35483     35476     35484     35485     35486     35487     35488
     35485     35487     35487     35489     35487     35490     35485     35491
     35485     35492     35485     35493     35487     35494     35487     35495
     35496     35497     35498     35499     35496     35498     35498     35500
     35498     35501     35496     35502     35496     35503     35496     35504
     35498     35505     35498     35506     35507     35508     35509     35510
     35507     35509     35509     35511     35509     35512     35507     35513
     35507     35514     35507     35515     35509     35516     35509     35517
     35518     35519     35520     35521     35518     35520     35520     35522
     35520     35523     35518     35524     35518     35525     35518     35526
     35520     35527     35520     35528     35529     35530     35531     35532
     35529     35531     35531     35533     35531     35534     35529     35535
     35529     35536     35529     35537     35531     35538     35531     35539
     35540     35541     35542     35543     35540     35542     35542     35544
     35542     35545     35540     35546     35540     35547     35540     35548
     35542     35549     35542     35550     35551     35552     35553     35554
     35551     35553     35553     35555     35553     35556     35551     35557
     35551     35558     35551     35559     35553     35560     35553     35561
     35562     35563     35564     35565     35562     35564     35564     35566
     35564     35567     35562     35568     35562     35569     35562     35570
     35564     35571     35564     35572     35573     35574     35575     35576
     35573     35575     35575     35577     35575     35578     35573     35579
     35573     35580     35573     35581     35575     35582     35575     35583
     35584     35585     35586     35587     35584     35586     35586     35588
     35586     35589     35584     35590     35584     35591     35584     35592
     35586     35593     35586     35594     35595     35596     35597     35598
     35595     35597     35597     35599     35597     35600     35595     35601
     35595     35602     35595     35603     35597     35604     35597     35605
     35606     35607     35608     35609     35606     35608     35608     35610
     35608     35611     35606     35612     35606     35613     35606     35614
     35608     35615     35608     35616     35617     35618     35619     35620
     35617     35619     35619     35621     35619     35622     35617     35623
     35617     35624     35617     35625     35619     35626     35619     35627
     35628     35629     35630     35631     35628     35630     35630     35632
     35630     35633     35628     35634     35628     35635     35628     35636
     35630     35637     35630     35638     35639     35640     35641     35642
     35639     35641     35641     35643     35641     35644     35639     35645
     35639     35646     35639     35647     35641     35648     35641     35649
     35650     35651     35652     35653     35650     35652     35652     35654
     35652     35655     35650     35656     35650     35657     35650     35658
     35652     35659     35652     35660     35661     35662     35663     35664
     35661     35663     35663     35665     35663     35666     35661     35667
     35661     35668     35661     35669     35663     35670     35663     35671
     35672     35673     35674     35675     35672     35674     35674     35676
     35674     35677     35672     35678     35672     35679     35672     35680
     35674     35681     35674     35682     35683     35684     35685     35686
     35683     35685     35685     35687     35685     35688     35683     35689
     35683     35690     35683     35691     35685     35692     35685     35693
     35694     35695     35696     35697     35694     35696     35696     35698
     35696     35699     35694     35700     35694     35701     35694     35702
     35696     35703     35696     35704     35705     35706     35707     35708
     35705     35707     35707     35709     35707     35710     35705     35711
     35705     35712     35705     35713     35707     35714     35707     35715
     35716     35717     35718     35719     35716     35718     35718     35720
     35718     35721     35716     35722     35716     35723     35716     35724
     35718     35725     35718     35726     35727     35728     35729     35730
     35727     35729     35729     35731     35729     35732     35727     35733
     35727     35734     35727     35735     35729     35736     35729     35737
     35738     35739     35740     35741     35738     35740     35740     35742
     35740     35743     35738     35744     35738     35745     35738     35746
     35740     35747     35740     35748     35749     35750     35751     35752
     35749     35751     35751     35753     35751     35754     35749     35755
     35749     35756     35749     35757     35751     35758     35751     35759
     35760     35761     35762     35763     35760     35762     35762     35764
     35762     35765     35760     35766     35760     35767     35760     35768
     35762     35769     35762     35770     35771     35772     35773     35774
     35771     35773     35773     35775     35773     35776     35771     35777
     35771     35778     35771     35779     35773     35780     35773     35781
     35782     35783     35784     35785     35782     35784     35784     35786
     35784     35787     35782     35788     35782     35789     35782     35790
     35784     35791     35784     35792     35793     35794     35795     35796
     35793     35795     35795     35797     35795     35798     35793     35799
     35793     35800     35793     35801     35795     35802     35795     35803
     35804     35805     35806     35807     35804     35806     35806     35808
     35806     35809     35804     35810     35804     35811     35804     35812
     35806     35813     35806     35814     35815     35816     35817     35818
     35815     35817     35817     35819     35817     35820     35815     35821
     35815     35822     35815     35823     35817     35824     35817     35825
     35826     35827     35828     35829     35826     35828     35828     35830
     35828     35831     35826     35832     35826     35833     35826     35834
     35828     35835     35828     35836     35837     35838     35839     35840
     35837     35839     35839     35841     35839     35842     35837     35843
     35837     35844     35837     35845     35839     35846     35839     35847
     35848     35849     35850     35851     35848     35850     35850     35852
     35850     35853     35848     35854     35848     35855     35848     35856
     35850     35857     35850     35858     35859     35860     35861     35862
     35859     35861     35861     35863     35861     35864     35859     35865
     35859     35866     35859     35867     35861     35868     35861     35869
     35870     35871     35872     35873     35870     35872     35872     35874
     35872     35875     35870     35876     35870     35877     35870     35878
     35872     35879     35872     35880     35881     35882     35883     35884
     35881     35883     35883     35885     35883     35886     35881     35887
     35881     35888     35881     35889     35883     35890     35883     35891
     35892     35893     35894     35895     35892     35894     35894     35896
     35894     35897     35892     35898     35892     35899     35892     35900
     35894     35901     35894     35902     35903     35904     35905     35906
     35903     35905     35905     35907     35905     35908     35903     35909
     35903     35910     35903     35911     35905     35912     35905     35913
     35914     35915     35916     35917     35914     35916     35916     35918
     35916     35919     35914     35920     35914     35921     35914     35922
     35916     35923     35916     35924     35925     35926     35927     35928
     35925     35927     35927     35929     35927     35930     35925     35931
     35925     35932     35925     35933     35927     35934     35927     35935
     35936     35937     35938     35939     35936     35938     35938     35940
     35938     35941     35936     35942     35936     35943     35936     35944
     35938     35945     35938     35946     35947     35948     35949     35950
     35947     35949     35949     35951     35949     35952     35947     35953
     35947     35954     35947     35955     35949     35956     35949     35957
     35958     35959     35960     35961     35958     35960     35960     35962
     35960     35963     35958     35964     35958     35965     35958     35966
     35960     35967     35960     35968     35969     35970     35971     35972
     35969     35971     35971     35973     35971     35974     35969     35975
     35969     35976     35969     35977     35971     35978     35971     35979
     35980     35981     35982     35983     35980     35982     35982     35984
     35982     35985     35980     35986     35980     35987     35980     35988
     35982     35989     35982     35990     35991     35992     35993     35994
     35991     35993     35993     35995     35993     35996     35991     35997
     35991     35998     35991     35999     35993     36000     35993     36001
     36002     36003     36004     36005     36002     36004     36004     36006
     36004     36007     36002     36008     36002     36009     36002     36010
     36004     36011     36004     36012     36013     36014     36015     36016
     36013     36015     36015     36017     36015     36018     36013     36019
     36013     36020     36013     36021     36015     36022     36015     36023
     36024     36025     36026     36027     36024     36026     36026     36028
     36026     36029     36024     36030     36024     36031     36024     36032
     36026     36033     36026     36034     36035     36036     36037     36038
     36035     36037     36037     36039     36037     36040     36035     36041
     36035     36042     36035     36043     36037     36044     36037     36045
     36046     36047     36048     36049     36046     36048     36048     36050
     36048     36051     36046     36052     36046     36053     36046     36054
     36048     36055     36048     36056     36057     36058     36059     36060
     36057     36059     36059     36061     36059     36062     36057     36063
     36057     36064     36057     36065     36059     36066     36059     36067
     36068     36069     36070     36071     36068     36070     36070     36072
     36070     36073     36068     36074     36068     36075     36068     36076
     36070     36077     36070     36078     36079     36080     36081     36082
     36079     36081     36081     36083     36081     36084     36079     36085
     36079     36086     36079     36087     36081     36088     36081     36089
     36090     36091     36092     36093     36090     36092     36092     36094
     36092     36095     36090     36096     36090     36097     36090     36098
     36092     36099     36092     36100     36101     36102     36103     36104
     36101     36103     36103     36105     36103     36106     36101     36107
     36101     36108     36101     36109     36103     36110     36103     36111
     36112     36113     36114     36115     36112     36114     36114     36116
     36114     36117     36112     36118     36112     36119     36112     36120
     36114     36121     36114     36122     36123     36124     36125     36126
     36123     36125     36125     36127     36125     36128     36123     36129
     36123     36130     36123     36131     36125     36132     36125     36133
     36134     36135     36136     36137     36134     36136     36136     36138
     36136     36139     36134     36140     36134     36141     36134     36142
     36136     36143     36136     36144     36145     36146     36147     36148
     36145     36147     36147     36149     36147     36150     36145     36151
     36145     36152     36145     36153     36147     36154     36147     36155
     36156     36157     36158     36159     36156     36158     36158     36160
     36158     36161     36156     36162     36156     36163     36156     36164
     36158     36165     36158     36166     36167     36168     36169     36170
     36167     36169     36169     36171     36169     36172     36167     36173
     36167     36174     36167     36175     36169     36176     36169     36177
     36178     36179     36180     36181     36178     36180     36180     36182
     36180     36183     36178     36184     36178     36185     36178     36186
     36180     36187     36180     36188     36189     36190     36191     36192
     36189     36191     36191     36193     36191     36194     36189     36195
     36189     36196     36189     36197     36191     36198     36191     36199
     36200     36201     36202     36203     36200     36202     36202     36204
     36202     36205     36200     36206     36200     36207     36200     36208
     36202     36209     36202     36210     36211     36212     36213     36214
     36211     36213     36213     36215     36213     36216     36211     36217
     36211     36218     36211     36219     36213     36220     36213     36221
     36222     36223     36224     36225     36222     36224     36224     36226
     36224     36227     36222     36228     36222     36229     36222     36230
     36224     36231     36224     36232     36233     36234     36235     36236
     36233     36235     36235     36237     36235     36238     36233     36239
     36233     36240     36233     36241     36235     36242     36235     36243
     36244     36245     36246     36247     36244     36246     36246     36248
     36246     36249     36244     36250     36244     36251     36244     36252
     36246     36253     36246     36254     36255     36256     36257     36258
     36255     36257     36257     36259     36257     36260     36255     36261
     36255     36262     36255     36263     36257     36264     36257     36265
     36266     36267     36268     36269     36266     36268     36268     36270
     36268     36271     36266     36272     36266     36273     36266     36274
     36268     36275     36268     36276     36277     36278     36279     36280
     36277     36279     36279     36281     36279     36282     36277     36283
     36277     36284     36277     36285     36279     36286     36279     36287
     36288     36289     36290     36291     36288     36290     36290     36292
     36290     36293     36288     36294     36288     36295     36288     36296
     36290     36297     36290     36298     36299     36300     36301     36302
     36299     36301     36301     36303     36301     36304     36299     36305
     36299     36306     36299     36307     36301     36308     36301     36309
     36310     36311     36312     36313     36310     36312     36312     36314
     36312     36315     36310     36316     36310     36317     36310     36318
     36312     36319     36312     36320     36321     36322     36323     36324
     36321     36323     36323     36325     36323     36326     36321     36327
     36321     36328     36321     36329     36323     36330     36323     36331
     36332     36333     36334     36335     36332     36334     36334     36336
     36334     36337     36332     36338     36332     36339     36332     36340
     36334     36341     36334     36342     36343     36344     36345     36346
     36343     36345     36345     36347     36345     36348     36343     36349
     36343     36350     36343     36351     36345     36352     36345     36353
     36354     36355     36356     36357     36354     36356     36356     36358
     36356     36359     36354     36360     36354     36361     36354     36362
     36356     36363     36356     36364     36365     36366     36367     36368
     36365     36367     36367     36369     36367     36370     36365     36371
     36365     36372     36365     36373     36367     36374     36367     36375
     36376     36377     36378     36379     36376     36378     36378     36380
     36378     36381     36376     36382     36376     36383     36376     36384
     36378     36385     36378     36386     36387     36388     36389     36390
     36387     36389     36389     36391     36389     36392     36387     36393
     36387     36394     36387     36395     36389     36396     36389     36397
     36398     36399     36400     36401     36398     36400     36400     36402
     36400     36403     36398     36404     36398     36405     36398     36406
     36400     36407     36400     36408     36409     36410     36411     36412
     36409     36411     36411     36413     36411     36414     36409     36415
     36409     36416     36409     36417     36411     36418     36411     36419
     36420     36421     36422     36423     36420     36422     36422     36424
     36422     36425     36420     36426     36420     36427     36420     36428
     36422     36429     36422     36430     36431     36432     36433     36434
     36431     36433     36433     36435     36433     36436     36431     36437
     36431     36438     36431     36439     36433     36440     36433     36441
     36442     36443     36444     36445     36442     36444     36444     36446
     36444     36447     36442     36448     36442     36449     36442     36450
     36444     36451     36444     36452     36453     36454     36455     36456
     36453     36455     36455     36457     36455     36458     36453     36459
     36453     36460     36453     36461     36455     36462     36455     36463
     36464     36465     36466     36467     36464     36466     36466     36468
     36466     36469     36464     36470     36464     36471     36464     36472
     36466     36473     36466     36474     36475     36476     36477     36478
     36475     36477     36477     36479     36477     36480     36475     36481
     36475     36482     36475     36483     36477     36484     36477     36485
     36486     36487     36488     36489     36486     36488     36488     36490
     36488     36491     36486     36492     36486     36493     36486     36494
     36488     36495     36488     36496     36497     36498     36499     36500
     36497     36499     36499     36501     36499     36502     36497     36503
     36497     36504     36497     36505     36499     36506     36499     36507
     36508     36509     36510     36511     36508     36510     36510     36512
     36510     36513     36508     36514     36508     36515     36508     36516
     36510     36517     36510     36518     36519     36520     36521     36522
     36519     36521     36521     36523     36521     36524     36519     36525
     36519     36526     36519     36527     36521     36528     36521     36529
     36530     36531     36532     36533     36530     36532     36532     36534
     36532     36535     36530     36536     36530     36537     36530     36538
     36532     36539     36532     36540     36541     36542     36543     36544
     36541     36543     36543     36545     36543     36546     36541     36547
     36541     36548     36541     36549     36543     36550     36543     36551
     36552     36553     36554     36555     36552     36554     36554     36556
     36554     36557     36552     36558     36552     36559     36552     36560
     36554     36561     36554     36562     36563     36564     36565     36566
     36563     36565     36565     36567     36565     36568     36563     36569
     36563     36570     36563     36571     36565     36572     36565     36573
     36574     36575     36576     36577     36574     36576     36576     36578
     36576     36579     36574     36580     36574     36581     36574     36582
     36576     36583     36576     36584     36585     36586     36587     36588
     36585     36587     36587     36589     36587     36590     36585     36591
     36585     36592     36585     36593     36587     36594     36587     36595
     36596     36597     36598     36599     36596     36598     36598     36600
     36598     36601     36596     36602     36596     36603     36596     36604
     36598     36605     36598     36606     36607     36608     36609     36610
     36607     36609     36609     36611     36609     36612     36607     36613
     36607     36614     36607     36615     36609     36616     36609     36617
     36618     36619     36620     36621     36618     36620     36620     36622
     36620     36623     36618     36624     36618     36625     36618     36626
     36620     36627     36620     36628     36629     36630     36631     36632
     36629     36631     36631     36633     36631     36634     36629     36635
     36629     36636     36629     36637     36631     36638     36631     36639
     36640     36641     36642     36643     36640     36642     36642     36644
     36642     36645     36640     36646     36640     36647     36640     36648
     36642     36649     36642     36650     36651     36652     36653     36654
     36651     36653     36653     36655     36653     36656     36651     36657
     36651     36658     36651     36659     36653     36660     36653     36661
     36662     36663     36664     36665     36662     36664     36664     36666
     36664     36667     36662     36668     36662     36669     36662     36670
     36664     36671     36664     36672     36673     36674     36675     36676
     36673     36675     36675     36677     36675     36678     36673     36679
     36673     36680     36673     36681     36675     36682     36675     36683
     36684     36685     36686     36687     36684     36686     36686     36688
     36686     36689     36684     36690     36684     36691     36684     36692
     36686     36693     36686     36694     36695     36696     36697     36698
     36695     36697     36697     36699     36697     36700     36695     36701
     36695     36702     36695     36703     36697     36704     36697     36705
     36706     36707     36708     36709     36706     36708     36708     36710
     36708     36711     36706     36712     36706     36713     36706     36714
     36708     36715     36708     36716     36717     36718     36719     36720
     36717     36719     36719     36721     36719     36722     36717     36723
     36717     36724     36717     36725     36719     36726     36719     36727
     36728     36729     36730     36731     36728     36730     36730     36732
     36730     36733     36728     36734     36728     36735     36728     36736
     36730     36737     36730     36738     36739     36740     36741     36742
     36739     36741     36741     36743     36741     36744     36739     36745
     36739     36746     36739     36747     36741     36748     36741     36749
     36750     36751     36752     36753     36750     36752     36752     36754
     36752     36755     36750     36756     36750     36757     36750     36758
     36752     36759     36752     36760     36761     36762     36763     36764
     36761     36763     36763     36765     36763     36766     36761     36767
     36761     36768     36761     36769     36763     36770     36763     36771
     36772     36773     36774     36775     36772     36774     36774     36776
     36774     36777     36772     36778     36772     36779     36772     36780
     36774     36781     36774     36782     36783     36784     36785     36786
     36783     36785     36785     36787     36785     36788     36783     36789
     36783     36790     36783     36791     36785     36792     36785     36793
     36794     36795     36796     36797     36794     36796     36796     36798
     36796     36799     36794     36800     36794     36801     36794     36802
     36796     36803     36796     36804     36805     36806     36807     36808
     36805     36807     36807     36809     36807     36810     36805     36811
     36805     36812     36805     36813     36807     36814     36807     36815
     36816     36817     36818     36819     36816     36818     36818     36820
     36818     36821     36816     36822     36816     36823     36816     36824
     36818     36825     36818     36826     36827     36828     36829     36830
     36827     36829     36829     36831     36829     36832     36827     36833
     36827     36834     36827     36835     36829     36836     36829     36837
     36838     36839     36840     36841     36838     36840     36840     36842
     36840     36843     36838     36844     36838     36845     36838     36846
     36840     36847     36840     36848     36849     36850     36851     36852
     36849     36851     36851     36853     36851     36854     36849     36855
     36849     36856     36849     36857     36851     36858     36851     36859
     36860     36861     36862     36863     36860     36862     36862     36864
     36862     36865     36860     36866     36860     36867     36860     36868
     36862     36869     36862     36870     36871     36872     36873     36874
     36871     36873     36873     36875     36873     36876     36871     36877
     36871     36878     36871     36879     36873     36880     36873     36881
     36882     36883     36884     36885     36882     36884     36884     36886
     36884     36887     36882     36888     36882     36889     36882     36890
     36884     36891     36884     36892     36893     36894     36895     36896
     36893     36895     36895     36897     36895     36898     36893     36899
     36893     36900     36893     36901     36895     36902     36895     36903
     36904     36905     36906     36907     36904     36906     36906     36908
     36906     36909     36904     36910     36904     36911     36904     36912
     36906     36913     36906     36914     36915     36916     36917     36918
     36915     36917     36917     36919     36917     36920     36915     36921
     36915     36922     36915     36923     36917     36924     36917     36925
     36926     36927     36928     36929     36926     36928     36928     36930
     36928     36931     36926     36932     36926     36933     36926     36934
     36928     36935     36928     36936     36937     36938     36939     36940
     36937     36939     36939     36941     36939     36942     36937     36943
     36937     36944     36937     36945     36939     36946     36939     36947
     36948     36949     36950     36951     36948     36950     36950     36952
     36950     36953     36948     36954     36948     36955     36948     36956
     36950     36957     36950     36958     36959     36960     36961     36962
     36959     36961     36961     36963     36961     36964     36959     36965
     36959     36966     36959     36967     36961     36968     36961     36969
     36970     36971     36972     36973     36970     36972     36972     36974
     36972     36975     36970     36976     36970     36977     36970     36978
     36972     36979     36972     36980     36981     36982     36983     36984
     36981     36983     36983     36985     36983     36986     36981     36987
     36981     36988     36981     36989     36983     36990     36983     36991
     36992     36993     36994     36995     36992     36994     36994     36996
     36994     36997     36992     36998     36992     36999     36992     37000
     36994     37001     36994     37002     37003     37004     37005     37006
     37003     37005     37005     37007     37005     37008     37003     37009
     37003     37010     37003     37011     37005     37012     37005     37013
     37014     37015     37016     37017     37014     37016     37016     37018
     37016     37019     37014     37020     37014     37021     37014     37022
     37016     37023     37016     37024     37025     37026     37027     37028
     37025     37027     37027     37029     37027     37030     37025     37031
     37025     37032     37025     37033     37027     37034     37027     37035
     37036     37037     37038     37039     37036     37038     37038     37040
     37038     37041     37036     37042     37036     37043     37036     37044
     37038     37045     37038     37046     37047     37048     37049     37050
     37047     37049     37049     37051     37049     37052     37047     37053
     37047     37054     37047     37055     37049     37056     37049     37057
     37058     37059     37060     37061     37058     37060     37060     37062
     37060     37063     37058     37064     37058     37065     37058     37066
     37060     37067     37060     37068     37069     37070     37071     37072
     37069     37071     37071     37073     37071     37074     37069     37075
     37069     37076     37069     37077     37071     37078     37071     37079
     37080     37081     37082     37083     37080     37082     37082     37084
     37082     37085     37080     37086     37080     37087     37080     37088
     37082     37089     37082     37090     37091     37092     37093     37094
     37091     37093     37093     37095     37093     37096     37091     37097
     37091     37098     37091     37099     37093     37100     37093     37101
     37102     37103     37104     37105     37102     37104     37104     37106
     37104     37107     37102     37108     37102     37109     37102     37110
     37104     37111     37104     37112     37113     37114     37115     37116
     37113     37115     37115     37117     37115     37118     37113     37119
     37113     37120     37113     37121     37115     37122     37115     37123
     37124     37125     37126     37127     37124     37126     37126     37128
     37126     37129     37124     37130     37124     37131     37124     37132
     37126     37133     37126     37134     37135     37136     37137     37138
     37135     37137     37137     37139     37137     37140     37135     37141
     37135     37142     37135     37143     37137     37144     37137     37145
     37146     37147     37148     37149     37146     37148     37148     37150
     37148     37151     37146     37152     37146     37153     37146     37154
     37148     37155     37148     37156     37157     37158     37159     37160
     37157     37159     37159     37161     37159     37162     37157     37163
     37157     37164     37157     37165     37159     37166     37159     37167
     37168     37169     37170     37171     37168     37170     37170     37172
     37170     37173     37168     37174     37168     37175     37168     37176
     37170     37177     37170     37178     37179     37180     37181     37182
     37179     37181     37181     37183     37181     37184     37179     37185
     37179     37186     37179     37187     37181     37188     37181     37189
     37190     37191     37192     37193     37190     37192     37192     37194
     37192     37195     37190     37196     37190     37197     37190     37198
     37192     37199     37192     37200     37201     37202     37203     37204
     37201     37203     37203     37205     37203     37206     37201     37207
     37201     37208     37201     37209     37203     37210     37203     37211
     37212     37213     37214     37215     37212     37214     37214     37216
     37214     37217     37212     37218     37212     37219     37212     37220
     37214     37221     37214     37222     37223     37224     37225     37226
     37223     37225     37225     37227     37225     37228     37223     37229
     37223     37230     37223     37231     37225     37232     37225     37233
     37234     37235     37236     37237     37234     37236     37236     37238
     37236     37239     37234     37240     37234     37241     37234     37242
     37236     37243     37236     37244     37245     37246     37247     37248
     37245     37247     37247     37249     37247     37250     37245     37251
     37245     37252     37245     37253     37247     37254     37247     37255
     37256     37257     37258     37259     37256     37258     37258     37260
     37258     37261     37256     37262     37256     37263     37256     37264
     37258     37265     37258     37266     37267     37268     37269     37270
     37267     37269     37269     37271     37269     37272     37267     37273
     37267     37274     37267     37275     37269     37276     37269     37277
     37278     37279     37280     37281     37278     37280     37280     37282
     37280     37283     37278     37284     37278     37285     37278     37286
     37280     37287     37280     37288     37289     37290     37291     37292
     37289     37291     37291     37293     37291     37294     37289     37295
     37289     37296     37289     37297     37291     37298     37291     37299
     37300     37301     37302     37303     37300     37302     37302     37304
     37302     37305     37300     37306     37300     37307     37300     37308
     37302     37309     37302     37310     37311     37312     37313     37314
     37311     37313     37313     37315     37313     37316     37311     37317
     37311     37318     37311     37319     37313     37320     37313     37321
     37322     37323     37324     37325     37322     37324     37324     37326
     37324     37327     37322     37328     37322     37329     37322     37330
     37324     37331     37324     37332     37333     37334     37335     37336
     37333     37335     37335     37337     37335     37338     37333     37339
     37333     37340     37333     37341     37335     37342     37335     37343
     37344     37345     37346     37347     37344     37346     37346     37348
     37346     37349     37344     37350     37344     37351     37344     37352
     37346     37353     37346     37354     37355     37356     37357     37358
     37355     37357     37357     37359     37357     37360     37355     37361
     37355     37362     37355     37363     37357     37364     37357     37365
     37366     37367     37368     37369     37366     37368     37368     37370
     37368     37371     37366     37372     37366     37373     37366     37374
     37368     37375     37368     37376     37377     37378     37379     37380
     37377     37379     37379     37381     37379     37382     37377     37383
     37377     37384     37377     37385     37379     37386     37379     37387
     37388     37389     37390     37391     37388     37390     37390     37392
     37390     37393     37388     37394     37388     37395     37388     37396
     37390     37397     37390     37398     37399     37400     37401     37402
     37399     37401     37401     37403     37401     37404     37399     37405
     37399     37406     37399     37407     37401     37408     37401     37409
     37410     37411     37412     37413     37410     37412     37412     37414
     37412     37415     37410     37416     37410     37417     37410     37418
     37412     37419     37412     37420     37421     37422     37423     37424
     37421     37423     37423     37425     37423     37426     37421     37427
     37421     37428     37421     37429     37423     37430     37423     37431
     37432     37433     37434     37435     37432     37434     37434     37436
     37434     37437     37432     37438     37432     37439     37432     37440
     37434     37441     37434     37442     37443     37444     37445     37446
     37443     37445     37445     37447     37445     37448     37443     37449
     37443     37450     37443     37451     37445     37452     37445     37453
     37454     37455     37456     37457     37454     37456     37456     37458
     37456     37459     37454     37460     37454     37461     37454     37462
     37456     37463     37456     37464     37465     37466     37467     37468
     37465     37467     37467     37469     37467     37470     37465     37471
     37465     37472     37465     37473     37467     37474     37467     37475
     37476     37477     37478     37479     37476     37478     37478     37480
     37478     37481     37476     37482     37476     37483     37476     37484
     37478     37485     37478     37486     37487     37488     37489     37490
     37487     37489     37489     37491     37489     37492     37487     37493
     37487     37494     37487     37495     37489     37496     37489     37497
     37498     37499     37500     37501     37498     37500     37500     37502
     37500     37503     37498     37504     37498     37505     37498     37506
     37500     37507     37500     37508     37509     37510     37511     37512
     37509     37511     37511     37513     37511     37514     37509     37515
     37509     37516     37509     37517     37511     37518     37511     37519
     37520     37521     37522     37523     37520     37522     37522     37524
     37522     37525     37520     37526     37520     37527     37520     37528
     37522     37529     37522     37530     37531     37532     37533     37534
     37531     37533     37533     37535     37533     37536     37531     37537
     37531     37538     37531     37539     37533     37540     37533     37541
     37542     37543     37544     37545     37542     37544     37544     37546
     37544     37547     37542     37548     37542     37549     37542     37550
     37544     37551     37544     37552     37553     37554     37555     37556
     37553     37555     37555     37557     37555     37558     37553     37559
     37553     37560     37553     37561     37555     37562     37555     37563
     37564     37565     37566     37567     37564     37566     37566     37568
     37566     37569     37564     37570     37564     37571     37564     37572
     37566     37573     37566     37574     37575     37576     37577     37578
     37575     37577     37577     37579     37577     37580     37575     37581
     37575     37582     37575     37583     37577     37584     37577     37585
     37586     37587     37588     37589     37586     37588     37588     37590
     37588     37591     37586     37592     37586     37593     37586     37594
     37588     37595     37588     37596     37597     37598     37599     37600
     37597     37599     37599     37601     37599     37602     37597     37603
     37597     37604     37597     37605     37599     37606     37599     37607
     37608     37609     37610     37611     37608     37610     37610     37612
     37610     37613     37608     37614     37608     37615     37608     37616
     37610     37617     37610     37618     37619     37620     37621     37622
     37619     37621     37621     37623     37621     37624     37619     37625
     37619     37626     37619     37627     37621     37628     37621     37629
     37630     37631     37632     37633     37630     37632     37632     37634
     37632     37635     37630     37636     37630     37637     37630     37638
     37632     37639     37632     37640     37641     37642     37643     37644
     37641     37643     37643     37645     37643     37646     37641     37647
     37641     37648     37641     37649     37643     37650     37643     37651
     37652     37653     37654     37655     37652     37654     37654     37656
     37654     37657     37652     37658     37652     37659     37652     37660
     37654     37661     37654     37662     37663     37664     37665     37666
     37663     37665     37665     37667     37665     37668     37663     37669
     37663     37670     37663     37671     37665     37672     37665     37673
     37674     37675     37676     37677     37674     37676     37676     37678
     37676     37679     37674     37680     37674     37681     37674     37682
     37676     37683     37676     37684     37685     37686     37687     37688
     37685     37687     37687     37689     37687     37690     37685     37691
     37685     37692     37685     37693     37687     37694     37687     37695
     37696     37697     37698     37699     37696     37698     37698     37700
     37698     37701     37696     37702     37696     37703     37696     37704
     37698     37705     37698     37706     37707     37708     37709     37710
     37707     37709     37709     37711     37709     37712     37707     37713
     37707     37714     37707     37715     37709     37716     37709     37717
     37718     37719     37720     37721     37718     37720     37720     37722
     37720     37723     37718     37724     37718     37725     37718     37726
     37720     37727     37720     37728     37729     37730     37731     37732
     37729     37731     37731     37733     37731     37734     37729     37735
     37729     37736     37729     37737     37731     37738     37731     37739
     37740     37741     37742     37743     37740     37742     37742     37744
     37742     37745     37740     37746     37740     37747     37740     37748
     37742     37749     37742     37750     37751     37752     37753     37754
     37751     37753     37753     37755     37753     37756     37751     37757
     37751     37758     37751     37759     37753     37760     37753     37761
     37762     37763     37764     37765     37762     37764     37764     37766
     37764     37767     37762     37768     37762     37769     37762     37770
     37764     37771     37764     37772     37773     37774     37775     37776
     37773     37775     37775     37777     37775     37778     37773     37779
     37773     37780     37773     37781     37775     37782     37775     37783
     37784     37785     37786     37787     37784     37786     37786     37788
     37786     37789     37784     37790     37784     37791     37784     37792
     37786     37793     37786     37794     37795     37796     37797     37798
     37795     37797     37797     37799     37797     37800     37795     37801
     37795     37802     37795     37803     37797     37804     37797     37805
     37806     37807     37808     37809     37806     37808     37808     37810
     37808     37811     37806     37812     37806     37813     37806     37814
     37808     37815     37808     37816     37817     37818     37819     37820
     37817     37819     37819     37821     37819     37822     37817     37823
     37817     37824     37817     37825     37819     37826     37819     37827
     37828     37829     37830     37831     37828     37830     37830     37832
     37830     37833     37828     37834     37828     37835     37828     37836
     37830     37837     37830     37838     37839     37840     37841     37842
     37839     37841     37841     37843     37841     37844     37839     37845
     37839     37846     37839     37847     37841     37848     37841     37849
     37850     37851     37852     37853     37850     37852     37852     37854
     37852     37855     37850     37856     37850     37857     37850     37858
     37852     37859     37852     37860     37861     37862     37863     37864
     37861     37863     37863     37865     37863     37866     37861     37867
     37861     37868     37861     37869     37863     37870     37863     37871
     37872     37873     37874     37875     37872     37874     37874     37876
     37874     37877     37872     37878     37872     37879     37872     37880
     37874     37881     37874     37882     37883     37884     37885     37886
     37883     37885     37885     37887     37885     37888     37883     37889
     37883     37890     37883     37891     37885     37892     37885     37893
     37894     37895     37896     37897     37894     37896     37896     37898
     37896     37899     37894     37900     37894     37901     37894     37902
     37896     37903     37896     37904     37905     37906     37907     37908
     37905     37907     37907     37909     37907     37910     37905     37911
     37905     37912     37905     37913     37907     37914     37907     37915
     37916     37917     37918     37919     37916     37918     37918     37920
     37918     37921     37916     37922     37916     37923     37916     37924
     37918     37925     37918     37926     37927     37928     37929     37930
     37927     37929     37929     37931     37929     37932     37927     37933
     37927     37934     37927     37935     37929     37936     37929     37937
     37938     37939     37940     37941     37938     37940     37940     37942
     37940     37943     37938     37944     37938     37945     37938     37946
     37940     37947     37940     37948     37949     37950     37951     37952
     37949     37951     37951     37953     37951     37954     37949     37955
     37949     37956     37949     37957     37951     37958     37951     37959
     37960     37961     37962     37963     37960     37962     37962     37964
     37962     37965     37960     37966     37960     37967     37960     37968
     37962     37969     37962     37970     37971     37972     37973     37974
     37971     37973     37973     37975     37973     37976     37971     37977
     37971     37978     37971     37979     37973     37980     37973     37981
     37982     37983     37984     37985     37982     37984     37984     37986
     37984     37987     37982     37988     37982     37989     37982     37990
     37984     37991     37984     37992     37993     37994     37995     37996
     37993     37995     37995     37997     37995     37998     37993     37999
     37993     38000     37993     38001     37995     38002     37995     38003
     38004     38005     38006     38007     38004     38006     38006     38008
     38006     38009     38004     38010     38004     38011     38004     38012
     38006     38013     38006     38014     38015     38016     38017     38018
     38015     38017     38017     38019     38017     38020     38015     38021
     38015     38022     38015     38023     38017     38024     38017     38025
     38026     38027     38028     38029     38026     38028     38028     38030
     38028     38031     38026     38032     38026     38033     38026     38034
     38028     38035     38028     38036     38037     38038     38039     38040
     38037     38039     38039     38041     38039     38042     38037     38043
     38037     38044     38037     38045     38039     38046     38039     38047
     38048     38049     38050     38051     38048     38050     38050     38052
     38050     38053     38048     38054     38048     38055     38048     38056
     38050     38057     38050     38058     38059     38060     38061     38062
     38059     38061     38061     38063     38061     38064     38059     38065
     38059     38066     38059     38067     38061     38068     38061     38069
     38070     38071     38072     38073     38070     38072     38072     38074
     38072     38075     38070     38076     38070     38077     38070     38078
     38072     38079     38072     38080     38081     38082     38083     38084
     38081     38083     38083     38085     38083     38086     38081     38087
     38081     38088     38081     38089     38083     38090     38083     38091
     38092     38093     38094     38095     38092     38094     38094     38096
     38094     38097     38092     38098     38092     38099     38092     38100
     38094     38101     38094     38102     38103     38104     38105     38106
     38103     38105     38105     38107     38105     38108     38103     38109
     38103     38110     38103     38111     38105     38112     38105     38113
     38114     38115     38116     38117     38114     38116     38116     38118
     38116     38119     38114     38120     38114     38121     38114     38122
     38116     38123     38116     38124     38125     38126     38127     38128
     38125     38127     38127     38129     38127     38130     38125     38131
     38125     38132     38125     38133     38127     38134     38127     38135
     38136     38137     38138     38139     38136     38138     38138     38140
     38138     38141     38136     38142     38136     38143     38136     38144
     38138     38145     38138     38146     38147     38148     38149     38150
     38147     38149     38149     38151     38149     38152     38147     38153
     38147     38154     38147     38155     38149     38156     38149     38157
     38158     38159     38160     38161     38158     38160     38160     38162
     38160     38163     38158     38164     38158     38165     38158     38166
     38160     38167     38160     38168     38169     38170     38171     38172
     38169     38171     38171     38173     38171     38174     38169     38175
     38169     38176     38169     38177     38171     38178     38171     38179
     38180     38181     38182     38183     38180     38182     38182     38184
     38182     38185     38180     38186     38180     38187     38180     38188
     38182     38189     38182     38190     38191     38192     38193     38194
     38191     38193     38193     38195     38193     38196     38191     38197
     38191     38198     38191     38199     38193     38200     38193     38201
     38202     38203     38204     38205     38202     38204     38204     38206
     38204     38207     38202     38208     38202     38209     38202     38210
     38204     38211     38204     38212     38213     38214     38215     38216
     38213     38215     38215     38217     38215     38218     38213     38219
     38213     38220     38213     38221     38215     38222     38215     38223
     38224     38225     38226     38227     38224     38226     38226     38228
     38226     38229     38224     38230     38224     38231     38224     38232
     38226     38233     38226     38234     38235     38236     38237     38238
     38235     38237     38237     38239     38237     38240     38235     38241
     38235     38242     38235     38243     38237     38244     38237     38245
     38246     38247     38248     38249     38246     38248     38248     38250
     38248     38251     38246     38252     38246     38253     38246     38254
     38248     38255     38248     38256     38257     38258     38259     38260
     38257     38259     38259     38261     38259     38262     38257     38263
     38257     38264     38257     38265     38259     38266     38259     38267
     38268     38269     38270     38271     38268     38270     38270     38272
     38270     38273     38268     38274     38268     38275     38268     38276
     38270     38277     38270     38278     38279     38280     38281     38282
     38279     38281     38281     38283     38281     38284     38279     38285
     38279     38286     38279     38287     38281     38288     38281     38289
     38290     38291     38292     38293     38290     38292     38292     38294
     38292     38295     38290     38296     38290     38297     38290     38298
     38292     38299     38292     38300     38301     38302     38303     38304
     38301     38303     38303     38305     38303     38306     38301     38307
     38301     38308     38301     38309     38303     38310     38303     38311
     38312     38313     38314     38315     38312     38314     38314     38316
     38314     38317     38312     38318     38312     38319     38312     38320
     38314     38321     38314     38322     38323     38324     38325     38326
     38323     38325     38325     38327     38325     38328     38323     38329
     38323     38330     38323     38331     38325     38332     38325     38333
     38334     38335     38336     38337     38334     38336     38336     38338
     38336     38339     38334     38340     38334     38341     38334     38342
     38336     38343     38336     38344     38345     38346     38347     38348
     38345     38347     38347     38349     38347     38350     38345     38351
     38345     38352     38345     38353     38347     38354     38347     38355
     38356     38357     38358     38359     38356     38358     38358     38360
     38358     38361     38356     38362     38356     38363     38356     38364
     38358     38365     38358     38366     38367     38368     38369     38370
     38367     38369     38369     38371     38369     38372     38367     38373
     38367     38374     38367     38375     38369     38376     38369     38377
     38378     38379     38380     38381     38378     38380     38380     38382
     38380     38383     38378     38384     38378     38385     38378     38386
     38380     38387     38380     38388     38389     38390     38391     38392
     38389     38391     38391     38393     38391     38394     38389     38395
     38389     38396     38389     38397     38391     38398     38391     38399
     38400     38401     38402     38403     38400     38402     38402     38404
     38402     38405     38400     38406     38400     38407     38400     38408
     38402     38409     38402     38410     38411     38412     38413     38414
     38411     38413     38413     38415     38413     38416     38411     38417
     38411     38418     38411     38419     38413     38420     38413     38421
     38422     38423     38424     38425     38422     38424     38424     38426
     38424     38427     38422     38428     38422     38429     38422     38430
     38424     38431     38424     38432     38433     38434     38435     38436
     38433     38435     38435     38437     38435     38438     38433     38439
     38433     38440     38433     38441     38435     38442     38435     38443
     38444     38445     38446     38447     38444     38446     38446     38448
     38446     38449     38444     38450     38444     38451     38444     38452
     38446     38453     38446     38454     38455     38456     38457     38458
     38455     38457     38457     38459     38457     38460     38455     38461
     38455     38462     38455     38463     38457     38464     38457     38465
     38466     38467     38468     38469     38466     38468     38468     38470
     38468     38471     38466     38472     38466     38473     38466     38474
     38468     38475     38468     38476     38477     38478     38479     38480
     38477     38479     38479     38481     38479     38482     38477     38483
     38477     38484     38477     38485     38479     38486     38479     38487
     38488     38489     38490     38491     38488     38490     38490     38492
     38490     38493     38488     38494     38488     38495     38488     38496
     38490     38497     38490     38498     38499     38500     38501     38502
     38499     38501     38501     38503     38501     38504     38499     38505
     38499     38506     38499     38507     38501     38508     38501     38509
     38510     38511     38512     38513     38510     38512     38512     38514
     38512     38515     38510     38516     38510     38517     38510     38518
     38512     38519     38512     38520     38521     38522     38523     38524
     38521     38523     38523     38525     38523     38526     38521     38527
     38521     38528     38521     38529     38523     38530     38523     38531
     38532     38533     38534     38535     38532     38534     38534     38536
     38534     38537     38532     38538     38532     38539     38532     38540
     38534     38541     38534     38542     38543     38544     38545     38546
     38543     38545     38545     38547     38545     38548     38543     38549
     38543     38550     38543     38551     38545     38552     38545     38553
     38554     38555     38556     38557     38554     38556     38556     38558
     38556     38559     38554     38560     38554     38561     38554     38562
     38556     38563     38556     38564     38565     38566     38567     38568
     38565     38567     38567     38569     38567     38570     38565     38571
     38565     38572     38565     38573     38567     38574     38567     38575
     38576     38577     38578     38579     38576     38578     38578     38580
     38578     38581     38576     38582     38576     38583     38576     38584
     38578     38585     38578     38586     38587     38588     38589     38590
     38587     38589     38589     38591     38589     38592     38587     38593
     38587     38594     38587     38595     38589     38596     38589     38597
     38598     38599     38600     38601     38598     38600     38600     38602
     38600     38603     38598     38604     38598     38605     38598     38606
     38600     38607     38600     38608     38609     38610     38611     38612
     38609     38611     38611     38613     38611     38614     38609     38615
     38609     38616     38609     38617     38611     38618     38611     38619
     38620     38621     38622     38623     38620     38622     38622     38624
     38622     38625     38620     38626     38620     38627     38620     38628
     38622     38629     38622     38630     38631     38632     38633     38634
     38631     38633     38633     38635     38633     38636     38631     38637
     38631     38638     38631     38639     38633     38640     38633     38641
     38642     38643     38644     38645     38642     38644     38644     38646
     38644     38647     38642     38648     38642     38649     38642     38650
     38644     38651     38644     38652     38653     38654     38655     38656
     38653     38655     38655     38657     38655     38658     38653     38659
     38653     38660     38653     38661     38655     38662     38655     38663
     38664     38665     38666     38667     38664     38666     38666     38668
     38666     38669     38664     38670     38664     38671     38664     38672
     38666     38673     38666     38674     38675     38676     38677     38678
     38675     38677     38677     38679     38677     38680     38675     38681
     38675     38682     38675     38683     38677     38684     38677     38685
     38686     38687     38688     38689     38686     38688     38688     38690
     38688     38691     38686     38692     38686     38693     38686     38694
     38688     38695     38688     38696     38697     38698     38699     38700
     38697     38699     38699     38701     38699     38702     38697     38703
     38697     38704     38697     38705     38699     38706     38699     38707
     38708     38709     38710     38711     38708     38710     38710     38712
     38710     38713     38708     38714     38708     38715     38708     38716
     38710     38717     38710     38718     38719     38720     38721     38722
     38719     38721     38721     38723     38721     38724     38719     38725
     38719     38726     38719     38727     38721     38728     38721     38729
     38730     38731     38732     38733     38730     38732     38732     38734
     38732     38735     38730     38736     38730     38737     38730     38738
     38732     38739     38732     38740     38741     38742     38743     38744
     38741     38743     38743     38745     38743     38746     38741     38747
     38741     38748     38741     38749     38743     38750     38743     38751
     38752     38753     38754     38755     38752     38754     38754     38756
     38754     38757     38752     38758     38752     38759     38752     38760
     38754     38761     38754     38762     38763     38764     38765     38766
     38763     38765     38765     38767     38765     38768     38763     38769
     38763     38770     38763     38771     38765     38772     38765     38773
     38774     38775     38776     38777     38774     38776     38776     38778
     38776     38779     38774     38780     38774     38781     38774     38782
     38776     38783     38776     38784     38785     38786     38787     38788
     38785     38787     38787     38789     38787     38790     38785     38791
     38785     38792     38785     38793     38787     38794     38787     38795
     38796     38797     38798     38799     38796     38798     38798     38800
     38798     38801     38796     38802     38796     38803     38796     38804
     38798     38805     38798     38806     38807     38808     38809     38810
     38807     38809     38809     38811     38809     38812     38807     38813
     38807     38814     38807     38815     38809     38816     38809     38817
     38818     38819     38820     38821     38818     38820     38820     38822
     38820     38823     38818     38824     38818     38825     38818     38826
     38820     38827     38820     38828     38829     38830     38831     38832
     38829     38831     38831     38833     38831     38834     38829     38835
     38829     38836     38829     38837     38831     38838     38831     38839
     38840     38841     38842     38843     38840     38842     38842     38844
     38842     38845     38840     38846     38840     38847     38840     38848
     38842     38849     38842     38850     38851     38852     38853     38854
     38851     38853     38853     38855     38853     38856     38851     38857
     38851     38858     38851     38859     38853     38860     38853     38861
     38862     38863     38864     38865     38862     38864     38864     38866
     38864     38867     38862     38868     38862     38869     38862     38870
     38864     38871     38864     38872     38873     38874     38875     38876
     38873     38875     38875     38877     38875     38878     38873     38879
     38873     38880     38873     38881     38875     38882     38875     38883
     38884     38885     38886     38887     38884     38886     38886     38888
     38886     38889     38884     38890     38884     38891     38884     38892
     38886     38893     38886     38894     38895     38896     38897     38898
     38895     38897     38897     38899     38897     38900     38895     38901
     38895     38902     38895     38903     38897     38904     38897     38905
     38906     38907     38908     38909     38906     38908     38908     38910
     38908     38911     38906     38912     38906     38913     38906     38914
     38908     38915     38908     38916     38917     38918     38919     38920
     38917     38919     38919     38921     38919     38922     38917     38923
     38917     38924     38917     38925     38919     38926     38919     38927
     38928     38929     38930     38931     38928     38930     38930     38932
     38930     38933     38928     38934     38928     38935     38928     38936
     38930     38937     38930     38938     38939     38940     38941     38942
     38939     38941     38941     38943     38941     38944     38939     38945
     38939     38946     38939     38947     38941     38948     38941     38949
     38950     38951     38952     38953     38950     38952     38952     38954
     38952     38955     38950     38956     38950     38957     38950     38958
     38952     38959     38952     38960     38961     38962     38963     38964
     38961     38963     38963     38965     38963     38966     38961     38967
     38961     38968     38961     38969     38963     38970     38963     38971
     38972     38973     38974     38975     38972     38974     38974     38976
     38974     38977     38972     38978     38972     38979     38972     38980
     38974     38981     38974     38982     38983     38984     38985     38986
     38983     38985     38985     38987     38985     38988     38983     38989
     38983     38990     38983     38991     38985     38992     38985     38993
     38994     38995     38996     38997     38994     38996     38996     38998
     38996     38999     38994     39000     38994     39001     38994     39002
     38996     39003     38996     39004     39005     39006     39007     39008
     39005     39007     39007     39009     39007     39010     39005     39011
     39005     39012     39005     39013     39007     39014     39007     39015
     39016     39017     39018     39019     39016     39018     39018     39020
     39018     39021     39016     39022     39016     39023     39016     39024
     39018     39025     39018     39026     39027     39028     39029     39030
     39027     39029     39029     39031     39029     39032     39027     39033
     39027     39034     39027     39035     39029     39036     39029     39037
     39038     39039     39040     39041     39038     39040     39040     39042
     39040     39043     39038     39044     39038     39045     39038     39046
     39040     39047     39040     39048     39049     39050     39051     39052
     39049     39051     39051     39053     39051     39054     39049     39055
     39049     39056     39049     39057     39051     39058     39051     39059
     39060     39061     39062     39063     39060     39062     39062     39064
     39062     39065     39060     39066     39060     39067     39060     39068
     39062     39069     39062     39070     39071     39072     39073     39074
     39071     39073     39073     39075     39073     39076     39071     39077
     39071     39078     39071     39079     39073     39080     39073     39081
     39082     39083     39084     39085     39082     39084     39084     39086
     39084     39087     39082     39088     39082     39089     39082     39090
     39084     39091     39084     39092     39093     39094     39095     39096
     39093     39095     39095     39097     39095     39098     39093     39099
     39093     39100     39093     39101     39095     39102     39095     39103
     39104     39105     39106     39107     39104     39106     39106     39108
     39106     39109     39104     39110     39104     39111     39104     39112
     39106     39113     39106     39114     39115     39116     39117     39118
     39115     39117     39117     39119     39117     39120     39115     39121
     39115     39122     39115     39123     39117     39124     39117     39125
     39126     39127     39128     39129     39126     39128     39128     39130
     39128     39131     39126     39132     39126     39133     39126     39134
     39128     39135     39128     39136     39137     39138     39139     39140
     39137     39139     39139     39141     39139     39142     39137     39143
     39137     39144     39137     39145     39139     39146     39139     39147
     39148     39149     39150     39151     39148     39150     39150     39152
     39150     39153     39148     39154     39148     39155     39148     39156
     39150     39157     39150     39158     39159     39160     39161     39162
     39159     39161     39161     39163     39161     39164     39159     39165
     39159     39166     39159     39167     39161     39168     39161     39169
     39170     39171     39172     39173     39170     39172     39172     39174
     39172     39175     39170     39176     39170     39177     39170     39178
     39172     39179     39172     39180     39181     39182     39183     39184
     39181     39183     39183     39185     39183     39186     39181     39187
     39181     39188     39181     39189     39183     39190     39183     39191
     39192     39193     39194     39195     39192     39194     39194     39196
     39194     39197     39192     39198     39192     39199     39192     39200
     39194     39201     39194     39202     39203     39204     39205     39206
     39203     39205     39205     39207     39205     39208     39203     39209
     39203     39210     39203     39211     39205     39212     39205     39213
     39214     39215     39216     39217     39214     39216     39216     39218
     39216     39219     39214     39220     39214     39221     39214     39222
     39216     39223     39216     39224     39225     39226     39227     39228
     39225     39227     39227     39229     39227     39230     39225     39231
     39225     39232     39225     39233     39227     39234     39227     39235
     39236     39237     39238     39239     39236     39238     39238     39240
     39238     39241     39236     39242     39236     39243     39236     39244
     39238     39245     39238     39246     39247     39248     39249     39250
     39247     39249     39249     39251     39249     39252     39247     39253
     39247     39254     39247     39255     39249     39256     39249     39257
     39258     39259     39260     39261     39258     39260     39260     39262
     39260     39263     39258     39264     39258     39265     39258     39266
     39260     39267     39260     39268     39269     39270     39271     39272
     39269     39271     39271     39273     39271     39274     39269     39275
     39269     39276     39269     39277     39271     39278     39271     39279
     39280     39281     39282     39283     39280     39282     39282     39284
     39282     39285     39280     39286     39280     39287     39280     39288
     39282     39289     39282     39290     39291     39292     39293     39294
     39291     39293     39293     39295     39293     39296     39291     39297
     39291     39298     39291     39299     39293     39300     39293     39301
     39302     39303     39304     39305     39302     39304     39304     39306
     39304     39307     39302     39308     39302     39309     39302     39310
     39304     39311     39304     39312     39313     39314     39315     39316
     39313     39315     39315     39317     39315     39318     39313     39319
     39313     39320     39313     39321     39315     39322     39315     39323
     39324     39325     39326     39327     39324     39326     39326     39328
     39326     39329     39324     39330     39324     39331     39324     39332
     39326     39333     39326     39334     39335     39336     39337     39338
     39335     39337     39337     39339     39337     39340     39335     39341
     39335     39342     39335     39343     39337     39344     39337     39345
     39346     39347     39348     39349     39346     39348     39348     39350
     39348     39351     39346     39352     39346     39353     39346     39354
     39348     39355     39348     39356     39357     39358     39359     39360
     39357     39359     39359     39361     39359     39362     39357     39363
     39357     39364     39357     39365     39359     39366     39359     39367
     39368     39369     39370     39371     39368     39370     39370     39372
     39370     39373     39368     39374     39368     39375     39368     39376
     39370     39377     39370     39378     39379     39380     39381     39382
     39379     39381     39381     39383     39381     39384     39379     39385
     39379     39386     39379     39387     39381     39388     39381     39389
     39390     39391     39392     39393     39390     39392     39392     39394
     39392     39395     39390     39396     39390     39397     39390     39398
     39392     39399     39392     39400     39401     39402     39403     39404
     39401     39403     39403     39405     39403     39406     39401     39407
     39401     39408     39401     39409     39403     39410     39403     39411
     39412     39413     39414     39415     39412     39414     39414     39416
     39414     39417     39412     39418     39412     39419     39412     39420
     39414     39421     39414     39422     39423     39424     39425     39426
     39423     39425     39425     39427     39425     39428     39423     39429
     39423     39430     39423     39431     39425     39432     39425     39433
     39434     39435     39436     39437     39434     39436     39436     39438
     39436     39439     39434     39440     39434     39441     39434     39442
     39436     39443     39436     39444     39445     39446     39447     39448
     39445     39447     39447     39449     39447     39450     39445     39451
     39445     39452     39445     39453     39447     39454     39447     39455
     39456     39457     39458     39459     39456     39458     39458     39460
     39458     39461     39456     39462     39456     39463     39456     39464
     39458     39465     39458     39466     39467     39468     39469     39470
     39467     39469     39469     39471     39469     39472     39467     39473
     39467     39474     39467     39475     39469     39476     39469     39477
     39478     39479     39480     39481     39478     39480     39480     39482
     39480     39483     39478     39484     39478     39485     39478     39486
     39480     39487     39480     39488     39489     39490     39491     39492
     39489     39491     39491     39493     39491     39494     39489     39495
     39489     39496     39489     39497     39491     39498     39491     39499
     39500     39501     39502     39503     39500     39502     39502     39504
     39502     39505     39500     39506     39500     39507     39500     39508
     39502     39509     39502     39510     39511     39512     39513     39514
     39511     39513     39513     39515     39513     39516     39511     39517
     39511     39518     39511     39519     39513     39520     39513     39521
     39522     39523     39524     39525     39522     39524     39524     39526
     39524     39527     39522     39528     39522     39529     39522     39530
     39524     39531     39524     39532     39533     39534     39535     39536
     39533     39535     39535     39537     39535     39538     39533     39539
     39533     39540     39533     39541     39535     39542     39535     39543
     39544     39545     39546     39547     39544     39546     39546     39548
     39546     39549     39544     39550     39544     39551     39544     39552
     39546     39553     39546     39554     39555     39556     39557     39558
     39555     39557     39557     39559     39557     39560     39555     39561
     39555     39562     39555     39563     39557     39564     39557     39565
     39566     39567     39568     39569     39566     39568     39568     39570
     39568     39571     39566     39572     39566     39573     39566     39574
     39568     39575     39568     39576     39577     39578     39579     39580
     39577     39579     39579     39581     39579     39582     39577     39583
     39577     39584     39577     39585     39579     39586     39579     39587
     39588     39589     39590     39591     39588     39590     39590     39592
     39590     39593     39588     39594     39588     39595     39588     39596
     39590     39597     39590     39598     39599     39600     39601     39602
     39599     39601     39601     39603     39601     39604     39599     39605
     39599     39606     39599     39607     39601     39608     39601     39609
     39610     39611     39612     39613     39610     39612     39612     39614
     39612     39615     39610     39616     39610     39617     39610     39618
     39612     39619     39612     39620     39621     39622     39623     39624
     39621     39623     39623     39625     39623     39626     39621     39627
     39621     39628     39621     39629     39623     39630     39623     39631
     39632     39633     39634     39635     39632     39634     39634     39636
     39634     39637     39632     39638     39632     39639     39632     39640
     39634     39641     39634     39642     39643     39644     39645     39646
     39643     39645     39645     39647     39645     39648     39643     39649
     39643     39650     39643     39651     39645     39652     39645     39653
     39654     39655     39656     39657     39654     39656     39656     39658
     39656     39659     39654     39660     39654     39661     39654     39662
     39656     39663     39656     39664     39665     39666     39667     39668
     39665     39667     39667     39669     39667     39670     39665     39671
     39665     39672     39665     39673     39667     39674     39667     39675
     39676     39677     39678     39679     39676     39678     39678     39680
     39678     39681     39676     39682     39676     39683     39676     39684
     39678     39685     39678     39686     39687     39688     39689     39690
     39687     39689     39689     39691     39689     39692     39687     39693
     39687     39694     39687     39695     39689     39696     39689     39697
     39698     39699     39700     39701     39698     39700     39700     39702
     39700     39703     39698     39704     39698     39705     39698     39706
     39700     39707     39700     39708     39709     39710     39711     39712
     39709     39711     39711     39713     39711     39714     39709     39715
     39709     39716     39709     39717     39711     39718     39711     39719
     39720     39721     39722     39723     39720     39722     39722     39724
     39722     39725     39720     39726     39720     39727     39720     39728
     39722     39729     39722     39730     39731     39732     39733     39734
     39731     39733     39733     39735     39733     39736     39731     39737
     39731     39738     39731     39739     39733     39740     39733     39741
     39742     39743     39744     39745     39742     39744     39744     39746
     39744     39747     39742     39748     39742     39749     39742     39750
     39744     39751     39744     39752     39753     39754     39755     39756
     39753     39755     39755     39757     39755     39758     39753     39759
     39753     39760     39753     39761     39755     39762     39755     39763
     39764     39765     39766     39767     39764     39766     39766     39768
     39766     39769     39764     39770     39764     39771     39764     39772
     39766     39773     39766     39774     39775     39776     39777     39778
     39775     39777     39777     39779     39777     39780     39775     39781
     39775     39782     39775     39783     39777     39784     39777     39785
     39786     39787     39788     39789     39786     39788     39788     39790
     39788     39791     39786     39792     39786     39793     39786     39794
     39788     39795     39788     39796     39797     39798     39799     39800
     39797     39799     39799     39801     39799     39802     39797     39803
     39797     39804     39797     39805     39799     39806     39799     39807
     39808     39809     39810     39811     39808     39810     39810     39812
     39810     39813     39808     39814     39808     39815     39808     39816
     39810     39817     39810     39818     39819     39820     39821     39822
     39819     39821     39821     39823     39821     39824     39819     39825
     39819     39826     39819     39827     39821     39828     39821     39829
     39830     39831     39832     39833     39830     39832     39832     39834
     39832     39835     39830     39836     39830     39837     39830     39838
     39832     39839     39832     39840     39841     39842     39843     39844
     39841     39843     39843     39845     39843     39846     39841     39847
     39841     39848     39841     39849     39843     39850     39843     39851
     39852     39853     39854     39855     39852     39854     39854     39856
     39854     39857     39852     39858     39852     39859     39852     39860
     39854     39861     39854     39862     39863     39864     39865     39866
     39863     39865     39865     39867     39865     39868     39863     39869
     39863     39870     39863     39871     39865     39872     39865     39873
     39874     39875     39876     39877     39874     39876     39876     39878
     39876     39879     39874     39880     39874     39881     39874     39882
     39876     39883     39876     39884     39885     39886     39887     39888
     39885     39887     39887     39889     39887     39890     39885     39891
     39885     39892     39885     39893     39887     39894     39887     39895
     39896     39897     39898     39899     39896     39898     39898     39900
     39898     39901     39896     39902     39896     39903     39896     39904
     39898     39905     39898     39906     39907     39908     39909     39910
     39907     39909     39909     39911     39909     39912     39907     39913
     39907     39914     39907     39915     39909     39916     39909     39917
     39918     39919     39920     39921     39918     39920     39920     39922
     39920     39923     39918     39924     39918     39925     39918     39926
     39920     39927     39920     39928     39929     39930     39931     39932
     39929     39931     39931     39933     39931     39934     39929     39935
     39929     39936     39929     39937     39931     39938     39931     39939
     39940     39941     39942     39943     39940     39942     39942     39944
     39942     39945     39940     39946     39940     39947     39940     39948
     39942     39949     39942     39950     39951     39952     39953     39954
     39951     39953     39953     39955     39953     39956     39951     39957
     39951     39958     39951     39959     39953     39960     39953     39961
     39962     39963     39964     39965     39962     39964     39964     39966
     39964     39967     39962     39968     39962     39969     39962     39970
     39964     39971     39964     39972     39973     39974     39975     39976
     39973     39975     39975     39977     39975     39978     39973     39979
     39973     39980     39973     39981     39975     39982     39975     39983
     39984     39985     39986     39987     39984     39986     39986     39988
     39986     39989     39984     39990     39984     39991     39984     39992
     39986     39993     39986     39994     39995     39996     39997     39998
     39995     39997     39997     39999     39997     40000     39995     40001
     39995     40002     39995     40003     39997     40004     39997     40005
     40006     40007     40008     40009     40006     40008     40008     40010
     40008     40011     40006     40012     40006     40013     40006     40014
     40008     40015     40008     40016     40017     40018     40019     40020
     40017     40019     40019     40021     40019     40022     40017     40023
     40017     40024     40017     40025     40019     40026     40019     40027
     40028     40029     40030     40031     40028     40030     40030     40032
     40030     40033     40028     40034     40028     40035     40028     40036
     40030     40037     40030     40038     40039     40040     40041     40042
     40039     40041     40041     40043     40041     40044     40039     40045
     40039     40046     40039     40047     40041     40048     40041     40049
     40050     40051     40052     40053     40050     40052     40052     40054
     40052     40055     40050     40056     40050     40057     40050     40058
     40052     40059     40052     40060     40061     40062     40063     40064
     40061     40063     40063     40065     40063     40066     40061     40067
     40061     40068     40061     40069     40063     40070     40063     40071
     40072     40073     40074     40075     40072     40074     40074     40076
     40074     40077     40072     40078     40072     40079     40072     40080
     40074     40081     40074     40082     40083     40084     40085     40086
     40083     40085     40085     40087     40085     40088     40083     40089
     40083     40090     40083     40091     40085     40092     40085     40093
     40094     40095     40096     40097     40094     40096     40096     40098
     40096     40099     40094     40100     40094     40101     40094     40102
     40096     40103     40096     40104     40105     40106     40107     40108
     40105     40107     40107     40109     40107     40110     40105     40111
     40105     40112     40105     40113     40107     40114     40107     40115
     40116     40117     40118     40119     40116     40118     40118     40120
     40118     40121     40116     40122     40116     40123     40116     40124
     40118     40125     40118     40126     40127     40128     40129     40130
     40127     40129     40129     40131     40129     40132     40127     40133
     40127     40134     40127     40135     40129     40136     40129     40137
     40138     40139     40140     40141     40138     40140     40140     40142
     40140     40143     40138     40144     40138     40145     40138     40146
     40140     40147     40140     40148     40149     40150     40151     40152
     40149     40151     40151     40153     40151     40154     40149     40155
     40149     40156     40149     40157     40151     40158     40151     40159
     40160     40161     40162     40163     40160     40162     40162     40164
     40162     40165     40160     40166     40160     40167     40160     40168
     40162     40169     40162     40170     40171     40172     40173     40174
     40171     40173     40173     40175     40173     40176     40171     40177
     40171     40178     40171     40179     40173     40180     40173     40181
     40182     40183     40184     40185     40182     40184     40184     40186
     40184     40187     40182     40188     40182     40189     40182     40190
     40184     40191     40184     40192     40193     40194     40195     40196
     40193     40195     40195     40197     40195     40198     40193     40199
     40193     40200     40193     40201     40195     40202     40195     40203
     40204     40205     40206     40207     40204     40206     40206     40208
     40206     40209     40204     40210     40204     40211     40204     40212
     40206     40213     40206     40214     40215     40216     40217     40218
     40215     40217     40217     40219     40217     40220     40215     40221
     40215     40222     40215     40223     40217     40224     40217     40225
     40226     40227     40228     40229     40226     40228     40228     40230
     40228     40231     40226     40232     40226     40233     40226     40234
     40228     40235     40228     40236     40237     40238     40239     40240
     40237     40239     40239     40241     40239     40242     40237     40243
     40237     40244     40237     40245     40239     40246     40239     40247
     40248     40249     40250     40251     40248     40250     40250     40252
     40250     40253     40248     40254     40248     40255     40248     40256
     40250     40257     40250     40258     40259     40260     40261     40262
     40259     40261     40261     40263     40261     40264     40259     40265
     40259     40266     40259     40267     40261     40268     40261     40269
     40270     40271     40272     40273     40270     40272     40272     40274
     40272     40275     40270     40276     40270     40277     40270     40278
     40272     40279     40272     40280     40281     40282     40283     40284
     40281     40283     40283     40285     40283     40286     40281     40287
     40281     40288     40281     40289     40283     40290     40283     40291
     40292     40293     40294     40295     40292     40294     40294     40296
     40294     40297     40292     40298     40292     40299     40292     40300
     40294     40301     40294     40302     40303     40304     40305     40306
     40303     40305     40305     40307     40305     40308     40303     40309
     40303     40310     40303     40311     40305     40312     40305     40313
     40314     40315     40316     40317     40314     40316     40316     40318
     40316     40319     40314     40320     40314     40321     40314     40322
     40316     40323     40316     40324     40325     40326     40327     40328
     40325     40327     40327     40329     40327     40330     40325     40331
     40325     40332     40325     40333     40327     40334     40327     40335
     40336     40337     40338     40339     40336     40338     40338     40340
     40338     40341     40336     40342     40336     40343     40336     40344
     40338     40345     40338     40346     40347     40348     40349     40350
     40347     40349     40349     40351     40349     40352     40347     40353
     40347     40354     40347     40355     40349     40356     40349     40357
     40358     40359     40360     40361     40358     40360     40360     40362
     40360     40363     40358     40364     40358     40365     40358     40366
     40360     40367     40360     40368     40369     40370     40371     40372
     40369     40371     40371     40373     40371     40374     40369     40375
     40369     40376     40369     40377     40371     40378     40371     40379
     40380     40381     40382     40383     40380     40382     40382     40384
     40382     40385     40380     40386     40380     40387     40380     40388
     40382     40389     40382     40390     40391     40392     40393     40394
     40391     40393     40393     40395     40393     40396     40391     40397
     40391     40398     40391     40399     40393     40400     40393     40401
     40402     40403     40404     40405     40402     40404     40404     40406
     40404     40407     40402     40408     40402     40409     40402     40410
     40404     40411     40404     40412     40413     40414     40415     40416
     40413     40415     40415     40417     40415     40418     40413     40419
     40413     40420     40413     40421     40415     40422     40415     40423
     40424     40425     40426     40427     40424     40426     40426     40428
     40426     40429     40424     40430     40424     40431     40424     40432
     40426     40433     40426     40434     40435     40436     40437     40438
     40435     40437     40437     40439     40437     40440     40435     40441
     40435     40442     40435     40443     40437     40444     40437     40445
     40446     40447     40448     40449     40446     40448     40448     40450
     40448     40451     40446     40452     40446     40453     40446     40454
     40448     40455     40448     40456     40457     40458     40459     40460
     40457     40459     40459     40461     40459     40462     40457     40463
     40457     40464     40457     40465     40459     40466     40459     40467
     40468     40469     40470     40471     40468     40470     40470     40472
     40470     40473     40468     40474     40468     40475     40468     40476
     40470     40477     40470     40478     40479     40480     40481     40482
     40479     40481     40481     40483     40481     40484     40479     40485
     40479     40486     40479     40487     40481     40488     40481     40489
     40490     40491     40492     40493     40490     40492     40492     40494
     40492     40495     40490     40496     40490     40497     40490     40498
     40492     40499     40492     40500     40501     40502     40503     40504
     40501     40503     40503     40505     40503     40506     40501     40507
     40501     40508     40501     40509     40503     40510     40503     40511
     40512     40513     40514     40515     40512     40514     40514     40516
     40514     40517     40512     40518     40512     40519     40512     40520
     40514     40521     40514     40522     40523     40524     40525     40526
     40523     40525     40525     40527     40525     40528     40523     40529
     40523     40530     40523     40531     40525     40532     40525     40533
     40534     40535     40536     40537     40534     40536     40536     40538
     40536     40539     40534     40540     40534     40541     40534     40542
     40536     40543     40536     40544     40545     40546     40547     40548
     40545     40547     40547     40549     40547     40550     40545     40551
     40545     40552     40545     40553     40547     40554     40547     40555
     40556     40557     40558     40559     40556     40558     40558     40560
     40558     40561     40556     40562     40556     40563     40556     40564
     40558     40565     40558     40566     40567     40568     40569     40570
     40567     40569     40569     40571     40569     40572     40567     40573
     40567     40574     40567     40575     40569     40576     40569     40577
     40578     40579     40580     40581     40578     40580     40580     40582
     40580     40583     40578     40584     40578     40585     40578     40586
     40580     40587     40580     40588     40589     40590     40591     40592
     40589     40591     40591     40593     40591     40594     40589     40595
     40589     40596     40589     40597     40591     40598     40591     40599
     40600     40601     40602     40603     40600     40602     40602     40604
     40602     40605     40600     40606     40600     40607     40600     40608
     40602     40609     40602     40610     40611     40612     40613     40614
     40611     40613     40613     40615     40613     40616     40611     40617
     40611     40618     40611     40619     40613     40620     40613     40621
     40622     40623     40624     40625     40622     40624     40624     40626
     40624     40627     40622     40628     40622     40629     40622     40630
     40624     40631     40624     40632     40633     40634     40635     40636
     40633     40635     40635     40637     40635     40638     40633     40639
     40633     40640     40633     40641     40635     40642     40635     40643
     40644     40645     40646     40647     40644     40646     40646     40648
     40646     40649     40644     40650     40644     40651     40644     40652
     40646     40653     40646     40654     40655     40656     40657     40658
     40655     40657     40657     40659     40657     40660     40655     40661
     40655     40662     40655     40663     40657     40664     40657     40665
     40666     40667     40668     40669     40666     40668     40668     40670
     40668     40671     40666     40672     40666     40673     40666     40674
     40668     40675     40668     40676     40677     40678     40679     40680
     40677     40679     40679     40681     40679     40682     40677     40683
     40677     40684     40677     40685     40679     40686     40679     40687
     40688     40689     40690     40691     40688     40690     40690     40692
     40690     40693     40688     40694     40688     40695     40688     40696
     40690     40697     40690     40698     40699     40700     40701     40702
     40699     40701     40701     40703     40701     40704     40699     40705
     40699     40706     40699     40707     40701     40708     40701     40709
     40710     40711     40712     40713     40710     40712     40712     40714
     40712     40715     40710     40716     40710     40717     40710     40718
     40712     40719     40712     40720     40721     40722     40723     40724
     40721     40723     40723     40725     40723     40726     40721     40727
     40721     40728     40721     40729     40723     40730     40723     40731
     40732     40733     40734     40735     40732     40734     40734     40736
     40734     40737     40732     40738     40732     40739     40732     40740
     40734     40741     40734     40742     40743     40744     40745     40746
     40743     40745     40745     40747     40745     40748     40743     40749
     40743     40750     40743     40751     40745     40752     40745     40753
     40754     40755     40756     40757     40754     40756     40756     40758
     40756     40759     40754     40760     40754     40761     40754     40762
     40756     40763     40756     40764     40765     40766     40767     40768
     40765     40767     40767     40769     40767     40770     40765     40771
     40765     40772     40765     40773     40767     40774     40767     40775
     40776     40777     40778     40779     40776     40778     40778     40780
     40778     40781     40776     40782     40776     40783     40776     40784
     40778     40785     40778     40786     40787     40788     40789     40790
     40787     40789     40789     40791     40789     40792     40787     40793
     40787     40794     40787     40795     40789     40796     40789     40797
     40798     40799     40800     40801     40798     40800     40800     40802
     40800     40803     40798     40804     40798     40805     40798     40806
     40800     40807     40800     40808     40809     40810     40811     40812
     40809     40811     40811     40813     40811     40814     40809     40815
     40809     40816     40809     40817     40811     40818     40811     40819
     40820     40821     40822     40823     40820     40822     40822     40824
     40822     40825     40820     40826     40820     40827     40820     40828
     40822     40829     40822     40830     40831     40832     40833     40834
     40831     40833     40833     40835     40833     40836     40831     40837
     40831     40838     40831     40839     40833     40840     40833     40841
     40842     40843     40844     40845     40842     40844     40844     40846
     40844     40847     40842     40848     40842     40849     40842     40850
     40844     40851     40844     40852     40853     40854     40855     40856
     40853     40855     40855     40857     40855     40858     40853     40859
     40853     40860     40853     40861     40855     40862     40855     40863
     40864     40865     40866     40867     40864     40866     40866     40868
     40866     40869     40864     40870     40864     40871     40864     40872
     40866     40873     40866     40874     40875     40876     40877     40878
     40875     40877     40877     40879     40877     40880     40875     40881
     40875     40882     40875     40883     40877     40884     40877     40885
     40886     40887     40888     40889     40886     40888     40888     40890
     40888     40891     40886     40892     40886     40893     40886     40894
     40888     40895     40888     40896     40897     40898     40899     40900
     40897     40899     40899     40901     40899     40902     40897     40903
     40897     40904     40897     40905     40899     40906     40899     40907
     40908     40909     40910     40911     40908     40910     40910     40912
     40910     40913     40908     40914     40908     40915     40908     40916
     40910     40917     40910     40918     40919     40920     40921     40922
     40919     40921     40921     40923     40921     40924     40919     40925
     40919     40926     40919     40927     40921     40928     40921     40929
     40930     40931     40932     40933     40930     40932     40932     40934
     40932     40935     40930     40936     40930     40937     40930     40938
     40932     40939     40932     40940     40941     40942     40943     40944
     40941     40943     40943     40945     40943     40946     40941     40947
     40941     40948     40941     40949     40943     40950     40943     40951
     40952     40953     40954     40955     40952     40954     40954     40956
     40954     40957     40952     40958     40952     40959     40952     40960
     40954     40961     40954     40962     40963     40964     40965     40966
     40963     40965     40965     40967     40965     40968     40963     40969
     40963     40970     40963     40971     40965     40972     40965     40973
     40974     40975     40976     40977     40974     40976     40976     40978
     40976     40979     40974     40980     40974     40981     40974     40982
     40976     40983     40976     40984     40985     40986     40987     40988
     40985     40987     40987     40989     40987     40990     40985     40991
     40985     40992     40985     40993     40987     40994     40987     40995
     40996     40997     40998     40999     40996     40998     40998     41000
     40998     41001     40996     41002     40996     41003     40996     41004
     40998     41005     40998     41006     41007     41008     41009     41010
     41007     41009     41009     41011     41009     41012     41007     41013
     41007     41014     41007     41015     41009     41016     41009     41017
     41018     41019     41020     41021     41018     41020     41020     41022
     41020     41023     41018     41024     41018     41025     41018     41026
     41020     41027     41020     41028     41029     41030     41031     41032
     41029     41031     41031     41033     41031     41034     41029     41035
     41029     41036     41029     41037     41031     41038     41031     41039
     41040     41041     41042     41043     41040     41042     41042     41044
     41042     41045     41040     41046     41040     41047     41040     41048
     41042     41049     41042     41050     41051     41052     41053     41054
     41051     41053     41053     41055     41053     41056     41051     41057
     41051     41058     41051     41059     41053     41060     41053     41061
     41062     41063     41064     41065     41062     41064     41064     41066
     41064     41067     41062     41068     41062     41069     41062     41070
     41064     41071     41064     41072     41073     41074     41075     41076
     41073     41075     41075     41077     41075     41078     41073     41079
     41073     41080     41073     41081     41075     41082     41075     41083
     41084     41085     41086     41087     41084     41086     41086     41088
     41086     41089     41084     41090     41084     41091     41084     41092
     41086     41093     41086     41094     41095     41096     41097     41098
     41095     41097     41097     41099     41097     41100     41095     41101
     41095     41102     41095     41103     41097     41104     41097     41105
     41106     41107     41108     41109     41106     41108     41108     41110
     41108     41111     41106     41112     41106     41113     41106     41114
     41108     41115     41108     41116     41117     41118     41119     41120
     41117     41119     41119     41121     41119     41122     41117     41123
     41117     41124     41117     41125     41119     41126     41119     41127
     41128     41129     41130     41131     41128     41130     41130     41132
     41130     41133     41128     41134     41128     41135     41128     41136
     41130     41137     41130     41138     41139     41140     41141     41142
     41139     41141     41141     41143     41141     41144     41139     41145
     41139     41146     41139     41147     41141     41148     41141     41149
     41150     41151     41152     41153     41150     41152     41152     41154
     41152     41155     41150     41156     41150     41157     41150     41158
     41152     41159     41152     41160     41161     41162     41163     41164
     41161     41163     41163     41165     41163     41166     41161     41167
     41161     41168     41161     41169     41163     41170     41163     41171
     41172     41173     41174     41175     41172     41174     41174     41176
     41174     41177     41172     41178     41172     41179     41172     41180
     41174     41181     41174     41182     41183     41184     41185     41186
     41183     41185     41185     41187     41185     41188     41183     41189
     41183     41190     41183     41191     41185     41192     41185     41193
     41194     41195     41196     41197     41194     41196     41196     41198
     41196     41199     41194     41200     41194     41201     41194     41202
     41196     41203     41196     41204     41205     41206     41207     41208
     41205     41207     41207     41209     41207     41210     41205     41211
     41205     41212     41205     41213     41207     41214     41207     41215
     41216     41217     41218     41219     41216     41218     41218     41220
     41218     41221     41216     41222     41216     41223     41216     41224
     41218     41225     41218     41226     41227     41228     41229     41230
     41227     41229     41229     41231     41229     41232     41227     41233
     41227     41234     41227     41235     41229     41236     41229     41237
     41238     41239     41240     41241     41238     41240     41240     41242
     41240     41243     41238     41244     41238     41245     41238     41246
     41240     41247     41240     41248     41249     41250     41251     41252
     41249     41251     41251     41253     41251     41254     41249     41255
     41249     41256     41249     41257     41251     41258     41251     41259
     41260     41261     41262     41263     41260     41262     41262     41264
     41262     41265     41260     41266     41260     41267     41260     41268
     41262     41269     41262     41270     41271     41272     41273     41274
     41271     41273     41273     41275     41273     41276     41271     41277
     41271     41278     41271     41279     41273     41280     41273     41281
     41282     41283     41284     41285     41282     41284     41284     41286
     41284     41287     41282     41288     41282     41289     41282     41290
     41284     41291     41284     41292     41293     41294     41295     41296
     41293     41295     41295     41297     41295     41298     41293     41299
     41293     41300     41293     41301     41295     41302     41295     41303
     41304     41305     41306     41307     41304     41306     41306     41308
     41306     41309     41304     41310     41304     41311     41304     41312
     41306     41313     41306     41314     41315     41316     41317     41318
     41315     41317     41317     41319     41317     41320     41315     41321
     41315     41322     41315     41323     41317     41324     41317     41325
     41326     41327     41328     41329     41326     41328     41328     41330
     41328     41331     41326     41332     41326     41333     41326     41334
     41328     41335     41328     41336     41337     41338     41339     41340
     41337     41339     41339     41341     41339     41342     41337     41343
     41337     41344     41337     41345     41339     41346     41339     41347
     41348     41349     41350     41351     41348     41350     41350     41352
     41350     41353     41348     41354     41348     41355     41348     41356
     41350     41357     41350     41358     41359     41360     41361     41362
     41359     41361     41361     41363     41361     41364     41359     41365
     41359     41366     41359     41367     41361     41368     41361     41369
     41370     41371     41372     41373     41370     41372     41372     41374
     41372     41375     41370     41376     41370     41377     41370     41378
     41372     41379     41372     41380     41381     41382     41383     41384
     41381     41383     41383     41385     41383     41386     41381     41387
     41381     41388     41381     41389     41383     41390     41383     41391
     41392     41393     41394     41395     41392     41394     41394     41396
     41394     41397     41392     41398     41392     41399     41392     41400
     41394     41401     41394     41402     41403     41404     41405     41406
     41403     41405     41405     41407     41405     41408     41403     41409
     41403     41410     41403     41411     41405     41412     41405     41413
     41414     41415     41416     41417     41414     41416     41416     41418
     41416     41419     41414     41420     41414     41421     41414     41422
     41416     41423     41416     41424     41425     41426     41427     41428
     41425     41427     41427     41429     41427     41430     41425     41431
     41425     41432     41425     41433     41427     41434     41427     41435
     41436     41437     41438     41439     41436     41438     41438     41440
     41438     41441     41436     41442     41436     41443     41436     41444
     41438     41445     41438     41446     41447     41448     41449     41450
     41447     41449     41449     41451     41449     41452     41447     41453
     41447     41454     41447     41455     41449     41456     41449     41457
     41458     41459     41460     41461     41458     41460     41460     41462
     41460     41463     41458     41464     41458     41465     41458     41466
     41460     41467     41460     41468     41469     41470     41471     41472
     41469     41471     41471     41473     41471     41474     41469     41475
     41469     41476     41469     41477     41471     41478     41471     41479
     41480     41481     41482     41483     41480     41482     41482     41484
     41482     41485     41480     41486     41480     41487     41480     41488
     41482     41489     41482     41490     41491     41492     41493     41494
     41491     41493     41493     41495     41493     41496     41491     41497
     41491     41498     41491     41499     41493     41500     41493     41501
     41502     41503     41504     41505     41502     41504     41504     41506
     41504     41507     41502     41508     41502     41509     41502     41510
     41504     41511     41504     41512     41513     41514     41515     41516
     41513     41515     41515     41517     41515     41518     41513     41519
     41513     41520     41513     41521     41515     41522     41515     41523
     41524     41525     41526     41527     41524     41526     41526     41528
     41526     41529     41524     41530     41524     41531     41524     41532
     41526     41533     41526     41534     41535     41536     41537     41538
     41535     41537     41537     41539     41537     41540     41535     41541
     41535     41542     41535     41543     41537     41544     41537     41545
     41546     41547     41548     41549     41546     41548     41548     41550
     41548     41551     41546     41552     41546     41553     41546     41554
     41548     41555     41548     41556     41557     41558     41559     41560
     41557     41559     41559     41561     41559     41562     41557     41563
     41557     41564     41557     41565     41559     41566     41559     41567
     41568     41569     41570     41571     41568     41570     41570     41572
     41570     41573     41568     41574     41568     41575     41568     41576
     41570     41577     41570     41578     41579     41580     41581     41582
     41579     41581     41581     41583     41581     41584     41579     41585
     41579     41586     41579     41587     41581     41588     41581     41589
     41590     41591     41592     41593     41590     41592     41592     41594
     41592     41595     41590     41596     41590     41597     41590     41598
     41592     41599     41592     41600     41601     41602     41603     41604
     41601     41603     41603     41605     41603     41606     41601     41607
     41601     41608     41601     41609     41603     41610     41603     41611
     41612     41613     41614     41615     41612     41614     41614     41616
     41614     41617     41612     41618     41612     41619     41612     41620
     41614     41621     41614     41622     41623     41624     41625     41626
     41623     41625     41625     41627     41625     41628     41623     41629
     41623     41630     41623     41631     41625     41632     41625     41633
     41634     41635     41636     41637     41634     41636     41636     41638
     41636     41639     41634     41640     41634     41641     41634     41642
     41636     41643     41636     41644     41645     41646     41647     41648
     41645     41647     41647     41649     41647     41650     41645     41651
     41645     41652     41645     41653     41647     41654     41647     41655
     41656     41657     41658     41659     41656     41658     41658     41660
     41658     41661     41656     41662     41656     41663     41656     41664
     41658     41665     41658     41666     41667     41668     41669     41670
     41667     41669     41669     41671     41669     41672     41667     41673
     41667     41674     41667     41675     41669     41676     41669     41677
     41678     41679     41680     41681     41678     41680     41680     41682
     41680     41683     41678     41684     41678     41685     41678     41686
     41680     41687     41680     41688     41689     41690     41691     41692
     41689     41691     41691     41693     41691     41694     41689     41695
     41689     41696     41689     41697     41691     41698     41691     41699
     41700     41701     41702     41703     41700     41702     41702     41704
     41702     41705     41700     41706     41700     41707     41700     41708
     41702     41709     41702     41710     41711     41712     41713     41714
     41711     41713     41713     41715     41713     41716     41711     41717
     41711     41718     41711     41719     41713     41720     41713     41721
     41722     41723     41724     41725     41722     41724     41724     41726
     41724     41727     41722     41728     41722     41729     41722     41730
     41724     41731     41724     41732     41733     41734     41735     41736
     41733     41735     41735     41737     41735     41738     41733     41739
     41733     41740     41733     41741     41735     41742     41735     41743
     41744     41745     41746     41747     41744     41746     41746     41748
     41746     41749     41744     41750     41744     41751     41744     41752
     41746     41753     41746     41754     41755     41756     41757     41758
     41755     41757     41757     41759     41757     41760     41755     41761
     41755     41762     41755     41763     41757     41764     41757     41765
     41766     41767     41768     41769     41766     41768     41768     41770
     41768     41771     41766     41772     41766     41773     41766     41774
     41768     41775     41768     41776     41777     41778     41779     41780
     41777     41779     41779     41781     41779     41782     41777     41783
     41777     41784     41777     41785     41779     41786     41779     41787
     41788     41789     41790     41791     41788     41790     41790     41792
     41790     41793     41788     41794     41788     41795     41788     41796
     41790     41797     41790     41798     41799     41800     41801     41802
     41799     41801     41801     41803     41801     41804     41799     41805
     41799     41806     41799     41807     41801     41808     41801     41809
     41810     41811     41812     41813     41810     41812     41812     41814
     41812     41815     41810     41816     41810     41817     41810     41818
     41812     41819     41812     41820     41821     41822     41823     41824
     41821     41823     41823     41825     41823     41826     41821     41827
     41821     41828     41821     41829     41823     41830     41823     41831
     41832     41833     41834     41835     41832     41834     41834     41836
     41834     41837     41832     41838     41832     41839     41832     41840
     41834     41841     41834     41842     41843     41844     41845     41846
     41843     41845     41845     41847     41845     41848     41843     41849
     41843     41850     41843     41851     41845     41852     41845     41853
     41854     41855     41856     41857     41854     41856     41856     41858
     41856     41859     41854     41860     41854     41861     41854     41862
     41856     41863     41856     41864     41865     41866     41867     41868
     41865     41867     41867     41869     41867     41870     41865     41871
     41865     41872     41865     41873     41867     41874     41867     41875
     41876     41877     41878     41879     41876     41878     41878     41880
     41878     41881     41876     41882     41876     41883     41876     41884
     41878     41885     41878     41886     41887     41888     41889     41890
     41887     41889     41889     41891     41889     41892     41887     41893
     41887     41894     41887     41895     41889     41896     41889     41897
     41898     41899     41900     41901     41898     41900     41900     41902
     41900     41903     41898     41904     41898     41905     41898     41906
     41900     41907     41900     41908     41909     41910     41911     41912
     41909     41911     41911     41913     41911     41914     41909     41915
     41909     41916     41909     41917     41911     41918     41911     41919
     41920     41921     41922     41923     41920     41922     41922     41924
     41922     41925     41920     41926     41920     41927     41920     41928
     41922     41929     41922     41930     41931     41932     41933     41934
     41931     41933     41933     41935     41933     41936     41931     41937
     41931     41938     41931     41939     41933     41940     41933     41941
     41942     41943     41944     41945     41942     41944     41944     41946
     41944     41947     41942     41948     41942     41949     41942     41950
     41944     41951     41944     41952     41953     41954     41955     41956
     41953     41955     41955     41957     41955     41958     41953     41959
     41953     41960     41953     41961     41955     41962     41955     41963
     41964     41965     41966     41967     41964     41966     41966     41968
     41966     41969     41964     41970     41964     41971     41964     41972
     41966     41973     41966     41974     41975     41976     41977     41978
     41975     41977     41977     41979     41977     41980     41975     41981
     41975     41982     41975     41983     41977     41984     41977     41985
     41986     41987     41988     41989     41986     41988     41988     41990
     41988     41991     41986     41992     41986     41993     41986     41994
     41988     41995     41988     41996     41997     41998     41999     42000
     41997     41999     41999     42001     41999     42002     41997     42003
     41997     42004     41997     42005     41999     42006     41999     42007
     42008     42009     42010     42011     42008     42010     42010     42012
     42010     42013     42008     42014     42008     42015     42008     42016
     42010     42017     42010     42018     42019     42020     42021     42022
     42019     42021     42021     42023     42021     42024     42019     42025
     42019     42026     42019     42027     42021     42028     42021     42029
     42030     42031     42032     42033     42030     42032     42032     42034
     42032     42035     42030     42036     42030     42037     42030     42038
     42032     42039     42032     42040     42041     42042     42043     42044
     42041     42043     42043     42045     42043     42046     42041     42047
     42041     42048     42041     42049     42043     42050     42043     42051
     42052     42053     42054     42055     42052     42054     42054     42056
     42054     42057     42052     42058     42052     42059     42052     42060
     42054     42061     42054     42062     42063     42064     42065     42066
     42063     42065     42065     42067     42065     42068     42063     42069
     42063     42070     42063     42071     42065     42072     42065     42073
     42074     42075     42076     42077     42074     42076     42076     42078
     42076     42079     42074     42080     42074     42081     42074     42082
     42076     42083     42076     42084     42085     42086     42087     42088
     42085     42087     42087     42089     42087     42090     42085     42091
     42085     42092     42085     42093     42087     42094     42087     42095
     42096     42097     42098     42099     42096     42098     42098     42100
     42098     42101     42096     42102     42096     42103     42096     42104
     42098     42105     42098     42106     42107     42108     42109     42110
     42107     42109     42109     42111     42109     42112     42107     42113
     42107     42114     42107     42115     42109     42116     42109     42117
     42118     42119     42120     42121     42118     42120     42120     42122
     42120     42123     42118     42124     42118     42125     42118     42126
     42120     42127     42120     42128     42129     42130     42131     42132
     42129     42131     42131     42133     42131     42134     42129     42135
     42129     42136     42129     42137     42131     42138     42131     42139
     42140     42141     42142     42143     42140     42142     42142     42144
     42142     42145     42140     42146     42140     42147     42140     42148
     42142     42149     42142     42150     42151     42152     42153     42154
     42151     42153     42153     42155     42153     42156     42151     42157
     42151     42158     42151     42159     42153     42160     42153     42161
     42162     42163     42164     42165     42162     42164     42164     42166
     42164     42167     42162     42168     42162     42169     42162     42170
     42164     42171     42164     42172     42173     42174     42175     42176
     42173     42175     42175     42177     42175     42178     42173     42179
     42173     42180     42173     42181     42175     42182     42175     42183
     42184     42185     42186     42187     42184     42186     42186     42188
     42186     42189     42184     42190     42184     42191     42184     42192
     42186     42193     42186     42194     42195     42196     42197     42198
     42195     42197     42197     42199     42197     42200     42195     42201
     42195     42202     42195     42203     42197     42204     42197     42205
     42206     42207     42208     42209     42206     42208     42208     42210
     42208     42211     42206     42212     42206     42213     42206     42214
     42208     42215     42208     42216     42217     42218     42219     42220
     42217     42219     42219     42221     42219     42222     42217     42223
     42217     42224     42217     42225     42219     42226     42219     42227
     42228     42229     42230     42231     42228     42230     42230     42232
     42230     42233     42228     42234     42228     42235     42228     42236
     42230     42237     42230     42238     42239     42240     42241     42242
     42239     42241     42241     42243     42241     42244     42239     42245
     42239     42246     42239     42247     42241     42248     42241     42249
     42250     42251     42252     42253     42250     42252     42252     42254
     42252     42255     42250     42256     42250     42257     42250     42258
     42252     42259     42252     42260     42261     42262     42263     42264
     42261     42263     42263     42265     42263     42266     42261     42267
     42261     42268     42261     42269     42263     42270     42263     42271
     42272     42273     42274     42275     42272     42274     42274     42276
     42274     42277     42272     42278     42272     42279     42272     42280
     42274     42281     42274     42282     42283     42284     42285     42286
     42283     42285     42285     42287     42285     42288     42283     42289
     42283     42290     42283     42291     42285     42292     42285     42293
     42294     42295     42296     42297     42294     42296     42296     42298
     42296     42299     42294     42300     42294     42301     42294     42302
     42296     42303     42296     42304     42305     42306     42307     42308
     42305     42307     42307     42309     42307     42310     42305     42311
     42305     42312     42305     42313     42307     42314     42307     42315
     42316     42317     42318     42319     42316     42318     42318     42320
     42318     42321     42316     42322     42316     42323     42316     42324
     42318     42325     42318     42326     42327     42328     42329     42330
     42327     42329     42329     42331     42329     42332     42327     42333
     42327     42334     42327     42335     42329     42336     42329     42337
     42338     42339     42340     42341     42338     42340     42340     42342
     42340     42343     42338     42344     42338     42345     42338     42346
     42340     42347     42340     42348     42349     42350     42351     42352
     42349     42351     42351     42353     42351     42354     42349     42355
     42349     42356     42349     42357     42351     42358     42351     42359
     42360     42361     42362     42363     42360     42362     42362     42364
     42362     42365     42360     42366     42360     42367     42360     42368
     42362     42369     42362     42370     42371     42372     42373     42374
     42371     42373     42373     42375     42373     42376     42371     42377
     42371     42378     42371     42379     42373     42380     42373     42381
     42382     42383     42384     42385     42382     42384     42384     42386
     42384     42387     42382     42388     42382     42389     42382     42390
     42384     42391     42384     42392     42393     42394     42395     42396
     42393     42395     42395     42397     42395     42398     42393     42399
     42393     42400     42393     42401     42395     42402     42395     42403
     42404     42405     42406     42407     42404     42406     42406     42408
     42406     42409     42404     42410     42404     42411     42404     42412
     42406     42413     42406     42414     42415     42416     42417     42418
     42415     42417     42417     42419     42417     42420     42415     42421
     42415     42422     42415     42423     42417     42424     42417     42425
     42426     42427     42428     42429     42426     42428     42428     42430
     42428     42431     42426     42432     42426     42433     42426     42434
     42428     42435     42428     42436     42437     42438     42439     42440
     42437     42439     42439     42441     42439     42442     42437     42443
     42437     42444     42437     42445     42439     42446     42439     42447
     42448     42449     42450     42451     42448     42450     42450     42452
     42450     42453     42448     42454     42448     42455     42448     42456
     42450     42457     42450     42458     42459     42460     42461     42462
     42459     42461     42461     42463     42461     42464     42459     42465
     42459     42466     42459     42467     42461     42468     42461     42469
     42470     42471     42472     42473     42470     42472     42472     42474
     42472     42475     42470     42476     42470     42477     42470     42478
     42472     42479     42472     42480     42481     42482     42483     42484
     42481     42483     42483     42485     42483     42486     42481     42487
     42481     42488     42481     42489     42483     42490     42483     42491
     42492     42493     42494     42495     42492     42494     42494     42496
     42494     42497     42492     42498     42492     42499     42492     42500
     42494     42501     42494     42502     42503     42504     42505     42506
     42503     42505     42505     42507     42505     42508     42503     42509
     42503     42510     42503     42511     42505     42512     42505     42513
     42514     42515     42516     42517     42514     42516     42516     42518
     42516     42519     42514     42520     42514     42521     42514     42522
     42516     42523     42516     42524     42525     42526     42527     42528
     42525     42527     42527     42529     42527     42530     42525     42531
     42525     42532     42525     42533     42527     42534     42527     42535
     42536     42537     42538     42539     42536     42538     42538     42540
     42538     42541     42536     42542     42536     42543     42536     42544
     42538     42545     42538     42546     42547     42548     42549     42550
     42547     42549     42549     42551     42549     42552     42547     42553
     42547     42554     42547     42555     42549     42556     42549     42557
     42558     42559     42560     42561     42558     42560     42560     42562
     42560     42563     42558     42564     42558     42565     42558     42566
     42560     42567     42560     42568     42569     42570     42571     42572
     42569     42571     42571     42573     42571     42574     42569     42575
     42569     42576     42569     42577     42571     42578     42571     42579
     42580     42581     42582     42583     42580     42582     42582     42584
     42582     42585     42580     42586     42580     42587     42580     42588
     42582     42589     42582     42590     42591     42592     42593     42594
     42591     42593     42593     42595     42593     42596     42591     42597
     42591     42598     42591     42599     42593     42600     42593     42601
     42602     42603     42604     42605     42602     42604     42604     42606
     42604     42607     42602     42608     42602     42609     42602     42610
     42604     42611     42604     42612     42613     42614     42615     42616
     42613     42615     42615     42617     42615     42618     42613     42619
     42613     42620     42613     42621     42615     42622     42615     42623
     42624     42625     42626     42627     42624     42626     42626     42628
     42626     42629     42624     42630     42624     42631     42624     42632
     42626     42633     42626     42634     42635     42636     42637     42638
     42635     42637     42637     42639     42637     42640     42635     42641
     42635     42642     42635     42643     42637     42644     42637     42645
     42646     42647     42648     42649     42646     42648     42648     42650
     42648     42651     42646     42652     42646     42653     42646     42654
     42648     42655     42648     42656     42657     42658     42659     42660
     42657     42659     42659     42661     42659     42662     42657     42663
     42657     42664     42657     42665     42659     42666     42659     42667
     42668     42669     42670     42671     42668     42670     42670     42672
     42670     42673     42668     42674     42668     42675     42668     42676
     42670     42677     42670     42678     42679     42680     42681     42682
     42679     42681     42681     42683     42681     42684     42679     42685
     42679     42686     42679     42687     42681     42688     42681     42689
     42690     42691     42692     42693     42690     42692     42692     42694
     42692     42695     42690     42696     42690     42697     42690     42698
     42692     42699     42692     42700     42701     42702     42703     42704
     42701     42703     42703     42705     42703     42706     42701     42707
     42701     42708     42701     42709     42703     42710     42703     42711
     42712     42713     42714     42715     42712     42714     42714     42716
     42714     42717     42712     42718     42712     42719     42712     42720
     42714     42721     42714     42722     42723     42724     42725     42726
     42723     42725     42725     42727     42725     42728     42723     42729
     42723     42730     42723     42731     42725     42732     42725     42733
     42734     42735     42736     42737     42734     42736     42736     42738
     42736     42739     42734     42740     42734     42741     42734     42742
     42736     42743     42736     42744     42745     42746     42747     42748
     42745     42747     42747     42749     42747     42750     42745     42751
     42745     42752     42745     42753     42747     42754     42747     42755
     42756     42757     42758     42759     42756     42758     42758     42760
     42758     42761     42756     42762     42756     42763     42756     42764
     42758     42765     42758     42766     42767     42768     42769     42770
     42767     42769     42769     42771     42769     42772     42767     42773
     42767     42774     42767     42775     42769     42776     42769     42777
     42778     42779     42780     42781     42778     42780     42780     42782
     42780     42783     42778     42784     42778     42785     42778     42786
     42780     42787     42780     42788     42789     42790     42791     42792
     42789     42791     42791     42793     42791     42794     42789     42795
     42789     42796     42789     42797     42791     42798     42791     42799
     42800     42801     42802     42803     42800     42802     42802     42804
     42802     42805     42800     42806     42800     42807     42800     42808
     42802     42809     42802     42810     42811     42812     42813     42814
     42811     42813     42813     42815     42813     42816     42811     42817
     42811     42818     42811     42819     42813     42820     42813     42821
     42822     42823     42824     42825     42822     42824     42824     42826
     42824     42827     42822     42828     42822     42829     42822     42830
     42824     42831     42824     42832     42833     42834     42835     42836
     42833     42835     42835     42837     42835     42838     42833     42839
     42833     42840     42833     42841     42835     42842     42835     42843
     42844     42845     42846     42847     42844     42846     42846     42848
     42846     42849     42844     42850     42844     42851     42844     42852
     42846     42853     42846     42854     42855     42856     42857     42858
     42855     42857     42857     42859     42857     42860     42855     42861
     42855     42862     42855     42863     42857     42864     42857     42865
     42866     42867     42868     42869     42866     42868     42868     42870
     42868     42871     42866     42872     42866     42873     42866     42874
     42868     42875     42868     42876     42877     42878     42879     42880
     42877     42879     42879     42881     42879     42882     42877     42883
     42877     42884     42877     42885     42879     42886     42879     42887
     42888     42889     42890     42891     42888     42890     42890     42892
     42890     42893     42888     42894     42888     42895     42888     42896
     42890     42897     42890     42898     42899     42900     42901     42902
     42899     42901     42901     42903     42901     42904     42899     42905
     42899     42906     42899     42907     42901     42908     42901     42909
     42910     42911     42912     42913     42910     42912     42912     42914
     42912     42915     42910     42916     42910     42917     42910     42918
     42912     42919     42912     42920     42921     42922     42923     42924
     42921     42923     42923     42925     42923     42926     42921     42927
     42921     42928     42921     42929     42923     42930     42923     42931
     42932     42933     42934     42935     42932     42934     42934     42936
     42934     42937     42932     42938     42932     42939     42932     42940
     42934     42941     42934     42942     42943     42944     42945     42946
     42943     42945     42945     42947     42945     42948     42943     42949
     42943     42950     42943     42951     42945     42952     42945     42953
     42954     42955     42956     42957     42954     42956     42956     42958
     42956     42959     42954     42960     42954     42961     42954     42962
     42956     42963     42956     42964     42965     42966     42967     42968
     42965     42967     42967     42969     42967     42970     42965     42971
     42965     42972     42965     42973     42967     42974     42967     42975
     42976     42977     42978     42979     42976     42978     42978     42980
     42978     42981     42976     42982     42976     42983     42976     42984
     42978     42985     42978     42986     42987     42988     42989     42990
     42987     42989     42989     42991     42989     42992     42987     42993
     42987     42994     42987     42995     42989     42996     42989     42997
     42998     42999     43000     43001     42998     43000     43000     43002
     43000     43003     42998     43004     42998     43005     42998     43006
     43000     43007     43000     43008     43009     43010     43011     43012
     43009     43011     43011     43013     43011     43014     43009     43015
     43009     43016     43009     43017     43011     43018     43011     43019
     43020     43021     43022     43023     43020     43022     43022     43024
     43022     43025     43020     43026     43020     43027     43020     43028
     43022     43029     43022     43030     43031     43032     43033     43034
     43031     43033     43033     43035     43033     43036     43031     43037
     43031     43038     43031     43039     43033     43040     43033     43041
     43042     43043     43044     43045     43042     43044     43044     43046
     43044     43047     43042     43048     43042     43049     43042     43050
     43044     43051     43044     43052     43053     43054     43055     43056
     43053     43055     43055     43057     43055     43058     43053     43059
     43053     43060     43053     43061     43055     43062     43055     43063
     43064     43065     43066     43067     43064     43066     43066     43068
     43066     43069     43064     43070     43064     43071     43064     43072
     43066     43073     43066     43074     43075     43076     43077     43078
     43075     43077     43077     43079     43077     43080     43075     43081
     43075     43082     43075     43083     43077     43084     43077     43085
     43086     43087     43088     43089     43086     43088     43088     43090
     43088     43091     43086     43092     43086     43093     43086     43094
     43088     43095     43088     43096     43097     43098     43099     43100
     43097     43099     43099     43101     43099     43102     43097     43103
     43097     43104     43097     43105     43099     43106     43099     43107
     43108     43109     43110     43111     43108     43110     43110     43112
     43110     43113     43108     43114     43108     43115     43108     43116
     43110     43117     43110     43118     43119     43120     43121     43122
     43119     43121     43121     43123     43121     43124     43119     43125
     43119     43126     43119     43127     43121     43128     43121     43129
     43130     43131     43132     43133     43130     43132     43132     43134
     43132     43135     43130     43136     43130     43137     43130     43138
     43132     43139     43132     43140     43141     43142     43143     43144
     43141     43143     43143     43145     43143     43146     43141     43147
     43141     43148     43141     43149     43143     43150     43143     43151
     43152     43153     43154     43155     43152     43154     43154     43156
     43154     43157     43152     43158     43152     43159     43152     43160
     43154     43161     43154     43162     43163     43164     43165     43166
     43163     43165     43165     43167     43165     43168     43163     43169
     43163     43170     43163     43171     43165     43172     43165     43173
     43174     43175     43176     43177     43174     43176     43176     43178
     43176     43179     43174     43180     43174     43181     43174     43182
     43176     43183     43176     43184     43185     43186     43187     43188
     43185     43187     43187     43189     43187     43190     43185     43191
     43185     43192     43185     43193     43187     43194     43187     43195
     43196     43197     43198     43199     43196     43198     43198     43200
     43198     43201     43196     43202     43196     43203     43196     43204
     43198     43205     43198     43206     43207     43208     43209     43210
     43207     43209     43209     43211     43209     43212     43207     43213
     43207     43214     43207     43215     43209     43216     43209     43217
     43218     43219     43220     43221     43218     43220     43220     43222
     43220     43223     43218     43224     43218     43225     43218     43226
     43220     43227     43220     43228     43229     43230     43231     43232
     43229     43231     43231     43233     43231     43234     43229     43235
     43229     43236     43229     43237     43231     43238     43231     43239
     43240     43241     43242     43243     43240     43242     43242     43244
     43242     43245     43240     43246     43240     43247     43240     43248
     43242     43249     43242     43250     43251     43252     43253     43254
     43251     43253     43253     43255     43253     43256     43251     43257
     43251     43258     43251     43259     43253     43260     43253     43261
     43262     43263     43264     43265     43262     43264     43264     43266
     43264     43267     43262     43268     43262     43269     43262     43270
     43264     43271     43264     43272     43273     43274     43275     43276
     43273     43275     43275     43277     43275     43278     43273     43279
     43273     43280     43273     43281     43275     43282     43275     43283
     43284     43285     43286     43287     43284     43286     43286     43288
     43286     43289     43284     43290     43284     43291     43284     43292
     43286     43293     43286     43294     43295     43296     43297     43298
     43295     43297     43297     43299     43297     43300     43295     43301
     43295     43302     43295     43303     43297     43304     43297     43305
     43306     43307     43308     43309     43306     43308     43308     43310
     43308     43311     43306     43312     43306     43313     43306     43314
     43308     43315     43308     43316     43317     43318     43319     43320
     43317     43319     43319     43321     43319     43322     43317     43323
     43317     43324     43317     43325     43319     43326     43319     43327
     43328     43329     43330     43331     43328     43330     43330     43332
     43330     43333     43328     43334     43328     43335     43328     43336
     43330     43337     43330     43338     43339     43340     43341     43342
     43339     43341     43341     43343     43341     43344     43339     43345
     43339     43346     43339     43347     43341     43348     43341     43349
     43350     43351     43352     43353     43350     43352     43352     43354
     43352     43355     43350     43356     43350     43357     43350     43358
     43352     43359     43352     43360     43361     43362     43363     43364
     43361     43363     43363     43365     43363     43366     43361     43367
     43361     43368     43361     43369     43363     43370     43363     43371
     43372     43373     43374     43375     43372     43374     43374     43376
     43374     43377     43372     43378     43372     43379     43372     43380
     43374     43381     43374     43382     43383     43384     43385     43386
     43383     43385     43385     43387     43385     43388     43383     43389
     43383     43390     43383     43391     43385     43392     43385     43393
     43394     43395     43396     43397     43394     43396     43396     43398
     43396     43399     43394     43400     43394     43401     43394     43402
     43396     43403     43396     43404     43405     43406     43407     43408
     43405     43407     43407     43409     43407     43410     43405     43411
     43405     43412     43405     43413     43407     43414     43407     43415
     43416     43417     43418     43419     43416     43418     43418     43420
     43418     43421     43416     43422     43416     43423     43416     43424
     43418     43425     43418     43426     43427     43428     43429     43430
     43427     43429     43429     43431     43429     43432     43427     43433
     43427     43434     43427     43435     43429     43436     43429     43437
     43438     43439     43440     43441     43438     43440     43440     43442
     43440     43443     43438     43444     43438     43445     43438     43446
     43440     43447     43440     43448     43449     43450     43451     43452
     43449     43451     43451     43453     43451     43454     43449     43455
     43449     43456     43449     43457     43451     43458     43451     43459
     43460     43461     43462     43463     43460     43462     43462     43464
     43462     43465     43460     43466     43460     43467     43460     43468
     43462     43469     43462     43470     43471     43472     43473     43474
     43471     43473     43473     43475     43473     43476     43471     43477
     43471     43478     43471     43479     43473     43480     43473     43481
     43482     43483     43484     43485     43482     43484     43484     43486
     43484     43487     43482     43488     43482     43489     43482     43490
     43484     43491     43484     43492     43493     43494     43495     43496
     43493     43495     43495     43497     43495     43498     43493     43499
     43493     43500     43493     43501     43495     43502     43495     43503
     43504     43505     43506     43507     43504     43506     43506     43508
     43506     43509     43504     43510     43504     43511     43504     43512
     43506     43513     43506     43514     43515     43516     43517     43518
     43515     43517     43517     43519     43517     43520     43515     43521
     43515     43522     43515     43523     43517     43524     43517     43525
     43526     43527     43528     43529     43526     43528     43528     43530
     43528     43531     43526     43532     43526     43533     43526     43534
     43528     43535     43528     43536     43537     43538     43539     43540
     43537     43539     43539     43541     43539     43542     43537     43543
     43537     43544     43537     43545     43539     43546     43539     43547
     43548     43549     43550     43551     43548     43550     43550     43552
     43550     43553     43548     43554     43548     43555     43548     43556
     43550     43557     43550     43558     43559     43560     43561     43562
     43559     43561     43561     43563     43561     43564     43559     43565
     43559     43566     43559     43567     43561     43568     43561     43569
     43570     43571     43572     43573     43570     43572     43572     43574
     43572     43575     43570     43576     43570     43577     43570     43578
     43572     43579     43572     43580     43581     43582     43583     43584
     43581     43583     43583     43585     43583     43586     43581     43587
     43581     43588     43581     43589     43583     43590     43583     43591
     43592     43593     43594     43595     43592     43594     43594     43596
     43594     43597     43592     43598     43592     43599     43592     43600
     43594     43601     43594     43602     43603     43604     43605     43606
     43603     43605     43605     43607     43605     43608     43603     43609
     43603     43610     43603     43611     43605     43612     43605     43613
     43614     43615     43616     43617     43614     43616     43616     43618
     43616     43619     43614     43620     43614     43621     43614     43622
     43616     43623     43616     43624     43625     43626     43627     43628
     43625     43627     43627     43629     43627     43630     43625     43631
     43625     43632     43625     43633     43627     43634     43627     43635
     43636     43637     43638     43639     43636     43638     43638     43640
     43638     43641     43636     43642     43636     43643     43636     43644
     43638     43645     43638     43646     43647     43648     43649     43650
     43647     43649     43649     43651     43649     43652     43647     43653
     43647     43654     43647     43655     43649     43656     43649     43657
     43658     43659     43660     43661     43658     43660     43660     43662
     43660     43663     43658     43664     43658     43665     43658     43666
     43660     43667     43660     43668     43669     43670     43671     43672
     43669     43671     43671     43673     43671     43674     43669     43675
     43669     43676     43669     43677     43671     43678     43671     43679
     43680     43681     43682     43683     43680     43682     43682     43684
     43682     43685     43680     43686     43680     43687     43680     43688
     43682     43689     43682     43690     43691     43692     43693     43694
     43691     43693     43693     43695     43693     43696     43691     43697
     43691     43698     43691     43699     43693     43700     43693     43701
     43702     43703     43704     43705     43702     43704     43704     43706
     43704     43707     43702     43708     43702     43709     43702     43710
     43704     43711     43704     43712     43713     43714     43715     43716
     43713     43715     43715     43717     43715     43718     43713     43719
     43713     43720     43713     43721     43715     43722     43715     43723
     43724     43725     43726     43727     43724     43726     43726     43728
     43726     43729     43724     43730     43724     43731     43724     43732
     43726     43733     43726     43734     43735     43736     43737     43738
     43735     43737     43737     43739     43737     43740     43735     43741
     43735     43742     43735     43743     43737     43744     43737     43745
     43746     43747     43748     43749     43746     43748     43748     43750
     43748     43751     43746     43752     43746     43753     43746     43754
     43748     43755     43748     43756     43757     43758     43759     43760
     43757     43759     43759     43761     43759     43762     43757     43763
     43757     43764     43757     43765     43759     43766     43759     43767
     43768     43769     43770     43771     43768     43770     43770     43772
     43770     43773     43768     43774     43768     43775     43768     43776
     43770     43777     43770     43778     43779     43780     43781     43782
     43779     43781     43781     43783     43781     43784     43779     43785
     43779     43786     43779     43787     43781     43788     43781     43789
     43790     43791     43792     43793     43790     43792     43792     43794
     43792     43795     43790     43796     43790     43797     43790     43798
     43792     43799     43792     43800     43801     43802     43803     43804
     43801     43803     43803     43805     43803     43806     43801     43807
     43801     43808     43801     43809     43803     43810     43803     43811
     43812     43813     43814     43815     43812     43814     43814     43816
     43814     43817     43812     43818     43812     43819     43812     43820
     43814     43821     43814     43822     43823     43824     43825     43826
     43823     43825     43825     43827     43825     43828     43823     43829
     43823     43830     43823     43831     43825     43832     43825     43833
     43834     43835     43836     43837     43834     43836     43836     43838
     43836     43839     43834     43840     43834     43841     43834     43842
     43836     43843     43836     43844     43845     43846     43847     43848
     43845     43847     43847     43849     43847     43850     43845     43851
     43845     43852     43845     43853     43847     43854     43847     43855
     43856     43857     43858     43859     43856     43858     43858     43860
     43858     43861     43856     43862     43856     43863     43856     43864
     43858     43865     43858     43866     43867     43868     43869     43870
     43867     43869     43869     43871     43869     43872     43867     43873
     43867     43874     43867     43875     43869     43876     43869     43877
     43878     43879     43880     43881     43878     43880     43880     43882
     43880     43883     43878     43884     43878     43885     43878     43886
     43880     43887     43880     43888     43889     43890     43891     43892
     43889     43891     43891     43893     43891     43894     43889     43895
     43889     43896     43889     43897     43891     43898     43891     43899
     43900     43901     43902     43903     43900     43902     43902     43904
     43902     43905     43900     43906     43900     43907     43900     43908
     43902     43909     43902     43910     43911     43912     43913     43914
     43911     43913     43913     43915     43913     43916     43911     43917
     43911     43918     43911     43919     43913     43920     43913     43921
     43922     43923     43924     43925     43922     43924     43924     43926
     43924     43927     43922     43928     43922     43929     43922     43930
     43924     43931     43924     43932     43933     43934     43935     43936
     43933     43935     43935     43937     43935     43938     43933     43939
     43933     43940     43933     43941     43935     43942     43935     43943
     43944     43945     43946     43947     43944     43946     43946     43948
     43946     43949     43944     43950     43944     43951     43944     43952
     43946     43953     43946     43954     43955     43956     43957     43958
     43955     43957     43957     43959     43957     43960     43955     43961
     43955     43962     43955     43963     43957     43964     43957     43965
     43966     43967     43968     43969     43966     43968     43968     43970
     43968     43971     43966     43972     43966     43973     43966     43974
     43968     43975     43968     43976     43977     43978     43979     43980
     43977     43979     43979     43981     43979     43982     43977     43983
     43977     43984     43977     43985     43979     43986     43979     43987
     43988     43989     43990     43991     43988     43990     43990     43992
     43990     43993     43988     43994     43988     43995     43988     43996
     43990     43997     43990     43998     43999     44000     44001     44002
     43999     44001     44001     44003     44001     44004     43999     44005
     43999     44006     43999     44007     44001     44008     44001     44009
     44010     44011     44012     44013     44010     44012     44012     44014
     44012     44015     44010     44016     44010     44017     44010     44018
     44012     44019     44012     44020     44021     44022     44023     44024
     44021     44023     44023     44025     44023     44026     44021     44027
     44021     44028     44021     44029     44023     44030     44023     44031
     44032     44033     44034     44035     44032     44034     44034     44036
     44034     44037     44032     44038     44032     44039     44032     44040
     44034     44041     44034     44042     44043     44044     44045     44046
     44043     44045     44045     44047     44045     44048     44043     44049
     44043     44050     44043     44051     44045     44052     44045     44053
     44054     44055     44056     44057     44054     44056     44056     44058
     44056     44059     44054     44060     44054     44061     44054     44062
     44056     44063     44056     44064     44065     44066     44067     44068
     44065     44067     44067     44069     44067     44070     44065     44071
     44065     44072     44065     44073     44067     44074     44067     44075
     44076     44077     44078     44079     44076     44078     44078     44080
     44078     44081     44076     44082     44076     44083     44076     44084
     44078     44085     44078     44086     44087     44088     44089     44090
     44087     44089     44089     44091     44089     44092     44087     44093
     44087     44094     44087     44095     44089     44096     44089     44097
     44098     44099     44100     44101     44098     44100     44100     44102
     44100     44103     44098     44104     44098     44105     44098     44106
     44100     44107     44100     44108     44109     44110     44111     44112
     44109     44111     44111     44113     44111     44114     44109     44115
     44109     44116     44109     44117     44111     44118     44111     44119
     44120     44121     44122     44123     44120     44122     44122     44124
     44122     44125     44120     44126     44120     44127     44120     44128
     44122     44129     44122     44130     44131     44132     44133     44134
     44131     44133     44133     44135     44133     44136     44131     44137
     44131     44138     44131     44139     44133     44140     44133     44141
     44142     44143     44144     44145     44142     44144     44144     44146
     44144     44147     44142     44148     44142     44149     44142     44150
     44144     44151     44144     44152     44153     44154     44155     44156
     44153     44155     44155     44157     44155     44158     44153     44159
     44153     44160     44153     44161     44155     44162     44155     44163
     44164     44165     44166     44167     44164     44166     44166     44168
     44166     44169     44164     44170     44164     44171     44164     44172
     44166     44173     44166     44174     44175     44176     44177     44178
     44175     44177     44177     44179     44177     44180     44175     44181
     44175     44182     44175     44183     44177     44184     44177     44185
     44186     44187     44188     44189     44186     44188     44188     44190
     44188     44191     44186     44192     44186     44193     44186     44194
     44188     44195     44188     44196     44197     44198     44199     44200
     44197     44199     44199     44201     44199     44202     44197     44203
     44197     44204     44197     44205     44199     44206     44199     44207
     44208     44209     44210     44211     44208     44210     44210     44212
     44210     44213     44208     44214     44208     44215     44208     44216
     44210     44217     44210     44218     44219     44220     44221     44222
     44219     44221     44221     44223     44221     44224     44219     44225
     44219     44226     44219     44227     44221     44228     44221     44229
     44230     44231     44232     44233     44230     44232     44232     44234
     44232     44235     44230     44236     44230     44237     44230     44238
     44232     44239     44232     44240     44241     44242     44243     44244
     44241     44243     44243     44245     44243     44246     44241     44247
     44241     44248     44241     44249     44243     44250     44243     44251
     44252     44253     44254     44255     44252     44254     44254     44256
     44254     44257     44252     44258     44252     44259     44252     44260
     44254     44261     44254     44262     44263     44264     44265     44266
     44263     44265     44265     44267     44265     44268     44263     44269
     44263     44270     44263     44271     44265     44272     44265     44273
     44274     44275     44276     44277     44274     44276     44276     44278
     44276     44279     44274     44280     44274     44281     44274     44282
     44276     44283     44276     44284     44285     44286     44287     44288
     44285     44287     44287     44289     44287     44290     44285     44291
     44285     44292     44285     44293     44287     44294     44287     44295
     44296     44297     44298     44299     44296     44298     44298     44300
     44298     44301     44296     44302     44296     44303     44296     44304
     44298     44305     44298     44306     44307     44308     44309     44310
     44307     44309     44309     44311     44309     44312     44307     44313
     44307     44314     44307     44315     44309     44316     44309     44317
     44318     44319     44320     44321     44318     44320     44320     44322
     44320     44323     44318     44324     44318     44325     44318     44326
     44320     44327     44320     44328     44329     44330     44331     44332
     44329     44331     44331     44333     44331     44334     44329     44335
     44329     44336     44329     44337     44331     44338     44331     44339
     44340     44341     44342     44343     44340     44342     44342     44344
     44342     44345     44340     44346     44340     44347     44340     44348
     44342     44349     44342     44350     44351     44352     44353     44354
     44351     44353     44353     44355     44353     44356     44351     44357
     44351     44358     44351     44359     44353     44360     44353     44361
     44362     44363     44364     44365     44362     44364     44364     44366
     44364     44367     44362     44368     44362     44369     44362     44370
     44364     44371     44364     44372     44373     44374     44375     44376
     44373     44375     44375     44377     44375     44378     44373     44379
     44373     44380     44373     44381     44375     44382     44375     44383
     44384     44385     44386     44387     44384     44386     44386     44388
     44386     44389     44384     44390     44384     44391     44384     44392
     44386     44393     44386     44394     44395     44396     44397     44398
     44395     44397     44397     44399     44397     44400     44395     44401
     44395     44402     44395     44403     44397     44404     44397     44405
     44406     44407     44408     44409     44406     44408     44408     44410
     44408     44411     44406     44412     44406     44413     44406     44414
     44408     44415     44408     44416     44417     44418     44419     44420
     44417     44419     44419     44421     44419     44422     44417     44423
     44417     44424     44417     44425     44419     44426     44419     44427
     44428     44429     44430     44431     44428     44430     44430     44432
     44430     44433     44428     44434     44428     44435     44428     44436
     44430     44437     44430     44438     44439     44440     44441     44442
     44439     44441     44441     44443     44441     44444     44439     44445
     44439     44446     44439     44447     44441     44448     44441     44449
     44450     44451     44452     44453     44450     44452     44452     44454
     44452     44455     44450     44456     44450     44457     44450     44458
     44452     44459     44452     44460     44461     44462     44463     44464
     44461     44463     44463     44465     44463     44466     44461     44467
     44461     44468     44461     44469     44463     44470     44463     44471
     44472     44473     44474     44475     44472     44474     44474     44476
     44474     44477     44472     44478     44472     44479     44472     44480
     44474     44481     44474     44482     44483     44484     44485     44486
     44483     44485     44485     44487     44485     44488     44483     44489
     44483     44490     44483     44491     44485     44492     44485     44493
     44494     44495     44496     44497     44494     44496     44496     44498
     44496     44499     44494     44500     44494     44501     44494     44502
     44496     44503     44496     44504     44505     44506     44507     44508
     44505     44507     44507     44509     44507     44510     44505     44511
     44505     44512     44505     44513     44507     44514     44507     44515
     44516     44517     44518     44519     44516     44518     44518     44520
     44518     44521     44516     44522     44516     44523     44516     44524
     44518     44525     44518     44526     44527     44528     44529     44530
     44527     44529     44529     44531     44529     44532     44527     44533
     44527     44534     44527     44535     44529     44536     44529     44537
     44538     44539     44540     44541     44538     44540     44540     44542
     44540     44543     44538     44544     44538     44545     44538     44546
     44540     44547     44540     44548     44549     44550     44551     44552
     44549     44551     44551     44553     44551     44554     44549     44555
     44549     44556     44549     44557     44551     44558     44551     44559
     44560     44561     44562     44563     44560     44562     44562     44564
     44562     44565     44560     44566     44560     44567     44560     44568
     44562     44569     44562     44570     44571     44572     44573     44574
     44571     44573     44573     44575     44573     44576     44571     44577
     44571     44578     44571     44579     44573     44580     44573     44581
     44582     44583     44584     44585     44582     44584     44584     44586
     44584     44587     44582     44588     44582     44589     44582     44590
     44584     44591     44584     44592     44593     44594     44595     44596
     44593     44595     44595     44597     44595     44598     44593     44599
     44593     44600     44593     44601     44595     44602     44595     44603
     44604     44605     44606     44607     44604     44606     44606     44608
     44606     44609     44604     44610     44604     44611     44604     44612
     44606     44613     44606     44614     44615     44616     44617     44618
     44615     44617     44617     44619     44617     44620     44615     44621
     44615     44622     44615     44623     44617     44624     44617     44625
     44626     44627     44628     44629     44626     44628     44628     44630
     44628     44631     44626     44632     44626     44633     44626     44634
     44628     44635     44628     44636     44637     44638     44639     44640
     44637     44639     44639     44641     44639     44642     44637     44643
     44637     44644     44637     44645     44639     44646     44639     44647
     44648     44649     44650     44651     44648     44650     44650     44652
     44650     44653     44648     44654     44648     44655     44648     44656
     44650     44657     44650     44658     44659     44660     44661     44662
     44659     44661     44661     44663     44661     44664     44659     44665
     44659     44666     44659     44667     44661     44668     44661     44669
     44670     44671     44672     44673     44670     44672     44672     44674
     44672     44675     44670     44676     44670     44677     44670     44678
     44672     44679     44672     44680     44681     44682     44683     44684
     44681     44683     44683     44685     44683     44686     44681     44687
     44681     44688     44681     44689     44683     44690     44683     44691
     44692     44693     44694     44695     44692     44694     44694     44696
     44694     44697     44692     44698     44692     44699     44692     44700
     44694     44701     44694     44702     44703     44704     44705     44706
     44703     44705     44705     44707     44705     44708     44703     44709
     44703     44710     44703     44711     44705     44712     44705     44713
     44714     44715     44716     44717     44714     44716     44716     44718
     44716     44719     44714     44720     44714     44721     44714     44722
     44716     44723     44716     44724     44725     44726     44727     44728
     44725     44727     44727     44729     44727     44730     44725     44731
     44725     44732     44725     44733     44727     44734     44727     44735
     44736     44737     44738     44739     44736     44738     44738     44740
     44738     44741     44736     44742     44736     44743     44736     44744
     44738     44745     44738     44746     44747     44748     44749     44750
     44747     44749     44749     44751     44749     44752     44747     44753
     44747     44754     44747     44755     44749     44756     44749     44757
     44758     44759     44760     44761     44758     44760     44760     44762
     44760     44763     44758     44764     44758     44765     44758     44766
     44760     44767     44760     44768     44769     44770     44771     44772
     44769     44771     44771     44773     44771     44774     44769     44775
     44769     44776     44769     44777     44771     44778     44771     44779
     44780     44781     44782     44783     44780     44782     44782     44784
     44782     44785     44780     44786     44780     44787     44780     44788
     44782     44789     44782     44790     44791     44792     44793     44794
     44791     44793     44793     44795     44793     44796     44791     44797
     44791     44798     44791     44799     44793     44800     44793     44801
     44802     44803     44804     44805     44802     44804     44804     44806
     44804     44807     44802     44808     44802     44809     44802     44810
     44804     44811     44804     44812     44813     44814     44815     44816
     44813     44815     44815     44817     44815     44818     44813     44819
     44813     44820     44813     44821     44815     44822     44815     44823
     44824     44825     44826     44827     44824     44826     44826     44828
     44826     44829     44824     44830     44824     44831     44824     44832
     44826     44833     44826     44834     44835     44836     44837     44838
     44835     44837     44837     44839     44837     44840     44835     44841
     44835     44842     44835     44843     44837     44844     44837     44845
     44846     44847     44848     44849     44846     44848     44848     44850
     44848     44851     44846     44852     44846     44853     44846     44854
     44848     44855     44848     44856     44857     44858     44859     44860
     44857     44859     44859     44861     44859     44862     44857     44863
     44857     44864     44857     44865     44859     44866     44859     44867
     44868     44869     44870     44871     44868     44870     44870     44872
     44870     44873     44868     44874     44868     44875     44868     44876
     44870     44877     44870     44878     44879     44880     44881     44882
     44879     44881     44881     44883     44881     44884     44879     44885
     44879     44886     44879     44887     44881     44888     44881     44889
     44890     44891     44892     44893     44890     44892     44892     44894
     44892     44895     44890     44896     44890     44897     44890     44898
     44892     44899     44892     44900     44901     44902     44903     44904
     44901     44903     44903     44905     44903     44906     44901     44907
     44901     44908     44901     44909     44903     44910     44903     44911
     44912     44913     44914     44915     44912     44914     44914     44916
     44914     44917     44912     44918     44912     44919     44912     44920
     44914     44921     44914     44922     44923     44924     44925     44926
     44923     44925     44925     44927     44925     44928     44923     44929
     44923     44930     44923     44931     44925     44932     44925     44933
     44934     44935     44936     44937     44934     44936     44936     44938
     44936     44939     44934     44940     44934     44941     44934     44942
     44936     44943     44936     44944     44945     44946     44947     44948
     44945     44947     44947     44949     44947     44950     44945     44951
     44945     44952     44945     44953     44947     44954     44947     44955
     44956     44957     44958     44959     44956     44958     44958     44960
     44958     44961     44956     44962     44956     44963     44956     44964
     44958     44965     44958     44966     44967     44968     44969     44970
     44967     44969     44969     44971     44969     44972     44967     44973
     44967     44974     44967     44975     44969     44976     44969     44977
     44978     44979     44980     44981     44978     44980     44980     44982
     44980     44983     44978     44984     44978     44985     44978     44986
     44980     44987     44980     44988     44989     44990     44991     44992
     44989     44991     44991     44993     44991     44994     44989     44995
     44989     44996     44989     44997     44991     44998     44991     44999
     45000     45001     45002     45003     45000     45002     45002     45004
     45002     45005     45000     45006     45000     45007     45000     45008
     45002     45009     45002     45010     45011     45012     45013     45014
     45011     45013     45013     45015     45013     45016     45011     45017
     45011     45018     45011     45019     45013     45020     45013     45021
     45022     45023     45024     45025     45022     45024     45024     45026
     45024     45027     45022     45028     45022     45029     45022     45030
     45024     45031     45024     45032     45033     45034     45035     45036
     45033     45035     45035     45037     45035     45038     45033     45039
     45033     45040     45033     45041     45035     45042     45035     45043
     45044     45045     45046     45047     45044     45046     45046     45048
     45046     45049     45044     45050     45044     45051     45044     45052
     45046     45053     45046     45054     45055     45056     45057     45058
     45055     45057     45057     45059     45057     45060     45055     45061
     45055     45062     45055     45063     45057     45064     45057     45065
     45066     45067     45068     45069     45066     45068     45068     45070
     45068     45071     45066     45072     45066     45073     45066     45074
     45068     45075     45068     45076     45077     45078     45079     45080
     45077     45079     45079     45081     45079     45082     45077     45083
     45077     45084     45077     45085     45079     45086     45079     45087
     45088     45089     45090     45091     45088     45090     45090     45092
     45090     45093     45088     45094     45088     45095     45088     45096
     45090     45097     45090     45098     45099     45100     45101     45102
     45099     45101     45101     45103     45101     45104     45099     45105
     45099     45106     45099     45107     45101     45108     45101     45109
     45110     45111     45112     45113     45110     45112     45112     45114
     45112     45115     45110     45116     45110     45117     45110     45118
     45112     45119     45112     45120     45121     45122     45123     45124
     45121     45123     45123     45125     45123     45126     45121     45127
     45121     45128     45121     45129     45123     45130     45123     45131
     45132     45133     45134     45135     45132     45134     45134     45136
     45134     45137     45132     45138     45132     45139     45132     45140
     45134     45141     45134     45142     45143     45144     45145     45146
     45143     45145     45145     45147     45145     45148     45143     45149
     45143     45150     45143     45151     45145     45152     45145     45153
     45154     45155     45156     45157     45154     45156     45156     45158
     45156     45159     45154     45160     45154     45161     45154     45162
     45156     45163     45156     45164     45165     45166     45167     45168
     45165     45167     45167     45169     45167     45170     45165     45171
     45165     45172     45165     45173     45167     45174     45167     45175
     45176     45177     45178     45179     45176     45178     45178     45180
     45178     45181     45176     45182     45176     45183     45176     45184
     45178     45185     45178     45186     45187     45188     45189     45190
     45187     45189     45189     45191     45189     45192     45187     45193
     45187     45194     45187     45195     45189     45196     45189     45197
     45198     45199     45200     45201     45198     45200     45200     45202
     45200     45203     45198     45204     45198     45205     45198     45206
     45200     45207     45200     45208     45209     45210     45211     45212
     45209     45211     45211     45213     45211     45214     45209     45215
     45209     45216     45209     45217     45211     45218     45211     45219
     45220     45221     45222     45223     45220     45222     45222     45224
     45222     45225     45220     45226     45220     45227     45220     45228
     45222     45229     45222     45230     45231     45232     45233     45234
     45231     45233     45233     45235     45233     45236     45231     45237
     45231     45238     45231     45239     45233     45240     45233     45241
     45242     45243     45244     45245     45242     45244     45244     45246
     45244     45247     45242     45248     45242     45249     45242     45250
     45244     45251     45244     45252     45253     45254     45255     45256
     45253     45255     45255     45257     45255     45258     45253     45259
     45253     45260     45253     45261     45255     45262     45255     45263
     45264     45265     45266     45267     45264     45266     45266     45268
     45266     45269     45264     45270     45264     45271     45264     45272
     45266     45273     45266     45274     45275     45276     45277     45278
     45275     45277     45277     45279     45277     45280     45275     45281
     45275     45282     45275     45283     45277     45284     45277     45285
     45286     45287     45288     45289     45286     45288     45288     45290
     45288     45291     45286     45292     45286     45293     45286     45294
     45288     45295     45288     45296     45297     45298     45299     45300
     45297     45299     45299     45301     45299     45302     45297     45303
     45297     45304     45297     45305     45299     45306     45299     45307
     45308     45309     45310     45311     45308     45310     45310     45312
     45310     45313     45308     45314     45308     45315     45308     45316
     45310     45317     45310     45318     45319     45320     45321     45322
     45319     45321     45321     45323     45321     45324     45319     45325
     45319     45326     45319     45327     45321     45328     45321     45329
     45330     45331     45332     45333     45330     45332     45332     45334
     45332     45335     45330     45336     45330     45337     45330     45338
     45332     45339     45332     45340     45341     45342     45343     45344
     45341     45343     45343     45345     45343     45346     45341     45347
     45341     45348     45341     45349     45343     45350     45343     45351
     45352     45353     45354     45355     45352     45354     45354     45356
     45354     45357     45352     45358     45352     45359     45352     45360
     45354     45361     45354     45362     45363     45364     45365     45366
     45363     45365     45365     45367     45365     45368     45363     45369
     45363     45370     45363     45371     45365     45372     45365     45373
     45374     45375     45376     45377     45374     45376     45376     45378
     45376     45379     45374     45380     45374     45381     45374     45382
     45376     45383     45376     45384     45385     45386     45387     45388
     45385     45387     45387     45389     45387     45390     45385     45391
     45385     45392     45385     45393     45387     45394     45387     45395
     45396     45397     45398     45399     45396     45398     45398     45400
     45398     45401     45396     45402     45396     45403     45396     45404
     45398     45405     45398     45406     45407     45408     45409     45410
     45407     45409     45409     45411     45409     45412     45407     45413
     45407     45414     45407     45415     45409     45416     45409     45417
     45418     45419     45420     45421     45418     45420     45420     45422
     45420     45423     45418     45424     45418     45425     45418     45426
     45420     45427     45420     45428     45429     45430     45431     45432
     45429     45431     45431     45433     45431     45434     45429     45435
     45429     45436     45429     45437     45431     45438     45431     45439
     45440     45441     45442     45443     45440     45442     45442     45444
     45442     45445     45440     45446     45440     45447     45440     45448
     45442     45449     45442     45450     45451     45452     45453     45454
     45451     45453     45453     45455     45453     45456     45451     45457
     45451     45458     45451     45459     45453     45460     45453     45461
     45462     45463     45464     45465     45462     45464     45464     45466
     45464     45467     45462     45468     45462     45469     45462     45470
     45464     45471     45464     45472     45473     45474     45475     45476
     45473     45475     45475     45477     45475     45478     45473     45479
     45473     45480     45473     45481     45475     45482     45475     45483
     45484     45485     45486     45487     45484     45486     45486     45488
     45486     45489     45484     45490     45484     45491     45484     45492
     45486     45493     45486     45494     45495     45496     45497     45498
     45495     45497     45497     45499     45497     45500     45495     45501
     45495     45502     45495     45503     45497     45504     45497     45505
     45506     45507     45508     45509     45506     45508     45508     45510
     45508     45511     45506     45512     45506     45513     45506     45514
     45508     45515     45508     45516     45517     45518     45519     45520
     45517     45519     45519     45521     45519     45522     45517     45523
     45517     45524     45517     45525     45519     45526     45519     45527
     45528     45529     45530     45531     45528     45530     45530     45532
     45530     45533     45528     45534     45528     45535     45528     45536
     45530     45537     45530     45538     45539     45540     45541     45542
     45539     45541     45541     45543     45541     45544     45539     45545
     45539     45546     45539     45547     45541     45548     45541     45549
     45550     45551     45552     45553     45550     45552     45552     45554
     45552     45555     45550     45556     45550     45557     45550     45558
     45552     45559     45552     45560     45561     45562     45563     45564
     45561     45563     45563     45565     45563     45566     45561     45567
     45561     45568     45561     45569     45563     45570     45563     45571
     45572     45573     45574     45575     45572     45574     45574     45576
     45574     45577     45572     45578     45572     45579     45572     45580
     45574     45581     45574     45582     45583     45584     45585     45586
     45583     45585     45585     45587     45585     45588     45583     45589
     45583     45590     45583     45591     45585     45592     45585     45593
     45594     45595     45596     45597     45594     45596     45596     45598
     45596     45599     45594     45600     45594     45601     45594     45602
     45596     45603     45596     45604     45605     45606     45607     45608
     45605     45607     45607     45609     45607     45610     45605     45611
     45605     45612     45605     45613     45607     45614     45607     45615
     45616     45617     45618     45619     45616     45618     45618     45620
     45618     45621     45616     45622     45616     45623     45616     45624
     45618     45625     45618     45626     45627     45628     45629     45630
     45627     45629     45629     45631     45629     45632     45627     45633
     45627     45634     45627     45635     45629     45636     45629     45637
     45638     45639     45640     45641     45638     45640     45640     45642
     45640     45643     45638     45644     45638     45645     45638     45646
     45640     45647     45640     45648     45649     45650     45651     45652
     45649     45651     45651     45653     45651     45654     45649     45655
     45649     45656     45649     45657     45651     45658     45651     45659
     45660     45661     45662     45663     45660     45662     45662     45664
     45662     45665     45660     45666     45660     45667     45660     45668
     45662     45669     45662     45670     45671     45672     45673     45674
     45671     45673     45673     45675     45673     45676     45671     45677
     45671     45678     45671     45679     45673     45680     45673     45681
     45682     45683     45684     45685     45682     45684     45684     45686
     45684     45687     45682     45688     45682     45689     45682     45690
     45684     45691     45684     45692     45693     45694     45695     45696
     45693     45695     45695     45697     45695     45698     45693     45699
     45693     45700     45693     45701     45695     45702     45695     45703
     45704     45705     45706     45707     45704     45706     45706     45708
     45706     45709     45704     45710     45704     45711     45704     45712
     45706     45713     45706     45714     45715     45716     45717     45718
     45715     45717     45717     45719     45717     45720     45715     45721
     45715     45722     45715     45723     45717     45724     45717     45725
     45726     45727     45728     45729     45726     45728     45728     45730
     45728     45731     45726     45732     45726     45733     45726     45734
     45728     45735     45728     45736     45737     45738     45739     45740
     45737     45739     45739     45741     45739     45742     45737     45743
     45737     45744     45737     45745     45739     45746     45739     45747
     45748     45749     45750     45751     45748     45750     45750     45752
     45750     45753     45748     45754     45748     45755     45748     45756
     45750     45757     45750     45758     45759     45760     45761     45762
     45759     45761     45761     45763     45761     45764     45759     45765
     45759     45766     45759     45767     45761     45768     45761     45769
     45770     45771     45772     45773     45770     45772     45772     45774
     45772     45775     45770     45776     45770     45777     45770     45778
     45772     45779     45772     45780     45781     45782     45783     45784
     45781     45783     45783     45785     45783     45786     45781     45787
     45781     45788     45781     45789     45783     45790     45783     45791
     45792     45793     45794     45795     45792     45794     45794     45796
     45794     45797     45792     45798     45792     45799     45792     45800
     45794     45801     45794     45802     45803     45804     45805     45806
     45803     45805     45805     45807     45805     45808     45803     45809
     45803     45810     45803     45811     45805     45812     45805     45813
     45814     45815     45816     45817     45814     45816     45816     45818
     45816     45819     45814     45820     45814     45821     45814     45822
     45816     45823     45816     45824     45825     45826     45827     45828
     45825     45827     45827     45829     45827     45830     45825     45831
     45825     45832     45825     45833     45827     45834     45827     45835
     45836     45837     45838     45839     45836     45838     45838     45840
     45838     45841     45836     45842     45836     45843     45836     45844
     45838     45845     45838     45846     45847     45848     45849     45850
     45847     45849     45849     45851     45849     45852     45847     45853
     45847     45854     45847     45855     45849     45856     45849     45857
     45858     45859     45860     45861     45858     45860     45860     45862
     45860     45863     45858     45864     45858     45865     45858     45866
     45860     45867     45860     45868     45869     45870     45871     45872
     45869     45871     45871     45873     45871     45874     45869     45875
     45869     45876     45869     45877     45871     45878     45871     45879
     45880     45881     45882     45883     45880     45882     45882     45884
     45882     45885     45880     45886     45880     45887     45880     45888
     45882     45889     45882     45890     45891     45892     45893     45894
     45891     45893     45893     45895     45893     45896     45891     45897
     45891     45898     45891     45899     45893     45900     45893     45901
     45902     45903     45904     45905     45902     45904     45904     45906
     45904     45907     45902     45908     45902     45909     45902     45910
     45904     45911     45904     45912     45913     45914     45915     45916
     45913     45915     45915     45917     45915     45918     45913     45919
     45913     45920     45913     45921     45915     45922     45915     45923
     45924     45925     45926     45927     45924     45926     45926     45928
     45926     45929     45924     45930     45924     45931     45924     45932
     45926     45933     45926     45934     45935     45936     45937     45938
     45935     45937     45937     45939     45937     45940     45935     45941
     45935     45942     45935     45943     45937     45944     45937     45945
     45946     45947     45948     45949     45946     45948     45948     45950
     45948     45951     45946     45952     45946     45953     45946     45954
     45948     45955     45948     45956     45957     45958     45959     45960
     45957     45959     45959     45961     45959     45962     45957     45963
     45957     45964     45957     45965     45959     45966     45959     45967
     45968     45969     45970     45971     45968     45970     45970     45972
     45970     45973     45968     45974     45968     45975     45968     45976
     45970     45977     45970     45978     45979     45980     45981     45982
     45979     45981     45981     45983     45981     45984     45979     45985
     45979     45986     45979     45987     45981     45988     45981     45989
     45990     45991     45992     45993     45990     45992     45992     45994
     45992     45995     45990     45996     45990     45997     45990     45998
     45992     45999     45992     46000     46001     46002     46003     46004
     46001     46003     46003     46005     46003     46006     46001     46007
     46001     46008     46001     46009     46003     46010     46003     46011
     46012     46013     46014     46015     46012     46014     46014     46016
     46014     46017     46012     46018     46012     46019     46012     46020
     46014     46021     46014     46022     46023     46024     46025     46026
     46023     46025     46025     46027     46025     46028     46023     46029
     46023     46030     46023     46031     46025     46032     46025     46033
     46034     46035     46036     46037     46034     46036     46036     46038
     46036     46039     46034     46040     46034     46041     46034     46042
     46036     46043     46036     46044     46045     46046     46047     46048
     46045     46047     46047     46049     46047     46050     46045     46051
     46045     46052     46045     46053     46047     46054     46047     46055
     46056     46057     46058     46059     46056     46058     46058     46060
     46058     46061     46056     46062     46056     46063     46056     46064
     46058     46065     46058     46066     46067     46068     46069     46070
     46067     46069     46069     46071     46069     46072     46067     46073
     46067     46074     46067     46075     46069     46076     46069     46077
     46078     46079     46080     46081     46078     46080     46080     46082
     46080     46083     46078     46084     46078     46085     46078     46086
     46080     46087     46080     46088     46089     46090     46091     46092
     46089     46091     46091     46093     46091     46094     46089     46095
     46089     46096     46089     46097     46091     46098     46091     46099
     46100     46101     46102     46103     46100     46102     46102     46104
     46102     46105     46100     46106     46100     46107     46100     46108
     46102     46109     46102     46110     46111     46112     46113     46114
     46111     46113     46113     46115     46113     46116     46111     46117
     46111     46118     46111     46119     46113     46120     46113     46121
     46122     46123     46124     46125     46122     46124     46124     46126
     46124     46127     46122     46128     46122     46129     46122     46130
     46124     46131     46124     46132     46133     46134     46135     46136
     46133     46135     46135     46137     46135     46138     46133     46139
     46133     46140     46133     46141     46135     46142     46135     46143
     46144     46145     46146     46147     46144     46146     46146     46148
     46146     46149     46144     46150     46144     46151     46144     46152
     46146     46153     46146     46154     46155     46156     46157     46158
     46155     46157     46157     46159     46157     46160     46155     46161
     46155     46162     46155     46163     46157     46164     46157     46165
     46166     46167     46168     46169     46166     46168     46168     46170
     46168     46171     46166     46172     46166     46173     46166     46174
     46168     46175     46168     46176     46177     46178     46179     46180
     46177     46179     46179     46181     46179     46182     46177     46183
     46177     46184     46177     46185     46179     46186     46179     46187
     46188     46189     46190     46191     46188     46190     46190     46192
     46190     46193     46188     46194     46188     46195     46188     46196
     46190     46197     46190     46198     46199     46200     46201     46202
     46199     46201     46201     46203     46201     46204     46199     46205
     46199     46206     46199     46207     46201     46208     46201     46209
     46210     46211     46212     46213     46210     46212     46212     46214
     46212     46215     46210     46216     46210     46217     46210     46218
     46212     46219     46212     46220     46221     46222     46223     46224
     46221     46223     46223     46225     46223     46226     46221     46227
     46221     46228     46221     46229     46223     46230     46223     46231
     46232     46233     46234     46235     46232     46234     46234     46236
     46234     46237     46232     46238     46232     46239     46232     46240
     46234     46241     46234     46242     46243     46244     46245     46246
     46243     46245     46245     46247     46245     46248     46243     46249
     46243     46250     46243     46251     46245     46252     46245     46253
     46254     46255     46256     46257     46254     46256     46256     46258
     46256     46259     46254     46260     46254     46261     46254     46262
     46256     46263     46256     46264     46265     46266     46267     46268
     46265     46267     46267     46269     46267     46270     46265     46271
     46265     46272     46265     46273     46267     46274     46267     46275
     46276     46277     46278     46279     46276     46278     46278     46280
     46278     46281     46276     46282     46276     46283     46276     46284
     46278     46285     46278     46286     46287     46288     46289     46290
     46287     46289     46289     46291     46289     46292     46287     46293
     46287     46294     46287     46295     46289     46296     46289     46297
     46298     46299     46300     46301     46298     46300     46300     46302
     46300     46303     46298     46304     46298     46305     46298     46306
     46300     46307     46300     46308     46309     46310     46311     46312
     46309     46311     46311     46313     46311     46314     46309     46315
     46309     46316     46309     46317     46311     46318     46311     46319
     46320     46321     46322     46323     46320     46322     46322     46324
     46322     46325     46320     46326     46320     46327     46320     46328
     46322     46329     46322     46330     46331     46332     46333     46334
     46331     46333     46333     46335     46333     46336     46331     46337
     46331     46338     46331     46339     46333     46340     46333     46341
     46342     46343     46344     46345     46342     46344     46344     46346
     46344     46347     46342     46348     46342     46349     46342     46350
     46344     46351     46344     46352     46353     46354     46355     46356
     46353     46355     46355     46357     46355     46358     46353     46359
     46353     46360     46353     46361     46355     46362     46355     46363
     46364     46365     46366     46367     46364     46366     46366     46368
     46366     46369     46364     46370     46364     46371     46364     46372
     46366     46373     46366     46374     46375     46376     46377     46378
     46375     46377     46377     46379     46377     46380     46375     46381
     46375     46382     46375     46383     46377     46384     46377     46385
     46386     46387     46388     46389     46386     46388     46388     46390
     46388     46391     46386     46392     46386     46393     46386     46394
     46388     46395     46388     46396     46397     46398     46399     46400
     46397     46399     46399     46401     46399     46402     46397     46403
     46397     46404     46397     46405     46399     46406     46399     46407
     46408     46409     46410     46411     46408     46410     46410     46412
     46410     46413     46408     46414     46408     46415     46408     46416
     46410     46417     46410     46418     46419     46420     46421     46422
     46419     46421     46421     46423     46421     46424     46419     46425
     46419     46426     46419     46427     46421     46428     46421     46429
     46430     46431     46432     46433     46430     46432     46432     46434
     46432     46435     46430     46436     46430     46437     46430     46438
     46432     46439     46432     46440     46441     46442     46443     46444
     46441     46443     46443     46445     46443     46446     46441     46447
     46441     46448     46441     46449     46443     46450     46443     46451
     46452     46453     46454     46455     46452     46454     46454     46456
     46454     46457     46452     46458     46452     46459     46452     46460
     46454     46461     46454     46462     46463     46464     46465     46466
     46463     46465     46465     46467     46465     46468     46463     46469
     46463     46470     46463     46471     46465     46472     46465     46473
     46474     46475     46476     46477     46474     46476     46476     46478
     46476     46479     46474     46480     46474     46481     46474     46482
     46476     46483     46476     46484     46485     46486     46487     46488
     46485     46487     46487     46489     46487     46490     46485     46491
     46485     46492     46485     46493     46487     46494     46487     46495
     46496     46497     46498     46499     46496     46498     46498     46500
     46498     46501     46496     46502     46496     46503     46496     46504
     46498     46505     46498     46506     46507     46508     46509     46510
     46507     46509     46509     46511     46509     46512     46507     46513
     46507     46514     46507     46515     46509     46516     46509     46517
     46518     46519     46520     46521     46518     46520     46520     46522
     46520     46523     46518     46524     46518     46525     46518     46526
     46520     46527     46520     46528     46529     46530     46531     46532
     46529     46531     46531     46533     46531     46534     46529     46535
     46529     46536     46529     46537     46531     46538     46531     46539
     46540     46541     46542     46543     46540     46542     46542     46544
     46542     46545     46540     46546     46540     46547     46540     46548
     46542     46549     46542     46550     46551     46552     46553     46554
     46551     46553     46553     46555     46553     46556     46551     46557
     46551     46558     46551     46559     46553     46560     46553     46561
     46562     46563     46564     46565     46562     46564     46564     46566
     46564     46567     46562     46568     46562     46569     46562     46570
     46564     46571     46564     46572     46573     46574     46575     46576
     46573     46575     46575     46577     46575     46578     46573     46579
     46573     46580     46573     46581     46575     46582     46575     46583
     46584     46585     46586     46587     46584     46586     46586     46588
     46586     46589     46584     46590     46584     46591     46584     46592
     46586     46593     46586     46594     46595     46596     46597     46598
     46595     46597     46597     46599     46597     46600     46595     46601
     46595     46602     46595     46603     46597     46604     46597     46605
     46606     46607     46608     46609     46606     46608     46608     46610
     46608     46611     46606     46612     46606     46613     46606     46614
     46608     46615     46608     46616     46617     46618     46619     46620
     46617     46619     46619     46621     46619     46622     46617     46623
     46617     46624     46617     46625     46619     46626     46619     46627
     46628     46629     46630     46631     46628     46630     46630     46632
     46630     46633     46628     46634     46628     46635     46628     46636
     46630     46637     46630     46638     46639     46640     46641     46642
     46639     46641     46641     46643     46641     46644     46639     46645
     46639     46646     46639     46647     46641     46648     46641     46649
     46650     46651     46652     46653     46650     46652     46652     46654
     46652     46655     46650     46656     46650     46657     46650     46658
     46652     46659     46652     46660     46661     46662     46663     46664
     46661     46663     46663     46665     46663     46666     46661     46667
     46661     46668     46661     46669     46663     46670     46663     46671
     46672     46673     46674     46675     46672     46674     46674     46676
     46674     46677     46672     46678     46672     46679     46672     46680
     46674     46681     46674     46682     46683     46684     46685     46686
     46683     46685     46685     46687     46685     46688     46683     46689
     46683     46690     46683     46691     46685     46692     46685     46693
     46694     46695     46696     46697     46694     46696     46696     46698
     46696     46699     46694     46700     46694     46701     46694     46702
     46696     46703     46696     46704     46705     46706     46707     46708
     46705     46707     46707     46709     46707     46710     46705     46711
     46705     46712     46705     46713     46707     46714     46707     46715
     46716     46717     46718     46719     46716     46718     46718     46720
     46718     46721     46716     46722     46716     46723     46716     46724
     46718     46725     46718     46726     46727     46728     46729     46730
     46727     46729     46729     46731     46729     46732     46727     46733
     46727     46734     46727     46735     46729     46736     46729     46737
     46738     46739     46740     46741     46738     46740     46740     46742
     46740     46743     46738     46744     46738     46745     46738     46746
     46740     46747     46740     46748     46749     46750     46751     46752
     46749     46751     46751     46753     46751     46754     46749     46755
     46749     46756     46749     46757     46751     46758     46751     46759
     46760     46761     46762     46763     46760     46762     46762     46764
     46762     46765     46760     46766     46760     46767     46760     46768
     46762     46769     46762     46770     46771     46772     46773     46774
     46771     46773     46773     46775     46773     46776     46771     46777
     46771     46778     46771     46779     46773     46780     46773     46781
     46782     46783     46784     46785     46782     46784     46784     46786
     46784     46787     46782     46788     46782     46789     46782     46790
     46784     46791     46784     46792     46793     46794     46795     46796
     46793     46795     46795     46797     46795     46798     46793     46799
     46793     46800     46793     46801     46795     46802     46795     46803
     46804     46805     46806     46807     46804     46806     46806     46808
     46806     46809     46804     46810     46804     46811     46804     46812
     46806     46813     46806     46814     46815     46816     46817     46818
     46815     46817     46817     46819     46817     46820     46815     46821
     46815     46822     46815     46823     46817     46824     46817     46825
     46826     46827     46828     46829     46826     46828     46828     46830
     46828     46831     46826     46832     46826     46833     46826     46834
     46828     46835     46828     46836     46837     46838     46839     46840
     46837     46839     46839     46841     46839     46842     46837     46843
     46837     46844     46837     46845     46839     46846     46839     46847
     46848     46849     46850     46851     46848     46850     46850     46852
     46850     46853     46848     46854     46848     46855     46848     46856
     46850     46857     46850     46858     46859     46860     46861     46862
     46859     46861     46861     46863     46861     46864     46859     46865
     46859     46866     46859     46867     46861     46868     46861     46869
     46870     46871     46872     46873     46870     46872     46872     46874
     46872     46875     46870     46876     46870     46877     46870     46878
     46872     46879     46872     46880     46881     46882     46883     46884
     46881     46883     46883     46885     46883     46886     46881     46887
     46881     46888     46881     46889     46883     46890     46883     46891
     46892     46893     46894     46895     46892     46894     46894     46896
     46894     46897     46892     46898     46892     46899     46892     46900
     46894     46901     46894     46902     46903     46904     46905     46906
     46903     46905     46905     46907     46905     46908     46903     46909
     46903     46910     46903     46911     46905     46912     46905     46913
     46914     46915     46916     46917     46914     46916     46916     46918
     46916     46919     46914     46920     46914     46921     46914     46922
     46916     46923     46916     46924     46925     46926     46927     46928
     46925     46927     46927     46929     46927     46930     46925     46931
     46925     46932     46925     46933     46927     46934     46927     46935
     46936     46937     46938     46939     46936     46938     46938     46940
     46938     46941     46936     46942     46936     46943     46936     46944
     46938     46945     46938     46946     46947     46948     46949     46950
     46947     46949     46949     46951     46949     46952     46947     46953
     46947     46954     46947     46955     46949     46956     46949     46957
     46958     46959     46960     46961     46958     46960     46960     46962
     46960     46963     46958     46964     46958     46965     46958     46966
     46960     46967     46960     46968     46969     46970     46971     46972
     46969     46971     46971     46973     46971     46974     46969     46975
     46969     46976     46969     46977     46971     46978     46971     46979
     46980     46981     46982     46983     46980     46982     46982     46984
     46982     46985     46980     46986     46980     46987     46980     46988
     46982     46989     46982     46990     46991     46992     46993     46994
     46991     46993     46993     46995     46993     46996     46991     46997
     46991     46998     46991     46999     46993     47000     46993     47001
     47002     47003     47004     47005     47002     47004     47004     47006
     47004     47007     47002     47008     47002     47009     47002     47010
     47004     47011     47004     47012     47013     47014     47015     47016
     47013     47015     47015     47017     47015     47018     47013     47019
     47013     47020     47013     47021     47015     47022     47015     47023
     47024     47025     47026     47027     47024     47026     47026     47028
     47026     47029     47024     47030     47024     47031     47024     47032
     47026     47033     47026     47034     47035     47036     47037     47038
     47035     47037     47037     47039     47037     47040     47035     47041
     47035     47042     47035     47043     47037     47044     47037     47045
     47046     47047     47048     47049     47046     47048     47048     47050
     47048     47051     47046     47052     47046     47053     47046     47054
     47048     47055     47048     47056     47057     47058     47059     47060
     47057     47059     47059     47061     47059     47062     47057     47063
     47057     47064     47057     47065     47059     47066     47059     47067
     47068     47069     47070     47071     47068     47070     47070     47072
     47070     47073     47068     47074     47068     47075     47068     47076
     47070     47077     47070     47078     47079     47080     47081     47082
     47079     47081     47081     47083     47081     47084     47079     47085
     47079     47086     47079     47087     47081     47088     47081     47089
     47090     47091     47092     47093     47090     47092     47092     47094
     47092     47095     47090     47096     47090     47097     47090     47098
     47092     47099     47092     47100     47101     47102     47103     47104
     47101     47103     47103     47105     47103     47106     47101     47107
     47101     47108     47101     47109     47103     47110     47103     47111
     47112     47113     47114     47115     47112     47114     47114     47116
     47114     47117     47112     47118     47112     47119     47112     47120
     47114     47121     47114     47122     47123     47124     47125     47126
     47123     47125     47125     47127     47125     47128     47123     47129
     47123     47130     47123     47131     47125     47132     47125     47133
     47134     47135     47136     47137     47134     47136     47136     47138
     47136     47139     47134     47140     47134     47141     47134     47142
     47136     47143     47136     47144     47145     47146     47147     47148
     47145     47147     47147     47149     47147     47150     47145     47151
     47145     47152     47145     47153     47147     47154     47147     47155
     47156     47157     47158     47159     47156     47158     47158     47160
     47158     47161     47156     47162     47156     47163     47156     47164
     47158     47165     47158     47166     47167     47168     47169     47170
     47167     47169     47169     47171     47169     47172     47167     47173
     47167     47174     47167     47175     47169     47176     47169     47177
     47178     47179     47180     47181     47178     47180     47180     47182
     47180     47183     47178     47184     47178     47185     47178     47186
     47180     47187     47180     47188     47189     47190     47191     47192
     47189     47191     47191     47193     47191     47194     47189     47195
     47189     47196     47189     47197     47191     47198     47191     47199
     47200     47201     47202     47203     47200     47202     47202     47204
     47202     47205     47200     47206     47200     47207     47200     47208
     47202     47209     47202     47210     47211     47212     47213     47214
     47211     47213     47213     47215     47213     47216     47211     47217
     47211     47218     47211     47219     47213     47220     47213     47221
     47222     47223     47224     47225     47222     47224     47224     47226
     47224     47227     47222     47228     47222     47229     47222     47230
     47224     47231     47224     47232     47233     47234     47235     47236
     47233     47235     47235     47237     47235     47238     47233     47239
     47233     47240     47233     47241     47235     47242     47235     47243
     47244     47245     47246     47247     47244     47246     47246     47248
     47246     47249     47244     47250     47244     47251     47244     47252
     47246     47253     47246     47254     47255     47256     47257     47258
     47255     47257     47257     47259     47257     47260     47255     47261
     47255     47262     47255     47263     47257     47264     47257     47265
     47266     47267     47268     47269     47266     47268     47268     47270
     47268     47271     47266     47272     47266     47273     47266     47274
     47268     47275     47268     47276     47277     47278     47279     47280
     47277     47279     47279     47281     47279     47282     47277     47283
     47277     47284     47277     47285     47279     47286     47279     47287
     47288     47289     47290     47291     47288     47290     47290     47292
     47290     47293     47288     47294     47288     47295     47288     47296
     47290     47297     47290     47298     47299     47300     47301     47302
     47299     47301     47301     47303     47301     47304     47299     47305
     47299     47306     47299     47307     47301     47308     47301     47309
     47310     47311     47312     47313     47310     47312     47312     47314
     47312     47315     47310     47316     47310     47317     47310     47318
     47312     47319     47312     47320     47321     47322     47323     47324
     47321     47323     47323     47325     47323     47326     47321     47327
     47321     47328     47321     47329     47323     47330     47323     47331
     47332     47333     47334     47335     47332     47334     47334     47336
     47334     47337     47332     47338     47332     47339     47332     47340
     47334     47341     47334     47342     47343     47344     47345     47346
     47343     47345     47345     47347     47345     47348     47343     47349
     47343     47350     47343     47351     47345     47352     47345     47353
     47354     47355     47356     47357     47354     47356     47356     47358
     47356     47359     47354     47360     47354     47361     47354     47362
     47356     47363     47356     47364     47365     47366     47367     47368
     47365     47367     47367     47369     47367     47370     47365     47371
     47365     47372     47365     47373     47367     47374     47367     47375
     47376     47377     47378     47379     47376     47378     47378     47380
     47378     47381     47376     47382     47376     47383     47376     47384
     47378     47385     47378     47386     47387     47388     47389     47390
     47387     47389     47389     47391     47389     47392     47387     47393
     47387     47394     47387     47395     47389     47396     47389     47397
     47398     47399     47400     47401     47398     47400     47400     47402
     47400     47403     47398     47404     47398     47405     47398     47406
     47400     47407     47400     47408     47409     47410     47411     47412
     47409     47411     47411     47413     47411     47414     47409     47415
     47409     47416     47409     47417     47411     47418     47411     47419
     47420     47421     47422     47423     47420     47422     47422     47424
     47422     47425     47420     47426     47420     47427     47420     47428
     47422     47429     47422     47430     47431     47432     47433     47434
     47431     47433     47433     47435     47433     47436     47431     47437
     47431     47438     47431     47439     47433     47440     47433     47441
     47442     47443     47444     47445     47442     47444     47444     47446
     47444     47447     47442     47448     47442     47449     47442     47450
     47444     47451     47444     47452     47453     47454     47455     47456
     47453     47455     47455     47457     47455     47458     47453     47459
     47453     47460     47453     47461     47455     47462     47455     47463
     47464     47465     47466     47467     47464     47466     47466     47468
     47466     47469     47464     47470     47464     47471     47464     47472
     47466     47473     47466     47474     47475     47476     47477     47478
     47475     47477     47477     47479     47477     47480     47475     47481
     47475     47482     47475     47483     47477     47484     47477     47485
     47486     47487     47488     47489     47486     47488     47488     47490
     47488     47491     47486     47492     47486     47493     47486     47494
     47488     47495     47488     47496     47497     47498     47499     47500
     47497     47499     47499     47501     47499     47502     47497     47503
     47497     47504     47497     47505     47499     47506     47499     47507
     47508     47509     47510     47511     47508     47510     47510     47512
     47510     47513     47508     47514     47508     47515     47508     47516
     47510     47517     47510     47518     47519     47520     47521     47522
     47519     47521     47521     47523     47521     47524     47519     47525
     47519     47526     47519     47527     47521     47528     47521     47529
     47530     47531     47532     47533     47530     47532     47532     47534
     47532     47535     47530     47536     47530     47537     47530     47538
     47532     47539     47532     47540     47541     47542     47543     47544
     47541     47543     47543     47545     47543     47546     47541     47547
     47541     47548     47541     47549     47543     47550     47543     47551
     47552     47553     47554     47555     47552     47554     47554     47556
     47554     47557     47552     47558     47552     47559     47552     47560
     47554     47561     47554     47562     47563     47564     47565     47566
     47563     47565     47565     47567     47565     47568     47563     47569
     47563     47570     47563     47571     47565     47572     47565     47573
     47574     47575     47576     47577     47574     47576     47576     47578
     47576     47579     47574     47580     47574     47581     47574     47582
     47576     47583     47576     47584     47585     47586     47587     47588
     47585     47587     47587     47589     47587     47590     47585     47591
     47585     47592     47585     47593     47587     47594     47587     47595
     47596     47597     47598     47599     47596     47598     47598     47600
     47598     47601     47596     47602     47596     47603     47596     47604
     47598     47605     47598     47606     47607     47608     47609     47610
     47607     47609     47609     47611     47609     47612     47607     47613
     47607     47614     47607     47615     47609     47616     47609     47617
     47618     47619     47620     47621     47618     47620     47620     47622
     47620     47623     47618     47624     47618     47625     47618     47626
     47620     47627     47620     47628     47629     47630     47631     47632
     47629     47631     47631     47633     47631     47634     47629     47635
     47629     47636     47629     47637     47631     47638     47631     47639
     47640     47641     47642     47643     47640     47642     47642     47644
     47642     47645     47640     47646     47640     47647     47640     47648
     47642     47649     47642     47650     47651     47652     47653     47654
     47651     47653     47653     47655     47653     47656     47651     47657
     47651     47658     47651     47659     47653     47660     47653     47661
     47662     47663     47664     47665     47662     47664     47664     47666
     47664     47667     47662     47668     47662     47669     47662     47670
     47664     47671     47664     47672     47673     47674     47675     47676
     47673     47675     47675     47677     47675     47678     47673     47679
     47673     47680     47673     47681     47675     47682     47675     47683
     47684     47685     47686     47687     47684     47686     47686     47688
     47686     47689     47684     47690     47684     47691     47684     47692
     47686     47693     47686     47694     47695     47696     47697     47698
     47695     47697     47697     47699     47697     47700     47695     47701
     47695     47702     47695     47703     47697     47704     47697     47705
     47706     47707     47708     47709     47706     47708     47708     47710
     47708     47711     47706     47712     47706     47713     47706     47714
     47708     47715     47708     47716     47717     47718     47719     47720
     47717     47719     47719     47721     47719     47722     47717     47723
     47717     47724     47717     47725     47719     47726     47719     47727
     47728     47729     47730     47731     47728     47730     47730     47732
     47730     47733     47728     47734     47728     47735     47728     47736
     47730     47737     47730     47738     47739     47740     47741     47742
     47739     47741     47741     47743     47741     47744     47739     47745
     47739     47746     47739     47747     47741     47748     47741     47749
     47750     47751     47752     47753     47750     47752     47752     47754
     47752     47755     47750     47756     47750     47757     47750     47758
     47752     47759     47752     47760     47761     47762     47763     47764
     47761     47763     47763     47765     47763     47766     47761     47767
     47761     47768     47761     47769     47763     47770     47763     47771
     47772     47773     47774     47775     47772     47774     47774     47776
     47774     47777     47772     47778     47772     47779     47772     47780
     47774     47781     47774     47782     47783     47784     47785     47786
     47783     47785     47785     47787     47785     47788     47783     47789
     47783     47790     47783     47791     47785     47792     47785     47793
     47794     47795     47796     47797     47794     47796     47796     47798
     47796     47799     47794     47800     47794     47801     47794     47802
     47796     47803     47796     47804     47805     47806     47807     47808
     47805     47807     47807     47809     47807     47810     47805     47811
     47805     47812     47805     47813     47807     47814     47807     47815
     47816     47817     47818     47819     47816     47818     47818     47820
     47818     47821     47816     47822     47816     47823     47816     47824
     47818     47825     47818     47826     47827     47828     47829     47830
     47827     47829     47829     47831     47829     47832     47827     47833
     47827     47834     47827     47835     47829     47836     47829     47837
     47838     47839     47840     47841     47838     47840     47840     47842
     47840     47843     47838     47844     47838     47845     47838     47846
     47840     47847     47840     47848     47849     47850     47851     47852
     47849     47851     47851     47853     47851     47854     47849     47855
     47849     47856     47849     47857     47851     47858     47851     47859
     47860     47861     47862     47863     47860     47862     47862     47864
     47862     47865     47860     47866     47860     47867     47860     47868
     47862     47869     47862     47870     47871     47872     47873     47874
     47871     47873     47873     47875     47873     47876     47871     47877
     47871     47878     47871     47879     47873     47880     47873     47881
     47882     47883     47884     47885     47882     47884     47884     47886
     47884     47887     47882     47888     47882     47889     47882     47890
     47884     47891     47884     47892     47893     47894     47895     47896
     47893     47895     47895     47897     47895     47898     47893     47899
     47893     47900     47893     47901     47895     47902     47895     47903
     47904     47905     47906     47907     47904     47906     47906     47908
     47906     47909     47904     47910     47904     47911     47904     47912
     47906     47913     47906     47914     47915     47916     47917     47918
     47915     47917     47917     47919     47917     47920     47915     47921
     47915     47922     47915     47923     47917     47924     47917     47925
     47926     47927     47928     47929     47926     47928     47928     47930
     47928     47931     47926     47932     47926     47933     47926     47934
     47928     47935     47928     47936     47937     47938     47939     47940
     47937     47939     47939     47941     47939     47942     47937     47943
     47937     47944     47937     47945     47939     47946     47939     47947
     47948     47949     47950     47951     47948     47950     47950     47952
     47950     47953     47948     47954     47948     47955     47948     47956
     47950     47957     47950     47958     47959     47960     47961     47962
     47959     47961     47961     47963     47961     47964     47959     47965
     47959     47966     47959     47967     47961     47968     47961     47969
     47970     47971     47972     47973     47970     47972     47972     47974
     47972     47975     47970     47976     47970     47977     47970     47978
     47972     47979     47972     47980     47981     47982     47983     47984
     47981     47983     47983     47985     47983     47986     47981     47987
     47981     47988     47981     47989     47983     47990     47983     47991
     47992     47993     47994     47995     47992     47994     47994     47996
     47994     47997     47992     47998     47992     47999     47992     48000
     47994     48001     47994     48002     48003     48004     48005     48006
     48003     48005     48005     48007     48005     48008     48003     48009
     48003     48010     48003     48011     48005     48012     48005     48013
     48014     48015     48016     48017     48014     48016     48016     48018
     48016     48019     48014     48020     48014     48021     48014     48022
     48016     48023     48016     48024     48025     48026     48027     48028
     48025     48027     48027     48029     48027     48030     48025     48031
     48025     48032     48025     48033     48027     48034     48027     48035
     48036     48037     48038     48039     48036     48038     48038     48040
     48038     48041     48036     48042     48036     48043     48036     48044
     48038     48045     48038     48046     48047     48048     48049     48050
     48047     48049     48049     48051     48049     48052     48047     48053
     48047     48054     48047     48055     48049     48056     48049     48057
     48058     48059     48060     48061     48058     48060     48060     48062
     48060     48063     48058     48064     48058     48065     48058     48066
     48060     48067     48060     48068     48069     48070     48071     48072
     48069     48071     48071     48073     48071     48074     48069     48075
     48069     48076     48069     48077     48071     48078     48071     48079
     48080     48081     48082     48083     48080     48082     48082     48084
     48082     48085     48080     48086     48080     48087     48080     48088
     48082     48089     48082     48090     48091     48092     48093     48094
     48091     48093     48093     48095     48093     48096     48091     48097
     48091     48098     48091     48099     48093     48100     48093     48101
     48102     48103     48104     48105     48102     48104     48104     48106
     48104     48107     48102     48108     48102     48109     48102     48110
     48104     48111     48104     48112     48113     48114     48115     48116
     48113     48115     48115     48117     48115     48118     48113     48119
     48113     48120     48113     48121     48115     48122     48115     48123
     48124     48125     48126     48127     48124     48126     48126     48128
     48126     48129     48124     48130     48124     48131     48124     48132
     48126     48133     48126     48134     48135     48136     48137     48138
     48135     48137     48137     48139     48137     48140     48135     48141
     48135     48142     48135     48143     48137     48144     48137     48145
     48146     48147     48148     48149     48146     48148     48148     48150
     48148     48151     48146     48152     48146     48153     48146     48154
     48148     48155     48148     48156     48157     48158     48159     48160
     48157     48159     48159     48161     48159     48162     48157     48163
     48157     48164     48157     48165     48159     48166     48159     48167
     48168     48169     48170     48171     48168     48170     48170     48172
     48170     48173     48168     48174     48168     48175     48168     48176
     48170     48177     48170     48178     48179     48180     48181     48182
     48179     48181     48181     48183     48181     48184     48179     48185
     48179     48186     48179     48187     48181     48188     48181     48189
     48190     48191     48192     48193     48190     48192     48192     48194
     48192     48195     48190     48196     48190     48197     48190     48198
     48192     48199     48192     48200     48201     48202     48203     48204
     48201     48203     48203     48205     48203     48206     48201     48207
     48201     48208     48201     48209     48203     48210     48203     48211
     48212     48213     48214     48215     48212     48214     48214     48216
     48214     48217     48212     48218     48212     48219     48212     48220
     48214     48221     48214     48222     48223     48224     48225     48226
     48223     48225     48225     48227     48225     48228     48223     48229
     48223     48230     48223     48231     48225     48232     48225     48233
     48234     48235     48236     48237     48234     48236     48236     48238
     48236     48239     48234     48240     48234     48241     48234     48242
     48236     48243     48236     48244     48245     48246     48247     48248
     48245     48247     48247     48249     48247     48250     48245     48251
     48245     48252     48245     48253     48247     48254     48247     48255
     48256     48257     48258     48259     48256     48258     48258     48260
     48258     48261     48256     48262     48256     48263     48256     48264
     48258     48265     48258     48266     48267     48268     48269     48270
     48267     48269     48269     48271     48269     48272     48267     48273
     48267     48274     48267     48275     48269     48276     48269     48277
     48278     48279     48280     48281     48278     48280     48280     48282
     48280     48283     48278     48284     48278     48285     48278     48286
     48280     48287     48280     48288     48289     48290     48291     48292
     48289     48291     48291     48293     48291     48294     48289     48295
     48289     48296     48289     48297     48291     48298     48291     48299
     48300     48301     48302     48303     48300     48302     48302     48304
     48302     48305     48300     48306     48300     48307     48300     48308
     48302     48309     48302     48310     48311     48312     48313     48314
     48311     48313     48313     48315     48313     48316     48311     48317
     48311     48318     48311     48319     48313     48320     48313     48321
     48322     48323     48324     48325     48322     48324     48324     48326
     48324     48327     48322     48328     48322     48329     48322     48330
     48324     48331     48324     48332     48333     48334     48335     48336
     48333     48335     48335     48337     48335     48338     48333     48339
     48333     48340     48333     48341     48335     48342     48335     48343
     48344     48345     48346     48347     48344     48346     48346     48348
     48346     48349     48344     48350     48344     48351     48344     48352
     48346     48353     48346     48354     48355     48356     48357     48358
     48355     48357     48357     48359     48357     48360     48355     48361
     48355     48362     48355     48363     48357     48364     48357     48365
     48366     48367     48368     48369     48366     48368     48368     48370
     48368     48371     48366     48372     48366     48373     48366     48374
     48368     48375     48368     48376     48377     48378     48379     48380
     48377     48379     48379     48381     48379     48382     48377     48383
     48377     48384     48377     48385     48379     48386     48379     48387
     48388     48389     48390     48391     48388     48390     48390     48392
     48390     48393     48388     48394     48388     48395     48388     48396
     48390     48397     48390     48398     48399     48400     48401     48402
     48399     48401     48401     48403     48401     48404     48399     48405
     48399     48406     48399     48407     48401     48408     48401     48409
     48410     48411     48412     48413     48410     48412     48412     48414
     48412     48415     48410     48416     48410     48417     48410     48418
     48412     48419     48412     48420     48421     48422     48423     48424
     48421     48423     48423     48425     48423     48426     48421     48427
     48421     48428     48421     48429     48423     48430     48423     48431
     48432     48433     48434     48435     48432     48434     48434     48436
     48434     48437     48432     48438     48432     48439     48432     48440
     48434     48441     48434     48442     48443     48444     48445     48446
     48443     48445     48445     48447     48445     48448     48443     48449
     48443     48450     48443     48451     48445     48452     48445     48453
     48454     48455     48456     48457     48454     48456     48456     48458
     48456     48459     48454     48460     48454     48461     48454     48462
     48456     48463     48456     48464     48465     48466     48467     48468
     48465     48467     48467     48469     48467     48470     48465     48471
     48465     48472     48465     48473     48467     48474     48467     48475
     48476     48477     48478     48479     48476     48478     48478     48480
     48478     48481     48476     48482     48476     48483     48476     48484
     48478     48485     48478     48486     48487     48488     48489     48490
     48487     48489     48489     48491     48489     48492     48487     48493
     48487     48494     48487     48495     48489     48496     48489     48497
     48498     48499     48500     48501     48498     48500     48500     48502
     48500     48503     48498     48504     48498     48505     48498     48506
     48500     48507     48500     48508     48509     48510     48511     48512
     48509     48511     48511     48513     48511     48514     48509     48515
     48509     48516     48509     48517     48511     48518     48511     48519
     48520     48521     48522     48523     48520     48522     48522     48524
     48522     48525     48520     48526     48520     48527     48520     48528
     48522     48529     48522     48530     48531     48532     48533     48534
     48531     48533     48533     48535     48533     48536     48531     48537
     48531     48538     48531     48539     48533     48540     48533     48541
     48542     48543     48544     48545     48542     48544     48544     48546
     48544     48547     48542     48548     48542     48549     48542     48550
     48544     48551     48544     48552     48553     48554     48555     48556
     48553     48555     48555     48557     48555     48558     48553     48559
     48553     48560     48553     48561     48555     48562     48555     48563
     48564     48565     48566     48567     48564     48566     48566     48568
     48566     48569     48564     48570     48564     48571     48564     48572
     48566     48573     48566     48574     48575     48576     48577     48578
     48575     48577     48577     48579     48577     48580     48575     48581
     48575     48582     48575     48583     48577     48584     48577     48585
     48586     48587     48588     48589     48586     48588     48588     48590
     48588     48591     48586     48592     48586     48593     48586     48594
     48588     48595     48588     48596     48597     48598     48599     48600
     48597     48599     48599     48601     48599     48602     48597     48603
     48597     48604     48597     48605     48599     48606     48599     48607
     48608     48609     48610     48611     48608     48610     48610     48612
     48610     48613     48608     48614     48608     48615     48608     48616
     48610     48617     48610     48618     48619     48620     48621     48622
     48619     48621     48621     48623     48621     48624     48619     48625
     48619     48626     48619     48627     48621     48628     48621     48629
     48630     48631     48632     48633     48630     48632     48632     48634
     48632     48635     48630     48636     48630     48637     48630     48638
     48632     48639     48632     48640     48641     48642     48643     48644
     48641     48643     48643     48645     48643     48646     48641     48647
     48641     48648     48641     48649     48643     48650     48643     48651
     48652     48653     48654     48655     48652     48654     48654     48656
     48654     48657     48652     48658     48652     48659     48652     48660
     48654     48661     48654     48662     48663     48664     48665     48666
     48663     48665     48665     48667     48665     48668     48663     48669
     48663     48670     48663     48671     48665     48672     48665     48673
     48674     48675     48676     48677     48674     48676     48676     48678
     48676     48679     48674     48680     48674     48681     48674     48682
     48676     48683     48676     48684     48685     48686     48687     48688
     48685     48687     48687     48689     48687     48690     48685     48691
     48685     48692     48685     48693     48687     48694     48687     48695
     48696     48697     48698     48699     48696     48698     48698     48700
     48698     48701     48696     48702     48696     48703     48696     48704
     48698     48705     48698     48706     48707     48708     48709     48710
     48707     48709     48709     48711     48709     48712     48707     48713
     48707     48714     48707     48715     48709     48716     48709     48717
     48718     48719     48720     48721     48718     48720     48720     48722
     48720     48723     48718     48724     48718     48725     48718     48726
     48720     48727     48720     48728     48729     48730     48731     48732
     48729     48731     48731     48733     48731     48734     48729     48735
     48729     48736     48729     48737     48731     48738     48731     48739
     48740     48741     48742     48743     48740     48742     48742     48744
     48742     48745     48740     48746     48740     48747     48740     48748
     48742     48749     48742     48750     48751     48752     48753     48754
     48751     48753     48753     48755     48753     48756     48751     48757
     48751     48758     48751     48759     48753     48760     48753     48761
     48762     48763     48764     48765     48762     48764     48764     48766
     48764     48767     48762     48768     48762     48769     48762     48770
     48764     48771     48764     48772     48773     48774     48775     48776
     48773     48775     48775     48777     48775     48778     48773     48779
     48773     48780     48773     48781     48775     48782     48775     48783
     48784     48785     48786     48787     48784     48786     48786     48788
     48786     48789     48784     48790     48784     48791     48784     48792
     48786     48793     48786     48794     48795     48796     48797     48798
     48795     48797     48797     48799     48797     48800     48795     48801
     48795     48802     48795     48803     48797     48804     48797     48805
     48806     48807     48808     48809     48806     48808     48808     48810
     48808     48811     48806     48812     48806     48813     48806     48814
     48808     48815     48808     48816     48817     48818     48819     48820
     48817     48819     48819     48821     48819     48822     48817     48823
     48817     48824     48817     48825     48819     48826     48819     48827
     48828     48829     48830     48831     48828     48830     48830     48832
     48830     48833     48828     48834     48828     48835     48828     48836
     48830     48837     48830     48838     48839     48840     48841     48842
     48839     48841     48841     48843     48841     48844     48839     48845
     48839     48846     48839     48847     48841     48848     48841     48849
     48850     48851     48852     48853     48850     48852     48852     48854
     48852     48855     48850     48856     48850     48857     48850     48858
     48852     48859     48852     48860     48861     48862     48863     48864
     48861     48863     48863     48865     48863     48866     48861     48867
     48861     48868     48861     48869     48863     48870     48863     48871
     48872     48873     48874     48875     48872     48874     48874     48876
     48874     48877     48872     48878     48872     48879     48872     48880
     48874     48881     48874     48882     48883     48884     48885     48886
     48883     48885     48885     48887     48885     48888     48883     48889
     48883     48890     48883     48891     48885     48892     48885     48893
     48894     48895     48896     48897     48894     48896     48896     48898
     48896     48899     48894     48900     48894     48901     48894     48902
     48896     48903     48896     48904     48905     48906     48907     48908
     48905     48907     48907     48909     48907     48910     48905     48911
     48905     48912     48905     48913     48907     48914     48907     48915
     48916     48917     48918     48919     48916     48918     48918     48920
     48918     48921     48916     48922     48916     48923     48916     48924
     48918     48925     48918     48926     48927     48928     48929     48930
     48927     48929     48929     48931     48929     48932     48927     48933
     48927     48934     48927     48935     48929     48936     48929     48937
     48938     48939     48940     48941     48938     48940     48940     48942
     48940     48943     48938     48944     48938     48945     48938     48946
     48940     48947     48940     48948     48949     48950     48951     48952
     48949     48951     48951     48953     48951     48954     48949     48955
     48949     48956     48949     48957     48951     48958     48951     48959
     48960     48961     48962     48963     48960     48962     48962     48964
     48962     48965     48960     48966     48960     48967     48960     48968
     48962     48969     48962     48970     48971     48972     48973     48974
     48971     48973     48973     48975     48973     48976     48971     48977
     48971     48978     48971     48979     48973     48980     48973     48981
     48982     48983     48984     48985     48982     48984     48984     48986
     48984     48987     48982     48988     48982     48989     48982     48990
     48984     48991     48984     48992     48993     48994     48995     48996
     48993     48995     48995     48997     48995     48998     48993     48999
     48993     49000     48993     49001     48995     49002     48995     49003
     49004     49005     49006     49007     49004     49006     49006     49008
     49006     49009     49004     49010     49004     49011     49004     49012
     49006     49013     49006     49014     49015     49016     49017     49018
     49015     49017     49017     49019     49017     49020     49015     49021
     49015     49022     49015     49023     49017     49024     49017     49025
     49026     49027     49028     49029     49026     49028     49028     49030
     49028     49031     49026     49032     49026     49033     49026     49034
     49028     49035     49028     49036     49037     49038     49039     49040
     49037     49039     49039     49041     49039     49042     49037     49043
     49037     49044     49037     49045     49039     49046     49039     49047
     49048     49049     49050     49051     49048     49050     49050     49052
     49050     49053     49048     49054     49048     49055     49048     49056
     49050     49057     49050     49058     49059     49060     49061     49062
     49059     49061     49061     49063     49061     49064     49059     49065
     49059     49066     49059     49067     49061     49068     49061     49069
     49070     49071     49072     49073     49070     49072     49072     49074
     49072     49075     49070     49076     49070     49077     49070     49078
     49072     49079     49072     49080     49081     49082     49083     49084
     49081     49083     49083     49085     49083     49086     49081     49087
     49081     49088     49081     49089     49083     49090     49083     49091
     49092     49093     49094     49095     49092     49094     49094     49096
     49094     49097     49092     49098     49092     49099     49092     49100
     49094     49101     49094     49102     49103     49104     49105     49106
     49103     49105     49105     49107     49105     49108     49103     49109
     49103     49110     49103     49111     49105     49112     49105     49113
     49114     49115     49116     49117     49114     49116     49116     49118
     49116     49119     49114     49120     49114     49121     49114     49122
     49116     49123     49116     49124     49125     49126     49127     49128
     49125     49127     49127     49129     49127     49130     49125     49131
     49125     49132     49125     49133     49127     49134     49127     49135
     49136     49137     49138     49139     49136     49138     49138     49140
     49138     49141     49136     49142     49136     49143     49136     49144
     49138     49145     49138     49146     49147     49148     49149     49150
     49147     49149     49149     49151     49149     49152     49147     49153
     49147     49154     49147     49155     49149     49156     49149     49157
     49158     49159     49160     49161     49158     49160     49160     49162
     49160     49163     49158     49164     49158     49165     49158     49166
     49160     49167     49160     49168     49169     49170     49171     49172
     49169     49171     49171     49173     49171     49174     49169     49175
     49169     49176     49169     49177     49171     49178     49171     49179
     49180     49181     49182     49183     49180     49182     49182     49184
     49182     49185     49180     49186     49180     49187     49180     49188
     49182     49189     49182     49190     49191     49192     49193     49194
     49191     49193     49193     49195     49193     49196     49191     49197
     49191     49198     49191     49199     49193     49200     49193     49201
     49202     49203     49204     49205     49202     49204     49204     49206
     49204     49207     49202     49208     49202     49209     49202     49210
     49204     49211     49204     49212     49213     49214     49215     49216
     49213     49215     49215     49217     49215     49218     49213     49219
     49213     49220     49213     49221     49215     49222     49215     49223
     49224     49225     49226     49227     49224     49226     49226     49228
     49226     49229     49224     49230     49224     49231     49224     49232
     49226     49233     49226     49234     49235     49236     49237     49238
     49235     49237     49237     49239     49237     49240     49235     49241
     49235     49242     49235     49243     49237     49244     49237     49245
     49246     49247     49248     49249     49246     49248     49248     49250
     49248     49251     49246     49252     49246     49253     49246     49254
     49248     49255     49248     49256     49257     49258     49259     49260
     49257     49259     49259     49261     49259     49262     49257     49263
     49257     49264     49257     49265     49259     49266     49259     49267
     49268     49269     49270     49271     49268     49270     49270     49272
     49270     49273     49268     49274     49268     49275     49268     49276
     49270     49277     49270     49278     49279     49280     49281     49282
     49279     49281     49281     49283     49281     49284     49279     49285
     49279     49286     49279     49287     49281     49288     49281     49289
     49290     49291     49292     49293     49290     49292     49292     49294
     49292     49295     49290     49296     49290     49297     49290     49298
     49292     49299     49292     49300     49301     49302     49303     49304
     49301     49303     49303     49305     49303     49306     49301     49307
     49301     49308     49301     49309     49303     49310     49303     49311
     49312     49313     49314     49315     49312     49314     49314     49316
     49314     49317     49312     49318     49312     49319     49312     49320
     49314     49321     49314     49322     49323     49324     49325     49326
     49323     49325     49325     49327     49325     49328     49323     49329
     49323     49330     49323     49331     49325     49332     49325     49333
     49334     49335     49336     49337     49334     49336     49336     49338
     49336     49339     49334     49340     49334     49341     49334     49342
     49336     49343     49336     49344     49345     49346     49347     49348
     49345     49347     49347     49349     49347     49350     49345     49351
     49345     49352     49345     49353     49347     49354     49347     49355
     49356     49357     49358     49359     49356     49358     49358     49360
     49358     49361     49356     49362     49356     49363     49356     49364
     49358     49365     49358     49366     49367     49368     49369     49370
     49367     49369     49369     49371     49369     49372     49367     49373
     49367     49374     49367     49375     49369     49376     49369     49377
     49378     49379     49380     49381     49378     49380     49380     49382
     49380     49383     49378     49384     49378     49385     49378     49386
     49380     49387     49380     49388     49389     49390     49391     49392
     49389     49391     49391     49393     49391     49394     49389     49395
     49389     49396     49389     49397     49391     49398     49391     49399
     49400     49401     49402     49403     49400     49402     49402     49404
     49402     49405     49400     49406     49400     49407     49400     49408
     49402     49409     49402     49410     49411     49412     49413     49414
     49411     49413     49413     49415     49413     49416     49411     49417
     49411     49418     49411     49419     49413     49420     49413     49421
     49422     49423     49424     49425     49422     49424     49424     49426
     49424     49427     49422     49428     49422     49429     49422     49430
     49424     49431     49424     49432     49433     49434     49435     49436
     49433     49435     49435     49437     49435     49438     49433     49439
     49433     49440     49433     49441     49435     49442     49435     49443
     49444     49445     49446     49447     49444     49446     49446     49448
     49446     49449     49444     49450     49444     49451     49444     49452
     49446     49453     49446     49454     49455     49456     49457     49458
     49455     49457     49457     49459     49457     49460     49455     49461
     49455     49462     49455     49463     49457     49464     49457     49465
     49466     49467     49468     49469     49466     49468     49468     49470
     49468     49471     49466     49472     49466     49473     49466     49474
     49468     49475     49468     49476     49477     49478     49479     49480
     49477     49479     49479     49481     49479     49482     49477     49483
     49477     49484     49477     49485     49479     49486     49479     49487
     49488     49489     49490     49491     49488     49490     49490     49492
     49490     49493     49488     49494     49488     49495     49488     49496
     49490     49497     49490     49498     49499     49500     49501     49502
     49499     49501     49501     49503     49501     49504     49499     49505
     49499     49506     49499     49507     49501     49508     49501     49509
     49510     49511     49512     49513     49510     49512     49512     49514
     49512     49515     49510     49516     49510     49517     49510     49518
     49512     49519     49512     49520     49521     49522     49523     49524
     49521     49523     49523     49525     49523     49526     49521     49527
     49521     49528     49521     49529     49523     49530     49523     49531
     49532     49533     49534     49535     49532     49534     49534     49536
     49534     49537     49532     49538     49532     49539     49532     49540
     49534     49541     49534     49542     49543     49544     49545     49546
     49543     49545     49545     49547     49545     49548     49543     49549
     49543     49550     49543     49551     49545     49552     49545     49553
     49554     49555     49556     49557     49554     49556     49556     49558
     49556     49559     49554     49560     49554     49561     49554     49562
     49556     49563     49556     49564     49565     49566     49567     49568
     49565     49567     49567     49569     49567     49570     49565     49571
     49565     49572     49565     49573     49567     49574     49567     49575
     49576     49577     49578     49579     49576     49578     49578     49580
     49578     49581     49576     49582     49576     49583     49576     49584
     49578     49585     49578     49586     49587     49588     49589     49590
     49587     49589     49589     49591     49589     49592     49587     49593
     49587     49594     49587     49595     49589     49596     49589     49597
     49598     49599     49600     49601     49598     49600     49600     49602
     49600     49603     49598     49604     49598     49605     49598     49606
     49600     49607     49600     49608     49609     49610     49611     49612
     49609     49611     49611     49613     49611     49614     49609     49615
     49609     49616     49609     49617     49611     49618     49611     49619
     49620     49621     49622     49623     49620     49622     49622     49624
     49622     49625     49620     49626     49620     49627     49620     49628
     49622     49629     49622     49630     49631     49632     49633     49634
     49631     49633     49633     49635     49633     49636     49631     49637
     49631     49638     49631     49639     49633     49640     49633     49641
     49642     49643     49644     49645     49642     49644     49644     49646
     49644     49647     49642     49648     49642     49649     49642     49650
     49644     49651     49644     49652     49653     49654     49655     49656
     49653     49655     49655     49657     49655     49658     49653     49659
     49653     49660     49653     49661     49655     49662     49655     49663
     49664     49665     49666     49667     49664     49666     49666     49668
     49666     49669     49664     49670     49664     49671     49664     49672
     49666     49673     49666     49674     49675     49676     49677     49678
     49675     49677     49677     49679     49677     49680     49675     49681
     49675     49682     49675     49683     49677     49684     49677     49685
     49686     49687     49688     49689     49686     49688     49688     49690
     49688     49691     49686     49692     49686     49693     49686     49694
     49688     49695     49688     49696     49697     49698     49699     49700
     49697     49699     49699     49701     49699     49702     49697     49703
     49697     49704     49697     49705     49699     49706     49699     49707
     49708     49709     49710     49711     49708     49710     49710     49712
     49710     49713     49708     49714     49708     49715     49708     49716
     49710     49717     49710     49718     49719     49720     49721     49722
     49719     49721     49721     49723     49721     49724     49719     49725
     49719     49726     49719     49727     49721     49728     49721     49729
     49730     49731     49732     49733     49730     49732     49732     49734
     49732     49735     49730     49736     49730     49737     49730     49738
     49732     49739     49732     49740     49741     49742     49743     49744
     49741     49743     49743     49745     49743     49746     49741     49747
     49741     49748     49741     49749     49743     49750     49743     49751
     49752     49753     49754     49755     49752     49754     49754     49756
     49754     49757     49752     49758     49752     49759     49752     49760
     49754     49761     49754     49762     49763     49764     49765     49766
     49763     49765     49765     49767     49765     49768     49763     49769
     49763     49770     49763     49771     49765     49772     49765     49773
     49774     49775     49776     49777     49774     49776     49776     49778
     49776     49779     49774     49780     49774     49781     49774     49782
     49776     49783     49776     49784     49785     49786     49787     49788
     49785     49787     49787     49789     49787     49790     49785     49791
     49785     49792     49785     49793     49787     49794     49787     49795
     49796     49797     49798     49799     49796     49798     49798     49800
     49798     49801     49796     49802     49796     49803     49796     49804
     49798     49805     49798     49806     49807     49808     49809     49810
     49807     49809     49809     49811     49809     49812     49807     49813
     49807     49814     49807     49815     49809     49816     49809     49817
     49818     49819     49820     49821     49818     49820     49820     49822
     49820     49823     49818     49824     49818     49825     49818     49826
     49820     49827     49820     49828     49829     49830     49831     49832
     49829     49831     49831     49833     49831     49834     49829     49835
     49829     49836     49829     49837     49831     49838     49831     49839
     49840     49841     49842     49843     49840     49842     49842     49844
     49842     49845     49840     49846     49840     49847     49840     49848
     49842     49849     49842     49850     49851     49852     49853     49854
     49851     49853     49853     49855     49853     49856     49851     49857
     49851     49858     49851     49859     49853     49860     49853     49861
     49862     49863     49864     49865     49862     49864     49864     49866
     49864     49867     49862     49868     49862     49869     49862     49870
     49864     49871     49864     49872     49873     49874     49875     49876
     49873     49875     49875     49877     49875     49878     49873     49879
     49873     49880     49873     49881     49875     49882     49875     49883
     49884     49885     49886     49887     49884     49886     49886     49888
     49886     49889     49884     49890     49884     49891     49884     49892
     49886     49893     49886     49894     49895     49896     49897     49898
     49895     49897     49897     49899     49897     49900     49895     49901
     49895     49902     49895     49903     49897     49904     49897     49905
     49906     49907     49908     49909     49906     49908     49908     49910
     49908     49911     49906     49912     49906     49913     49906     49914
     49908     49915     49908     49916     49917     49918     49919     49920
     49917     49919     49919     49921     49919     49922     49917     49923
     49917     49924     49917     49925     49919     49926     49919     49927
     49928     49929     49930     49931     49928     49930     49930     49932
     49930     49933     49928     49934     49928     49935     49928     49936
     49930     49937     49930     49938     49939     49940     49941     49942
     49939     49941     49941     49943     49941     49944     49939     49945
     49939     49946     49939     49947     49941     49948     49941     49949
     49950     49951     49952     49953     49950     49952     49952     49954
     49952     49955     49950     49956     49950     49957     49950     49958
     49952     49959     49952     49960     49961     49962     49963     49964
     49961     49963     49963     49965     49963     49966     49961     49967
     49961     49968     49961     49969     49963     49970     49963     49971
     49972     49973     49974     49975     49972     49974     49974     49976
     49974     49977     49972     49978     49972     49979     49972     49980
     49974     49981     49974     49982     49983     49984     49985     49986
     49983     49985     49985     49987     49985     49988     49983     49989
     49983     49990     49983     49991     49985     49992     49985     49993
     49994     49995     49996     49997     49994     49996     49996     49998
     49996     49999     49994     50000     49994     50001     49994     50002
     49996     50003     49996     50004     50005     50006     50007     50008
     50005     50007     50007     50009     50007     50010     50005     50011
     50005     50012     50005     50013     50007     50014     50007     50015
     50016     50017     50018     50019     50016     50018     50018     50020
     50018     50021     50016     50022     50016     50023     50016     50024
     50018     50025     50018     50026     50027     50028     50029     50030
     50027     50029     50029     50031     50029     50032     50027     50033
     50027     50034     50027     50035     50029     50036     50029     50037
     50038     50039     50040     50041     50038     50040     50040     50042
     50040     50043     50038     50044     50038     50045     50038     50046
     50040     50047     50040     50048     50049     50050     50051     50052
     50049     50051     50051     50053     50051     50054     50049     50055
     50049     50056     50049     50057     50051     50058     50051     50059
     50060     50061     50062     50063     50060     50062     50062     50064
     50062     50065     50060     50066     50060     50067     50060     50068
     50062     50069     50062     50070     50071     50072     50073     50074
     50071     50073     50073     50075     50073     50076     50071     50077
     50071     50078     50071     50079     50073     50080     50073     50081
     50082     50083     50084     50085     50082     50084     50084     50086
     50084     50087     50082     50088     50082     50089     50082     50090
     50084     50091     50084     50092     50093     50094     50095     50096
     50093     50095     50095     50097     50095     50098     50093     50099
     50093     50100     50093     50101     50095     50102     50095     50103
     50104     50105     50106     50107     50104     50106     50106     50108
     50106     50109     50104     50110     50104     50111     50104     50112
     50106     50113     50106     50114     50115     50116     50117     50118
     50115     50117     50117     50119     50117     50120     50115     50121
     50115     50122     50115     50123     50117     50124     50117     50125
     50126     50127     50128     50129     50126     50128     50128     50130
     50128     50131     50126     50132     50126     50133     50126     50134
     50128     50135     50128     50136     50137     50138     50139     50140
     50137     50139     50139     50141     50139     50142     50137     50143
     50137     50144     50137     50145     50139     50146     50139     50147
     50148     50149     50150     50151     50148     50150     50150     50152
     50150     50153     50148     50154     50148     50155     50148     50156
     50150     50157     50150     50158     50159     50160     50161     50162
     50159     50161     50161     50163     50161     50164     50159     50165
     50159     50166     50159     50167     50161     50168     50161     50169
     50170     50171     50172     50173     50170     50172     50172     50174
     50172     50175     50170     50176     50170     50177     50170     50178
     50172     50179     50172     50180     50181     50182     50183     50184
     50181     50183     50183     50185     50183     50186     50181     50187
     50181     50188     50181     50189     50183     50190     50183     50191
     50192     50193     50194     50195     50192     50194     50194     50196
     50194     50197     50192     50198     50192     50199     50192     50200
     50194     50201     50194     50202     50203     50204     50205     50206
     50203     50205     50205     50207     50205     50208     50203     50209
     50203     50210     50203     50211     50205     50212     50205     50213
     50214     50215     50216     50217     50214     50216     50216     50218
     50216     50219     50214     50220     50214     50221     50214     50222
     50216     50223     50216     50224     50225     50226     50227     50228
     50225     50227     50227     50229     50227     50230     50225     50231
     50225     50232     50225     50233     50227     50234     50227     50235
     50236     50237     50238     50239     50236     50238     50238     50240
     50238     50241     50236     50242     50236     50243     50236     50244
     50238     50245     50238     50246     50247     50248     50249     50250
     50247     50249     50249     50251     50249     50252     50247     50253
     50247     50254     50247     50255     50249     50256     50249     50257
     50258     50259     50260     50261     50258     50260     50260     50262
     50260     50263     50258     50264     50258     50265     50258     50266
     50260     50267     50260     50268     50269     50270     50271     50272
     50269     50271     50271     50273     50271     50274     50269     50275
     50269     50276     50269     50277     50271     50278     50271     50279
     50280     50281     50282     50283     50280     50282     50282     50284
     50282     50285     50280     50286     50280     50287     50280     50288
     50282     50289     50282     50290     50291     50292     50293     50294
     50291     50293     50293     50295     50293     50296     50291     50297
     50291     50298     50291     50299     50293     50300     50293     50301
     50302     50303     50304     50305     50302     50304     50304     50306
     50304     50307     50302     50308     50302     50309     50302     50310
     50304     50311     50304     50312     50313     50314     50315     50316
     50313     50315     50315     50317     50315     50318     50313     50319
     50313     50320     50313     50321     50315     50322     50315     50323
     50324     50325     50326     50327     50324     50326     50326     50328
     50326     50329     50324     50330     50324     50331     50324     50332
     50326     50333     50326     50334     50335     50336     50337     50338
     50335     50337     50337     50339     50337     50340     50335     50341
     50335     50342     50335     50343     50337     50344     50337     50345
     50346     50347     50348     50349     50346     50348     50348     50350
     50348     50351     50346     50352     50346     50353     50346     50354
     50348     50355     50348     50356     50357     50358     50359     50360
     50357     50359     50359     50361     50359     50362     50357     50363
     50357     50364     50357     50365     50359     50366     50359     50367
     50368     50369     50370     50371     50368     50370     50370     50372
     50370     50373     50368     50374     50368     50375     50368     50376
     50370     50377     50370     50378     50379     50380     50381     50382
     50379     50381     50381     50383     50381     50384     50379     50385
     50379     50386     50379     50387     50381     50388     50381     50389
     50390     50391     50392     50393     50390     50392     50392     50394
     50392     50395     50390     50396     50390     50397     50390     50398
     50392     50399     50392     50400     50401     50402     50403     50404
     50401     50403     50403     50405     50403     50406     50401     50407
     50401     50408     50401     50409     50403     50410     50403     50411
     50412     50413     50414     50415     50412     50414     50414     50416
     50414     50417     50412     50418     50412     50419     50412     50420
     50414     50421     50414     50422     50423     50424     50425     50426
     50423     50425     50425     50427     50425     50428     50423     50429
     50423     50430     50423     50431     50425     50432     50425     50433
     50434     50435     50436     50437     50434     50436     50436     50438
     50436     50439     50434     50440     50434     50441     50434     50442
     50436     50443     50436     50444     50445     50446     50447     50448
     50445     50447     50447     50449     50447     50450     50445     50451
     50445     50452     50445     50453     50447     50454     50447     50455
     50456     50457     50458     50459     50456     50458     50458     50460
     50458     50461     50456     50462     50456     50463     50456     50464
     50458     50465     50458     50466     50467     50468     50469     50470
     50467     50469     50469     50471     50469     50472     50467     50473
     50467     50474     50467     50475     50469     50476     50469     50477
     50478     50479     50480     50481     50478     50480     50480     50482
     50480     50483     50478     50484     50478     50485     50478     50486
     50480     50487     50480     50488     50489     50490     50491     50492
     50489     50491     50491     50493     50491     50494     50489     50495
     50489     50496     50489     50497     50491     50498     50491     50499
     50500     50501     50502     50503     50500     50502     50502     50504
     50502     50505     50500     50506     50500     50507     50500     50508
     50502     50509     50502     50510     50511     50512     50513     50514
     50511     50513     50513     50515     50513     50516     50511     50517
     50511     50518     50511     50519     50513     50520     50513     50521
     50522     50523     50524     50525     50522     50524     50524     50526
     50524     50527     50522     50528     50522     50529     50522     50530
     50524     50531     50524     50532     50533     50534     50535     50536
     50533     50535     50535     50537     50535     50538     50533     50539
     50533     50540     50533     50541     50535     50542     50535     50543
     50544     50545     50546     50547     50544     50546     50546     50548
     50546     50549     50544     50550     50544     50551     50544     50552
     50546     50553     50546     50554     50555     50556     50557     50558
     50555     50557     50557     50559     50557     50560     50555     50561
     50555     50562     50555     50563     50557     50564     50557     50565
     50566     50567     50568     50569     50566     50568     50568     50570
     50568     50571     50566     50572     50566     50573     50566     50574
     50568     50575     50568     50576     50577     50578     50579     50580
     50577     50579     50579     50581     50579     50582     50577     50583
     50577     50584     50577     50585     50579     50586     50579     50587
     50588     50589     50590     50591     50588     50590     50590     50592
     50590     50593     50588     50594     50588     50595     50588     50596
     50590     50597     50590     50598     50599     50600     50601     50602
     50599     50601     50601     50603     50601     50604     50599     50605
     50599     50606     50599     50607     50601     50608     50601     50609
     50610     50611     50612     50613     50610     50612     50612     50614
     50612     50615     50610     50616     50610     50617     50610     50618
     50612     50619     50612     50620     50621     50622     50623     50624
     50621     50623     50623     50625     50623     50626     50621     50627
     50621     50628     50621     50629     50623     50630     50623     50631
     50632     50633     50634     50635     50632     50634     50634     50636
     50634     50637     50632     50638     50632     50639     50632     50640
     50634     50641     50634     50642     50643     50644     50645     50646
     50643     50645     50645     50647     50645     50648     50643     50649
     50643     50650     50643     50651     50645     50652     50645     50653
     50654     50655     50656     50657     50654     50656     50656     50658
     50656     50659     50654     50660     50654     50661     50654     50662
     50656     50663     50656     50664     50665     50666     50667     50668
     50665     50667     50667     50669     50667     50670     50665     50671
     50665     50672     50665     50673     50667     50674     50667     50675
     50676     50677     50678     50679     50676     50678     50678     50680
     50678     50681     50676     50682     50676     50683     50676     50684
     50678     50685     50678     50686     50687     50688     50689     50690
     50687     50689     50689     50691     50689     50692     50687     50693
     50687     50694     50687     50695     50689     50696     50689     50697
     50698     50699     50700     50701     50698     50700     50700     50702
     50700     50703     50698     50704     50698     50705     50698     50706
     50700     50707     50700     50708     50709     50710     50711     50712
     50709     50711     50711     50713     50711     50714     50709     50715
     50709     50716     50709     50717     50711     50718     50711     50719
     50720     50721     50722     50723     50720     50722     50722     50724
     50722     50725     50720     50726     50720     50727     50720     50728
     50722     50729     50722     50730     50731     50732     50733     50734
     50731     50733     50733     50735     50733     50736     50731     50737
     50731     50738     50731     50739     50733     50740     50733     50741
     50742     50743     50744     50745     50742     50744     50744     50746
     50744     50747     50742     50748     50742     50749     50742     50750
     50744     50751     50744     50752     50753     50754     50755     50756
     50753     50755     50755     50757     50755     50758     50753     50759
     50753     50760     50753     50761     50755     50762     50755     50763
     50764     50765     50766     50767     50764     50766     50766     50768
     50766     50769     50764     50770     50764     50771     50764     50772
     50766     50773     50766     50774     50775     50776     50777     50778
     50775     50777     50777     50779     50777     50780     50775     50781
     50775     50782     50775     50783     50777     50784     50777     50785
     50786     50787     50788     50789     50786     50788     50788     50790
     50788     50791     50786     50792     50786     50793     50786     50794
     50788     50795     50788     50796     50797     50798     50799     50800
     50797     50799     50799     50801     50799     50802     50797     50803
     50797     50804     50797     50805     50799     50806     50799     50807
     50808     50809     50810     50811     50808     50810     50810     50812
     50810     50813     50808     50814     50808     50815     50808     50816
     50810     50817     50810     50818     50819     50820     50821     50822
     50819     50821     50821     50823     50821     50824     50819     50825
     50819     50826     50819     50827     50821     50828     50821     50829
     50830     50831     50832     50833     50830     50832     50832     50834
     50832     50835     50830     50836     50830     50837     50830     50838
     50832     50839     50832     50840     50841     50842     50843     50844
     50841     50843     50843     50845     50843     50846     50841     50847
     50841     50848     50841     50849     50843     50850     50843     50851
     50852     50853     50854     50855     50852     50854     50854     50856
     50854     50857     50852     50858     50852     50859     50852     50860
     50854     50861     50854     50862     50863     50864     50865     50866
     50863     50865     50865     50867     50865     50868     50863     50869
     50863     50870     50863     50871     50865     50872     50865     50873
     50874     50875     50876     50877     50874     50876     50876     50878
     50876     50879     50874     50880     50874     50881     50874     50882
     50876     50883     50876     50884     50885     50886     50887     50888
     50885     50887     50887     50889     50887     50890     50885     50891
     50885     50892     50885     50893     50887     50894     50887     50895
     50896     50897     50898     50899     50896     50898     50898     50900
     50898     50901     50896     50902     50896     50903     50896     50904
     50898     50905     50898     50906     50907     50908     50909     50910
     50907     50909     50909     50911     50909     50912     50907     50913
     50907     50914     50907     50915     50909     50916     50909     50917
     50918     50919     50920     50921     50918     50920     50920     50922
     50920     50923     50918     50924     50918     50925     50918     50926
     50920     50927     50920     50928     50929     50930     50931     50932
     50929     50931     50931     50933     50931     50934     50929     50935
     50929     50936     50929     50937     50931     50938     50931     50939
     50940     50941     50942     50943     50940     50942     50942     50944
     50942     50945     50940     50946     50940     50947     50940     50948
     50942     50949     50942     50950     50951     50952     50953     50954
     50951     50953     50953     50955     50953     50956     50951     50957
     50951     50958     50951     50959     50953     50960     50953     50961
     50962     50963     50964     50965     50962     50964     50964     50966
     50964     50967     50962     50968     50962     50969     50962     50970
     50964     50971     50964     50972     50973     50974     50975     50976
     50973     50975     50975     50977     50975     50978     50973     50979
     50973     50980     50973     50981     50975     50982     50975     50983
     50984     50985     50986     50987     50984     50986     50986     50988
     50986     50989     50984     50990     50984     50991     50984     50992
     50986     50993     50986     50994     50995     50996     50997     50998
     50995     50997     50997     50999     50997     51000     50995     51001
     50995     51002     50995     51003     50997     51004     50997     51005
     51006     51007     51008     51009     51006     51008     51008     51010
     51008     51011     51006     51012     51006     51013     51006     51014
     51008     51015     51008     51016     51017     51018     51019     51020
     51017     51019     51019     51021     51019     51022     51017     51023
     51017     51024     51017     51025     51019     51026     51019     51027
     51028     51029     51030     51031     51028     51030     51030     51032
     51030     51033     51028     51034     51028     51035     51028     51036
     51030     51037     51030     51038     51039     51040     51041     51042
     51039     51041     51041     51043     51041     51044     51039     51045
     51039     51046     51039     51047     51041     51048     51041     51049
     51050     51051     51052     51053     51050     51052     51052     51054
     51052     51055     51050     51056     51050     51057     51050     51058
     51052     51059     51052     51060     51061     51062     51063     51064
     51061     51063     51063     51065     51063     51066     51061     51067
     51061     51068     51061     51069     51063     51070     51063     51071
     51072     51073     51074     51075     51072     51074     51074     51076
     51074     51077     51072     51078     51072     51079     51072     51080
     51074     51081     51074     51082     51083     51084     51085     51086
     51083     51085     51085     51087     51085     51088     51083     51089
     51083     51090     51083     51091     51085     51092     51085     51093
     51094     51095     51096     51097     51094     51096     51096     51098
     51096     51099     51094     51100     51094     51101     51094     51102
     51096     51103     51096     51104     51105     51106     51107     51108
     51105     51107     51107     51109     51107     51110     51105     51111
     51105     51112     51105     51113     51107     51114     51107     51115
     51116     51117     51118     51119     51116     51118     51118     51120
     51118     51121     51116     51122     51116     51123     51116     51124
     51118     51125     51118     51126     51127     51128     51129     51130
     51127     51129     51129     51131     51129     51132     51127     51133
     51127     51134     51127     51135     51129     51136     51129     51137
     51138     51139     51140     51141     51138     51140     51140     51142
     51140     51143     51138     51144     51138     51145     51138     51146
     51140     51147     51140     51148     51149     51150     51151     51152
     51149     51151     51151     51153     51151     51154     51149     51155
     51149     51156     51149     51157     51151     51158     51151     51159
     51160     51161     51162     51163     51160     51162     51162     51164
     51162     51165     51160     51166     51160     51167     51160     51168
     51162     51169     51162     51170     51171     51172     51173     51174
     51171     51173     51173     51175     51173     51176     51171     51177
     51171     51178     51171     51179     51173     51180     51173     51181
     51182     51183     51184     51185     51182     51184     51184     51186
     51184     51187     51182     51188     51182     51189     51182     51190
     51184     51191     51184     51192     51193     51194     51195     51196
     51193     51195     51195     51197     51195     51198     51193     51199
     51193     51200     51193     51201     51195     51202     51195     51203
     51204     51205     51206     51207     51204     51206     51206     51208
     51206     51209     51204     51210     51204     51211     51204     51212
     51206     51213     51206     51214     51215     51216     51217     51218
     51215     51217     51217     51219     51217     51220     51215     51221
     51215     51222     51215     51223     51217     51224     51217     51225
     51226     51227     51228     51229     51226     51228     51228     51230
     51228     51231     51226     51232     51226     51233     51226     51234
     51228     51235     51228     51236     51237     51238     51239     51240
     51237     51239     51239     51241     51239     51242     51237     51243
     51237     51244     51237     51245     51239     51246     51239     51247
     51248     51249     51250     51251     51248     51250     51250     51252
     51250     51253     51248     51254     51248     51255     51248     51256
     51250     51257     51250     51258     51259     51260     51261     51262
     51259     51261     51261     51263     51261     51264     51259     51265
     51259     51266     51259     51267     51261     51268     51261     51269
     51270     51271     51272     51273     51270     51272     51272     51274
     51272     51275     51270     51276     51270     51277     51270     51278
     51272     51279     51272     51280     51281     51282     51283     51284
     51281     51283     51283     51285     51283     51286     51281     51287
     51281     51288     51281     51289     51283     51290     51283     51291
     51292     51293     51294     51295     51292     51294     51294     51296
     51294     51297     51292     51298     51292     51299     51292     51300
     51294     51301     51294     51302     51303     51304     51305     51306
     51303     51305     51305     51307     51305     51308     51303     51309
     51303     51310     51303     51311     51305     51312     51305     51313
     51314     51315     51316     51317     51314     51316     51316     51318
     51316     51319     51314     51320     51314     51321     51314     51322
     51316     51323     51316     51324     51325     51326     51327     51328
     51325     51327     51327     51329     51327     51330     51325     51331
     51325     51332     51325     51333     51327     51334     51327     51335
     51336     51337     51338     51339     51336     51338     51338     51340
     51338     51341     51336     51342     51336     51343     51336     51344
     51338     51345     51338     51346     51347     51348     51349     51350
     51347     51349     51349     51351     51349     51352     51347     51353
     51347     51354     51347     51355     51349     51356     51349     51357
     51358     51359     51360     51361     51358     51360     51360     51362
     51360     51363     51358     51364     51358     51365     51358     51366
     51360     51367     51360     51368     51369     51370     51371     51372
     51369     51371     51371     51373     51371     51374     51369     51375
     51369     51376     51369     51377     51371     51378     51371     51379
     51380     51381     51382     51383     51380     51382     51382     51384
     51382     51385     51380     51386     51380     51387     51380     51388
     51382     51389     51382     51390     51391     51392     51393     51394
     51391     51393     51393     51395     51393     51396     51391     51397
     51391     51398     51391     51399     51393     51400     51393     51401
     51402     51403     51404     51405     51402     51404     51404     51406
     51404     51407     51402     51408     51402     51409     51402     51410
     51404     51411     51404     51412     51413     51414     51415     51416
     51413     51415     51415     51417     51415     51418     51413     51419
     51413     51420     51413     51421     51415     51422     51415     51423
     51424     51425     51426     51427     51424     51426     51426     51428
     51426     51429     51424     51430     51424     51431     51424     51432
     51426     51433     51426     51434     51435     51436     51437     51438
     51435     51437     51437     51439     51437     51440     51435     51441
     51435     51442     51435     51443     51437     51444     51437     51445
     51446     51447     51448     51449     51446     51448     51448     51450
     51448     51451     51446     51452     51446     51453     51446     51454
     51448     51455     51448     51456     51457     51458     51459     51460
     51457     51459     51459     51461     51459     51462     51457     51463
     51457     51464     51457     51465     51459     51466     51459     51467
     51468     51469     51470     51471     51468     51470     51470     51472
     51470     51473     51468     51474     51468     51475     51468     51476
     51470     51477     51470     51478     51479     51480     51481     51482
     51479     51481     51481     51483     51481     51484     51479     51485
     51479     51486     51479     51487     51481     51488     51481     51489
     51490     51491     51492     51493     51490     51492     51492     51494
     51492     51495     51490     51496     51490     51497     51490     51498
     51492     51499     51492     51500     51501     51502     51503     51504
     51501     51503     51503     51505     51503     51506     51501     51507
     51501     51508     51501     51509     51503     51510     51503     51511
     51512     51513     51514     51515     51512     51514     51514     51516
     51514     51517     51512     51518     51512     51519     51512     51520
     51514     51521     51514     51522     51523     51524     51525     51526
     51523     51525     51525     51527     51525     51528     51523     51529
     51523     51530     51523     51531     51525     51532     51525     51533
     51534     51535     51536     51537     51534     51536     51536     51538
     51536     51539     51534     51540     51534     51541     51534     51542
     51536     51543     51536     51544     51545     51546     51547     51548
     51545     51547     51547     51549     51547     51550     51545     51551
     51545     51552     51545     51553     51547     51554     51547     51555
     51556     51557     51558     51559     51556     51558     51558     51560
     51558     51561     51556     51562     51556     51563     51556     51564
     51558     51565     51558     51566     51567     51568     51569     51570
     51567     51569     51569     51571     51569     51572     51567     51573
     51567     51574     51567     51575     51569     51576     51569     51577
     51578     51579     51580     51581     51578     51580     51580     51582
     51580     51583     51578     51584     51578     51585     51578     51586
     51580     51587     51580     51588     51589     51590     51591     51592
     51589     51591     51591     51593     51591     51594     51589     51595
     51589     51596     51589     51597     51591     51598     51591     51599
     51600     51601     51602     51603     51600     51602     51602     51604
     51602     51605     51600     51606     51600     51607     51600     51608
     51602     51609     51602     51610     51611     51612     51613     51614
     51611     51613     51613     51615     51613     51616     51611     51617
     51611     51618     51611     51619     51613     51620     51613     51621
     51622     51623     51624     51625     51622     51624     51624     51626
     51624     51627     51622     51628     51622     51629     51622     51630
     51624     51631     51624     51632     51633     51634     51635     51636
     51633     51635     51635     51637     51635     51638     51633     51639
     51633     51640     51633     51641     51635     51642     51635     51643
     51644     51645     51646     51647     51644     51646     51646     51648
     51646     51649     51644     51650     51644     51651     51644     51652
     51646     51653     51646     51654     51655     51656     51657     51658
     51655     51657     51657     51659     51657     51660     51655     51661
     51655     51662     51655     51663     51657     51664     51657     51665
     51666     51667     51668     51669     51666     51668     51668     51670
     51668     51671     51666     51672     51666     51673     51666     51674
     51668     51675     51668     51676     51677     51678     51679     51680
     51677     51679     51679     51681     51679     51682     51677     51683
     51677     51684     51677     51685     51679     51686     51679     51687
     51688     51689     51690     51691     51688     51690     51690     51692
     51690     51693     51688     51694     51688     51695     51688     51696
     51690     51697     51690     51698     51699     51700     51701     51702
     51699     51701     51701     51703     51701     51704     51699     51705
     51699     51706     51699     51707     51701     51708     51701     51709
     51710     51711     51712     51713     51710     51712     51712     51714
     51712     51715     51710     51716     51710     51717     51710     51718
     51712     51719     51712     51720     51721     51722     51723     51724
     51721     51723     51723     51725     51723     51726     51721     51727
     51721     51728     51721     51729     51723     51730     51723     51731
     51732     51733     51734     51735     51732     51734     51734     51736
     51734     51737     51732     51738     51732     51739     51732     51740
     51734     51741     51734     51742     51743     51744     51745     51746
     51743     51745     51745     51747     51745     51748     51743     51749
     51743     51750     51743     51751     51745     51752     51745     51753
     51754     51755     51756     51757     51754     51756     51756     51758
     51756     51759     51754     51760     51754     51761     51754     51762
     51756     51763     51756     51764     51765     51766     51767     51768
     51765     51767     51767     51769     51767     51770     51765     51771
     51765     51772     51765     51773     51767     51774     51767     51775
     51776     51777     51778     51779     51776     51778     51778     51780
     51778     51781     51776     51782     51776     51783     51776     51784
     51778     51785     51778     51786     51787     51788     51789     51790
     51787     51789     51789     51791     51789     51792     51787     51793
     51787     51794     51787     51795     51789     51796     51789     51797
     51798     51799     51800     51801     51798     51800     51800     51802
     51800     51803     51798     51804     51798     51805     51798     51806
     51800     51807     51800     51808     51809     51810     51811     51812
     51809     51811     51811     51813     51811     51814     51809     51815
     51809     51816     51809     51817     51811     51818     51811     51819
     51820     51821     51822     51823     51820     51822     51822     51824
     51822     51825     51820     51826     51820     51827     51820     51828
     51822     51829     51822     51830     51831     51832     51833     51834
     51831     51833     51833     51835     51833     51836     51831     51837
     51831     51838     51831     51839     51833     51840     51833     51841
     51842     51843     51844     51845     51842     51844     51844     51846
     51844     51847     51842     51848     51842     51849     51842     51850
     51844     51851     51844     51852     51853     51854     51855     51856
     51853     51855     51855     51857     51855     51858     51853     51859
     51853     51860     51853     51861     51855     51862     51855     51863
     51864     51865     51866     51867     51864     51866     51866     51868
     51866     51869     51864     51870     51864     51871     51864     51872
     51866     51873     51866     51874     51875     51876     51877     51878
     51875     51877     51877     51879     51877     51880     51875     51881
     51875     51882     51875     51883     51877     51884     51877     51885
     51886     51887     51888     51889     51886     51888     51888     51890
     51888     51891     51886     51892     51886     51893     51886     51894
     51888     51895     51888     51896     51897     51898     51899     51900
     51897     51899     51899     51901     51899     51902     51897     51903
     51897     51904     51897     51905     51899     51906     51899     51907
     51908     51909     51910     51911     51908     51910     51910     51912
     51910     51913     51908     51914     51908     51915     51908     51916
     51910     51917     51910     51918     51919     51920     51921     51922
     51919     51921     51921     51923     51921     51924     51919     51925
     51919     51926     51919     51927     51921     51928     51921     51929
     51930     51931     51932     51933     51930     51932     51932     51934
     51932     51935     51930     51936     51930     51937     51930     51938
     51932     51939     51932     51940     51941     51942     51943     51944
     51941     51943     51943     51945     51943     51946     51941     51947
     51941     51948     51941     51949     51943     51950     51943     51951
     51952     51953     51954     51955     51952     51954     51954     51956
     51954     51957     51952     51958     51952     51959     51952     51960
     51954     51961     51954     51962     51963     51964     51965     51966
     51963     51965     51965     51967     51965     51968     51963     51969
     51963     51970     51963     51971     51965     51972     51965     51973
     51974     51975     51976     51977     51974     51976     51976     51978
     51976     51979     51974     51980     51974     51981     51974     51982
     51976     51983     51976     51984     51985     51986     51987     51988
     51985     51987     51987     51989     51987     51990     51985     51991
     51985     51992     51985     51993     51987     51994     51987     51995
     51996     51997     51998     51999     51996     51998     51998     52000
     51998     52001     51996     52002     51996     52003     51996     52004
     51998     52005     51998     52006     52007     52008     52009     52010
     52007     52009     52009     52011     52009     52012     52007     52013
     52007     52014     52007     52015     52009     52016     52009     52017
     52018     52019     52020     52021     52018     52020     52020     52022
     52020     52023     52018     52024     52018     52025     52018     52026
     52020     52027     52020     52028     52029     52030     52031     52032
     52029     52031     52031     52033     52031     52034     52029     52035
     52029     52036     52029     52037     52031     52038     52031     52039
     52040     52041     52042     52043     52040     52042     52042     52044
     52042     52045     52040     52046     52040     52047     52040     52048
     52042     52049     52042     52050     52051     52052     52053     52054
     52051     52053     52053     52055     52053     52056     52051     52057
     52051     52058     52051     52059     52053     52060     52053     52061
     52062     52063     52064     52065     52062     52064     52064     52066
     52064     52067     52062     52068     52062     52069     52062     52070
     52064     52071     52064     52072     52073     52074     52075     52076
     52073     52075     52075     52077     52075     52078     52073     52079
     52073     52080     52073     52081     52075     52082     52075     52083
     52084     52085     52086     52087     52084     52086     52086     52088
     52086     52089     52084     52090     52084     52091     52084     52092
     52086     52093     52086     52094     52095     52096     52097     52098
     52095     52097     52097     52099     52097     52100     52095     52101
     52095     52102     52095     52103     52097     52104     52097     52105
     52106     52107     52108     52109     52106     52108     52108     52110
     52108     52111     52106     52112     52106     52113     52106     52114
     52108     52115     52108     52116     52117     52118     52119     52120
     52117     52119     52119     52121     52119     52122     52117     52123
     52117     52124     52117     52125     52119     52126     52119     52127
     52128     52129     52130     52131     52128     52130     52130     52132
     52130     52133     52128     52134     52128     52135     52128     52136
     52130     52137     52130     52138     52139     52140     52141     52142
     52139     52141     52141     52143     52141     52144     52139     52145
     52139     52146     52139     52147     52141     52148     52141     52149
     52150     52151     52152     52153     52150     52152     52152     52154
     52152     52155     52150     52156     52150     52157     52150     52158
     52152     52159     52152     52160     52161     52162     52163     52164
     52161     52163     52163     52165     52163     52166     52161     52167
     52161     52168     52161     52169     52163     52170     52163     52171
     52172     52173     52174     52175     52172     52174     52174     52176
     52174     52177     52172     52178     52172     52179     52172     52180
     52174     52181     52174     52182     52183     52184     52185     52186
     52183     52185     52185     52187     52185     52188     52183     52189
     52183     52190     52183     52191     52185     52192     52185     52193
     52194     52195     52196     52197     52194     52196     52196     52198
     52196     52199     52194     52200     52194     52201     52194     52202
     52196     52203     52196     52204     52205     52206     52207     52208
     52205     52207     52207     52209     52207     52210     52205     52211
     52205     52212     52205     52213     52207     52214     52207     52215
     52216     52217     52218     52219     52216     52218     52218     52220
     52218     52221     52216     52222     52216     52223     52216     52224
     52218     52225     52218     52226     52227     52228     52229     52230
     52227     52229     52229     52231     52229     52232     52227     52233
     52227     52234     52227     52235     52229     52236     52229     52237
     52238     52239     52240     52241     52238     52240     52240     52242
     52240     52243     52238     52244     52238     52245     52238     52246
     52240     52247     52240     52248     52249     52250     52251     52252
     52249     52251     52251     52253     52251     52254     52249     52255
     52249     52256     52249     52257     52251     52258     52251     52259
     52260     52261     52262     52263     52260     52262     52262     52264
     52262     52265     52260     52266     52260     52267     52260     52268
     52262     52269     52262     52270     52271     52272     52273     52274
     52271     52273     52273     52275     52273     52276     52271     52277
     52271     52278     52271     52279     52273     52280     52273     52281
     52282     52283     52284     52285     52282     52284     52284     52286
     52284     52287     52282     52288     52282     52289     52282     52290
     52284     52291     52284     52292     52293     52294     52295     52296
     52293     52295     52295     52297     52295     52298     52293     52299
     52293     52300     52293     52301     52295     52302     52295     52303
     52304     52305     52306     52307     52304     52306     52306     52308
     52306     52309     52304     52310     52304     52311     52304     52312
     52306     52313     52306     52314     52315     52316     52317     52318
     52315     52317     52317     52319     52317     52320     52315     52321
     52315     52322     52315     52323     52317     52324     52317     52325
     52326     52327     52328     52329     52326     52328     52328     52330
     52328     52331     52326     52332     52326     52333     52326     52334
     52328     52335     52328     52336     52337     52338     52339     52340
     52337     52339     52339     52341     52339     52342     52337     52343
     52337     52344     52337     52345     52339     52346     52339     52347
     52348     52349     52350     52351     52348     52350     52350     52352
     52350     52353     52348     52354     52348     52355     52348     52356
     52350     52357     52350     52358     52359     52360     52361     52362
     52359     52361     52361     52363     52361     52364     52359     52365
     52359     52366     52359     52367     52361     52368     52361     52369
     52370     52371     52372     52373     52370     52372     52372     52374
     52372     52375     52370     52376     52370     52377     52370     52378
     52372     52379     52372     52380     52381     52382     52383     52384
     52381     52383     52383     52385     52383     52386     52381     52387
     52381     52388     52381     52389     52383     52390     52383     52391
     52392     52393     52394     52395     52392     52394     52394     52396
     52394     52397     52392     52398     52392     52399     52392     52400
     52394     52401     52394     52402     52403     52404     52405     52406
     52403     52405     52405     52407     52405     52408     52403     52409
     52403     52410     52403     52411     52405     52412     52405     52413
     52414     52415     52416     52417     52414     52416     52416     52418
     52416     52419     52414     52420     52414     52421     52414     52422
     52416     52423     52416     52424     52425     52426     52427     52428
     52425     52427     52427     52429     52427     52430     52425     52431
     52425     52432     52425     52433     52427     52434     52427     52435
     52436     52437     52438     52439     52436     52438     52438     52440
     52438     52441     52436     52442     52436     52443     52436     52444
     52438     52445     52438     52446     52447     52448     52449     52450
     52447     52449     52449     52451     52449     52452     52447     52453
     52447     52454     52447     52455     52449     52456     52449     52457
     52458     52459     52460     52461     52458     52460     52460     52462
     52460     52463     52458     52464     52458     52465     52458     52466
     52460     52467     52460     52468     52469     52470     52471     52472
     52469     52471     52471     52473     52471     52474     52469     52475
     52469     52476     52469     52477     52471     52478     52471     52479
     52480     52481     52482     52483     52480     52482     52482     52484
     52482     52485     52480     52486     52480     52487     52480     52488
     52482     52489     52482     52490     52491     52492     52493     52494
     52491     52493     52493     52495     52493     52496     52491     52497
     52491     52498     52491     52499     52493     52500     52493     52501
     52502     52503     52504     52505     52502     52504     52504     52506
     52504     52507     52502     52508     52502     52509     52502     52510
     52504     52511     52504     52512     52513     52514     52515     52516
     52513     52515     52515     52517     52515     52518     52513     52519
     52513     52520     52513     52521     52515     52522     52515     52523
     52524     52525     52526     52527     52524     52526     52526     52528
     52526     52529     52524     52530     52524     52531     52524     52532
     52526     52533     52526     52534     52535     52536     52537     52538
     52535     52537     52537     52539     52537     52540     52535     52541
     52535     52542     52535     52543     52537     52544     52537     52545
     52546     52547     52548     52549     52546     52548     52548     52550
     52548     52551     52546     52552     52546     52553     52546     52554
     52548     52555     52548     52556     52557     52558     52559     52560
     52557     52559     52559     52561     52559     52562     52557     52563
     52557     52564     52557     52565     52559     52566     52559     52567
     52568     52569     52570     52571     52568     52570     52570     52572
     52570     52573     52568     52574     52568     52575     52568     52576
     52570     52577     52570     52578     52579     52580     52581     52582
     52579     52581     52581     52583     52581     52584     52579     52585
     52579     52586     52579     52587     52581     52588     52581     52589
     52590     52591     52592     52593     52590     52592     52592     52594
     52592     52595     52590     52596     52590     52597     52590     52598
     52592     52599     52592     52600     52601     52602     52603     52604
     52601     52603     52603     52605     52603     52606     52601     52607
     52601     52608     52601     52609     52603     52610     52603     52611
     52612     52613     52614     52615     52612     52614     52614     52616
     52614     52617     52612     52618     52612     52619     52612     52620
     52614     52621     52614     52622     52623     52624     52625     52626
     52623     52625     52625     52627     52625     52628     52623     52629
     52623     52630     52623     52631     52625     52632     52625     52633
     52634     52635     52636     52637     52634     52636     52636     52638
     52636     52639     52634     52640     52634     52641     52634     52642
     52636     52643     52636     52644     52645     52646     52647     52648
     52645     52647     52647     52649     52647     52650     52645     52651
     52645     52652     52645     52653     52647     52654     52647     52655
     52656     52657     52658     52659     52656     52658     52658     52660
     52658     52661     52656     52662     52656     52663     52656     52664
     52658     52665     52658     52666     52667     52668     52669     52670
     52667     52669     52669     52671     52669     52672     52667     52673
     52667     52674     52667     52675     52669     52676     52669     52677
     52678     52679     52680     52681     52678     52680     52680     52682
     52680     52683     52678     52684     52678     52685     52678     52686
     52680     52687     52680     52688     52689     52690     52691     52692
     52689     52691     52691     52693     52691     52694     52689     52695
     52689     52696     52689     52697     52691     52698     52691     52699
     52700     52701     52702     52703     52700     52702     52702     52704
     52702     52705     52700     52706     52700     52707     52700     52708
     52702     52709     52702     52710     52711     52712     52713     52714
     52711     52713     52713     52715     52713     52716     52711     52717
     52711     52718     52711     52719     52713     52720     52713     52721
     52722     52723     52724     52725     52722     52724     52724     52726
     52724     52727     52722     52728     52722     52729     52722     52730
     52724     52731     52724     52732     52733     52734     52735     52736
     52733     52735     52735     52737     52735     52738     52733     52739
     52733     52740     52733     52741     52735     52742     52735     52743
     52744     52745     52746     52747     52744     52746     52746     52748
     52746     52749     52744     52750     52744     52751     52744     52752
     52746     52753     52746     52754     52755     52756     52757     52758
     52755     52757     52757     52759     52757     52760     52755     52761
     52755     52762     52755     52763     52757     52764     52757     52765
     52766     52767     52768     52769     52766     52768     52768     52770
     52768     52771     52766     52772     52766     52773     52766     52774
     52768     52775     52768     52776     52777     52778     52779     52780
     52777     52779     52779     52781     52779     52782     52777     52783
     52777     52784     52777     52785     52779     52786     52779     52787
     52788     52789     52790     52791     52788     52790     52790     52792
     52790     52793     52788     52794     52788     52795     52788     52796
     52790     52797     52790     52798     52799     52800     52801     52802
     52799     52801     52801     52803     52801     52804     52799     52805
     52799     52806     52799     52807     52801     52808     52801     52809
     52810     52811     52812     52813     52810     52812     52812     52814
     52812     52815     52810     52816     52810     52817     52810     52818
     52812     52819     52812     52820     52821     52822     52823     52824
     52821     52823     52823     52825     52823     52826     52821     52827
     52821     52828     52821     52829     52823     52830     52823     52831
     52832     52833     52834     52835     52832     52834     52834     52836
     52834     52837     52832     52838     52832     52839     52832     52840
     52834     52841     52834     52842     52843     52844     52845     52846
     52843     52845     52845     52847     52845     52848     52843     52849
     52843     52850     52843     52851     52845     52852     52845     52853
     52854     52855     52856     52857     52854     52856     52856     52858
     52856     52859     52854     52860     52854     52861     52854     52862
     52856     52863     52856     52864     52865     52866     52867     52868
     52865     52867     52867     52869     52867     52870     52865     52871
     52865     52872     52865     52873     52867     52874     52867     52875
     52876     52877     52878     52879     52876     52878     52878     52880
     52878     52881     52876     52882     52876     52883     52876     52884
     52878     52885     52878     52886     52887     52888     52889     52890
     52887     52889     52889     52891     52889     52892     52887     52893
     52887     52894     52887     52895     52889     52896     52889     52897
     52898     52899     52900     52901     52898     52900     52900     52902
     52900     52903     52898     52904     52898     52905     52898     52906
     52900     52907     52900     52908     52909     52910     52911     52912
     52909     52911     52911     52913     52911     52914     52909     52915
     52909     52916     52909     52917     52911     52918     52911     52919
     52920     52921     52922     52923     52920     52922     52922     52924
     52922     52925     52920     52926     52920     52927     52920     52928
     52922     52929     52922     52930     52931     52932     52933     52934
     52931     52933     52933     52935     52933     52936     52931     52937
     52931     52938     52931     52939     52933     52940     52933     52941
     52942     52943     52944     52945     52942     52944     52944     52946
     52944     52947     52942     52948     52942     52949     52942     52950
     52944     52951     52944     52952     52953     52954     52955     52956
     52953     52955     52955     52957     52955     52958     52953     52959
     52953     52960     52953     52961     52955     52962     52955     52963
     52964     52965     52966     52967     52964     52966     52966     52968
     52966     52969     52964     52970     52964     52971     52964     52972
     52966     52973     52966     52974     52975     52976     52977     52978
     52975     52977     52977     52979     52977     52980     52975     52981
     52975     52982     52975     52983     52977     52984     52977     52985
     52986     52987     52988     52989     52986     52988     52988     52990
     52988     52991     52986     52992     52986     52993     52986     52994
     52988     52995     52988     52996     52997     52998     52999     53000
     52997     52999     52999     53001     52999     53002     52997     53003
     52997     53004     52997     53005     52999     53006     52999     53007
     53008     53009     53010     53011     53008     53010     53010     53012
     53010     53013     53008     53014     53008     53015     53008     53016
     53010     53017     53010     53018     53019     53020     53021     53022
     53019     53021     53021     53023     53021     53024     53019     53025
     53019     53026     53019     53027     53021     53028     53021     53029
     53030     53031     53032     53033     53030     53032     53032     53034
     53032     53035     53030     53036     53030     53037     53030     53038
     53032     53039     53032     53040     53041     53042     53043     53044
     53041     53043     53043     53045     53043     53046     53041     53047
     53041     53048     53041     53049     53043     53050     53043     53051
     53052     53053     53054     53055     53052     53054     53054     53056
     53054     53057     53052     53058     53052     53059     53052     53060
     53054     53061     53054     53062     53063     53064     53065     53066
     53063     53065     53065     53067     53065     53068     53063     53069
     53063     53070     53063     53071     53065     53072     53065     53073
     53074     53075     53076     53077     53074     53076     53076     53078
     53076     53079     53074     53080     53074     53081     53074     53082
     53076     53083     53076     53084     53085     53086     53087     53088
     53085     53087     53087     53089     53087     53090     53085     53091
     53085     53092     53085     53093     53087     53094     53087     53095
     53096     53097     53098     53099     53096     53098     53098     53100
     53098     53101     53096     53102     53096     53103     53096     53104
     53098     53105     53098     53106     53107     53108     53109     53110
     53107     53109     53109     53111     53109     53112     53107     53113
     53107     53114     53107     53115     53109     53116     53109     53117
     53118     53119     53120     53121     53118     53120     53120     53122
     53120     53123     53118     53124     53118     53125     53118     53126
     53120     53127     53120     53128     53129     53130     53131     53132
     53129     53131     53131     53133     53131     53134     53129     53135
     53129     53136     53129     53137     53131     53138     53131     53139
     53140     53141     53142     53143     53140     53142     53142     53144
     53142     53145     53140     53146     53140     53147     53140     53148
     53142     53149     53142     53150     53151     53152     53153     53154
     53151     53153     53153     53155     53153     53156     53151     53157
     53151     53158     53151     53159     53153     53160     53153     53161
     53162     53163     53164     53165     53162     53164     53164     53166
     53164     53167     53162     53168     53162     53169     53162     53170
     53164     53171     53164     53172     53173     53174     53175     53176
     53173     53175     53175     53177     53175     53178     53173     53179
     53173     53180     53173     53181     53175     53182     53175     53183
     53184     53185     53186     53187     53184     53186     53186     53188
     53186     53189     53184     53190     53184     53191     53184     53192
     53186     53193     53186     53194     53195     53196     53197     53198
     53195     53197     53197     53199     53197     53200     53195     53201
     53195     53202     53195     53203     53197     53204     53197     53205
     53206     53207     53208     53209     53206     53208     53208     53210
     53208     53211     53206     53212     53206     53213     53206     53214
     53208     53215     53208     53216     53217     53218     53219     53220
     53217     53219     53219     53221     53219     53222     53217     53223
     53217     53224     53217     53225     53219     53226     53219     53227
     53228     53229     53230     53231     53228     53230     53230     53232
     53230     53233     53228     53234     53228     53235     53228     53236
     53230     53237     53230     53238     53239     53240     53241     53242
     53239     53241     53241     53243     53241     53244     53239     53245
     53239     53246     53239     53247     53241     53248     53241     53249
     53250     53251     53252     53253     53250     53252     53252     53254
     53252     53255     53250     53256     53250     53257     53250     53258
     53252     53259     53252     53260     53261     53262     53263     53264
     53261     53263     53263     53265     53263     53266     53261     53267
     53261     53268     53261     53269     53263     53270     53263     53271
     53272     53273     53274     53275     53272     53274     53274     53276
     53274     53277     53272     53278     53272     53279     53272     53280
     53274     53281     53274     53282     53283     53284     53285     53286
     53283     53285     53285     53287     53285     53288     53283     53289
     53283     53290     53283     53291     53285     53292     53285     53293
     53294     53295     53296     53297     53294     53296     53296     53298
     53296     53299     53294     53300     53294     53301     53294     53302
     53296     53303     53296     53304     53305     53306     53307     53308
     53305     53307     53307     53309     53307     53310     53305     53311
     53305     53312     53305     53313     53307     53314     53307     53315
     53316     53317     53318     53319     53316     53318     53318     53320
     53318     53321     53316     53322     53316     53323     53316     53324
     53318     53325     53318     53326     53327     53328     53329     53330
     53327     53329     53329     53331     53329     53332     53327     53333
     53327     53334     53327     53335     53329     53336     53329     53337
     53338     53339     53340     53341     53338     53340     53340     53342
     53340     53343     53338     53344     53338     53345     53338     53346
     53340     53347     53340     53348     53349     53350     53351     53352
     53349     53351     53351     53353     53351     53354     53349     53355
     53349     53356     53349     53357     53351     53358     53351     53359
     53360     53361     53362     53363     53360     53362     53362     53364
     53362     53365     53360     53366     53360     53367     53360     53368
     53362     53369     53362     53370     53371     53372     53373     53374
     53371     53373     53373     53375     53373     53376     53371     53377
     53371     53378     53371     53379     53373     53380     53373     53381
     53382     53383     53384     53385     53382     53384     53384     53386
     53384     53387     53382     53388     53382     53389     53382     53390
     53384     53391     53384     53392     53393     53394     53395     53396
     53393     53395     53395     53397     53395     53398     53393     53399
     53393     53400     53393     53401     53395     53402     53395     53403
     53404     53405     53406     53407     53404     53406     53406     53408
     53406     53409     53404     53410     53404     53411     53404     53412
     53406     53413     53406     53414     53415     53416     53417     53418
     53415     53417     53417     53419     53417     53420     53415     53421
     53415     53422     53415     53423     53417     53424     53417     53425
     53426     53427     53428     53429     53426     53428     53428     53430
     53428     53431     53426     53432     53426     53433     53426     53434
     53428     53435     53428     53436     53437     53438     53439     53440
     53437     53439     53439     53441     53439     53442     53437     53443
     53437     53444     53437     53445     53439     53446     53439     53447
     53448     53449     53450     53451     53448     53450     53450     53452
     53450     53453     53448     53454     53448     53455     53448     53456
     53450     53457     53450     53458     53459     53460     53461     53462
     53459     53461     53461     53463     53461     53464     53459     53465
     53459     53466     53459     53467     53461     53468     53461     53469
     53470     53471     53472     53473     53470     53472     53472     53474
     53472     53475     53470     53476     53470     53477     53470     53478
     53472     53479     53472     53480     53481     53482     53483     53484
     53481     53483     53483     53485     53483     53486     53481     53487
     53481     53488     53481     53489     53483     53490     53483     53491
     53492     53493     53494     53495     53492     53494     53494     53496
     53494     53497     53492     53498     53492     53499     53492     53500
     53494     53501     53494     53502     53503     53504     53505     53506
     53503     53505     53505     53507     53505     53508     53503     53509
     53503     53510     53503     53511     53505     53512     53505     53513
     53514     53515     53516     53517     53514     53516     53516     53518
     53516     53519     53514     53520     53514     53521     53514     53522
     53516     53523     53516     53524     53525     53526     53527     53528
     53525     53527     53527     53529     53527     53530     53525     53531
     53525     53532     53525     53533     53527     53534     53527     53535
     53536     53537     53538     53539     53536     53538     53538     53540
     53538     53541     53536     53542     53536     53543     53536     53544
     53538     53545     53538     53546     53547     53548     53549     53550
     53547     53549     53549     53551     53549     53552     53547     53553
     53547     53554     53547     53555     53549     53556     53549     53557
     53558     53559     53560     53561     53558     53560     53560     53562
     53560     53563     53558     53564     53558     53565     53558     53566
     53560     53567     53560     53568     53569     53570     53571     53572
     53569     53571     53571     53573     53571     53574     53569     53575
     53569     53576     53569     53577     53571     53578     53571     53579
     53580     53581     53582     53583     53580     53582     53582     53584
     53582     53585     53580     53586     53580     53587     53580     53588
     53582     53589     53582     53590     53591     53592     53593     53594
     53591     53593     53593     53595     53593     53596     53591     53597
     53591     53598     53591     53599     53593     53600     53593     53601
     53602     53603     53604     53605     53602     53604     53604     53606
     53604     53607     53602     53608     53602     53609     53602     53610
     53604     53611     53604     53612     53613     53614     53615     53616
     53613     53615     53615     53617     53615     53618     53613     53619
     53613     53620     53613     53621     53615     53622     53615     53623
     53624     53625     53626     53627     53624     53626     53626     53628
     53626     53629     53624     53630     53624     53631     53624     53632
     53626     53633     53626     53634     53635     53636     53637     53638
     53635     53637     53637     53639     53637     53640     53635     53641
     53635     53642     53635     53643     53637     53644     53637     53645
     53646     53647     53648     53649     53646     53648     53648     53650
     53648     53651     53646     53652     53646     53653     53646     53654
     53648     53655     53648     53656     53657     53658     53659     53660
     53657     53659     53659     53661     53659     53662     53657     53663
     53657     53664     53657     53665     53659     53666     53659     53667
     53668     53669     53670     53671     53668     53670     53670     53672
     53670     53673     53668     53674     53668     53675     53668     53676
     53670     53677     53670     53678     53679     53680     53681     53682
     53679     53681     53681     53683     53681     53684     53679     53685
     53679     53686     53679     53687     53681     53688     53681     53689
     53690     53691     53692     53693     53690     53692     53692     53694
     53692     53695     53690     53696     53690     53697     53690     53698
     53692     53699     53692     53700     53701     53702     53703     53704
     53701     53703     53703     53705     53703     53706     53701     53707
     53701     53708     53701     53709     53703     53710     53703     53711
     53712     53713     53714     53715     53712     53714     53714     53716
     53714     53717     53712     53718     53712     53719     53712     53720
     53714     53721     53714     53722     53723     53724     53725     53726
     53723     53725     53725     53727     53725     53728     53723     53729
     53723     53730     53723     53731     53725     53732     53725     53733
     53734     53735     53736     53737     53734     53736     53736     53738
     53736     53739     53734     53740     53734     53741     53734     53742
     53736     53743     53736     53744     53745     53746     53747     53748
     53745     53747     53747     53749     53747     53750     53745     53751
     53745     53752     53745     53753     53747     53754     53747     53755
     53756     53757     53758     53759     53756     53758     53758     53760
     53758     53761     53756     53762     53756     53763     53756     53764
     53758     53765     53758     53766     53767     53768     53769     53770
     53767     53769     53769     53771     53769     53772     53767     53773
     53767     53774     53767     53775     53769     53776     53769     53777
     53778     53779     53780     53781     53778     53780     53780     53782
     53780     53783     53778     53784     53778     53785     53778     53786
     53780     53787     53780     53788     53789     53790     53791     53792
     53789     53791     53791     53793     53791     53794     53789     53795
     53789     53796     53789     53797     53791     53798     53791     53799
     53800     53801     53802     53803     53800     53802     53802     53804
     53802     53805     53800     53806     53800     53807     53800     53808
     53802     53809     53802     53810     53811     53812     53813     53814
     53811     53813     53813     53815     53813     53816     53811     53817
     53811     53818     53811     53819     53813     53820     53813     53821
     53822     53823     53824     53825     53822     53824     53824     53826
     53824     53827     53822     53828     53822     53829     53822     53830
     53824     53831     53824     53832     53833     53834     53835     53836
     53833     53835     53835     53837     53835     53838     53833     53839
     53833     53840     53833     53841     53835     53842     53835     53843
     53844     53845     53846     53847     53844     53846     53846     53848
     53846     53849     53844     53850     53844     53851     53844     53852
     53846     53853     53846     53854     53855     53856     53857     53858
     53855     53857     53857     53859     53857     53860     53855     53861
     53855     53862     53855     53863     53857     53864     53857     53865
     53866     53867     53868     53869     53866     53868     53868     53870
     53868     53871     53866     53872     53866     53873     53866     53874
     53868     53875     53868     53876     53877     53878     53879     53880
     53877     53879     53879     53881     53879     53882     53877     53883
     53877     53884     53877     53885     53879     53886     53879     53887
     53888     53889     53890     53891     53888     53890     53890     53892
     53890     53893     53888     53894     53888     53895     53888     53896
     53890     53897     53890     53898     53899     53900     53901     53902
     53899     53901     53901     53903     53901     53904     53899     53905
     53899     53906     53899     53907     53901     53908     53901     53909
     53910     53911     53912     53913     53910     53912     53912     53914
     53912     53915     53910     53916     53910     53917     53910     53918
     53912     53919     53912     53920     53921     53922     53923     53924
     53921     53923     53923     53925     53923     53926     53921     53927
     53921     53928     53921     53929     53923     53930     53923     53931
     53932     53933     53934     53935     53932     53934     53934     53936
     53934     53937     53932     53938     53932     53939     53932     53940
     53934     53941     53934     53942     53943     53944     53945     53946
     53943     53945     53945     53947     53945     53948     53943     53949
     53943     53950     53943     53951     53945     53952     53945     53953
     53954     53955     53956     53957     53954     53956     53956     53958
     53956     53959     53954     53960     53954     53961     53954     53962
     53956     53963     53956     53964     53965     53966     53967     53968
     53965     53967     53967     53969     53967     53970     53965     53971
     53965     53972     53965     53973     53967     53974     53967     53975
     53976     53977     53978     53979     53976     53978     53978     53980
     53978     53981     53976     53982     53976     53983     53976     53984
     53978     53985     53978     53986     53987     53988     53989     53990
     53987     53989     53989     53991     53989     53992     53987     53993
     53987     53994     53987     53995     53989     53996     53989     53997
     53998     53999     54000     54001     53998     54000     54000     54002
     54000     54003     53998     54004     53998     54005     53998     54006
     54000     54007     54000     54008     54009     54010     54011     54012
     54009     54011     54011     54013     54011     54014     54009     54015
     54009     54016     54009     54017     54011     54018     54011     54019
     54020     54021     54022     54023     54020     54022     54022     54024
     54022     54025     54020     54026     54020     54027     54020     54028
     54022     54029     54022     54030     54031     54032     54033     54034
     54031     54033     54033     54035     54033     54036     54031     54037
     54031     54038     54031     54039     54033     54040     54033     54041
     54042     54043     54044     54045     54042     54044     54044     54046
     54044     54047     54042     54048     54042     54049     54042     54050
     54044     54051     54044     54052     54053     54054     54055     54056
     54053     54055     54055     54057     54055     54058     54053     54059
     54053     54060     54053     54061     54055     54062     54055     54063
     54064     54065     54066     54067     54064     54066     54066     54068
     54066     54069     54064     54070     54064     54071     54064     54072
     54066     54073     54066     54074     54075     54076     54077     54078
     54075     54077     54077     54079     54077     54080     54075     54081
     54075     54082     54075     54083     54077     54084     54077     54085
     54086     54087     54088     54089     54086     54088     54088     54090
     54088     54091     54086     54092     54086     54093     54086     54094
     54088     54095     54088     54096     54097     54098     54099     54100
     54097     54099     54099     54101     54099     54102     54097     54103
     54097     54104     54097     54105     54099     54106     54099     54107
     54108     54109     54110     54111     54108     54110     54110     54112
     54110     54113     54108     54114     54108     54115     54108     54116
     54110     54117     54110     54118     54119     54120     54121     54122
     54119     54121     54121     54123     54121     54124     54119     54125
     54119     54126     54119     54127     54121     54128     54121     54129
     54130     54131     54132     54133     54130     54132     54132     54134
     54132     54135     54130     54136     54130     54137     54130     54138
     54132     54139     54132     54140     54141     54142     54143     54144
     54141     54143     54143     54145     54143     54146     54141     54147
     54141     54148     54141     54149     54143     54150     54143     54151
     54152     54153     54154     54155     54152     54154     54154     54156
     54154     54157     54152     54158     54152     54159     54152     54160
     54154     54161     54154     54162     54163     54164     54165     54166
     54163     54165     54165     54167     54165     54168     54163     54169
     54163     54170     54163     54171     54165     54172     54165     54173
     54174     54175     54176     54177     54174     54176     54176     54178
     54176     54179     54174     54180     54174     54181     54174     54182
     54176     54183     54176     54184     54185     54186     54187     54188
     54185     54187     54187     54189     54187     54190     54185     54191
     54185     54192     54185     54193     54187     54194     54187     54195
     54196     54197     54198     54199     54196     54198     54198     54200
     54198     54201     54196     54202     54196     54203     54196     54204
     54198     54205     54198     54206     54207     54208     54209     54210
     54207     54209     54209     54211     54209     54212     54207     54213
     54207     54214     54207     54215     54209     54216     54209     54217
     54218     54219     54220     54221     54218     54220     54220     54222
     54220     54223     54218     54224     54218     54225     54218     54226
     54220     54227     54220     54228     54229     54230     54231     54232
     54229     54231     54231     54233     54231     54234     54229     54235
     54229     54236     54229     54237     54231     54238     54231     54239
     54240     54241     54242     54243     54240     54242     54242     54244
     54242     54245     54240     54246     54240     54247     54240     54248
     54242     54249     54242     54250     54251     54252     54253     54254
     54251     54253     54253     54255     54253     54256     54251     54257
     54251     54258     54251     54259     54253     54260     54253     54261
     54262     54263     54264     54265     54262     54264     54264     54266
     54264     54267     54262     54268     54262     54269     54262     54270
     54264     54271     54264     54272     54273     54274     54275     54276
     54273     54275     54275     54277     54275     54278     54273     54279
     54273     54280     54273     54281     54275     54282     54275     54283
     54284     54285     54286     54287     54284     54286     54286     54288
     54286     54289     54284     54290     54284     54291     54284     54292
     54286     54293     54286     54294     54295     54296     54297     54298
     54295     54297     54297     54299     54297     54300     54295     54301
     54295     54302     54295     54303     54297     54304     54297     54305
     54306     54307     54308     54309     54306     54308     54308     54310
     54308     54311     54306     54312     54306     54313     54306     54314
     54308     54315     54308     54316     54317     54318     54319     54320
     54317     54319     54319     54321     54319     54322     54317     54323
     54317     54324     54317     54325     54319     54326     54319     54327
     54328     54329     54330     54331     54328     54330     54330     54332
     54330     54333     54328     54334     54328     54335     54328     54336
     54330     54337     54330     54338     54339     54340     54341     54342
     54339     54341     54341     54343     54341     54344     54339     54345
     54339     54346     54339     54347     54341     54348     54341     54349
     54350     54351     54352     54353     54350     54352     54352     54354
     54352     54355     54350     54356     54350     54357     54350     54358
     54352     54359     54352     54360     54361     54362     54363     54364
     54361     54363     54363     54365     54363     54366     54361     54367
     54361     54368     54361     54369     54363     54370     54363     54371
     54372     54373     54374     54375     54372     54374     54374     54376
     54374     54377     54372     54378     54372     54379     54372     54380
     54374     54381     54374     54382     54383     54384     54385     54386
     54383     54385     54385     54387     54385     54388     54383     54389
     54383     54390     54383     54391     54385     54392     54385     54393
     54394     54395     54396     54397     54394     54396     54396     54398
     54396     54399     54394     54400     54394     54401     54394     54402
     54396     54403     54396     54404     54405     54406     54407     54408
     54405     54407     54407     54409     54407     54410     54405     54411
     54405     54412     54405     54413     54407     54414     54407     54415
     54416     54417     54418     54419     54416     54418     54418     54420
     54418     54421     54416     54422     54416     54423     54416     54424
     54418     54425     54418     54426     54427     54428     54429     54430
     54427     54429     54429     54431     54429     54432     54427     54433
     54427     54434     54427     54435     54429     54436     54429     54437
     54438     54439     54440     54441     54438     54440     54440     54442
     54440     54443     54438     54444     54438     54445     54438     54446
     54440     54447     54440     54448     54449     54450     54451     54452
     54449     54451     54451     54453     54451     54454     54449     54455
     54449     54456     54449     54457     54451     54458     54451     54459
     54460     54461     54462     54463     54460     54462     54462     54464
     54462     54465     54460     54466     54460     54467     54460     54468
     54462     54469     54462     54470     54471     54472     54473     54474
     54471     54473     54473     54475     54473     54476     54471     54477
     54471     54478     54471     54479     54473     54480     54473     54481
     54482     54483     54484     54485     54482     54484     54484     54486
     54484     54487     54482     54488     54482     54489     54482     54490
     54484     54491     54484     54492     54493     54494     54495     54496
     54493     54495     54495     54497     54495     54498     54493     54499
     54493     54500     54493     54501     54495     54502     54495     54503
     54504     54505     54506     54507     54504     54506     54506     54508
     54506     54509     54504     54510     54504     54511     54504     54512
     54506     54513     54506     54514     54515     54516     54517     54518
     54515     54517     54517     54519     54517     54520     54515     54521
     54515     54522     54515     54523     54517     54524     54517     54525
     54526     54527     54528     54529     54526     54528     54528     54530
     54528     54531     54526     54532     54526     54533     54526     54534
     54528     54535     54528     54536     54537     54538     54539     54540
     54537     54539     54539     54541     54539     54542     54537     54543
     54537     54544     54537     54545     54539     54546     54539     54547
     54548     54549     54550     54551     54548     54550     54550     54552
     54550     54553     54548     54554     54548     54555     54548     54556
     54550     54557     54550     54558     54559     54560     54561     54562
     54559     54561     54561     54563     54561     54564     54559     54565
     54559     54566     54559     54567     54561     54568     54561     54569
     54570     54571     54572     54573     54570     54572     54572     54574
     54572     54575     54570     54576     54570     54577     54570     54578
     54572     54579     54572     54580     54581     54582     54583     54584
     54581     54583     54583     54585     54583     54586     54581     54587
     54581     54588     54581     54589     54583     54590     54583     54591
     54592     54593     54594     54595     54592     54594     54594     54596
     54594     54597     54592     54598     54592     54599     54592     54600
     54594     54601     54594     54602     54603     54604     54605     54606
     54603     54605     54605     54607     54605     54608     54603     54609
     54603     54610     54603     54611     54605     54612     54605     54613
     54614     54615     54616     54617     54614     54616     54616     54618
     54616     54619     54614     54620     54614     54621     54614     54622
     54616     54623     54616     54624     54625     54626     54627     54628
     54625     54627     54627     54629     54627     54630     54625     54631
     54625     54632     54625     54633     54627     54634     54627     54635
     54636     54637     54638     54639     54636     54638     54638     54640
     54638     54641     54636     54642     54636     54643     54636     54644
     54638     54645     54638     54646     54647     54648     54649     54650
     54647     54649     54649     54651     54649     54652     54647     54653
     54647     54654     54647     54655     54649     54656     54649     54657
     54658     54659     54660     54661     54658     54660     54660     54662
     54660     54663     54658     54664     54658     54665     54658     54666
     54660     54667     54660     54668     54669     54670     54671     54672
     54669     54671     54671     54673     54671     54674     54669     54675
     54669     54676     54669     54677     54671     54678     54671     54679
     54680     54681     54682     54683     54680     54682     54682     54684
     54682     54685     54680     54686     54680     54687     54680     54688
     54682     54689     54682     54690     54691     54692     54693     54694
     54691     54693     54693     54695     54693     54696     54691     54697
     54691     54698     54691     54699     54693     54700     54693     54701
     54702     54703     54704     54705     54702     54704     54704     54706
     54704     54707     54702     54708     54702     54709     54702     54710
     54704     54711     54704     54712     54713     54714     54715     54716
     54713     54715     54715     54717     54715     54718     54713     54719
     54713     54720     54713     54721     54715     54722     54715     54723
     54724     54725     54726     54727     54724     54726     54726     54728
     54726     54729     54724     54730     54724     54731     54724     54732
     54726     54733     54726     54734     54735     54736     54737     54738
     54735     54737     54737     54739     54737     54740     54735     54741
     54735     54742     54735     54743     54737     54744     54737     54745
     54746     54747     54748     54749     54746     54748     54748     54750
     54748     54751     54746     54752     54746     54753     54746     54754
     54748     54755     54748     54756     54757     54758     54759     54760
     54757     54759     54759     54761     54759     54762     54757     54763
     54757     54764     54757     54765     54759     54766     54759     54767
     54768     54769     54770     54771     54768     54770     54770     54772
     54770     54773     54768     54774     54768     54775     54768     54776
     54770     54777     54770     54778     54779     54780     54781     54782
     54779     54781     54781     54783     54781     54784     54779     54785
     54779     54786     54779     54787     54781     54788     54781     54789
     54790     54791     54792     54793     54790     54792     54792     54794
     54792     54795     54790     54796     54790     54797     54790     54798
     54792     54799     54792     54800     54801     54802     54803     54804
     54801     54803     54803     54805     54803     54806     54801     54807
     54801     54808     54801     54809     54803     54810     54803     54811
     54812     54813     54814     54815     54812     54814     54814     54816
     54814     54817     54812     54818     54812     54819     54812     54820
     54814     54821     54814     54822     54823     54824     54825     54826
     54823     54825     54825     54827     54825     54828     54823     54829
     54823     54830     54823     54831     54825     54832     54825     54833
     54834     54835     54836     54837     54834     54836     54836     54838
     54836     54839     54834     54840     54834     54841     54834     54842
     54836     54843     54836     54844     54845     54846     54847     54848
     54845     54847     54847     54849     54847     54850     54845     54851
     54845     54852     54845     54853     54847     54854     54847     54855
     54856     54857     54858     54859     54856     54858     54858     54860
     54858     54861     54856     54862     54856     54863     54856     54864
     54858     54865     54858     54866     54867     54868     54869     54870
     54867     54869     54869     54871     54869     54872     54867     54873
     54867     54874     54867     54875     54869     54876     54869     54877
     54878     54879     54880     54881     54878     54880     54880     54882
     54880     54883     54878     54884     54878     54885     54878     54886
     54880     54887     54880     54888     54889     54890     54891     54892
     54889     54891     54891     54893     54891     54894     54889     54895
     54889     54896     54889     54897     54891     54898     54891     54899
     54900     54901     54902     54903     54900     54902     54902     54904
     54902     54905     54900     54906     54900     54907     54900     54908
     54902     54909     54902     54910     54911     54912     54913     54914
     54911     54913     54913     54915     54913     54916     54911     54917
     54911     54918     54911     54919     54913     54920     54913     54921
     54922     54923     54924     54925     54922     54924     54924     54926
     54924     54927     54922     54928     54922     54929     54922     54930
     54924     54931     54924     54932     54933     54934     54935     54936
     54933     54935     54935     54937     54935     54938     54933     54939
     54933     54940     54933     54941     54935     54942     54935     54943
     54944     54945     54946     54947     54944     54946     54946     54948
     54946     54949     54944     54950     54944     54951     54944     54952
     54946     54953     54946     54954     54955     54956     54957     54958
     54955     54957     54957     54959     54957     54960     54955     54961
     54955     54962     54955     54963     54957     54964     54957     54965
     54966     54967     54968     54969     54966     54968     54968     54970
     54968     54971     54966     54972     54966     54973     54966     54974
     54968     54975     54968     54976     54977     54978     54979     54980
     54977     54979     54979     54981     54979     54982     54977     54983
     54977     54984     54977     54985     54979     54986     54979     54987
     54988     54989     54990     54991     54988     54990     54990     54992
     54990     54993     54988     54994     54988     54995     54988     54996
     54990     54997     54990     54998     54999     55000     55001     55002
     54999     55001     55001     55003     55001     55004     54999     55005
     54999     55006     54999     55007     55001     55008     55001     55009
     55010     55011     55012     55013     55010     55012     55012     55014
     55012     55015     55010     55016     55010     55017     55010     55018
     55012     55019     55012     55020     55021     55022     55023     55024
     55021     55023     55023     55025     55023     55026     55021     55027
     55021     55028     55021     55029     55023     55030     55023     55031
     55032     55033     55034     55035     55032     55034     55034     55036
     55034     55037     55032     55038     55032     55039     55032     55040
     55034     55041     55034     55042     55043     55044     55045     55046
     55043     55045     55045     55047     55045     55048     55043     55049
     55043     55050     55043     55051     55045     55052     55045     55053
     55054     55055     55056     55057     55054     55056     55056     55058
     55056     55059     55054     55060     55054     55061     55054     55062
     55056     55063     55056     55064     55065     55066     55067     55068
     55065     55067     55067     55069     55067     55070     55065     55071
     55065     55072     55065     55073     55067     55074     55067     55075
     55076     55077     55078     55079     55076     55078     55078     55080
     55078     55081     55076     55082     55076     55083     55076     55084
     55078     55085     55078     55086     55087     55088     55089     55090
     55087     55089     55089     55091     55089     55092     55087     55093
     55087     55094     55087     55095     55089     55096     55089     55097
     55098     55099     55100     55101     55098     55100     55100     55102
     55100     55103     55098     55104     55098     55105     55098     55106
     55100     55107     55100     55108     55109     55110     55111     55112
     55109     55111     55111     55113     55111     55114     55109     55115
     55109     55116     55109     55117     55111     55118     55111     55119
     55120     55121     55122     55123     55120     55122     55122     55124
     55122     55125     55120     55126     55120     55127     55120     55128
     55122     55129     55122     55130     55131     55132     55133     55134
     55131     55133     55133     55135     55133     55136     55131     55137
     55131     55138     55131     55139     55133     55140     55133     55141
     55142     55143     55144     55145     55142     55144     55144     55146
     55144     55147     55142     55148     55142     55149     55142     55150
     55144     55151     55144     55152     55153     55154     55155     55156
     55153     55155     55155     55157     55155     55158     55153     55159
     55153     55160     55153     55161     55155     55162     55155     55163
     55164     55165     55166     55167     55164     55166     55166     55168
     55166     55169     55164     55170     55164     55171     55164     55172
     55166     55173     55166     55174     55175     55176     55177     55178
     55175     55177     55177     55179     55177     55180     55175     55181
     55175     55182     55175     55183     55177     55184     55177     55185

     45835 !NTHETA: angles
         3         1         4         3         1         5         3         1         6
         4         1         5         4         1         6         5         1         6
         1         6         8         1         6        14         8         6        14
         6         8        10         6         8        11        10         8        11
         8        11        13         8        11        17        13        11        17
         6        14        16         6        14        17        16        14        17
        11        17        14        11        17        19        14        17        19
        23        21        24        23        21        25        23        21        26
        24        21        25        24        21        26        25        21        26
        21        26        28        21        26        34        28        26        34
        26        28        30        26        28        31        30        28        31
        28        31        33        28        31        37        33        31        37
        26        34        36        26        34        37        36        34        37
        31        37        34        31        37        39        34        37        39
        43        41        44        43        41        45        43        41        46
        44        41        45        44        41        46        45        41        46
        41        46        48        41        46        54        48        46        54
        46        48        50        46        48        51        50        48        51
        48        51        53        48        51        57        53        51        57
        46        54        56        46        54        57        56        54        57
        51        57        54        51        57        59        54        57        59
        63        61        64        63        61        65        63        61        66
        64        61        65        64        61        66        65        61        66
        61        66        68        61        66        74        68        66        74
        66        68        70        66        68        71        70        68        71
        68        71        73        68        71        77        73        71        77
        66        74        76        66        74        77        76        74        77
        71        77        74        71        77        79        74        77        79
        83        81        84        83        81        85        83        81        86
        84        81        85        84        81        86        85        81        86
        81        86        88        81        86        94        88        86        94
        86        88        90        86        88        91        90        88        91
        88        91        93        88        91        97        93        91        97
        86        94        96        86        94        97        96        94        97
        91        97        94        91        97        99        94        97        99
       103       101       104       103       101       105       103       101       106
       104       101       105       104       101       106       105       101       106
       101       106       108       101       106       114       108       106       114
       106       108       110       106       108       111       110       108       111
       108       111       113       108       111       117       113       111       117
       106       114       116       106       114       117       116       114       117
       111       117       114       111       117       119       114       117       119
       123       121       124       123       121       125       123       121       126
       124       121       125       124       121       126       125       121       126
       121       126       128       121       126       134       128       126       134
       126       128       130       126       128       131       130       128       131
       128       131       133       128       131       137       133       131       137
       126       134       136       126       134       137       136       134       137
       131       137       134       131       137       139       134       137       139
       143       141       144       143       141       145       143       141       146
       144       141       145       144       141       146       145       141       146
       141       146       148       141       146       154       148       146       154
       146       148       150       146       148       151       150       148       151
       148       151       153       148       151       157       153       151       157
       146       154       156       146       154       157       156       154       157
       151       157       154       151       157       159       154       157       159
       163       161       164       163       161       165       163       161       166
       164       161       165       164       161       166       165       161       166
       161       166       168       161       166       174       168       166       174
       166       168       170       166       168       171       170       168       171
       168       171       173       168       171       177       173       171       177
       166       174       176       166       174       177       176       174       177
       171       177       174       171       177       179       174       177       179
       183       181       184       183       181       185       183       181       186
       184       181       185       184       181       186       185       181       186
       181       186       188       181       186       194       188       186       194
       186       188       190       186       188       191       190       188       191
       188       191       193       188       191       197       193       191       197
       186       194       196       186       194       197       196       194       197
       191       197       194       191       197       199       194       197       199
       203       201       204       203       201       205       203       201       206
       204       201       205       204       201       206       205       201       206
       201       206       208       201       206       214       208       206       214
       206       208       210       206       208       211       210       208       211
       208       211       213       208       211       217       213       211       217
       206       214       216       206       214       217       216       214       217
       211       217       214       211       217       219       214       217       219
       223       221       224       223       221       225       223       221       226
       224       221       225       224       221       226       225       221       226
       221       226       228       221       226       234       228       226       234
       226       228       230       226       228       231       230       228       231
       228       231       233       228       231       237       233       231       237
       226       234       236       226       234       237       236       234       237
       231       237       234       231       237       239       234       237       239
       243       241       244       243       241       245       243       241       246
       244       241       245       244       241       246       245       241       246
       241       246       248       241       246       254       248       246       254
       246       248       250       246       248       251       250       248       251
       248       251       253       248       251       257       253       251       257
       246       254       256       246       254       257       256       254       257
       251       257       254       251       257       259       254       257       259
       263       261       264       263       261       265       263       261       266
       264       261       265       264       261       266       265       261       266
       261       266       268       261       266       274       268       266       274
       266       268       270       266       268       271       270       268       271
       268       271       273       268       271       277       273       271       277
       266       274       276       266       274       277       276       274       277
       271       277       274       271       277       279       274       277       279
       283       281       284       283       281       285       283       281       286
       284       281       285       284       281       286       285       281       286
       281       286       288       281       286       294       288       286       294
       286       288       290       286       288       291       290       288       291
       288       291       293       288       291       297       293       291       297
       286       294       296       286       294       297       296       294       297
       291       297       294       291       297       299       294       297       299
       303       301       304       303       301       305       303       301       306
       304       301       305       304       301       306       305       301       306
       301       306       308       301       306       314       308       306       314
       306       308       310       306       308       311       310       308       311
       308       311       313       308       311       317       313       311       317
       306       314       316       306       314       317       316       314       317
       311       317       314       311       317       319       314       317       319
       323       321       324       323       321       325       323       321       326
       324       321       325       324       321       326       325       321       326
       321       326       328       321       326       334       328       326       334
       326       328       330       326       328       331       330       328       331
       328       331       333       328       331       337       333       331       337
       326       334       336       326       334       337       336       334       337
       331       337       334       331       337       339       334       337       339
       343       341       344       343       341       345       343       341       346
       344       341       345       344       341       346       345       341       346
       341       346       348       341       346       354       348       346       354
       346       348       350       346       348       351       350       348       351
       348       351       353       348       351       357       353       351       357
       346       354       356       346       354       357       356       354       357
       351       357       354       351       357       359       354       357       359
       363       361       364       363       361       365       363       361       366
       364       361       365       364       361       366       365       361       366
       361       366       368       361       366       374       368       366       374
       366       368       370       366       368       371       370       368       371
       368       371       373       368       371       377       373       371       377
       366       374       376       366       374       377       376       374       377
       371       377       374       371       377       379       374       377       379
       383       381       384       383       381       385       383       381       386
       384       381       385       384       381       386       385       381       386
       381       386       388       381       386       394       388       386       394
       386       388       390       386       388       391       390       388       391
       388       391       393       388       391       397       393       391       397
       386       394       396       386       394       397       396       394       397
       391       397       394       391       397       399       394       397       399
       403       401       404       403       401       405       403       401       406
       404       401       405       404       401       406       405       401       406
       401       406       408       401       406       414       408       406       414
       406       408       410       406       408       411       410       408       411
       408       411       413       408       411       417       413       411       417
       406       414       416       406       414       417       416       414       417
       411       417       414       411       417       419       414       417       419
       423       421       424       423       421       425       423       421       426
       424       421       425       424       421       426       425       421       426
       421       426       428       421       426       434       428       426       434
       426       428       430       426       428       431       430       428       431
       428       431       433       428       431       437       433       431       437
       426       434       436       426       434       437       436       434       437
       431       437       434       431       437       439       434       437       439
       443       441       444       443       441       445       443       441       446
       444       441       445       444       441       446       445       441       446
       441       446       448       441       446       454       448       446       454
       446       448       450       446       448       451       450       448       451
       448       451       453       448       451       457       453       451       457
       446       454       456       446       454       457       456       454       457
       451       457       454       451       457       459       454       457       459
       463       461       464       463       461       465       463       461       466
       464       461       465       464       461       466       465       461       466
       461       466       468       461       466       474       468       466       474
       466       468       470       466       468       471       470       468       471
       468       471       473       468       471       477       473       471       477
       466       474       476       466       474       477       476       474       477
       471       477       474       471       477       479       474       477       479
       483       481       484       483       481       485       483       481       486
       484       481       485       484       481       486       485       481       486
       481       486       488       481       486       494       488       486       494
       486       488       490       486       488       491       490       488       491
       488       491       493       488       491       497       493       491       497
       486       494       496       486       494       497       496       494       497
       491       497       494       491       497       499       494       497       499
       503       501       504       503       501       505       503       501       506
       504       501       505       504       501       506       505       501       506
       501       506       508       501       506       514       508       506       514
       506       508       510       506       508       511       510       508       511
       508       511       513       508       511       517       513       511       517
       506       514       516       506       514       517       516       514       517
       511       517       514       511       517       519       514       517       519
       523       521       524       523       521       525       523       521       526
       524       521       525       524       521       526       525       521       526
       521       526       528       521       526       534       528       526       534
       526       528       530       526       528       531       530       528       531
       528       531       533       528       531       537       533       531       537
       526       534       536       526       534       537       536       534       537
       531       537       534       531       537       539       534       537       539
       543       541       544       543       541       545       543       541       546
       544       541       545       544       541       546       545       541       546
       541       546       548       541       546       554       548       546       554
       546       548       550       546       548       551       550       548       551
       548       551       553       548       551       557       553       551       557
       546       554       556       546       554       557       556       554       557
       551       557       554       551       557       559       554       557       559
       563       561       564       563       561       565       563       561       566
       564       561       565       564       561       566       565       561       566
       561       566       568       561       566       574       568       566       574
       566       568       570       566       568       571       570       568       571
       568       571       573       568       571       577       573       571       577
       566       574       576       566       574       577       576       574       577
       571       577       574       571       577       579       574       577       579
       583       581       584       583       581       585       583       581       586
       584       581       585       584       581       586       585       581       586
       581       586       588       581       586       594       588       586       594
       586       588       590       586       588       591       590       588       591
       588       591       593       588       591       597       593       591       597
       586       594       596       586       594       597       596       594       597
       591       597       594       591       597       599       594       597       599
       603       601       604       603       601       605       603       601       606
       604       601       605       604       601       606       605       601       606
       601       606       608       601       606       614       608       606       614
       606       608       610       606       608       611       610       608       611
       608       611       613       608       611       617       613       611       617
       606       614       616       606       614       617       616       614       617
       611       617       614       611       617       619       614       617       619
       623       621       624       623       621       625       623       621       626
       624       621       625       624       621       626       625       621       626
       621       626       628       621       626       634       628       626       634
       626       628       630       626       628       631       630       628       631
       628       631       633       628       631       637       633       631       637
       626       634       636       626       634       637       636       634       637
       631       637       634       631       637       639       634       637       639
       643       641       644       643       641       645       643       641       646
       644       641       645       644       641       646       645       641       646
       641       646       648       641       646       654       648       646       654
       646       648       650       646       648       651       650       648       651
       648       651       653       648       651       657       653       651       657
       646       654       656       646       654       657       656       654       657
       651       657       654       651       657       659       654       657       659
       663       661       664       663       661       665       663       661       666
       664       661       665       664       661       666       665       661       666
       661       666       668       661       666       674       668       666       674
       666       668       670       666       668       671       670       668       671
       668       671       673       668       671       677       673       671       677
       666       674       676       666       674       677       676       674       677
       671       677       674       671       677       679       674       677       679
       683       681       684       683       681       685       683       681       686
       684       681       685       684       681       686       685       681       686
       681       686       688       681       686       694       688       686       694
       686       688       690       686       688       691       690       688       691
       688       691       693       688       691       697       693       691       697
       686       694       696       686       694       697       696       694       697
       691       697       694       691       697       699       694       697       699
       703       701       704       703       701       705       703       701       706
       704       701       705       704       701       706       705       701       706
       701       706       708       701       706       714       708       706       714
       706       708       710       706       708       711       710       708       711
       708       711       713       708       711       717       713       711       717
       706       714       716       706       714       717       716       714       717
       711       717       714       711       717       719       714       717       719
       723       721       724       723       721       725       723       721       726
       724       721       725       724       721       726       725       721       726
       721       726       728       721       726       734       728       726       734
       726       728       730       726       728       731       730       728       731
       728       731       733       728       731       737       733       731       737
       726       734       736       726       734       737       736       734       737
       731       737       734       731       737       739       734       737       739
       743       741       744       743       741       745       743       741       746
       744       741       745       744       741       746       745       741       746
       741       746       748       741       746       754       748       746       754
       746       748       750       746       748       751       750       748       751
       748       751       753       748       751       757       753       751       757
       746       754       756       746       754       757       756       754       757
       751       757       754       751       757       759       754       757       759
       763       761       764       763       761       765       763       761       766
       764       761       765       764       761       766       765       761       766
       761       766       768       761       766       774       768       766       774
       766       768       770       766       768       771       770       768       771
       768       771       773       768       771       777       773       771       777
       766       774       776       766       774       777       776       774       777
       771       777       774       771       777       779       774       777       779
       783       781       784       783       781       785       783       781       786
       784       781       785       784       781       786       785       781       786
       781       786       788       781       786       794       788       786       794
       786       788       790       786       788       791       790       788       791
       788       791       793       788       791       797       793       791       797
       786       794       796       786       794       797       796       794       797
       791       797       794       791       797       799       794       797       799
       803       801       804       803       801       805       803       801       806
       804       801       805       804       801       806       805       801       806
       801       806       808       801       806       814       808       806       814
       806       808       810       806       808       811       810       808       811
       808       811       813       808       811       817       813       811       817
       806       814       816       806       814       817       816       814       817
       811       817       814       811       817       819       814       817       819
       823       821       824       823       821       825       823       821       826
       824       821       825       824       821       826       825       821       826
       821       826       828       821       826       834       828       826       834
       826       828       830       826       828       831       830       828       831
       828       831       833       828       831       837       833       831       837
       826       834       836       826       834       837       836       834       837
       831       837       834       831       837       839       834       837       839
       843       841       844       843       841       845       843       841       846
       844       841       845       844       841       846       845       841       846
       841       846       848       841       846       854       848       846       854
       846       848       850       846       848       851       850       848       851
       848       851       853       848       851       857       853       851       857
       846       854       856       846       854       857       856       854       857
       851       857       854       851       857       859       854       857       859
       863       861       864       863       861       865       863       861       866
       864       861       865       864       861       866       865       861       866
       861       866       868       861       866       874       868       866       874
       866       868       870       866       868       871       870       868       871
       868       871       873       868       871       877       873       871       877
       866       874       876       866       874       877       876       874       877
       871       877       874       871       877       879       874       877       879
       883       881       884       883       881       885       883       881       886
       884       881       885       884       881       886       885       881       886
       881       886       888       881       886       894       888       886       894
       886       888       890       886       888       891       890       888       891
       888       891       893       888       891       897       893       891       897
       886       894       896       886       894       897       896       894       897
       891       897       894       891       897       899       894       897       899
       903       901       904       903       901       905       903       901       906
       904       901       905       904       901       906       905       901       906
       901       906       908       901       906       914       908       906       914
       906       908       910       906       908       911       910       908       911
       908       911       913       908       911       917       913       911       917
       906       914       916       906       914       917       916       914       917
       911       917       914       911       917       919       914       917       919
       923       921       924       923       921       925       923       921       926
       924       921       925       924       921       926       925       921       926
       921       926       928       921       926       934       928       926       934
       926       928       930       926       928       931       930       928       931
       928       931       933       928       931       937       933       931       937
       926       934       936       926       934       937       936       934       937
       931       937       934       931       937       939       934       937       939
       943       941       944       943       941       945       943       941       946
       944       941       945       944       941       946       945       941       946
       941       946       948       941       946       954       948       946       954
       946       948       950       946       948       951       950       948       951
       948       951       953       948       951       957       953       951       957
       946       954       956       946       954       957       956       954       957
       951       957       954       951       957       959       954       957       959
       963       961       964       963       961       965       963       961       966
       964       961       965       964       961       966       965       961       966
       961       966       968       961       966       974       968       966       974
       966       968       970       966       968       971       970       968       971
       968       971       973       968       971       977       973       971       977
       966       974       976       966       974       977       976       974       977
       971       977       974       971       977       979       974       977       979
       983       981       984       983       981       985       983       981       986
       984       981       985       984       981       986       985       981       986
       981       986       988       981       986       994       988       986       994
       986       988       990       986       988       991       990       988       991
       988       991       993       988       991       997       993       991       997
       986       994       996       986       994       997       996       994       997
       991       997       994       991       997       999       994       997       999
      1003      1001      1004      1003      1001      1005      1003      1001      1006
      1004      1001      1005      1004      1001      1006      1005      1001      1006
      1001      1006      1008      1001      1006      1014      1008      1006      1014
      1006      1008      1010      1006      1008      1011      1010      1008      1011
      1008      1011      1013      1008      1011      1017      1013      1011      1017
      1006      1014      1016      1006      1014      1017      1016      1014      1017
      1011      1017      1014      1011      1017      1019      1014      1017      1019
      1023      1021      1024      1023      1021      1025      1023      1021      1026
      1024      1021      1025      1024      1021      1026      1025      1021      1026
      1021      1026      1028      1021      1026      1034      1028      1026      1034
      1026      1028      1030      1026      1028      1031      1030      1028      1031
      1028      1031      1033      1028      1031      1037      1033      1031      1037
      1026      1034      1036      1026      1034      1037      1036      1034      1037
      1031      1037      1034      1031      1037      1039      1034      1037      1039
      1043      1041      1044      1043      1041      1045      1043      1041      1046
      1044      1041      1045      1044      1041      1046      1045      1041      1046
      1041      1046      1048      1041      1046      1054      1048      1046      1054
      1046      1048      1050      1046      1048      1051      1050      1048      1051
      1048      1051      1053      1048      1051      1057      1053      1051      1057
      1046      1054      1056      1046      1054      1057      1056      1054      1057
      1051      1057      1054      1051      1057      1059      1054      1057      1059
      1063      1061      1064      1063      1061      1065      1063      1061      1066
      1064      1061      1065      1064      1061      1066      1065      1061      1066
      1061      1066      1068      1061      1066      1074      1068      1066      1074
      1066      1068      1070      1066      1068      1071      1070      1068      1071
      1068      1071      1073      1068      1071      1077      1073      1071      1077
      1066      1074      1076      1066      1074      1077      1076      1074      1077
      1071      1077      1074      1071      1077      1079      1074      1077      1079
      1083      1081      1084      1083      1081      1085      1083      1081      1086
      1084      1081      1085      1084      1081      1086      1085      1081      1086
      1081      1086      1088      1081      1086      1094      1088      1086      1094
      1086      1088      1090      1086      1088      1091      1090      1088      1091
      1088      1091      1093      1088      1091      1097      1093      1091      1097
      1086      1094      1096      1086      1094      1097      1096      1094      1097
      1091      1097      1094      1091      1097      1099      1094      1097      1099
      1103      1101      1104      1103      1101      1105      1103      1101      1106
      1104      1101      1105      1104      1101      1106      1105      1101      1106
      1101      1106      1108      1101      1106      1114      1108      1106      1114
      1106      1108      1110      1106      1108      1111      1110      1108      1111
      1108      1111      1113      1108      1111      1117      1113      1111      1117
      1106      1114      1116      1106      1114      1117      1116      1114      1117
      1111      1117      1114      1111      1117      1119      1114      1117      1119
      1123      1121      1124      1123      1121      1125      1123      1121      1126
      1124      1121      1125      1124      1121      1126      1125      1121      1126
      1121      1126      1128      1121      1126      1134      1128      1126      1134
      1126      1128      1130      1126      1128      1131      1130      1128      1131
      1128      1131      1133      1128      1131      1137      1133      1131      1137
      1126      1134      1136      1126      1134      1137      1136      1134      1137
      1131      1137      1134      1131      1137      1139      1134      1137      1139
      1143      1141      1144      1143      1141      1145      1143      1141      1146
      1144      1141      1145      1144      1141      1146      1145      1141      1146
      1141      1146      1148      1141      1146      1154      1148      1146      1154
      1146      1148      1150      1146      1148      1151      1150      1148      1151
      1148      1151      1153      1148      1151      1157      1153      1151      1157
      1146      1154      1156      1146      1154      1157      1156      1154      1157
      1151      1157      1154      1151      1157      1159      1154      1157      1159
      1163      1161      1164      1163      1161      1165      1163      1161      1166
      1164      1161      1165      1164      1161      1166      1165      1161      1166
      1161      1166      1168      1161      1166      1174      1168      1166      1174
      1166      1168      1170      1166      1168      1171      1170      1168      1171
      1168      1171      1173      1168      1171      1177      1173      1171      1177
      1166      1174      1176      1166      1174      1177      1176      1174      1177
      1171      1177      1174      1171      1177      1179      1174      1177      1179
      1183      1181      1184      1183      1181      1185      1183      1181      1186
      1184      1181      1185      1184      1181      1186      1185      1181      1186
      1181      1186      1188      1181      1186      1194      1188      1186      1194
      1186      1188      1190      1186      1188      1191      1190      1188      1191
      1188      1191      1193      1188      1191      1197      1193      1191      1197
      1186      1194      1196      1186      1194      1197      1196      1194      1197
      1191      1197      1194      1191      1197      1199      1194      1197      1199
      1203      1201      1204      1203      1201      1205      1203      1201      1206
      1204      1201      1205      1204      1201      1206      1205      1201      1206
      1201      1206      1208      1201      1206      1214      1208      1206      1214
      1206      1208      1210      1206      1208      1211      1210      1208      1211
      1208      1211      1213      1208      1211      1217      1213      1211      1217
      1206      1214      1216      1206      1214      1217      1216      1214      1217
      1211      1217      1214      1211      1217      1219      1214      1217      1219
      1223      1221      1224      1223      1221      1225      1223      1221      1226
      1224      1221      1225      1224      1221      1226      1225      1221      1226
      1221      1226      1228      1221      1226      1234      1228      1226      1234
      1226      1228      1230      1226      1228      1231      1230      1228      1231
      1228      1231      1233      1228      1231      1237      1233      1231      1237
      1226      1234      1236      1226      1234      1237      1236      1234      1237
      1231      1237      1234      1231      1237      1239      1234      1237      1239
      1243      1241      1244      1243      1241      1245      1243      1241      1246
      1244      1241      1245      1244      1241      1246      1245      1241      1246
      1241      1246      1248      1241      1246      1254      1248      1246      1254
      1246      1248      1250      1246      1248      1251      1250      1248      1251
      1248      1251      1253      1248      1251      1257      1253      1251      1257
      1246      1254      1256      1246      1254      1257      1256      1254      1257
      1251      1257      1254      1251      1257      1259      1254      1257      1259
      1263      1261      1264      1263      1261      1265      1263      1261      1266
      1264      1261      1265      1264      1261      1266      1265      1261      1266
      1261      1266      1268      1261      1266      1274      1268      1266      1274
      1266      1268      1270      1266      1268      1271      1270      1268      1271
      1268      1271      1273      1268      1271      1277      1273      1271      1277
      1266      1274      1276      1266      1274      1277      1276      1274      1277
      1271      1277      1274      1271      1277      1279      1274      1277      1279
      1283      1281      1284      1283      1281      1285      1283      1281      1286
      1284      1281      1285      1284      1281      1286      1285      1281      1286
      1281      1286      1288      1281      1286      1294      1288      1286      1294
      1286      1288      1290      1286      1288      1291      1290      1288      1291
      1288      1291      1293      1288      1291      1297      1293      1291      1297
      1286      1294      1296      1286      1294      1297      1296      1294      1297
      1291      1297      1294      1291      1297      1299      1294      1297      1299
      1303      1301      1304      1303      1301      1305      1303      1301      1306
      1304      1301      1305      1304      1301      1306      1305      1301      1306
      1301      1306      1308      1301      1306      1314      1308      1306      1314
      1306      1308      1310      1306      1308      1311      1310      1308      1311
      1308      1311      1313      1308      1311      1317      1313      1311      1317
      1306      1314      1316      1306      1314      1317      1316      1314      1317
      1311      1317      1314      1311      1317      1319      1314      1317      1319
      1323      1321      1324      1323      1321      1325      1323      1321      1326
      1324      1321      1325      1324      1321      1326      1325      1321      1326
      1321      1326      1328      1321      1326      1334      1328      1326      1334
      1326      1328      1330      1326      1328      1331      1330      1328      1331
      1328      1331      1333      1328      1331      1337      1333      1331      1337
      1326      1334      1336      1326      1334      1337      1336      1334      1337
      1331      1337      1334      1331      1337      1339      1334      1337      1339
      1343      1341      1344      1343      1341      1345      1343      1341      1346
      1344      1341      1345      1344      1341      1346      1345      1341      1346
      1341      1346      1348      1341      1346      1354      1348      1346      1354
      1346      1348      1350      1346      1348      1351      1350      1348      1351
      1348      1351      1353      1348      1351      1357      1353      1351      1357
      1346      1354      1356      1346      1354      1357      1356      1354      1357
      1351      1357      1354      1351      1357      1359      1354      1357      1359
      1363      1361      1364      1363      1361      1365      1363      1361      1366
      1364      1361      1365      1364      1361      1366      1365      1361      1366
      1361      1366      1368      1361      1366      1374      1368      1366      1374
      1366      1368      1370      1366      1368      1371      1370      1368      1371
      1368      1371      1373      1368      1371      1377      1373      1371      1377
      1366      1374      1376      1366      1374      1377      1376      1374      1377
      1371      1377      1374      1371      1377      1379      1374      1377      1379
      1383      1381      1384      1383      1381      1385      1383      1381      1386
      1384      1381      1385      1384      1381      1386      1385      1381      1386
      1381      1386      1388      1381      1386      1394      1388      1386      1394
      1386      1388      1390      1386      1388      1391      1390      1388      1391
      1388      1391      1393      1388      1391      1397      1393      1391      1397
      1386      1394      1396      1386      1394      1397      1396      1394      1397
      1391      1397      1394      1391      1397      1399      1394      1397      1399
      1403      1401      1404      1403      1401      1405      1403      1401      1406
      1404      1401      1405      1404      1401      1406      1405      1401      1406
      1401      1406      1408      1401      1406      1414      1408      1406      1414
      1406      1408      1410      1406      1408      1411      1410      1408      1411
      1408      1411      1413      1408      1411      1417      1413      1411      1417
      1406      1414      1416      1406      1414      1417      1416      1414      1417
      1411      1417      1414      1411      1417      1419      1414      1417      1419
      1423      1421      1424      1423      1421      1425      1423      1421      1426
      1424      1421      1425      1424      1421      1426      1425      1421      1426
      1421      1426      1428      1421      1426      1434      1428      1426      1434
      1426      1428      1430      1426      1428      1431      1430      1428      1431
      1428      1431      1433      1428      1431      1437      1433      1431      1437
      1426      1434      1436      1426      1434      1437      1436      1434      1437
      1431      1437      1434      1431      1437      1439      1434      1437      1439
      1443      1441      1444      1443      1441      1445      1443      1441      1446
      1444      1441      1445      1444      1441      1446      1445      1441      1446
      1441      1446      1448      1441      1446      1454      1448      1446      1454
      1446      1448      1450      1446      1448      1451      1450      1448      1451
      1448      1451      1453      1448      1451      1457      1453      1451      1457
      1446      1454      1456      1446      1454      1457      1456      1454      1457
      1451      1457      1454      1451      1457      1459      1454      1457      1459
      1463      1461      1464      1463      1461      1465      1463      1461      1466
      1464      1461      1465      1464      1461      1466      1465      1461      1466
      1461      1466      1468      1461      1466      1474      1468      1466      1474
      1466      1468      1470      1466      1468      1471      1470      1468      1471
      1468      1471      1473      1468      1471      1477      1473      1471      1477
      1466      1474      1476      1466      1474      1477      1476      1474      1477
      1471      1477      1474      1471      1477      1479      1474      1477      1479
      1483      1481      1484      1483      1481      1485      1483      1481      1486
      1484      1481      1485      1484      1481      1486      1485      1481      1486
      1481      1486      1488      1481      1486      1494      1488      1486      1494
      1486      1488      1490      1486      1488      1491      1490      1488      1491
      1488      1491      1493      1488      1491      1497      1493      1491      1497
      1486      1494      1496      1486      1494      1497      1496      1494      1497
      1491      1497      1494      1491      1497      1499      1494      1497      1499
      1503      1501      1504      1503      1501      1505      1503      1501      1506
      1504      1501      1505      1504      1501      1506      1505      1501      1506
      1501      1506      1508      1501      1506      1514      1508      1506      1514
      1506      1508      1510      1506      1508      1511      1510      1508      1511
      1508      1511      1513      1508      1511      1517      1513      1511      1517
      1506      1514      1516      1506      1514      1517      1516      1514      1517
      1511      1517      1514      1511      1517      1519      1514      1517      1519
      1523      1521      1524      1523      1521      1525      1523      1521      1526
      1524      1521      1525      1524      1521      1526      1525      1521      1526
      1521      1526      1528      1521      1526      1534      1528      1526      1534
      1526      1528      1530      1526      1528      1531      1530      1528      1531
      1528      1531      1533      1528      1531      1537      1533      1531      1537
      1526      1534      1536      1526      1534      1537      1536      1534      1537
      1531      1537      1534      1531      1537      1539      1534      1537      1539
      1543      1541      1544      1543      1541      1545      1543      1541      1546
      1544      1541      1545      1544      1541      1546      1545      1541      1546
      1541      1546      1548      1541      1546      1554      1548      1546      1554
      1546      1548      1550      1546      1548      1551      1550      1548      1551
      1548      1551      1553      1548      1551      1557      1553      1551      1557
      1546      1554      1556      1546      1554      1557      1556      1554      1557
      1551      1557      1554      1551      1557      1559      1554      1557      1559
      1563      1561      1564      1563      1561      1565      1563      1561      1566
      1564      1561      1565      1564      1561      1566      1565      1561      1566
      1561      1566      1568      1561      1566      1574      1568      1566      1574
      1566      1568      1570      1566      1568      1571      1570      1568      1571
      1568      1571      1573      1568      1571      1577      1573      1571      1577
      1566      1574      1576      1566      1574      1577      1576      1574      1577
      1571      1577      1574      1571      1577      1579      1574      1577      1579
      1583      1581      1584      1583      1581      1585      1583      1581      1586
      1584      1581      1585      1584      1581      1586      1585      1581      1586
      1581      1586      1588      1581      1586      1594      1588      1586      1594
      1586      1588      1590      1586      1588      1591      1590      1588      1591
      1588      1591      1593      1588      1591      1597      1593      1591      1597
      1586      1594      1596      1586      1594      1597      1596      1594      1597
      1591      1597      1594      1591      1597      1599      1594      1597      1599
      1603      1601      1604      1603      1601      1605      1603      1601      1606
      1604      1601      1605      1604      1601      1606      1605      1601      1606
      1601      1606      1608      1601      1606      1614      1608      1606      1614
      1606      1608      1610      1606      1608      1611      1610      1608      1611
      1608      1611      1613      1608      1611      1617      1613      1611      1617
      1606      1614      1616      1606      1614      1617      1616      1614      1617
      1611      1617      1614      1611      1617      1619      1614      1617      1619
      1623      1621      1624      1623      1621      1625      1623      1621      1626
      1624      1621      1625      1624      1621      1626      1625      1621      1626
      1621      1626      1628      1621      1626      1634      1628      1626      1634
      1626      1628      1630      1626      1628      1631      1630      1628      1631
      1628      1631      1633      1628      1631      1637      1633      1631      1637
      1626      1634      1636      1626      1634      1637      1636      1634      1637
      1631      1637      1634      1631      1637      1639      1634      1637      1639
      1643      1641      1644      1643      1641      1645      1643      1641      1646
      1644      1641      1645      1644      1641      1646      1645      1641      1646
      1641      1646      1648      1641      1646      1654      1648      1646      1654
      1646      1648      1650      1646      1648      1651      1650      1648      1651
      1648      1651      1653      1648      1651      1657      1653      1651      1657
      1646      1654      1656      1646      1654      1657      1656      1654      1657
      1651      1657      1654      1651      1657      1659      1654      1657      1659
      1663      1661      1664      1663      1661      1665      1663      1661      1666
      1664      1661      1665      1664      1661      1666      1665      1661      1666
      1661      1666      1668      1661      1666      1674      1668      1666      1674
      1666      1668      1670      1666      1668      1671      1670      1668      1671
      1668      1671      1673      1668      1671      1677      1673      1671      1677
      1666      1674      1676      1666      1674      1677      1676      1674      1677
      1671      1677      1674      1671      1677      1679      1674      1677      1679
      1683      1681      1684      1683      1681      1685      1683      1681      1686
      1684      1681      1685      1684      1681      1686      1685      1681      1686
      1681      1686      1688      1681      1686      1694      1688      1686      1694
      1686      1688      1690      1686      1688      1691      1690      1688      1691
      1688      1691      1693      1688      1691      1697      1693      1691      1697
      1686      1694      1696      1686      1694      1697      1696      1694      1697
      1691      1697      1694      1691      1697      1699      1694      1697      1699
      1703      1701      1704      1703      1701      1705      1703      1701      1706
      1704      1701      1705      1704      1701      1706      1705      1701      1706
      1701      1706      1708      1701      1706      1714      1708      1706      1714
      1706      1708      1710      1706      1708      1711      1710      1708      1711
      1708      1711      1713      1708      1711      1717      1713      1711      1717
      1706      1714      1716      1706      1714      1717      1716      1714      1717
      1711      1717      1714      1711      1717      1719      1714      1717      1719
      1723      1721      1724      1723      1721      1725      1723      1721      1726
      1724      1721      1725      1724      1721      1726      1725      1721      1726
      1721      1726      1728      1721      1726      1734      1728      1726      1734
      1726      1728      1730      1726      1728      1731      1730      1728      1731
      1728      1731      1733      1728      1731      1737      1733      1731      1737
      1726      1734      1736      1726      1734      1737      1736      1734      1737
      1731      1737      1734      1731      1737      1739      1734      1737      1739
      1743      1741      1744      1743      1741      1745      1743      1741      1746
      1744      1741      1745      1744      1741      1746      1745      1741      1746
      1741      1746      1748      1741      1746      1754      1748      1746      1754
      1746      1748      1750      1746      1748      1751      1750      1748      1751
      1748      1751      1753      1748      1751      1757      1753      1751      1757
      1746      1754      1756      1746      1754      1757      1756      1754      1757
      1751      1757      1754      1751      1757      1759      1754      1757      1759
      1763      1761      1764      1763      1761      1765      1763      1761      1766
      1764      1761      1765      1764      1761      1766      1765      1761      1766
      1761      1766      1768      1761      1766      1774      1768      1766      1774
      1766      1768      1770      1766      1768      1771      1770      1768      1771
      1768      1771      1773      1768      1771      1777      1773      1771      1777
      1766      1774      1776      1766      1774      1777      1776      1774      1777
      1771      1777      1774      1771      1777      1779      1774      1777      1779
      1783      1781      1784      1783      1781      1785      1783      1781      1786
      1784      1781      1785      1784      1781      1786      1785      1781      1786
      1781      1786      1788      1781      1786      1794      1788      1786      1794
      1786      1788      1790      1786      1788      1791      1790      1788      1791
      1788      1791      1793      1788      1791      1797      1793      1791      1797
      1786      1794      1796      1786      1794      1797      1796      1794      1797
      1791      1797      1794      1791      1797      1799      1794      1797      1799
      1803      1801      1804      1803      1801      1805      1803      1801      1806
      1804      1801      1805      1804      1801      1806      1805      1801      1806
      1801      1806      1808      1801      1806      1814      1808      1806      1814
      1806      1808      1810      1806      1808      1811      1810      1808      1811
      1808      1811      1813      1808      1811      1817      1813      1811      1817
      1806      1814      1816      1806      1814      1817      1816      1814      1817
      1811      1817      1814      1811      1817      1819      1814      1817      1819
      1823      1821      1824      1823      1821      1825      1823      1821      1826
      1824      1821      1825      1824      1821      1826      1825      1821      1826
      1821      1826      1828      1821      1826      1834      1828      1826      1834
      1826      1828      1830      1826      1828      1831      1830      1828      1831
      1828      1831      1833      1828      1831      1837      1833      1831      1837
      1826      1834      1836      1826      1834      1837      1836      1834      1837
      1831      1837      1834      1831      1837      1839      1834      1837      1839
      1843      1841      1844      1843      1841      1845      1843      1841      1846
      1844      1841      1845      1844      1841      1846      1845      1841      1846
      1841      1846      1848      1841      1846      1854      1848      1846      1854
      1846      1848      1850      1846      1848      1851      1850      1848      1851
      1848      1851      1853      1848      1851      1857      1853      1851      1857
      1846      1854      1856      1846      1854      1857      1856      1854      1857
      1851      1857      1854      1851      1857      1859      1854      1857      1859
      1863      1861      1864      1863      1861      1865      1863      1861      1866
      1864      1861      1865      1864      1861      1866      1865      1861      1866
      1861      1866      1868      1861      1866      1874      1868      1866      1874
      1866      1868      1870      1866      1868      1871      1870      1868      1871
      1868      1871      1873      1868      1871      1877      1873      1871      1877
      1866      1874      1876      1866      1874      1877      1876      1874      1877
      1871      1877      1874      1871      1877      1879      1874      1877      1879
      1883      1881      1884      1883      1881      1885      1883      1881      1886
      1884      1881      1885      1884      1881      1886      1885      1881      1886
      1881      1886      1888      1881      1886      1894      1888      1886      1894
      1886      1888      1890      1886      1888      1891      1890      1888      1891
      1888      1891      1893      1888      1891      1897      1893      1891      1897
      1886      1894      1896      1886      1894      1897      1896      1894      1897
      1891      1897      1894      1891      1897      1899      1894      1897      1899
      1903      1901      1904      1903      1901      1905      1903      1901      1906
      1904      1901      1905      1904      1901      1906      1905      1901      1906
      1901      1906      1908      1901      1906      1914      1908      1906      1914
      1906      1908      1910      1906      1908      1911      1910      1908      1911
      1908      1911      1913      1908      1911      1917      1913      1911      1917
      1906      1914      1916      1906      1914      1917      1916      1914      1917
      1911      1917      1914      1911      1917      1919      1914      1917      1919
      1923      1921      1924      1923      1921      1925      1923      1921      1926
      1924      1921      1925      1924      1921      1926      1925      1921      1926
      1921      1926      1928      1921      1926      1934      1928      1926      1934
      1926      1928      1930      1926      1928      1931      1930      1928      1931
      1928      1931      1933      1928      1931      1937      1933      1931      1937
      1926      1934      1936      1926      1934      1937      1936      1934      1937
      1931      1937      1934      1931      1937      1939      1934      1937      1939
      1943      1941      1944      1943      1941      1945      1943      1941      1946
      1944      1941      1945      1944      1941      1946      1945      1941      1946
      1941      1946      1948      1941      1946      1954      1948      1946      1954
      1946      1948      1950      1946      1948      1951      1950      1948      1951
      1948      1951      1953      1948      1951      1957      1953      1951      1957
      1946      1954      1956      1946      1954      1957      1956      1954      1957
      1951      1957      1954      1951      1957      1959      1954      1957      1959
      1963      1961      1964      1963      1961      1965      1963      1961      1966
      1964      1961      1965      1964      1961      1966      1965      1961      1966
      1961      1966      1968      1961      1966      1974      1968      1966      1974
      1966      1968      1970      1966      1968      1971      1970      1968      1971
      1968      1971      1973      1968      1971      1977      1973      1971      1977
      1966      1974      1976      1966      1974      1977      1976      1974      1977
      1971      1977      1974      1971      1977      1979      1974      1977      1979
      1983      1981      1984      1983      1981      1985      1983      1981      1986
      1984      1981      1985      1984      1981      1986      1985      1981      1986
      1981      1986      1988      1981      1986      1994      1988      1986      1994
      1986      1988      1990      1986      1988      1991      1990      1988      1991
      1988      1991      1993      1988      1991      1997      1993      1991      1997
      1986      1994      1996      1986      1994      1997      1996      1994      1997
      1991      1997      1994      1991      1997      1999      1994      1997      1999
      2003      2001      2004      2003      2001      2005      2003      2001      2006
      2004      2001      2005      2004      2001      2006      2005      2001      2006
      2001      2006      2008      2001      2006      2014      2008      2006      2014
      2006      2008      2010      2006      2008      2011      2010      2008      2011
      2008      2011      2013      2008      2011      2017      2013      2011      2017
      2006      2014      2016      2006      2014      2017      2016      2014      2017
      2011      2017      2014      2011      2017      2019      2014      2017      2019
      2023      2021      2024      2023      2021      2025      2023      2021      2026
      2024      2021      2025      2024      2021      2026      2025      2021      2026
      2021      2026      2028      2021      2026      2034      2028      2026      2034
      2026      2028      2030      2026      2028      2031      2030      2028      2031
      2028      2031      2033      2028      2031      2037      2033      2031      2037
      2026      2034      2036      2026      2034      2037      2036      2034      2037
      2031      2037      2034      2031      2037      2039      2034      2037      2039
      2043      2041      2044      2043      2041      2045      2043      2041      2046
      2044      2041      2045      2044      2041      2046      2045      2041      2046
      2041      2046      2048      2041      2046      2054      2048      2046      2054
      2046      2048      2050      2046      2048      2051      2050      2048      2051
      2048      2051      2053      2048      2051      2057      2053      2051      2057
      2046      2054      2056      2046      2054      2057      2056      2054      2057
      2051      2057      2054      2051      2057      2059      2054      2057      2059
      2063      2061      2064      2063      2061      2065      2063      2061      2066
      2064      2061      2065      2064      2061      2066      2065      2061      2066
      2061      2066      2068      2061      2066      2074      2068      2066      2074
      2066      2068      2070      2066      2068      2071      2070      2068      2071
      2068      2071      2073      2068      2071      2077      2073      2071      2077
      2066      2074      2076      2066      2074      2077      2076      2074      2077
      2071      2077      2074      2071      2077      2079      2074      2077      2079
      2083      2081      2084      2083      2081      2085      2083      2081      2086
      2084      2081      2085      2084      2081      2086      2085      2081      2086
      2081      2086      2088      2081      2086      2094      2088      2086      2094
      2086      2088      2090      2086      2088      2091      2090      2088      2091
      2088      2091      2093      2088      2091      2097      2093      2091      2097
      2086      2094      2096      2086      2094      2097      2096      2094      2097
      2091      2097      2094      2091      2097      2099      2094      2097      2099
      2103      2101      2104      2103      2101      2105      2103      2101      2106
      2104      2101      2105      2104      2101      2106      2105      2101      2106
      2101      2106      2108      2101      2106      2114      2108      2106      2114
      2106      2108      2110      2106      2108      2111      2110      2108      2111
      2108      2111      2113      2108      2111      2117      2113      2111      2117
      2106      2114      2116      2106      2114      2117      2116      2114      2117
      2111      2117      2114      2111      2117      2119      2114      2117      2119
      2123      2121      2124      2123      2121      2125      2123      2121      2126
      2124      2121      2125      2124      2121      2126      2125      2121      2126
      2121      2126      2128      2121      2126      2134      2128      2126      2134
      2126      2128      2130      2126      2128      2131      2130      2128      2131
      2128      2131      2133      2128      2131      2137      2133      2131      2137
      2126      2134      2136      2126      2134      2137      2136      2134      2137
      2131      2137      2134      2131      2137      2139      2134      2137      2139
      2143      2141      2144      2143      2141      2145      2143      2141      2146
      2144      2141      2145      2144      2141      2146      2145      2141      2146
      2141      2146      2148      2141      2146      2154      2148      2146      2154
      2146      2148      2150      2146      2148      2151      2150      2148      2151
      2148      2151      2153      2148      2151      2157      2153      2151      2157
      2146      2154      2156      2146      2154      2157      2156      2154      2157
      2151      2157      2154      2151      2157      2159      2154      2157      2159
      2163      2161      2164      2163      2161      2165      2163      2161      2166
      2164      2161      2165      2164      2161      2166      2165      2161      2166
      2161      2166      2168      2161      2166      2174      2168      2166      2174
      2166      2168      2170      2166      2168      2171      2170      2168      2171
      2168      2171      2173      2168      2171      2177      2173      2171      2177
      2166      2174      2176      2166      2174      2177      2176      2174      2177
      2171      2177      2174      2171      2177      2179      2174      2177      2179
      2183      2181      2184      2183      2181      2185      2183      2181      2186
      2184      2181      2185      2184      2181      2186      2185      2181      2186
      2181      2186      2188      2181      2186      2194      2188      2186      2194
      2186      2188      2190      2186      2188      2191      2190      2188      2191
      2188      2191      2193      2188      2191      2197      2193      2191      2197
      2186      2194      2196      2186      2194      2197      2196      2194      2197
      2191      2197      2194      2191      2197      2199      2194      2197      2199
      2203      2201      2204      2203      2201      2205      2203      2201      2206
      2204      2201      2205      2204      2201      2206      2205      2201      2206
      2201      2206      2208      2201      2206      2214      2208      2206      2214
      2206      2208      2210      2206      2208      2211      2210      2208      2211
      2208      2211      2213      2208      2211      2217      2213      2211      2217
      2206      2214      2216      2206      2214      2217      2216      2214      2217
      2211      2217      2214      2211      2217      2219      2214      2217      2219
      2223      2221      2224      2223      2221      2225      2223      2221      2226
      2224      2221      2225      2224      2221      2226      2225      2221      2226
      2221      2226      2228      2221      2226      2234      2228      2226      2234
      2226      2228      2230      2226      2228      2231      2230      2228      2231
      2228      2231      2233      2228      2231      2237      2233      2231      2237
      2226      2234      2236      2226      2234      2237      2236      2234      2237
      2231      2237      2234      2231      2237      2239      2234      2237      2239
      2243      2241      2244      2243      2241      2245      2243      2241      2246
      2244      2241      2245      2244      2241      2246      2245      2241      2246
      2241      2246      2248      2241      2246      2254      2248      2246      2254
      2246      2248      2250      2246      2248      2251      2250      2248      2251
      2248      2251      2253      2248      2251      2257      2253      2251      2257
      2246      2254      2256      2246      2254      2257      2256      2254      2257
      2251      2257      2254      2251      2257      2259      2254      2257      2259
      2263      2261      2264      2263      2261      2265      2263      2261      2266
      2264      2261      2265      2264      2261      2266      2265      2261      2266
      2261      2266      2268      2261      2266      2274      2268      2266      2274
      2266      2268      2270      2266      2268      2271      2270      2268      2271
      2268      2271      2273      2268      2271      2277      2273      2271      2277
      2266      2274      2276      2266      2274      2277      2276      2274      2277
      2271      2277      2274      2271      2277      2279      2274      2277      2279
      2283      2281      2284      2283      2281      2285      2283      2281      2286
      2284      2281      2285      2284      2281      2286      2285      2281      2286
      2281      2286      2288      2281      2286      2294      2288      2286      2294
      2286      2288      2290      2286      2288      2291      2290      2288      2291
      2288      2291      2293      2288      2291      2297      2293      2291      2297
      2286      2294      2296      2286      2294      2297      2296      2294      2297
      2291      2297      2294      2291      2297      2299      2294      2297      2299
      2303      2301      2304      2303      2301      2305      2303      2301      2306
      2304      2301      2305      2304      2301      2306      2305      2301      2306
      2301      2306      2308      2301      2306      2314      2308      2306      2314
      2306      2308      2310      2306      2308      2311      2310      2308      2311
      2308      2311      2313      2308      2311      2317      2313      2311      2317
      2306      2314      2316      2306      2314      2317      2316      2314      2317
      2311      2317      2314      2311      2317      2319      2314      2317      2319
      2323      2321      2324      2323      2321      2325      2323      2321      2326
      2324      2321      2325      2324      2321      2326      2325      2321      2326
      2321      2326      2328      2321      2326      2334      2328      2326      2334
      2326      2328      2330      2326      2328      2331      2330      2328      2331
      2328      2331      2333      2328      2331      2337      2333      2331      2337
      2326      2334      2336      2326      2334      2337      2336      2334      2337
      2331      2337      2334      2331      2337      2339      2334      2337      2339
      2343      2341      2344      2343      2341      2345      2343      2341      2346
      2344      2341      2345      2344      2341      2346      2345      2341      2346
      2341      2346      2348      2341      2346      2354      2348      2346      2354
      2346      2348      2350      2346      2348      2351      2350      2348      2351
      2348      2351      2353      2348      2351      2357      2353      2351      2357
      2346      2354      2356      2346      2354      2357      2356      2354      2357
      2351      2357      2354      2351      2357      2359      2354      2357      2359
      2363      2361      2364      2363      2361      2365      2363      2361      2366
      2364      2361      2365      2364      2361      2366      2365      2361      2366
      2361      2366      2368      2361      2366      2374      2368      2366      2374
      2366      2368      2370      2366      2368      2371      2370      2368      2371
      2368      2371      2373      2368      2371      2377      2373      2371      2377
      2366      2374      2376      2366      2374      2377      2376      2374      2377
      2371      2377      2374      2371      2377      2379      2374      2377      2379
      2383      2381      2384      2383      2381      2385      2383      2381      2386
      2384      2381      2385      2384      2381      2386      2385      2381      2386
      2381      2386      2388      2381      2386      2394      2388      2386      2394
      2386      2388      2390      2386      2388      2391      2390      2388      2391
      2388      2391      2393      2388      2391      2397      2393      2391      2397
      2386      2394      2396      2386      2394      2397      2396      2394      2397
      2391      2397      2394      2391      2397      2399      2394      2397      2399
      2403      2401      2404      2403      2401      2405      2403      2401      2406
      2404      2401      2405      2404      2401      2406      2405      2401      2406
      2401      2406      2408      2401      2406      2414      2408      2406      2414
      2406      2408      2410      2406      2408      2411      2410      2408      2411
      2408      2411      2413      2408      2411      2417      2413      2411      2417
      2406      2414      2416      2406      2414      2417      2416      2414      2417
      2411      2417      2414      2411      2417      2419      2414      2417      2419
      2423      2421      2424      2423      2421      2425      2423      2421      2426
      2424      2421      2425      2424      2421      2426      2425      2421      2426
      2421      2426      2428      2421      2426      2434      2428      2426      2434
      2426      2428      2430      2426      2428      2431      2430      2428      2431
      2428      2431      2433      2428      2431      2437      2433      2431      2437
      2426      2434      2436      2426      2434      2437      2436      2434      2437
      2431      2437      2434      2431      2437      2439      2434      2437      2439
      2443      2441      2444      2443      2441      2445      2443      2441      2446
      2444      2441      2445      2444      2441      2446      2445      2441      2446
      2441      2446      2448      2441      2446      2454      2448      2446      2454
      2446      2448      2450      2446      2448      2451      2450      2448      2451
      2448      2451      2453      2448      2451      2457      2453      2451      2457
      2446      2454      2456      2446      2454      2457      2456      2454      2457
      2451      2457      2454      2451      2457      2459      2454      2457      2459
      2463      2461      2464      2463      2461      2465      2463      2461      2466
      2464      2461      2465      2464      2461      2466      2465      2461      2466
      2461      2466      2468      2461      2466      2474      2468      2466      2474
      2466      2468      2470      2466      2468      2471      2470      2468      2471
      2468      2471      2473      2468      2471      2477      2473      2471      2477
      2466      2474      2476      2466      2474      2477      2476      2474      2477
      2471      2477      2474      2471      2477      2479      2474      2477      2479
      2483      2481      2484      2483      2481      2485      2483      2481      2486
      2484      2481      2485      2484      2481      2486      2485      2481      2486
      2481      2486      2488      2481      2486      2494      2488      2486      2494
      2486      2488      2490      2486      2488      2491      2490      2488      2491
      2488      2491      2493      2488      2491      2497      2493      2491      2497
      2486      2494      2496      2486      2494      2497      2496      2494      2497
      2491      2497      2494      2491      2497      2499      2494      2497      2499
      2503      2501      2504      2503      2501      2505      2503      2501      2506
      2504      2501      2505      2504      2501      2506      2505      2501      2506
      2501      2506      2508      2501      2506      2514      2508      2506      2514
      2506      2508      2510      2506      2508      2511      2510      2508      2511
      2508      2511      2513      2508      2511      2517      2513      2511      2517
      2506      2514      2516      2506      2514      2517      2516      2514      2517
      2511      2517      2514      2511      2517      2519      2514      2517      2519
      2523      2521      2524      2523      2521      2525      2523      2521      2526
      2524      2521      2525      2524      2521      2526      2525      2521      2526
      2521      2526      2528      2521      2526      2534      2528      2526      2534
      2526      2528      2530      2526      2528      2531      2530      2528      2531
      2528      2531      2533      2528      2531      2537      2533      2531      2537
      2526      2534      2536      2526      2534      2537      2536      2534      2537
      2531      2537      2534      2531      2537      2539      2534      2537      2539
      2543      2541      2544      2543      2541      2545      2543      2541      2546
      2544      2541      2545      2544      2541      2546      2545      2541      2546
      2541      2546      2548      2541      2546      2554      2548      2546      2554
      2546      2548      2550      2546      2548      2551      2550      2548      2551
      2548      2551      2553      2548      2551      2557      2553      2551      2557
      2546      2554      2556      2546      2554      2557      2556      2554      2557
      2551      2557      2554      2551      2557      2559      2554      2557      2559
      2563      2561      2564      2563      2561      2565      2563      2561      2566
      2564      2561      2565      2564      2561      2566      2565      2561      2566
      2561      2566      2568      2561      2566      2574      2568      2566      2574
      2566      2568      2570      2566      2568      2571      2570      2568      2571
      2568      2571      2573      2568      2571      2577      2573      2571      2577
      2566      2574      2576      2566      2574      2577      2576      2574      2577
      2571      2577      2574      2571      2577      2579      2574      2577      2579
      2583      2581      2584      2583      2581      2585      2583      2581      2586
      2584      2581      2585      2584      2581      2586      2585      2581      2586
      2581      2586      2588      2581      2586      2594      2588      2586      2594
      2586      2588      2590      2586      2588      2591      2590      2588      2591
      2588      2591      2593      2588      2591      2597      2593      2591      2597
      2586      2594      2596      2586      2594      2597      2596      2594      2597
      2591      2597      2594      2591      2597      2599      2594      2597      2599
      2603      2601      2604      2603      2601      2605      2603      2601      2606
      2604      2601      2605      2604      2601      2606      2605      2601      2606
      2601      2606      2608      2601      2606      2614      2608      2606      2614
      2606      2608      2610      2606      2608      2611      2610      2608      2611
      2608      2611      2613      2608      2611      2617      2613      2611      2617
      2606      2614      2616      2606      2614      2617      2616      2614      2617
      2611      2617      2614      2611      2617      2619      2614      2617      2619
      2623      2621      2624      2623      2621      2625      2623      2621      2626
      2624      2621      2625      2624      2621      2626      2625      2621      2626
      2621      2626      2628      2621      2626      2634      2628      2626      2634
      2626      2628      2630      2626      2628      2631      2630      2628      2631
      2628      2631      2633      2628      2631      2637      2633      2631      2637
      2626      2634      2636      2626      2634      2637      2636      2634      2637
      2631      2637      2634      2631      2637      2639      2634      2637      2639
      2643      2641      2644      2643      2641      2645      2643      2641      2646
      2644      2641      2645      2644      2641      2646      2645      2641      2646
      2641      2646      2648      2641      2646      2654      2648      2646      2654
      2646      2648      2650      2646      2648      2651      2650      2648      2651
      2648      2651      2653      2648      2651      2657      2653      2651      2657
      2646      2654      2656      2646      2654      2657      2656      2654      2657
      2651      2657      2654      2651      2657      2659      2654      2657      2659
      2663      2661      2664      2663      2661      2665      2663      2661      2666
      2664      2661      2665      2664      2661      2666      2665      2661      2666
      2661      2666      2668      2661      2666      2674      2668      2666      2674
      2666      2668      2670      2666      2668      2671      2670      2668      2671
      2668      2671      2673      2668      2671      2677      2673      2671      2677
      2666      2674      2676      2666      2674      2677      2676      2674      2677
      2671      2677      2674      2671      2677      2679      2674      2677      2679
      2683      2681      2684      2683      2681      2685      2683      2681      2686
      2684      2681      2685      2684      2681      2686      2685      2681      2686
      2681      2686      2688      2681      2686      2694      2688      2686      2694
      2686      2688      2690      2686      2688      2691      2690      2688      2691
      2688      2691      2693      2688      2691      2697      2693      2691      2697
      2686      2694      2696      2686      2694      2697      2696      2694      2697
      2691      2697      2694      2691      2697      2699      2694      2697      2699
      2703      2701      2704      2703      2701      2705      2703      2701      2706
      2704      2701      2705      2704      2701      2706      2705      2701      2706
      2701      2706      2708      2701      2706      2714      2708      2706      2714
      2706      2708      2710      2706      2708      2711      2710      2708      2711
      2708      2711      2713      2708      2711      2717      2713      2711      2717
      2706      2714      2716      2706      2714      2717      2716      2714      2717
      2711      2717      2714      2711      2717      2719      2714      2717      2719
      2723      2721      2724      2723      2721      2725      2723      2721      2726
      2724      2721      2725      2724      2721      2726      2725      2721      2726
      2721      2726      2728      2721      2726      2734      2728      2726      2734
      2726      2728      2730      2726      2728      2731      2730      2728      2731
      2728      2731      2733      2728      2731      2737      2733      2731      2737
      2726      2734      2736      2726      2734      2737      2736      2734      2737
      2731      2737      2734      2731      2737      2739      2734      2737      2739
      2743      2741      2744      2743      2741      2745      2743      2741      2746
      2744      2741      2745      2744      2741      2746      2745      2741      2746
      2741      2746      2748      2741      2746      2754      2748      2746      2754
      2746      2748      2750      2746      2748      2751      2750      2748      2751
      2748      2751      2753      2748      2751      2757      2753      2751      2757
      2746      2754      2756      2746      2754      2757      2756      2754      2757
      2751      2757      2754      2751      2757      2759      2754      2757      2759
      2763      2761      2764      2763      2761      2765      2763      2761      2766
      2764      2761      2765      2764      2761      2766      2765      2761      2766
      2761      2766      2768      2761      2766      2774      2768      2766      2774
      2766      2768      2770      2766      2768      2771      2770      2768      2771
      2768      2771      2773      2768      2771      2777      2773      2771      2777
      2766      2774      2776      2766      2774      2777      2776      2774      2777
      2771      2777      2774      2771      2777      2779      2774      2777      2779
      2783      2781      2784      2783      2781      2785      2783      2781      2786
      2784      2781      2785      2784      2781      2786      2785      2781      2786
      2781      2786      2788      2781      2786      2794      2788      2786      2794
      2786      2788      2790      2786      2788      2791      2790      2788      2791
      2788      2791      2793      2788      2791      2797      2793      2791      2797
      2786      2794      2796      2786      2794      2797      2796      2794      2797
      2791      2797      2794      2791      2797      2799      2794      2797      2799
      2803      2801      2804      2803      2801      2805      2803      2801      2806
      2804      2801      2805      2804      2801      2806      2805      2801      2806
      2801      2806      2808      2801      2806      2814      2808      2806      2814
      2806      2808      2810      2806      2808      2811      2810      2808      2811
      2808      2811      2813      2808      2811      2817      2813      2811      2817
      2806      2814      2816      2806      2814      2817      2816      2814      2817
      2811      2817      2814      2811      2817      2819      2814      2817      2819
      2823      2821      2824      2823      2821      2825      2823      2821      2826
      2824      2821      2825      2824      2821      2826      2825      2821      2826
      2821      2826      2828      2821      2826      2834      2828      2826      2834
      2826      2828      2830      2826      2828      2831      2830      2828      2831
      2828      2831      2833      2828      2831      2837      2833      2831      2837
      2826      2834      2836      2826      2834      2837      2836      2834      2837
      2831      2837      2834      2831      2837      2839      2834      2837      2839
      2843      2841      2844      2843      2841      2845      2843      2841      2846
      2844      2841      2845      2844      2841      2846      2845      2841      2846
      2841      2846      2848      2841      2846      2854      2848      2846      2854
      2846      2848      2850      2846      2848      2851      2850      2848      2851
      2848      2851      2853      2848      2851      2857      2853      2851      2857
      2846      2854      2856      2846      2854      2857      2856      2854      2857
      2851      2857      2854      2851      2857      2859      2854      2857      2859
      2863      2861      2864      2863      2861      2865      2863      2861      2866
      2864      2861      2865      2864      2861      2866      2865      2861      2866
      2861      2866      2868      2861      2866      2874      2868      2866      2874
      2866      2868      2870      2866      2868      2871      2870      2868      2871
      2868      2871      2873      2868      2871      2877      2873      2871      2877
      2866      2874      2876      2866      2874      2877      2876      2874      2877
      2871      2877      2874      2871      2877      2879      2874      2877      2879
      2883      2881      2884      2883      2881      2885      2883      2881      2886
      2884      2881      2885      2884      2881      2886      2885      2881      2886
      2881      2886      2888      2881      2886      2894      2888      2886      2894
      2886      2888      2890      2886      2888      2891      2890      2888      2891
      2888      2891      2893      2888      2891      2897      2893      2891      2897
      2886      2894      2896      2886      2894      2897      2896      2894      2897
      2891      2897      2894      2891      2897      2899      2894      2897      2899
      2903      2901      2904      2903      2901      2905      2903      2901      2906
      2904      2901      2905      2904      2901      2906      2905      2901      2906
      2901      2906      2908      2901      2906      2914      2908      2906      2914
      2906      2908      2910      2906      2908      2911      2910      2908      2911
      2908      2911      2913      2908      2911      2917      2913      2911      2917
      2906      2914      2916      2906      2914      2917      2916      2914      2917
      2911      2917      2914      2911      2917      2919      2914      2917      2919
      2923      2921      2924      2923      2921      2925      2923      2921      2926
      2924      2921      2925      2924      2921      2926      2925      2921      2926
      2921      2926      2928      2921      2926      2934      2928      2926      2934
      2926      2928      2930      2926      2928      2931      2930      2928      2931
      2928      2931      2933      2928      2931      2937      2933      2931      2937
      2926      2934      2936      2926      2934      2937      2936      2934      2937
      2931      2937      2934      2931      2937      2939      2934      2937      2939
      2943      2941      2948      2943      2941      2950      2948      2941      2950
      2941      2943      2945      2941      2943      2946      2941      2943      2947
      2945      2943      2946      2945      2943      2947      2946      2943      2947
      2941      2950      2952      2959      2957      2964      2959      2957      2966
      2964      2957      2966      2957      2959      2961      2957      2959      2962
      2957      2959      2963      2961      2959      2962      2961      2959      2963
      2962      2959      2963      2957      2966      2968      2975      2973      2980
      2975      2973      2982      2980      2973      2982      2973      2975      2977
      2973      2975      2978      2973      2975      2979      2977      2975      2978
      2977      2975      2979      2978      2975      2979      2973      2982      2984
      2991      2989      2996      2991      2989      2998      2996      2989      2998
      2989      2991      2993      2989      2991      2994      2989      2991      2995
      2993      2991      2994      2993      2991      2995      2994      2991      2995
      2989      2998      3000      3007      3005      3012      3007      3005      3014
      3012      3005      3014      3005      3007      3009      3005      3007      3010
      3005      3007      3011      3009      3007      3010      3009      3007      3011
      3010      3007      3011      3005      3014      3016      3023      3021      3028
      3023      3021      3030      3028      3021      3030      3021      3023      3025
      3021      3023      3026      3021      3023      3027      3025      3023      3026
      3025      3023      3027      3026      3023      3027      3021      3030      3032
      3039      3037      3044      3039      3037      3046      3044      3037      3046
      3037      3039      3041      3037      3039      3042      3037      3039      3043
      3041      3039      3042      3041      3039      3043      3042      3039      3043
      3037      3046      3048      3055      3053      3060      3055      3053      3062
      3060      3053      3062      3053      3055      3057      3053      3055      3058
      3053      3055      3059      3057      3055      3058      3057      3055      3059
      3058      3055      3059      3053      3062      3064      3071      3069      3076
      3071      3069      3078      3076      3069      3078      3069      3071      3073
      3069      3071      3074      3069      3071      3075      3073      3071      3074
      3073      3071      3075      3074      3071      3075      3069      3078      3080
      3087      3085      3092      3087      3085      3094      3092      3085      3094
      3085      3087      3089      3085      3087      3090      3085      3087      3091
      3089      3087      3090      3089      3087      3091      3090      3087      3091
      3085      3094      3096      3103      3101      3108      3103      3101      3110
      3108      3101      3110      3101      3103      3105      3101      3103      3106
      3101      3103      3107      3105      3103      3106      3105      3103      3107
      3106      3103      3107      3101      3110      3112      3119      3117      3124
      3119      3117      3126      3124      3117      3126      3117      3119      3121
      3117      3119      3122      3117      3119      3123      3121      3119      3122
      3121      3119      3123      3122      3119      3123      3117      3126      3128
      3135      3133      3140      3135      3133      3142      3140      3133      3142
      3133      3135      3137      3133      3135      3138      3133      3135      3139
      3137      3135      3138      3137      3135      3139      3138      3135      3139
      3133      3142      3144      3151      3149      3156      3151      3149      3158
      3156      3149      3158      3149      3151      3153      3149      3151      3154
      3149      3151      3155      3153      3151      3154      3153      3151      3155
      3154      3151      3155      3149      3158      3160      3167      3165      3172
      3167      3165      3174      3172      3165      3174      3165      3167      3169
      3165      3167      3170      3165      3167      3171      3169      3167      3170
      3169      3167      3171      3170      3167      3171      3165      3174      3176
      3183      3181      3188      3183      3181      3190      3188      3181      3190
      3181      3183      3185      3181      3183      3186      3181      3183      3187
      3185      3183      3186      3185      3183      3187      3186      3183      3187
      3181      3190      3192      3199      3197      3204      3199      3197      3206
      3204      3197      3206      3197      3199      3201      3197      3199      3202
      3197      3199      3203      3201      3199      3202      3201      3199      3203
      3202      3199      3203      3197      3206      3208      3215      3213      3220
      3215      3213      3222      3220      3213      3222      3213      3215      3217
      3213      3215      3218      3213      3215      3219      3217      3215      3218
      3217      3215      3219      3218      3215      3219      3213      3222      3224
      3231      3229      3236      3231      3229      3238      3236      3229      3238
      3229      3231      3233      3229      3231      3234      3229      3231      3235
      3233      3231      3234      3233      3231      3235      3234      3231      3235
      3229      3238      3240      3247      3245      3252      3247      3245      3254
      3252      3245      3254      3245      3247      3249      3245      3247      3250
      3245      3247      3251      3249      3247      3250      3249      3247      3251
      3250      3247      3251      3245      3254      3256      3263      3261      3268
      3263      3261      3270      3268      3261      3270      3261      3263      3265
      3261      3263      3266      3261      3263      3267      3265      3263      3266
      3265      3263      3267      3266      3263      3267      3261      3270      3272
      3279      3277      3284      3279      3277      3286      3284      3277      3286
      3277      3279      3281      3277      3279      3282      3277      3279      3283
      3281      3279      3282      3281      3279      3283      3282      3279      3283
      3277      3286      3288      3295      3293      3300      3295      3293      3302
      3300      3293      3302      3293      3295      3297      3293      3295      3298
      3293      3295      3299      3297      3295      3298      3297      3295      3299
      3298      3295      3299      3293      3302      3304      3311      3309      3316
      3311      3309      3318      3316      3309      3318      3309      3311      3313
      3309      3311      3314      3309      3311      3315      3313      3311      3314
      3313      3311      3315      3314      3311      3315      3309      3318      3320
      3327      3325      3332      3327      3325      3334      3332      3325      3334
      3325      3327      3329      3325      3327      3330      3325      3327      3331
      3329      3327      3330      3329      3327      3331      3330      3327      3331
      3325      3334      3336      3343      3341      3348      3343      3341      3350
      3348      3341      3350      3341      3343      3345      3341      3343      3346
      3341      3343      3347      3345      3343      3346      3345      3343      3347
      3346      3343      3347      3341      3350      3352      3359      3357      3364
      3359      3357      3366      3364      3357      3366      3357      3359      3361
      3357      3359      3362      3357      3359      3363      3361      3359      3362
      3361      3359      3363      3362      3359      3363      3357      3366      3368
      3375      3373      3380      3375      3373      3382      3380      3373      3382
      3373      3375      3377      3373      3375      3378      3373      3375      3379
      3377      3375      3378      3377      3375      3379      3378      3375      3379
      3373      3382      3384      3391      3389      3396      3391      3389      3398
      3396      3389      3398      3389      3391      3393      3389      3391      3394
      3389      3391      3395      3393      3391      3394      3393      3391      3395
      3394      3391      3395      3389      3398      3400      3407      3405      3412
      3407      3405      3414      3412      3405      3414      3405      3407      3409
      3405      3407      3410      3405      3407      3411      3409      3407      3410
      3409      3407      3411      3410      3407      3411      3405      3414      3416
      3423      3421      3428      3423      3421      3430      3428      3421      3430
      3421      3423      3425      3421      3423      3426      3421      3423      3427
      3425      3423      3426      3425      3423      3427      3426      3423      3427
      3421      3430      3432      3439      3437      3444      3439      3437      3446
      3444      3437      3446      3437      3439      3441      3437      3439      3442
      3437      3439      3443      3441      3439      3442      3441      3439      3443
      3442      3439      3443      3437      3446      3448      3455      3453      3460
      3455      3453      3462      3460      3453      3462      3453      3455      3457
      3453      3455      3458      3453      3455      3459      3457      3455      3458
      3457      3455      3459      3458      3455      3459      3453      3462      3464
      3471      3469      3476      3471      3469      3478      3476      3469      3478
      3469      3471      3473      3469      3471      3474      3469      3471      3475
      3473      3471      3474      3473      3471      3475      3474      3471      3475
      3469      3478      3480      3487      3485      3492      3487      3485      3494
      3492      3485      3494      3485      3487      3489      3485      3487      3490
      3485      3487      3491      3489      3487      3490      3489      3487      3491
      3490      3487      3491      3485      3494      3496      3503      3501      3508
      3503      3501      3510      3508      3501      3510      3501      3503      3505
      3501      3503      3506      3501      3503      3507      3505      3503      3506
      3505      3503      3507      3506      3503      3507      3501      3510      3512
      3519      3517      3524      3519      3517      3526      3524      3517      3526
      3517      3519      3521      3517      3519      3522      3517      3519      3523
      3521      3519      3522      3521      3519      3523      3522      3519      3523
      3517      3526      3528      3535      3533      3540      3535      3533      3542
      3540      3533      3542      3533      3535      3537      3533      3535      3538
      3533      3535      3539      3537      3535      3538      3537      3535      3539
      3538      3535      3539      3533      3542      3544      3551      3549      3556
      3551      3549      3558      3556      3549      3558      3549      3551      3553
      3549      3551      3554      3549      3551      3555      3553      3551      3554
      3553      3551      3555      3554      3551      3555      3549      3558      3560
      3567      3565      3572      3567      3565      3574      3572      3565      3574
      3565      3567      3569      3565      3567      3570      3565      3567      3571
      3569      3567      3570      3569      3567      3571      3570      3567      3571
      3565      3574      3576      3583      3581      3588      3583      3581      3590
      3588      3581      3590      3581      3583      3585      3581      3583      3586
      3581      3583      3587      3585      3583      3586      3585      3583      3587
      3586      3583      3587      3581      3590      3592      3599      3597      3604
      3599      3597      3606      3604      3597      3606      3597      3599      3601
      3597      3599      3602      3597      3599      3603      3601      3599      3602
      3601      3599      3603      3602      3599      3603      3597      3606      3608
      3615      3613      3620      3615      3613      3622      3620      3613      3622
      3613      3615      3617      3613      3615      3618      3613      3615      3619
      3617      3615      3618      3617      3615      3619      3618      3615      3619
      3613      3622      3624      3631      3629      3636      3631      3629      3638
      3636      3629      3638      3629      3631      3633      3629      3631      3634
      3629      3631      3635      3633      3631      3634      3633      3631      3635
      3634      3631      3635      3629      3638      3640      3647      3645      3652
      3647      3645      3654      3652      3645      3654      3645      3647      3649
      3645      3647      3650      3645      3647      3651      3649      3647      3650
      3649      3647      3651      3650      3647      3651      3645      3654      3656
      3663      3661      3668      3663      3661      3670      3668      3661      3670
      3661      3663      3665      3661      3663      3666      3661      3663      3667
      3665      3663      3666      3665      3663      3667      3666      3663      3667
      3661      3670      3672      3679      3677      3684      3679      3677      3686
      3684      3677      3686      3677      3679      3681      3677      3679      3682
      3677      3679      3683      3681      3679      3682      3681      3679      3683
      3682      3679      3683      3677      3686      3688      3695      3693      3700
      3695      3693      3702      3700      3693      3702      3693      3695      3697
      3693      3695      3698      3693      3695      3699      3697      3695      3698
      3697      3695      3699      3698      3695      3699      3693      3702      3704
      3711      3709      3716      3711      3709      3718      3716      3709      3718
      3709      3711      3713      3709      3711      3714      3709      3711      3715
      3713      3711      3714      3713      3711      3715      3714      3711      3715
      3709      3718      3720      3727      3725      3732      3727      3725      3734
      3732      3725      3734      3725      3727      3729      3725      3727      3730
      3725      3727      3731      3729      3727      3730      3729      3727      3731
      3730      3727      3731      3725      3734      3736      3743      3741      3748
      3743      3741      3750      3748      3741      3750      3741      3743      3745
      3741      3743      3746      3741      3743      3747      3745      3743      3746
      3745      3743      3747      3746      3743      3747      3741      3750      3752
      3759      3757      3764      3759      3757      3766      3764      3757      3766
      3757      3759      3761      3757      3759      3762      3757      3759      3763
      3761      3759      3762      3761      3759      3763      3762      3759      3763
      3757      3766      3768      3775      3773      3780      3775      3773      3782
      3780      3773      3782      3773      3775      3777      3773      3775      3778
      3773      3775      3779      3777      3775      3778      3777      3775      3779
      3778      3775      3779      3773      3782      3784      3791      3789      3796
      3791      3789      3798      3796      3789      3798      3789      3791      3793
      3789      3791      3794      3789      3791      3795      3793      3791      3794
      3793      3791      3795      3794      3791      3795      3789      3798      3800
      3807      3805      3812      3807      3805      3814      3812      3805      3814
      3805      3807      3809      3805      3807      3810      3805      3807      3811
      3809      3807      3810      3809      3807      3811      3810      3807      3811
      3805      3814      3816      3823      3821      3828      3823      3821      3830
      3828      3821      3830      3821      3823      3825      3821      3823      3826
      3821      3823      3827      3825      3823      3826      3825      3823      3827
      3826      3823      3827      3821      3830      3832      3839      3837      3844
      3839      3837      3846      3844      3837      3846      3837      3839      3841
      3837      3839      3842      3837      3839      3843      3841      3839      3842
      3841      3839      3843      3842      3839      3843      3837      3846      3848
      3855      3853      3860      3855      3853      3862      3860      3853      3862
      3853      3855      3857      3853      3855      3858      3853      3855      3859
      3857      3855      3858      3857      3855      3859      3858      3855      3859
      3853      3862      3864      3871      3869      3876      3871      3869      3878
      3876      3869      3878      3869      3871      3873      3869      3871      3874
      3869      3871      3875      3873      3871      3874      3873      3871      3875
      3874      3871      3875      3869      3878      3880      3887      3885      3892
      3887      3885      3894      3892      3885      3894      3885      3887      3889
      3885      3887      3890      3885      3887      3891      3889      3887      3890
      3889      3887      3891      3890      3887      3891      3885      3894      3896
      3903      3901      3908      3903      3901      3910      3908      3901      3910
      3901      3903      3905      3901      3903      3906      3901      3903      3907
      3905      3903      3906      3905      3903      3907      3906      3903      3907
      3901      3910      3912      3919      3917      3924      3919      3917      3926
      3924      3917      3926      3917      3919      3921      3917      3919      3922
      3917      3919      3923      3921      3919      3922      3921      3919      3923
      3922      3919      3923      3917      3926      3928      3935      3933      3940
      3935      3933      3942      3940      3933      3942      3933      3935      3937
      3933      3935      3938      3933      3935      3939      3937      3935      3938
      3937      3935      3939      3938      3935      3939      3933      3942      3944
      3951      3949      3956      3951      3949      3958      3956      3949      3958
      3949      3951      3953      3949      3951      3954      3949      3951      3955
      3953      3951      3954      3953      3951      3955      3954      3951      3955
      3949      3958      3960      3967      3965      3972      3967      3965      3974
      3972      3965      3974      3965      3967      3969      3965      3967      3970
      3965      3967      3971      3969      3967      3970      3969      3967      3971
      3970      3967      3971      3965      3974      3976      3983      3981      3988
      3983      3981      3990      3988      3981      3990      3981      3983      3985
      3981      3983      3986      3981      3983      3987      3985      3983      3986
      3985      3983      3987      3986      3983      3987      3981      3990      3992
      3999      3997      4004      3999      3997      4006      4004      3997      4006
      3997      3999      4001      3997      3999      4002      3997      3999      4003
      4001      3999      4002      4001      3999      4003      4002      3999      4003
      3997      4006      4008      4015      4013      4020      4015      4013      4022
      4020      4013      4022      4013      4015      4017      4013      4015      4018
      4013      4015      4019      4017      4015      4018      4017      4015      4019
      4018      4015      4019      4013      4022      4024      4031      4029      4036
      4031      4029      4038      4036      4029      4038      4029      4031      4033
      4029      4031      4034      4029      4031      4035      4033      4031      4034
      4033      4031      4035      4034      4031      4035      4029      4038      4040
      4047      4045      4052      4047      4045      4054      4052      4045      4054
      4045      4047      4049      4045      4047      4050      4045      4047      4051
      4049      4047      4050      4049      4047      4051      4050      4047      4051
      4045      4054      4056      4063      4061      4068      4063      4061      4070
      4068      4061      4070      4061      4063      4065      4061      4063      4066
      4061      4063      4067      4065      4063      4066      4065      4063      4067
      4066      4063      4067      4061      4070      4072      4079      4077      4084
      4079      4077      4086      4084      4077      4086      4077      4079      4081
      4077      4079      4082      4077      4079      4083      4081      4079      4082
      4081      4079      4083      4082      4079      4083      4077      4086      4088
      4095      4093      4100      4095      4093      4102      4100      4093      4102
      4093      4095      4097      4093      4095      4098      4093      4095      4099
      4097      4095      4098      4097      4095      4099      4098      4095      4099
      4093      4102      4104      4111      4109      4116      4111      4109      4118
      4116      4109      4118      4109      4111      4113      4109      4111      4114
      4109      4111      4115      4113      4111      4114      4113      4111      4115
      4114      4111      4115      4109      4118      4120      4127      4125      4132
      4127      4125      4134      4132      4125      4134      4125      4127      4129
      4125      4127      4130      4125      4127      4131      4129      4127      4130
      4129      4127      4131      4130      4127      4131      4125      4134      4136
      4143      4141      4148      4143      4141      4150      4148      4141      4150
      4141      4143      4145      4141      4143      4146      4141      4143      4147
      4145      4143      4146      4145      4143      4147      4146      4143      4147
      4141      4150      4152      4159      4157      4164      4159      4157      4166
      4164      4157      4166      4157      4159      4161      4157      4159      4162
      4157      4159      4163      4161      4159      4162      4161      4159      4163
      4162      4159      4163      4157      4166      4168      4175      4173      4180
      4175      4173      4182      4180      4173      4182      4173      4175      4177
      4173      4175      4178      4173      4175      4179      4177      4175      4178
      4177      4175      4179      4178      4175      4179      4173      4182      4184
      4191      4189      4196      4191      4189      4198      4196      4189      4198
      4189      4191      4193      4189      4191      4194      4189      4191      4195
      4193      4191      4194      4193      4191      4195      4194      4191      4195
      4189      4198      4200      4207      4205      4212      4207      4205      4214
      4212      4205      4214      4205      4207      4209      4205      4207      4210
      4205      4207      4211      4209      4207      4210      4209      4207      4211
      4210      4207      4211      4205      4214      4216      4223      4221      4228
      4223      4221      4230      4228      4221      4230      4221      4223      4225
      4221      4223      4226      4221      4223      4227      4225      4223      4226
      4225      4223      4227      4226      4223      4227      4221      4230      4232
      4239      4237      4244      4239      4237      4246      4244      4237      4246
      4237      4239      4241      4237      4239      4242      4237      4239      4243
      4241      4239      4242      4241      4239      4243      4242      4239      4243
      4237      4246      4248      4255      4253      4260      4255      4253      4262
      4260      4253      4262      4253      4255      4257      4253      4255      4258
      4253      4255      4259      4257      4255      4258      4257      4255      4259
      4258      4255      4259      4253      4262      4264      4271      4269      4276
      4271      4269      4278      4276      4269      4278      4269      4271      4273
      4269      4271      4274      4269      4271      4275      4273      4271      4274
      4273      4271      4275      4274      4271      4275      4269      4278      4280
      4287      4285      4292      4287      4285      4294      4292      4285      4294
      4285      4287      4289      4285      4287      4290      4285      4287      4291
      4289      4287      4290      4289      4287      4291      4290      4287      4291
      4285      4294      4296      4303      4301      4308      4303      4301      4310
      4308      4301      4310      4301      4303      4305      4301      4303      4306
      4301      4303      4307      4305      4303      4306      4305      4303      4307
      4306      4303      4307      4301      4310      4312      4319      4317      4324
      4319      4317      4326      4324      4317      4326      4317      4319      4321
      4317      4319      4322      4317      4319      4323      4321      4319      4322
      4321      4319      4323      4322      4319      4323      4317      4326      4328
      4335      4333      4340      4335      4333      4342      4340      4333      4342
      4333      4335      4337      4333      4335      4338      4333      4335      4339
      4337      4335      4338      4337      4335      4339      4338      4335      4339
      4333      4342      4344      4351      4349      4356      4351      4349      4358
      4356      4349      4358      4349      4351      4353      4349      4351      4354
      4349      4351      4355      4353      4351      4354      4353      4351      4355
      4354      4351      4355      4349      4358      4360      4367      4365      4372
      4367      4365      4374      4372      4365      4374      4365      4367      4369
      4365      4367      4370      4365      4367      4371      4369      4367      4370
      4369      4367      4371      4370      4367      4371      4365      4374      4376
      4383      4381      4388      4383      4381      4390      4388      4381      4390
      4381      4383      4385      4381      4383      4386      4381      4383      4387
      4385      4383      4386      4385      4383      4387      4386      4383      4387
      4381      4390      4392      4399      4397      4404      4399      4397      4406
      4404      4397      4406      4397      4399      4401      4397      4399      4402
      4397      4399      4403      4401      4399      4402      4401      4399      4403
      4402      4399      4403      4397      4406      4408      4415      4413      4420
      4415      4413      4422      4420      4413      4422      4413      4415      4417
      4413      4415      4418      4413      4415      4419      4417      4415      4418
      4417      4415      4419      4418      4415      4419      4413      4422      4424
      4431      4429      4432      4431      4429      4433      4431      4429      4434
      4432      4429      4433      4432      4429      4434      4433      4429      4434
      4429      4434      4436      4429      4434      4442      4436      4434      4442
      4434      4436      4438      4434      4436      4439      4438      4436      4439
      4436      4439      4441      4436      4439      4445      4441      4439      4445
      4434      4442      4444      4434      4442      4445      4444      4442      4445
      4439      4445      4442      4439      4445      4447      4442      4445      4447
      4451      4449      4452      4451      4449      4453      4451      4449      4454
      4452      4449      4453      4452      4449      4454      4453      4449      4454
      4449      4454      4456      4449      4454      4462      4456      4454      4462
      4454      4456      4458      4454      4456      4459      4458      4456      4459
      4456      4459      4461      4456      4459      4465      4461      4459      4465
      4454      4462      4464      4454      4462      4465      4464      4462      4465
      4459      4465      4462      4459      4465      4467      4462      4465      4467
      4471      4469      4472      4471      4469      4473      4471      4469      4474
      4472      4469      4473      4472      4469      4474      4473      4469      4474
      4469      4474      4476      4469      4474      4482      4476      4474      4482
      4474      4476      4478      4474      4476      4479      4478      4476      4479
      4476      4479      4481      4476      4479      4485      4481      4479      4485
      4474      4482      4484      4474      4482      4485      4484      4482      4485
      4479      4485      4482      4479      4485      4487      4482      4485      4487
      4491      4489      4492      4491      4489      4493      4491      4489      4494
      4492      4489      4493      4492      4489      4494      4493      4489      4494
      4489      4494      4496      4489      4494      4502      4496      4494      4502
      4494      4496      4498      4494      4496      4499      4498      4496      4499
      4496      4499      4501      4496      4499      4505      4501      4499      4505
      4494      4502      4504      4494      4502      4505      4504      4502      4505
      4499      4505      4502      4499      4505      4507      4502      4505      4507
      4511      4509      4512      4511      4509      4513      4511      4509      4514
      4512      4509      4513      4512      4509      4514      4513      4509      4514
      4509      4514      4516      4509      4514      4522      4516      4514      4522
      4514      4516      4518      4514      4516      4519      4518      4516      4519
      4516      4519      4521      4516      4519      4525      4521      4519      4525
      4514      4522      4524      4514      4522      4525      4524      4522      4525
      4519      4525      4522      4519      4525      4527      4522      4525      4527
      4531      4529      4532      4531      4529      4533      4531      4529      4534
      4532      4529      4533      4532      4529      4534      4533      4529      4534
      4529      4534      4536      4529      4534      4542      4536      4534      4542
      4534      4536      4538      4534      4536      4539      4538      4536      4539
      4536      4539      4541      4536      4539      4545      4541      4539      4545
      4534      4542      4544      4534      4542      4545      4544      4542      4545
      4539      4545      4542      4539      4545      4547      4542      4545      4547
      4551      4549      4552      4551      4549      4553      4551      4549      4554
      4552      4549      4553      4552      4549      4554      4553      4549      4554
      4549      4554      4556      4549      4554      4562      4556      4554      4562
      4554      4556      4558      4554      4556      4559      4558      4556      4559
      4556      4559      4561      4556      4559      4565      4561      4559      4565
      4554      4562      4564      4554      4562      4565      4564      4562      4565
      4559      4565      4562      4559      4565      4567      4562      4565      4567
      4571      4569      4572      4571      4569      4573      4571      4569      4574
      4572      4569      4573      4572      4569      4574      4573      4569      4574
      4569      4574      4576      4569      4574      4582      4576      4574      4582
      4574      4576      4578      4574      4576      4579      4578      4576      4579
      4576      4579      4581      4576      4579      4585      4581      4579      4585
      4574      4582      4584      4574      4582      4585      4584      4582      4585
      4579      4585      4582      4579      4585      4587      4582      4585      4587
      4591      4589      4592      4591      4589      4593      4591      4589      4594
      4592      4589      4593      4592      4589      4594      4593      4589      4594
      4589      4594      4596      4589      4594      4602      4596      4594      4602
      4594      4596      4598      4594      4596      4599      4598      4596      4599
      4596      4599      4601      4596      4599      4605      4601      4599      4605
      4594      4602      4604      4594      4602      4605      4604      4602      4605
      4599      4605      4602      4599      4605      4607      4602      4605      4607
      4611      4609      4612      4611      4609      4613      4611      4609      4614
      4612      4609      4613      4612      4609      4614      4613      4609      4614
      4609      4614      4616      4609      4614      4622      4616      4614      4622
      4614      4616      4618      4614      4616      4619      4618      4616      4619
      4616      4619      4621      4616      4619      4625      4621      4619      4625
      4614      4622      4624      4614      4622      4625      4624      4622      4625
      4619      4625      4622      4619      4625      4627      4622      4625      4627
      4631      4629      4632      4631      4629      4633      4631      4629      4634
      4632      4629      4633      4632      4629      4634      4633      4629      4634
      4629      4634      4636      4629      4634      4642      4636      4634      4642
      4634      4636      4638      4634      4636      4639      4638      4636      4639
      4636      4639      4641      4636      4639      4645      4641      4639      4645
      4634      4642      4644      4634      4642      4645      4644      4642      4645
      4639      4645      4642      4639      4645      4647      4642      4645      4647
      4651      4649      4652      4651      4649      4653      4651      4649      4654
      4652      4649      4653      4652      4649      4654      4653      4649      4654
      4649      4654      4656      4649      4654      4662      4656      4654      4662
      4654      4656      4658      4654      4656      4659      4658      4656      4659
      4656      4659      4661      4656      4659      4665      4661      4659      4665
      4654      4662      4664      4654      4662      4665      4664      4662      4665
      4659      4665      4662      4659      4665      4667      4662      4665      4667
      4671      4669      4672      4671      4669      4673      4671      4669      4674
      4672      4669      4673      4672      4669      4674      4673      4669      4674
      4669      4674      4676      4669      4674      4682      4676      4674      4682
      4674      4676      4678      4674      4676      4679      4678      4676      4679
      4676      4679      4681      4676      4679      4685      4681      4679      4685
      4674      4682      4684      4674      4682      4685      4684      4682      4685
      4679      4685      4682      4679      4685      4687      4682      4685      4687
      4691      4689      4692      4691      4689      4693      4691      4689      4694
      4692      4689      4693      4692      4689      4694      4693      4689      4694
      4689      4694      4696      4689      4694      4702      4696      4694      4702
      4694      4696      4698      4694      4696      4699      4698      4696      4699
      4696      4699      4701      4696      4699      4705      4701      4699      4705
      4694      4702      4704      4694      4702      4705      4704      4702      4705
      4699      4705      4702      4699      4705      4707      4702      4705      4707
      4711      4709      4712      4711      4709      4713      4711      4709      4714
      4712      4709      4713      4712      4709      4714      4713      4709      4714
      4709      4714      4716      4709      4714      4722      4716      4714      4722
      4714      4716      4718      4714      4716      4719      4718      4716      4719
      4716      4719      4721      4716      4719      4725      4721      4719      4725
      4714      4722      4724      4714      4722      4725      4724      4722      4725
      4719      4725      4722      4719      4725      4727      4722      4725      4727
      4731      4729      4732      4731      4729      4733      4731      4729      4734
      4732      4729      4733      4732      4729      4734      4733      4729      4734
      4729      4734      4736      4729      4734      4742      4736      4734      4742
      4734      4736      4738      4734      4736      4739      4738      4736      4739
      4736      4739      4741      4736      4739      4745      4741      4739      4745
      4734      4742      4744      4734      4742      4745      4744      4742      4745
      4739      4745      4742      4739      4745      4747      4742      4745      4747
      4751      4749      4752      4751      4749      4753      4751      4749      4754
      4752      4749      4753      4752      4749      4754      4753      4749      4754
      4749      4754      4756      4749      4754      4762      4756      4754      4762
      4754      4756      4758      4754      4756      4759      4758      4756      4759
      4756      4759      4761      4756      4759      4765      4761      4759      4765
      4754      4762      4764      4754      4762      4765      4764      4762      4765
      4759      4765      4762      4759      4765      4767      4762      4765      4767
      4771      4769      4772      4771      4769      4773      4771      4769      4774
      4772      4769      4773      4772      4769      4774      4773      4769      4774
      4769      4774      4776      4769      4774      4782      4776      4774      4782
      4774      4776      4778      4774      4776      4779      4778      4776      4779
      4776      4779      4781      4776      4779      4785      4781      4779      4785
      4774      4782      4784      4774      4782      4785      4784      4782      4785
      4779      4785      4782      4779      4785      4787      4782      4785      4787
      4791      4789      4792      4791      4789      4793      4791      4789      4794
      4792      4789      4793      4792      4789      4794      4793      4789      4794
      4789      4794      4796      4789      4794      4802      4796      4794      4802
      4794      4796      4798      4794      4796      4799      4798      4796      4799
      4796      4799      4801      4796      4799      4805      4801      4799      4805
      4794      4802      4804      4794      4802      4805      4804      4802      4805
      4799      4805      4802      4799      4805      4807      4802      4805      4807
      4811      4809      4812      4811      4809      4813      4811      4809      4814
      4812      4809      4813      4812      4809      4814      4813      4809      4814
      4809      4814      4816      4809      4814      4822      4816      4814      4822
      4814      4816      4818      4814      4816      4819      4818      4816      4819
      4816      4819      4821      4816      4819      4825      4821      4819      4825
      4814      4822      4824      4814      4822      4825      4824      4822      4825
      4819      4825      4822      4819      4825      4827      4822      4825      4827
      4831      4829      4832      4831      4829      4833      4831      4829      4834
      4832      4829      4833      4832      4829      4834      4833      4829      4834
      4829      4834      4836      4829      4834      4842      4836      4834      4842
      4834      4836      4838      4834      4836      4839      4838      4836      4839
      4836      4839      4841      4836      4839      4845      4841      4839      4845
      4834      4842      4844      4834      4842      4845      4844      4842      4845
      4839      4845      4842      4839      4845      4847      4842      4845      4847
      4851      4849      4852      4851      4849      4853      4851      4849      4854
      4852      4849      4853      4852      4849      4854      4853      4849      4854
      4849      4854      4856      4849      4854      4862      4856      4854      4862
      4854      4856      4858      4854      4856      4859      4858      4856      4859
      4856      4859      4861      4856      4859      4865      4861      4859      4865
      4854      4862      4864      4854      4862      4865      4864      4862      4865
      4859      4865      4862      4859      4865      4867      4862      4865      4867
      4871      4869      4872      4871      4869      4873      4871      4869      4874
      4872      4869      4873      4872      4869      4874      4873      4869      4874
      4869      4874      4876      4869      4874      4882      4876      4874      4882
      4874      4876      4878      4874      4876      4879      4878      4876      4879
      4876      4879      4881      4876      4879      4885      4881      4879      4885
      4874      4882      4884      4874      4882      4885      4884      4882      4885
      4879      4885      4882      4879      4885      4887      4882      4885      4887
      4891      4889      4892      4891      4889      4893      4891      4889      4894
      4892      4889      4893      4892      4889      4894      4893      4889      4894
      4889      4894      4896      4889      4894      4902      4896      4894      4902
      4894      4896      4898      4894      4896      4899      4898      4896      4899
      4896      4899      4901      4896      4899      4905      4901      4899      4905
      4894      4902      4904      4894      4902      4905      4904      4902      4905
      4899      4905      4902      4899      4905      4907      4902      4905      4907
      4911      4909      4912      4911      4909      4913      4911      4909      4914
      4912      4909      4913      4912      4909      4914      4913      4909      4914
      4909      4914      4916      4909      4914      4922      4916      4914      4922
      4914      4916      4918      4914      4916      4919      4918      4916      4919
      4916      4919      4921      4916      4919      4925      4921      4919      4925
      4914      4922      4924      4914      4922      4925      4924      4922      4925
      4919      4925      4922      4919      4925      4927      4922      4925      4927
      4931      4929      4932      4931      4929      4933      4931      4929      4934
      4932      4929      4933      4932      4929      4934      4933      4929      4934
      4929      4934      4936      4929      4934      4942      4936      4934      4942
      4934      4936      4938      4934      4936      4939      4938      4936      4939
      4936      4939      4941      4936      4939      4945      4941      4939      4945
      4934      4942      4944      4934      4942      4945      4944      4942      4945
      4939      4945      4942      4939      4945      4947      4942      4945      4947
      4951      4949      4952      4951      4949      4953      4951      4949      4954
      4952      4949      4953      4952      4949      4954      4953      4949      4954
      4949      4954      4956      4949      4954      4962      4956      4954      4962
      4954      4956      4958      4954      4956      4959      4958      4956      4959
      4956      4959      4961      4956      4959      4965      4961      4959      4965
      4954      4962      4964      4954      4962      4965      4964      4962      4965
      4959      4965      4962      4959      4965      4967      4962      4965      4967
      4971      4969      4972      4971      4969      4973      4971      4969      4974
      4972      4969      4973      4972      4969      4974      4973      4969      4974
      4969      4974      4976      4969      4974      4982      4976      4974      4982
      4974      4976      4978      4974      4976      4979      4978      4976      4979
      4976      4979      4981      4976      4979      4985      4981      4979      4985
      4974      4982      4984      4974      4982      4985      4984      4982      4985
      4979      4985      4982      4979      4985      4987      4982      4985      4987
      4991      4989      4992      4991      4989      4993      4991      4989      4994
      4992      4989      4993      4992      4989      4994      4993      4989      4994
      4989      4994      4996      4989      4994      5002      4996      4994      5002
      4994      4996      4998      4994      4996      4999      4998      4996      4999
      4996      4999      5001      4996      4999      5005      5001      4999      5005
      4994      5002      5004      4994      5002      5005      5004      5002      5005
      4999      5005      5002      4999      5005      5007      5002      5005      5007
      5011      5009      5012      5011      5009      5013      5011      5009      5014
      5012      5009      5013      5012      5009      5014      5013      5009      5014
      5009      5014      5016      5009      5014      5022      5016      5014      5022
      5014      5016      5018      5014      5016      5019      5018      5016      5019
      5016      5019      5021      5016      5019      5025      5021      5019      5025
      5014      5022      5024      5014      5022      5025      5024      5022      5025
      5019      5025      5022      5019      5025      5027      5022      5025      5027
      5031      5029      5032      5031      5029      5033      5031      5029      5034
      5032      5029      5033      5032      5029      5034      5033      5029      5034
      5029      5034      5036      5029      5034      5042      5036      5034      5042
      5034      5036      5038      5034      5036      5039      5038      5036      5039
      5036      5039      5041      5036      5039      5045      5041      5039      5045
      5034      5042      5044      5034      5042      5045      5044      5042      5045
      5039      5045      5042      5039      5045      5047      5042      5045      5047
      5051      5049      5052      5051      5049      5053      5051      5049      5054
      5052      5049      5053      5052      5049      5054      5053      5049      5054
      5049      5054      5056      5049      5054      5062      5056      5054      5062
      5054      5056      5058      5054      5056      5059      5058      5056      5059
      5056      5059      5061      5056      5059      5065      5061      5059      5065
      5054      5062      5064      5054      5062      5065      5064      5062      5065
      5059      5065      5062      5059      5065      5067      5062      5065      5067
      5071      5069      5072      5071      5069      5073      5071      5069      5074
      5072      5069      5073      5072      5069      5074      5073      5069      5074
      5069      5074      5076      5069      5074      5082      5076      5074      5082
      5074      5076      5078      5074      5076      5079      5078      5076      5079
      5076      5079      5081      5076      5079      5085      5081      5079      5085
      5074      5082      5084      5074      5082      5085      5084      5082      5085
      5079      5085      5082      5079      5085      5087      5082      5085      5087
      5091      5089      5092      5091      5089      5093      5091      5089      5094
      5092      5089      5093      5092      5089      5094      5093      5089      5094
      5089      5094      5096      5089      5094      5102      5096      5094      5102
      5094      5096      5098      5094      5096      5099      5098      5096      5099
      5096      5099      5101      5096      5099      5105      5101      5099      5105
      5094      5102      5104      5094      5102      5105      5104      5102      5105
      5099      5105      5102      5099      5105      5107      5102      5105      5107
      5111      5109      5112      5111      5109      5113      5111      5109      5114
      5112      5109      5113      5112      5109      5114      5113      5109      5114
      5109      5114      5116      5109      5114      5122      5116      5114      5122
      5114      5116      5118      5114      5116      5119      5118      5116      5119
      5116      5119      5121      5116      5119      5125      5121      5119      5125
      5114      5122      5124      5114      5122      5125      5124      5122      5125
      5119      5125      5122      5119      5125      5127      5122      5125      5127
      5131      5129      5132      5131      5129      5133      5131      5129      5134
      5132      5129      5133      5132      5129      5134      5133      5129      5134
      5129      5134      5136      5129      5134      5142      5136      5134      5142
      5134      5136      5138      5134      5136      5139      5138      5136      5139
      5136      5139      5141      5136      5139      5145      5141      5139      5145
      5134      5142      5144      5134      5142      5145      5144      5142      5145
      5139      5145      5142      5139      5145      5147      5142      5145      5147
      5151      5149      5152      5151      5149      5153      5151      5149      5154
      5152      5149      5153      5152      5149      5154      5153      5149      5154
      5149      5154      5156      5149      5154      5162      5156      5154      5162
      5154      5156      5158      5154      5156      5159      5158      5156      5159
      5156      5159      5161      5156      5159      5165      5161      5159      5165
      5154      5162      5164      5154      5162      5165      5164      5162      5165
      5159      5165      5162      5159      5165      5167      5162      5165      5167
      5171      5169      5172      5171      5169      5173      5171      5169      5174
      5172      5169      5173      5172      5169      5174      5173      5169      5174
      5169      5174      5176      5169      5174      5182      5176      5174      5182
      5174      5176      5178      5174      5176      5179      5178      5176      5179
      5176      5179      5181      5176      5179      5185      5181      5179      5185
      5174      5182      5184      5174      5182      5185      5184      5182      5185
      5179      5185      5182      5179      5185      5187      5182      5185      5187
      5191      5189      5192      5191      5189      5193      5191      5189      5194
      5192      5189      5193      5192      5189      5194      5193      5189      5194
      5189      5194      5196      5189      5194      5202      5196      5194      5202
      5194      5196      5198      5194      5196      5199      5198      5196      5199
      5196      5199      5201      5196      5199      5205      5201      5199      5205
      5194      5202      5204      5194      5202      5205      5204      5202      5205
      5199      5205      5202      5199      5205      5207      5202      5205      5207
      5211      5209      5212      5211      5209      5213      5211      5209      5214
      5212      5209      5213      5212      5209      5214      5213      5209      5214
      5209      5214      5216      5209      5214      5222      5216      5214      5222
      5214      5216      5218      5214      5216      5219      5218      5216      5219
      5216      5219      5221      5216      5219      5225      5221      5219      5225
      5214      5222      5224      5214      5222      5225      5224      5222      5225
      5219      5225      5222      5219      5225      5227      5222      5225      5227
      5231      5229      5232      5231      5229      5233      5231      5229      5234
      5232      5229      5233      5232      5229      5234      5233      5229      5234
      5229      5234      5236      5229      5234      5242      5236      5234      5242
      5234      5236      5238      5234      5236      5239      5238      5236      5239
      5236      5239      5241      5236      5239      5245      5241      5239      5245
      5234      5242      5244      5234      5242      5245      5244      5242      5245
      5239      5245      5242      5239      5245      5247      5242      5245      5247
      5251      5249      5252      5251      5249      5253      5251      5249      5254
      5252      5249      5253      5252      5249      5254      5253      5249      5254
      5249      5254      5256      5249      5254      5262      5256      5254      5262
      5254      5256      5258      5254      5256      5259      5258      5256      5259
      5256      5259      5261      5256      5259      5265      5261      5259      5265
      5254      5262      5264      5254      5262      5265      5264      5262      5265
      5259      5265      5262      5259      5265      5267      5262      5265      5267
      5271      5269      5272      5271      5269      5273      5271      5269      5274
      5272      5269      5273      5272      5269      5274      5273      5269      5274
      5269      5274      5276      5269      5274      5282      5276      5274      5282
      5274      5276      5278      5274      5276      5279      5278      5276      5279
      5276      5279      5281      5276      5279      5285      5281      5279      5285
      5274      5282      5284      5274      5282      5285      5284      5282      5285
      5279      5285      5282      5279      5285      5287      5282      5285      5287
      5291      5289      5292      5291      5289      5293      5291      5289      5294
      5292      5289      5293      5292      5289      5294      5293      5289      5294
      5289      5294      5296      5289      5294      5302      5296      5294      5302
      5294      5296      5298      5294      5296      5299      5298      5296      5299
      5296      5299      5301      5296      5299      5305      5301      5299      5305
      5294      5302      5304      5294      5302      5305      5304      5302      5305
      5299      5305      5302      5299      5305      5307      5302      5305      5307
      5311      5309      5312      5311      5309      5313      5311      5309      5314
      5312      5309      5313      5312      5309      5314      5313      5309      5314
      5309      5314      5316      5309      5314      5322      5316      5314      5322
      5314      5316      5318      5314      5316      5319      5318      5316      5319
      5316      5319      5321      5316      5319      5325      5321      5319      5325
      5314      5322      5324      5314      5322      5325      5324      5322      5325
      5319      5325      5322      5319      5325      5327      5322      5325      5327
      5331      5329      5332      5331      5329      5333      5331      5329      5334
      5332      5329      5333      5332      5329      5334      5333      5329      5334
      5329      5334      5336      5329      5334      5342      5336      5334      5342
      5334      5336      5338      5334      5336      5339      5338      5336      5339
      5336      5339      5341      5336      5339      5345      5341      5339      5345
      5334      5342      5344      5334      5342      5345      5344      5342      5345
      5339      5345      5342      5339      5345      5347      5342      5345      5347
      5351      5349      5352      5351      5349      5353      5351      5349      5354
      5352      5349      5353      5352      5349      5354      5353      5349      5354
      5349      5354      5356      5349      5354      5362      5356      5354      5362
      5354      5356      5358      5354      5356      5359      5358      5356      5359
      5356      5359      5361      5356      5359      5365      5361      5359      5365
      5354      5362      5364      5354      5362      5365      5364      5362      5365
      5359      5365      5362      5359      5365      5367      5362      5365      5367
      5371      5369      5372      5371      5369      5373      5371      5369      5374
      5372      5369      5373      5372      5369      5374      5373      5369      5374
      5369      5374      5376      5369      5374      5382      5376      5374      5382
      5374      5376      5378      5374      5376      5379      5378      5376      5379
      5376      5379      5381      5376      5379      5385      5381      5379      5385
      5374      5382      5384      5374      5382      5385      5384      5382      5385
      5379      5385      5382      5379      5385      5387      5382      5385      5387
      5391      5389      5392      5391      5389      5393      5391      5389      5394
      5392      5389      5393      5392      5389      5394      5393      5389      5394
      5389      5394      5396      5389      5394      5402      5396      5394      5402
      5394      5396      5398      5394      5396      5399      5398      5396      5399
      5396      5399      5401      5396      5399      5405      5401      5399      5405
      5394      5402      5404      5394      5402      5405      5404      5402      5405
      5399      5405      5402      5399      5405      5407      5402      5405      5407
      5411      5409      5412      5411      5409      5413      5411      5409      5414
      5412      5409      5413      5412      5409      5414      5413      5409      5414
      5409      5414      5416      5409      5414      5422      5416      5414      5422
      5414      5416      5418      5414      5416      5419      5418      5416      5419
      5416      5419      5421      5416      5419      5425      5421      5419      5425
      5414      5422      5424      5414      5422      5425      5424      5422      5425
      5419      5425      5422      5419      5425      5427      5422      5425      5427
      5431      5429      5432      5431      5429      5433      5431      5429      5434
      5432      5429      5433      5432      5429      5434      5433      5429      5434
      5429      5434      5436      5429      5434      5442      5436      5434      5442
      5434      5436      5438      5434      5436      5439      5438      5436      5439
      5436      5439      5441      5436      5439      5445      5441      5439      5445
      5434      5442      5444      5434      5442      5445      5444      5442      5445
      5439      5445      5442      5439      5445      5447      5442      5445      5447
      5451      5449      5452      5451      5449      5453      5451      5449      5454
      5452      5449      5453      5452      5449      5454      5453      5449      5454
      5449      5454      5456      5449      5454      5462      5456      5454      5462
      5454      5456      5458      5454      5456      5459      5458      5456      5459
      5456      5459      5461      5456      5459      5465      5461      5459      5465
      5454      5462      5464      5454      5462      5465      5464      5462      5465
      5459      5465      5462      5459      5465      5467      5462      5465      5467
      5471      5469      5472      5471      5469      5473      5471      5469      5474
      5472      5469      5473      5472      5469      5474      5473      5469      5474
      5469      5474      5476      5469      5474      5482      5476      5474      5482
      5474      5476      5478      5474      5476      5479      5478      5476      5479
      5476      5479      5481      5476      5479      5485      5481      5479      5485
      5474      5482      5484      5474      5482      5485      5484      5482      5485
      5479      5485      5482      5479      5485      5487      5482      5485      5487
      5491      5489      5492      5491      5489      5493      5491      5489      5494
      5492      5489      5493      5492      5489      5494      5493      5489      5494
      5489      5494      5496      5489      5494      5502      5496      5494      5502
      5494      5496      5498      5494      5496      5499      5498      5496      5499
      5496      5499      5501      5496      5499      5505      5501      5499      5505
      5494      5502      5504      5494      5502      5505      5504      5502      5505
      5499      5505      5502      5499      5505      5507      5502      5505      5507
      5511      5509      5512      5511      5509      5513      5511      5509      5514
      5512      5509      5513      5512      5509      5514      5513      5509      5514
      5509      5514      5516      5509      5514      5522      5516      5514      5522
      5514      5516      5518      5514      5516      5519      5518      5516      5519
      5516      5519      5521      5516      5519      5525      5521      5519      5525
      5514      5522      5524      5514      5522      5525      5524      5522      5525
      5519      5525      5522      5519      5525      5527      5522      5525      5527
      5531      5529      5532      5531      5529      5533      5531      5529      5534
      5532      5529      5533      5532      5529      5534      5533      5529      5534
      5529      5534      5536      5529      5534      5542      5536      5534      5542
      5534      5536      5538      5534      5536      5539      5538      5536      5539
      5536      5539      5541      5536      5539      5545      5541      5539      5545
      5534      5542      5544      5534      5542      5545      5544      5542      5545
      5539      5545      5542      5539      5545      5547      5542      5545      5547
      5551      5549      5552      5551      5549      5553      5551      5549      5554
      5552      5549      5553      5552      5549      5554      5553      5549      5554
      5549      5554      5556      5549      5554      5562      5556      5554      5562
      5554      5556      5558      5554      5556      5559      5558      5556      5559
      5556      5559      5561      5556      5559      5565      5561      5559      5565
      5554      5562      5564      5554      5562      5565      5564      5562      5565
      5559      5565      5562      5559      5565      5567      5562      5565      5567
      5571      5569      5572      5571      5569      5573      5571      5569      5574
      5572      5569      5573      5572      5569      5574      5573      5569      5574
      5569      5574      5576      5569      5574      5582      5576      5574      5582
      5574      5576      5578      5574      5576      5579      5578      5576      5579
      5576      5579      5581      5576      5579      5585      5581      5579      5585
      5574      5582      5584      5574      5582      5585      5584      5582      5585
      5579      5585      5582      5579      5585      5587      5582      5585      5587
      5591      5589      5592      5591      5589      5593      5591      5589      5594
      5592      5589      5593      5592      5589      5594      5593      5589      5594
      5589      5594      5596      5589      5594      5602      5596      5594      5602
      5594      5596      5598      5594      5596      5599      5598      5596      5599
      5596      5599      5601      5596      5599      5605      5601      5599      5605
      5594      5602      5604      5594      5602      5605      5604      5602      5605
      5599      5605      5602      5599      5605      5607      5602      5605      5607
      5611      5609      5612      5611      5609      5613      5611      5609      5614
      5612      5609      5613      5612      5609      5614      5613      5609      5614
      5609      5614      5616      5609      5614      5622      5616      5614      5622
      5614      5616      5618      5614      5616      5619      5618      5616      5619
      5616      5619      5621      5616      5619      5625      5621      5619      5625
      5614      5622      5624      5614      5622      5625      5624      5622      5625
      5619      5625      5622      5619      5625      5627      5622      5625      5627
      5631      5629      5632      5631      5629      5633      5631      5629      5634
      5632      5629      5633      5632      5629      5634      5633      5629      5634
      5629      5634      5636      5629      5634      5642      5636      5634      5642
      5634      5636      5638      5634      5636      5639      5638      5636      5639
      5636      5639      5641      5636      5639      5645      5641      5639      5645
      5634      5642      5644      5634      5642      5645      5644      5642      5645
      5639      5645      5642      5639      5645      5647      5642      5645      5647
      5651      5649      5652      5651      5649      5653      5651      5649      5654
      5652      5649      5653      5652      5649      5654      5653      5649      5654
      5649      5654      5656      5649      5654      5662      5656      5654      5662
      5654      5656      5658      5654      5656      5659      5658      5656      5659
      5656      5659      5661      5656      5659      5665      5661      5659      5665
      5654      5662      5664      5654      5662      5665      5664      5662      5665
      5659      5665      5662      5659      5665      5667      5662      5665      5667
      5671      5669      5672      5671      5669      5673      5671      5669      5674
      5672      5669      5673      5672      5669      5674      5673      5669      5674
      5669      5674      5676      5669      5674      5682      5676      5674      5682
      5674      5676      5678      5674      5676      5679      5678      5676      5679
      5676      5679      5681      5676      5679      5685      5681      5679      5685
      5674      5682      5684      5674      5682      5685      5684      5682      5685
      5679      5685      5682      5679      5685      5687      5682      5685      5687
      5691      5689      5692      5691      5689      5693      5691      5689      5694
      5692      5689      5693      5692      5689      5694      5693      5689      5694
      5689      5694      5696      5689      5694      5702      5696      5694      5702
      5694      5696      5698      5694      5696      5699      5698      5696      5699
      5696      5699      5701      5696      5699      5705      5701      5699      5705
      5694      5702      5704      5694      5702      5705      5704      5702      5705
      5699      5705      5702      5699      5705      5707      5702      5705      5707
      5711      5709      5712      5711      5709      5713      5711      5709      5714
      5712      5709      5713      5712      5709      5714      5713      5709      5714
      5709      5714      5716      5709      5714      5722      5716      5714      5722
      5714      5716      5718      5714      5716      5719      5718      5716      5719
      5716      5719      5721      5716      5719      5725      5721      5719      5725
      5714      5722      5724      5714      5722      5725      5724      5722      5725
      5719      5725      5722      5719      5725      5727      5722      5725      5727
      5731      5729      5732      5731      5729      5733      5731      5729      5734
      5732      5729      5733      5732      5729      5734      5733      5729      5734
      5729      5734      5736      5729      5734      5742      5736      5734      5742
      5734      5736      5738      5734      5736      5739      5738      5736      5739
      5736      5739      5741      5736      5739      5745      5741      5739      5745
      5734      5742      5744      5734      5742      5745      5744      5742      5745
      5739      5745      5742      5739      5745      5747      5742      5745      5747
      5751      5749      5752      5751      5749      5753      5751      5749      5754
      5752      5749      5753      5752      5749      5754      5753      5749      5754
      5749      5754      5756      5749      5754      5762      5756      5754      5762
      5754      5756      5758      5754      5756      5759      5758      5756      5759
      5756      5759      5761      5756      5759      5765      5761      5759      5765
      5754      5762      5764      5754      5762      5765      5764      5762      5765
      5759      5765      5762      5759      5765      5767      5762      5765      5767
      5771      5769      5772      5771      5769      5773      5771      5769      5774
      5772      5769      5773      5772      5769      5774      5773      5769      5774
      5769      5774      5776      5769      5774      5782      5776      5774      5782
      5774      5776      5778      5774      5776      5779      5778      5776      5779
      5776      5779      5781      5776      5779      5785      5781      5779      5785
      5774      5782      5784      5774      5782      5785      5784      5782      5785
      5779      5785      5782      5779      5785      5787      5782      5785      5787
      5791      5789      5792      5791      5789      5793      5791      5789      5794
      5792      5789      5793      5792      5789      5794      5793      5789      5794
      5789      5794      5796      5789      5794      5802      5796      5794      5802
      5794      5796      5798      5794      5796      5799      5798      5796      5799
      5796      5799      5801      5796      5799      5805      5801      5799      5805
      5794      5802      5804      5794      5802      5805      5804      5802      5805
      5799      5805      5802      5799      5805      5807      5802      5805      5807
      5811      5809      5812      5811      5809      5813      5811      5809      5814
      5812      5809      5813      5812      5809      5814      5813      5809      5814
      5809      5814      5816      5809      5814      5822      5816      5814      5822
      5814      5816      5818      5814      5816      5819      5818      5816      5819
      5816      5819      5821      5816      5819      5825      5821      5819      5825
      5814      5822      5824      5814      5822      5825      5824      5822      5825
      5819      5825      5822      5819      5825      5827      5822      5825      5827
      5831      5829      5832      5831      5829      5833      5831      5829      5834
      5832      5829      5833      5832      5829      5834      5833      5829      5834
      5829      5834      5836      5829      5834      5842      5836      5834      5842
      5834      5836      5838      5834      5836      5839      5838      5836      5839
      5836      5839      5841      5836      5839      5845      5841      5839      5845
      5834      5842      5844      5834      5842      5845      5844      5842      5845
      5839      5845      5842      5839      5845      5847      5842      5845      5847
      5851      5849      5852      5851      5849      5853      5851      5849      5854
      5852      5849      5853      5852      5849      5854      5853      5849      5854
      5849      5854      5856      5849      5854      5862      5856      5854      5862
      5854      5856      5858      5854      5856      5859      5858      5856      5859
      5856      5859      5861      5856      5859      5865      5861      5859      5865
      5854      5862      5864      5854      5862      5865      5864      5862      5865
      5859      5865      5862      5859      5865      5867      5862      5865      5867
      5871      5869      5872      5871      5869      5873      5871      5869      5874
      5872      5869      5873      5872      5869      5874      5873      5869      5874
      5869      5874      5876      5869      5874      5882      5876      5874      5882
      5874      5876      5878      5874      5876      5879      5878      5876      5879
      5876      5879      5881      5876      5879      5885      5881      5879      5885
      5874      5882      5884      5874      5882      5885      5884      5882      5885
      5879      5885      5882      5879      5885      5887      5882      5885      5887
      5891      5889      5892      5891      5889      5893      5891      5889      5894
      5892      5889      5893      5892      5889      5894      5893      5889      5894
      5889      5894      5896      5889      5894      5902      5896      5894      5902
      5894      5896      5898      5894      5896      5899      5898      5896      5899
      5896      5899      5901      5896      5899      5905      5901      5899      5905
      5894      5902      5904      5894      5902      5905      5904      5902      5905
      5899      5905      5902      5899      5905      5907      5902      5905      5907
      5911      5909      5912      5911      5909      5913      5911      5909      5914
      5912      5909      5913      5912      5909      5914      5913      5909      5914
      5909      5914      5916      5909      5914      5922      5916      5914      5922
      5914      5916      5918      5914      5916      5919      5918      5916      5919
      5916      5919      5921      5916      5919      5925      5921      5919      5925
      5914      5922      5924      5914      5922      5925      5924      5922      5925
      5919      5925      5922      5919      5925      5927      5922      5925      5927
      5931      5929      5932      5931      5929      5933      5931      5929      5934
      5932      5929      5933      5932      5929      5934      5933      5929      5934
      5929      5934      5936      5929      5934      5942      5936      5934      5942
      5934      5936      5938      5934      5936      5939      5938      5936      5939
      5936      5939      5941      5936      5939      5945      5941      5939      5945
      5934      5942      5944      5934      5942      5945      5944      5942      5945
      5939      5945      5942      5939      5945      5947      5942      5945      5947
      5951      5949      5952      5951      5949      5953      5951      5949      5954
      5952      5949      5953      5952      5949      5954      5953      5949      5954
      5949      5954      5956      5949      5954      5962      5956      5954      5962
      5954      5956      5958      5954      5956      5959      5958      5956      5959
      5956      5959      5961      5956      5959      5965      5961      5959      5965
      5954      5962      5964      5954      5962      5965      5964      5962      5965
      5959      5965      5962      5959      5965      5967      5962      5965      5967
      5971      5969      5972      5971      5969      5973      5971      5969      5974
      5972      5969      5973      5972      5969      5974      5973      5969      5974
      5969      5974      5976      5969      5974      5982      5976      5974      5982
      5974      5976      5978      5974      5976      5979      5978      5976      5979
      5976      5979      5981      5976      5979      5985      5981      5979      5985
      5974      5982      5984      5974      5982      5985      5984      5982      5985
      5979      5985      5982      5979      5985      5987      5982      5985      5987
      5991      5989      5992      5991      5989      5993      5991      5989      5994
      5992      5989      5993      5992      5989      5994      5993      5989      5994
      5989      5994      5996      5989      5994      6002      5996      5994      6002
      5994      5996      5998      5994      5996      5999      5998      5996      5999
      5996      5999      6001      5996      5999      6005      6001      5999      6005
      5994      6002      6004      5994      6002      6005      6004      6002      6005
      5999      6005      6002      5999      6005      6007      6002      6005      6007
      6011      6009      6012      6011      6009      6013      6011      6009      6014
      6012      6009      6013      6012      6009      6014      6013      6009      6014
      6009      6014      6016      6009      6014      6022      6016      6014      6022
      6014      6016      6018      6014      6016      6019      6018      6016      6019
      6016      6019      6021      6016      6019      6025      6021      6019      6025
      6014      6022      6024      6014      6022      6025      6024      6022      6025
      6019      6025      6022      6019      6025      6027      6022      6025      6027
      6031      6029      6032      6031      6029      6033      6031      6029      6034
      6032      6029      6033      6032      6029      6034      6033      6029      6034
      6029      6034      6036      6029      6034      6042      6036      6034      6042
      6034      6036      6038      6034      6036      6039      6038      6036      6039
      6036      6039      6041      6036      6039      6045      6041      6039      6045
      6034      6042      6044      6034      6042      6045      6044      6042      6045
      6039      6045      6042      6039      6045      6047      6042      6045      6047
      6051      6049      6052      6051      6049      6053      6051      6049      6054
      6052      6049      6053      6052      6049      6054      6053      6049      6054
      6049      6054      6056      6049      6054      6062      6056      6054      6062
      6054      6056      6058      6054      6056      6059      6058      6056      6059
      6056      6059      6061      6056      6059      6065      6061      6059      6065
      6054      6062      6064      6054      6062      6065      6064      6062      6065
      6059      6065      6062      6059      6065      6067      6062      6065      6067
      6071      6069      6072      6071      6069      6073      6071      6069      6074
      6072      6069      6073      6072      6069      6074      6073      6069      6074
      6069      6074      6076      6069      6074      6082      6076      6074      6082
      6074      6076      6078      6074      6076      6079      6078      6076      6079
      6076      6079      6081      6076      6079      6085      6081      6079      6085
      6074      6082      6084      6074      6082      6085      6084      6082      6085
      6079      6085      6082      6079      6085      6087      6082      6085      6087
      6091      6089      6092      6091      6089      6093      6091      6089      6094
      6092      6089      6093      6092      6089      6094      6093      6089      6094
      6089      6094      6096      6089      6094      6102      6096      6094      6102
      6094      6096      6098      6094      6096      6099      6098      6096      6099
      6096      6099      6101      6096      6099      6105      6101      6099      6105
      6094      6102      6104      6094      6102      6105      6104      6102      6105
      6099      6105      6102      6099      6105      6107      6102      6105      6107
      6111      6109      6112      6111      6109      6113      6111      6109      6114
      6112      6109      6113      6112      6109      6114      6113      6109      6114
      6109      6114      6116      6109      6114      6122      6116      6114      6122
      6114      6116      6118      6114      6116      6119      6118      6116      6119
      6116      6119      6121      6116      6119      6125      6121      6119      6125
      6114      6122      6124      6114      6122      6125      6124      6122      6125
      6119      6125      6122      6119      6125      6127      6122      6125      6127
      6131      6129      6132      6131      6129      6133      6131      6129      6134
      6132      6129      6133      6132      6129      6134      6133      6129      6134
      6129      6134      6136      6129      6134      6142      6136      6134      6142
      6134      6136      6138      6134      6136      6139      6138      6136      6139
      6136      6139      6141      6136      6139      6145      6141      6139      6145
      6134      6142      6144      6134      6142      6145      6144      6142      6145
      6139      6145      6142      6139      6145      6147      6142      6145      6147
      6151      6149      6152      6151      6149      6153      6151      6149      6154
      6152      6149      6153      6152      6149      6154      6153      6149      6154
      6149      6154      6156      6149      6154      6162      6156      6154      6162
      6154      6156      6158      6154      6156      6159      6158      6156      6159
      6156      6159      6161      6156      6159      6165      6161      6159      6165
      6154      6162      6164      6154      6162      6165      6164      6162      6165
      6159      6165      6162      6159      6165      6167      6162      6165      6167
      6171      6169      6172      6171      6169      6173      6171      6169      6174
      6172      6169      6173      6172      6169      6174      6173      6169      6174
      6169      6174      6176      6169      6174      6182      6176      6174      6182
      6174      6176      6178      6174      6176      6179      6178      6176      6179
      6176      6179      6181      6176      6179      6185      6181      6179      6185
      6174      6182      6184      6174      6182      6185      6184      6182      6185
      6179      6185      6182      6179      6185      6187      6182      6185      6187
      6191      6189      6192      6191      6189      6193      6191      6189      6194
      6192      6189      6193      6192      6189      6194      6193      6189      6194
      6189      6194      6196      6189      6194      6202      6196      6194      6202
      6194      6196      6198      6194      6196      6199      6198      6196      6199
      6196      6199      6201      6196      6199      6205      6201      6199      6205
      6194      6202      6204      6194      6202      6205      6204      6202      6205
      6199      6205      6202      6199      6205      6207      6202      6205      6207
      6211      6209      6212      6211      6209      6213      6211      6209      6214
      6212      6209      6213      6212      6209      6214      6213      6209      6214
      6209      6214      6216      6209      6214      6222      6216      6214      6222
      6214      6216      6218      6214      6216      6219      6218      6216      6219
      6216      6219      6221      6216      6219      6225      6221      6219      6225
      6214      6222      6224      6214      6222      6225      6224      6222      6225
      6219      6225      6222      6219      6225      6227      6222      6225      6227
      6231      6229      6232      6231      6229      6233      6231      6229      6234
      6232      6229      6233      6232      6229      6234      6233      6229      6234
      6229      6234      6236      6229      6234      6242      6236      6234      6242
      6234      6236      6238      6234      6236      6239      6238      6236      6239
      6236      6239      6241      6236      6239      6245      6241      6239      6245
      6234      6242      6244      6234      6242      6245      6244      6242      6245
      6239      6245      6242      6239      6245      6247      6242      6245      6247
      6251      6249      6252      6251      6249      6253      6251      6249      6254
      6252      6249      6253      6252      6249      6254      6253      6249      6254
      6249      6254      6256      6249      6254      6262      6256      6254      6262
      6254      6256      6258      6254      6256      6259      6258      6256      6259
      6256      6259      6261      6256      6259      6265      6261      6259      6265
      6254      6262      6264      6254      6262      6265      6264      6262      6265
      6259      6265      6262      6259      6265      6267      6262      6265      6267
      6271      6269      6272      6271      6269      6273      6271      6269      6274
      6272      6269      6273      6272      6269      6274      6273      6269      6274
      6269      6274      6276      6269      6274      6282      6276      6274      6282
      6274      6276      6278      6274      6276      6279      6278      6276      6279
      6276      6279      6281      6276      6279      6285      6281      6279      6285
      6274      6282      6284      6274      6282      6285      6284      6282      6285
      6279      6285      6282      6279      6285      6287      6282      6285      6287
      6291      6289      6292      6291      6289      6293      6291      6289      6294
      6292      6289      6293      6292      6289      6294      6293      6289      6294
      6289      6294      6296      6289      6294      6302      6296      6294      6302
      6294      6296      6298      6294      6296      6299      6298      6296      6299
      6296      6299      6301      6296      6299      6305      6301      6299      6305
      6294      6302      6304      6294      6302      6305      6304      6302      6305
      6299      6305      6302      6299      6305      6307      6302      6305      6307
      6311      6309      6312      6311      6309      6313      6311      6309      6314
      6312      6309      6313      6312      6309      6314      6313      6309      6314
      6309      6314      6316      6309      6314      6322      6316      6314      6322
      6314      6316      6318      6314      6316      6319      6318      6316      6319
      6316      6319      6321      6316      6319      6325      6321      6319      6325
      6314      6322      6324      6314      6322      6325      6324      6322      6325
      6319      6325      6322      6319      6325      6327      6322      6325      6327
      6331      6329      6332      6331      6329      6333      6331      6329      6334
      6332      6329      6333      6332      6329      6334      6333      6329      6334
      6329      6334      6336      6329      6334      6342      6336      6334      6342
      6334      6336      6338      6334      6336      6339      6338      6336      6339
      6336      6339      6341      6336      6339      6345      6341      6339      6345
      6334      6342      6344      6334      6342      6345      6344      6342      6345
      6339      6345      6342      6339      6345      6347      6342      6345      6347
      6351      6349      6352      6351      6349      6353      6351      6349      6354
      6352      6349      6353      6352      6349      6354      6353      6349      6354
      6349      6354      6356      6349      6354      6362      6356      6354      6362
      6354      6356      6358      6354      6356      6359      6358      6356      6359
      6356      6359      6361      6356      6359      6365      6361      6359      6365
      6354      6362      6364      6354      6362      6365      6364      6362      6365
      6359      6365      6362      6359      6365      6367      6362      6365      6367
      6371      6369      6372      6371      6369      6373      6371      6369      6374
      6372      6369      6373      6372      6369      6374      6373      6369      6374
      6369      6374      6376      6369      6374      6382      6376      6374      6382
      6374      6376      6378      6374      6376      6379      6378      6376      6379
      6376      6379      6381      6376      6379      6385      6381      6379      6385
      6374      6382      6384      6374      6382      6385      6384      6382      6385
      6379      6385      6382      6379      6385      6387      6382      6385      6387
      6391      6389      6392      6391      6389      6393      6391      6389      6394
      6392      6389      6393      6392      6389      6394      6393      6389      6394
      6389      6394      6396      6389      6394      6402      6396      6394      6402
      6394      6396      6398      6394      6396      6399      6398      6396      6399
      6396      6399      6401      6396      6399      6405      6401      6399      6405
      6394      6402      6404      6394      6402      6405      6404      6402      6405
      6399      6405      6402      6399      6405      6407      6402      6405      6407
      6411      6409      6412      6411      6409      6413      6411      6409      6414
      6412      6409      6413      6412      6409      6414      6413      6409      6414
      6409      6414      6416      6409      6414      6422      6416      6414      6422
      6414      6416      6418      6414      6416      6419      6418      6416      6419
      6416      6419      6421      6416      6419      6425      6421      6419      6425
      6414      6422      6424      6414      6422      6425      6424      6422      6425
      6419      6425      6422      6419      6425      6427      6422      6425      6427
      6431      6429      6432      6431      6429      6433      6431      6429      6434
      6432      6429      6433      6432      6429      6434      6433      6429      6434
      6429      6434      6436      6429      6434      6442      6436      6434      6442
      6434      6436      6438      6434      6436      6439      6438      6436      6439
      6436      6439      6441      6436      6439      6445      6441      6439      6445
      6434      6442      6444      6434      6442      6445      6444      6442      6445
      6439      6445      6442      6439      6445      6447      6442      6445      6447
      6451      6449      6452      6451      6449      6453      6451      6449      6454
      6452      6449      6453      6452      6449      6454      6453      6449      6454
      6449      6454      6456      6449      6454      6462      6456      6454      6462
      6454      6456      6458      6454      6456      6459      6458      6456      6459
      6456      6459      6461      6456      6459      6465      6461      6459      6465
      6454      6462      6464      6454      6462      6465      6464      6462      6465
      6459      6465      6462      6459      6465      6467      6462      6465      6467
      6471      6469      6472      6471      6469      6473      6471      6469      6474
      6472      6469      6473      6472      6469      6474      6473      6469      6474
      6469      6474      6476      6469      6474      6482      6476      6474      6482
      6474      6476      6478      6474      6476      6479      6478      6476      6479
      6476      6479      6481      6476      6479      6485      6481      6479      6485
      6474      6482      6484      6474      6482      6485      6484      6482      6485
      6479      6485      6482      6479      6485      6487      6482      6485      6487
      6491      6489      6492      6491      6489      6493      6491      6489      6494
      6492      6489      6493      6492      6489      6494      6493      6489      6494
      6489      6494      6496      6489      6494      6502      6496      6494      6502
      6494      6496      6498      6494      6496      6499      6498      6496      6499
      6496      6499      6501      6496      6499      6505      6501      6499      6505
      6494      6502      6504      6494      6502      6505      6504      6502      6505
      6499      6505      6502      6499      6505      6507      6502      6505      6507
      6511      6509      6512      6511      6509      6513      6511      6509      6514
      6512      6509      6513      6512      6509      6514      6513      6509      6514
      6509      6514      6516      6509      6514      6522      6516      6514      6522
      6514      6516      6518      6514      6516      6519      6518      6516      6519
      6516      6519      6521      6516      6519      6525      6521      6519      6525
      6514      6522      6524      6514      6522      6525      6524      6522      6525
      6519      6525      6522      6519      6525      6527      6522      6525      6527
      6531      6529      6532      6531      6529      6533      6531      6529      6534
      6532      6529      6533      6532      6529      6534      6533      6529      6534
      6529      6534      6536      6529      6534      6542      6536      6534      6542
      6534      6536      6538      6534      6536      6539      6538      6536      6539
      6536      6539      6541      6536      6539      6545      6541      6539      6545
      6534      6542      6544      6534      6542      6545      6544      6542      6545
      6539      6545      6542      6539      6545      6547      6542      6545      6547
      6551      6549      6552      6551      6549      6553      6551      6549      6554
      6552      6549      6553      6552      6549      6554      6553      6549      6554
      6549      6554      6556      6549      6554      6562      6556      6554      6562
      6554      6556      6558      6554      6556      6559      6558      6556      6559
      6556      6559      6561      6556      6559      6565      6561      6559      6565
      6554      6562      6564      6554      6562      6565      6564      6562      6565
      6559      6565      6562      6559      6565      6567      6562      6565      6567
      6571      6569      6572      6571      6569      6573      6571      6569      6574
      6572      6569      6573      6572      6569      6574      6573      6569      6574
      6569      6574      6576      6569      6574      6582      6576      6574      6582
      6574      6576      6578      6574      6576      6579      6578      6576      6579
      6576      6579      6581      6576      6579      6585      6581      6579      6585
      6574      6582      6584      6574      6582      6585      6584      6582      6585
      6579      6585      6582      6579      6585      6587      6582      6585      6587
      6591      6589      6592      6591      6589      6593      6591      6589      6594
      6592      6589      6593      6592      6589      6594      6593      6589      6594
      6589      6594      6596      6589      6594      6602      6596      6594      6602
      6594      6596      6598      6594      6596      6599      6598      6596      6599
      6596      6599      6601      6596      6599      6605      6601      6599      6605
      6594      6602      6604      6594      6602      6605      6604      6602      6605
      6599      6605      6602      6599      6605      6607      6602      6605      6607
      6611      6609      6612      6611      6609      6613      6611      6609      6614
      6612      6609      6613      6612      6609      6614      6613      6609      6614
      6609      6614      6616      6609      6614      6622      6616      6614      6622
      6614      6616      6618      6614      6616      6619      6618      6616      6619
      6616      6619      6621      6616      6619      6625      6621      6619      6625
      6614      6622      6624      6614      6622      6625      6624      6622      6625
      6619      6625      6622      6619      6625      6627      6622      6625      6627
      6631      6629      6632      6631      6629      6633      6631      6629      6634
      6632      6629      6633      6632      6629      6634      6633      6629      6634
      6629      6634      6636      6629      6634      6642      6636      6634      6642
      6634      6636      6638      6634      6636      6639      6638      6636      6639
      6636      6639      6641      6636      6639      6645      6641      6639      6645
      6634      6642      6644      6634      6642      6645      6644      6642      6645
      6639      6645      6642      6639      6645      6647      6642      6645      6647
      6651      6649      6652      6651      6649      6653      6651      6649      6654
      6652      6649      6653      6652      6649      6654      6653      6649      6654
      6649      6654      6656      6649      6654      6662      6656      6654      6662
      6654      6656      6658      6654      6656      6659      6658      6656      6659
      6656      6659      6661      6656      6659      6665      6661      6659      6665
      6654      6662      6664      6654      6662      6665      6664      6662      6665
      6659      6665      6662      6659      6665      6667      6662      6665      6667
      6671      6669      6672      6671      6669      6673      6671      6669      6674
      6672      6669      6673      6672      6669      6674      6673      6669      6674
      6669      6674      6676      6669      6674      6682      6676      6674      6682
      6674      6676      6678      6674      6676      6679      6678      6676      6679
      6676      6679      6681      6676      6679      6685      6681      6679      6685
      6674      6682      6684      6674      6682      6685      6684      6682      6685
      6679      6685      6682      6679      6685      6687      6682      6685      6687
      6691      6689      6692      6691      6689      6693      6691      6689      6694
      6692      6689      6693      6692      6689      6694      6693      6689      6694
      6689      6694      6696      6689      6694      6702      6696      6694      6702
      6694      6696      6698      6694      6696      6699      6698      6696      6699
      6696      6699      6701      6696      6699      6705      6701      6699      6705
      6694      6702      6704      6694      6702      6705      6704      6702      6705
      6699      6705      6702      6699      6705      6707      6702      6705      6707
      6711      6709      6712      6711      6709      6713      6711      6709      6714
      6712      6709      6713      6712      6709      6714      6713      6709      6714
      6709      6714      6716      6709      6714      6722      6716      6714      6722
      6714      6716      6718      6714      6716      6719      6718      6716      6719
      6716      6719      6721      6716      6719      6725      6721      6719      6725
      6714      6722      6724      6714      6722      6725      6724      6722      6725
      6719      6725      6722      6719      6725      6727      6722      6725      6727
      6731      6729      6732      6731      6729      6733      6731      6729      6734
      6732      6729      6733      6732      6729      6734      6733      6729      6734
      6729      6734      6736      6729      6734      6742      6736      6734      6742
      6734      6736      6738      6734      6736      6739      6738      6736      6739
      6736      6739      6741      6736      6739      6745      6741      6739      6745
      6734      6742      6744      6734      6742      6745      6744      6742      6745
      6739      6745      6742      6739      6745      6747      6742      6745      6747
      6751      6749      6752      6751      6749      6753      6751      6749      6754
      6752      6749      6753      6752      6749      6754      6753      6749      6754
      6749      6754      6756      6749      6754      6762      6756      6754      6762
      6754      6756      6758      6754      6756      6759      6758      6756      6759
      6756      6759      6761      6756      6759      6765      6761      6759      6765
      6754      6762      6764      6754      6762      6765      6764      6762      6765
      6759      6765      6762      6759      6765      6767      6762      6765      6767
      6771      6769      6772      6771      6769      6773      6771      6769      6774
      6772      6769      6773      6772      6769      6774      6773      6769      6774
      6769      6774      6776      6769      6774      6782      6776      6774      6782
      6774      6776      6778      6774      6776      6779      6778      6776      6779
      6776      6779      6781      6776      6779      6785      6781      6779      6785
      6774      6782      6784      6774      6782      6785      6784      6782      6785
      6779      6785      6782      6779      6785      6787      6782      6785      6787
      6791      6789      6792      6791      6789      6793      6791      6789      6794
      6792      6789      6793      6792      6789      6794      6793      6789      6794
      6789      6794      6796      6789      6794      6802      6796      6794      6802
      6794      6796      6798      6794      6796      6799      6798      6796      6799
      6796      6799      6801      6796      6799      6805      6801      6799      6805
      6794      6802      6804      6794      6802      6805      6804      6802      6805
      6799      6805      6802      6799      6805      6807      6802      6805      6807
      6811      6809      6812      6811      6809      6813      6811      6809      6814
      6812      6809      6813      6812      6809      6814      6813      6809      6814
      6809      6814      6816      6809      6814      6822      6816      6814      6822
      6814      6816      6818      6814      6816      6819      6818      6816      6819
      6816      6819      6821      6816      6819      6825      6821      6819      6825
      6814      6822      6824      6814      6822      6825      6824      6822      6825
      6819      6825      6822      6819      6825      6827      6822      6825      6827
      6831      6829      6832      6831      6829      6833      6831      6829      6834
      6832      6829      6833      6832      6829      6834      6833      6829      6834
      6829      6834      6836      6829      6834      6842      6836      6834      6842
      6834      6836      6838      6834      6836      6839      6838      6836      6839
      6836      6839      6841      6836      6839      6845      6841      6839      6845
      6834      6842      6844      6834      6842      6845      6844      6842      6845
      6839      6845      6842      6839      6845      6847      6842      6845      6847
      6851      6849      6852      6851      6849      6853      6851      6849      6854
      6852      6849      6853      6852      6849      6854      6853      6849      6854
      6849      6854      6856      6849      6854      6862      6856      6854      6862
      6854      6856      6858      6854      6856      6859      6858      6856      6859
      6856      6859      6861      6856      6859      6865      6861      6859      6865
      6854      6862      6864      6854      6862      6865      6864      6862      6865
      6859      6865      6862      6859      6865      6867      6862      6865      6867
      6871      6869      6872      6871      6869      6873      6871      6869      6874
      6872      6869      6873      6872      6869      6874      6873      6869      6874
      6869      6874      6876      6869      6874      6882      6876      6874      6882
      6874      6876      6878      6874      6876      6879      6878      6876      6879
      6876      6879      6881      6876      6879      6885      6881      6879      6885
      6874      6882      6884      6874      6882      6885      6884      6882      6885
      6879      6885      6882      6879      6885      6887      6882      6885      6887
      6891      6889      6892      6891      6889      6893      6891      6889      6894
      6892      6889      6893      6892      6889      6894      6893      6889      6894
      6889      6894      6896      6889      6894      6902      6896      6894      6902
      6894      6896      6898      6894      6896      6899      6898      6896      6899
      6896      6899      6901      6896      6899      6905      6901      6899      6905
      6894      6902      6904      6894      6902      6905      6904      6902      6905
      6899      6905      6902      6899      6905      6907      6902      6905      6907
      6911      6909      6912      6911      6909      6913      6911      6909      6914
      6912      6909      6913      6912      6909      6914      6913      6909      6914
      6909      6914      6916      6909      6914      6922      6916      6914      6922
      6914      6916      6918      6914      6916      6919      6918      6916      6919
      6916      6919      6921      6916      6919      6925      6921      6919      6925
      6914      6922      6924      6914      6922      6925      6924      6922      6925
      6919      6925      6922      6919      6925      6927      6922      6925      6927
      6931      6929      6932      6931      6929      6933      6931      6929      6934
      6932      6929      6933      6932      6929      6934      6933      6929      6934
      6929      6934      6936      6929      6934      6942      6936      6934      6942
      6934      6936      6938      6934      6936      6939      6938      6936      6939
      6936      6939      6941      6936      6939      6945      6941      6939      6945
      6934      6942      6944      6934      6942      6945      6944      6942      6945
      6939      6945      6942      6939      6945      6947      6942      6945      6947
      6951      6949      6952      6951      6949      6953      6951      6949      6954
      6952      6949      6953      6952      6949      6954      6953      6949      6954
      6949      6954      6956      6949      6954      6962      6956      6954      6962
      6954      6956      6958      6954      6956      6959      6958      6956      6959
      6956      6959      6961      6956      6959      6965      6961      6959      6965
      6954      6962      6964      6954      6962      6965      6964      6962      6965
      6959      6965      6962      6959      6965      6967      6962      6965      6967
      6971      6969      6972      6971      6969      6973      6971      6969      6974
      6972      6969      6973      6972      6969      6974      6973      6969      6974
      6969      6974      6976      6969      6974      6982      6976      6974      6982
      6974      6976      6978      6974      6976      6979      6978      6976      6979
      6976      6979      6981      6976      6979      6985      6981      6979      6985
      6974      6982      6984      6974      6982      6985      6984      6982      6985
      6979      6985      6982      6979      6985      6987      6982      6985      6987
      6991      6989      6992      6991      6989      6993      6991      6989      6994
      6992      6989      6993      6992      6989      6994      6993      6989      6994
      6989      6994      6996      6989      6994      7002      6996      6994      7002
      6994      6996      6998      6994      6996      6999      6998      6996      6999
      6996      6999      7001      6996      6999      7005      7001      6999      7005
      6994      7002      7004      6994      7002      7005      7004      7002      7005
      6999      7005      7002      6999      7005      7007      7002      7005      7007
      7011      7009      7012      7011      7009      7013      7011      7009      7014
      7012      7009      7013      7012      7009      7014      7013      7009      7014
      7009      7014      7016      7009      7014      7022      7016      7014      7022
      7014      7016      7018      7014      7016      7019      7018      7016      7019
      7016      7019      7021      7016      7019      7025      7021      7019      7025
      7014      7022      7024      7014      7022      7025      7024      7022      7025
      7019      7025      7022      7019      7025      7027      7022      7025      7027
      7031      7029      7032      7031      7029      7033      7031      7029      7034
      7032      7029      7033      7032      7029      7034      7033      7029      7034
      7029      7034      7036      7029      7034      7042      7036      7034      7042
      7034      7036      7038      7034      7036      7039      7038      7036      7039
      7036      7039      7041      7036      7039      7045      7041      7039      7045
      7034      7042      7044      7034      7042      7045      7044      7042      7045
      7039      7045      7042      7039      7045      7047      7042      7045      7047
      7051      7049      7052      7051      7049      7053      7051      7049      7054
      7052      7049      7053      7052      7049      7054      7053      7049      7054
      7049      7054      7056      7049      7054      7062      7056      7054      7062
      7054      7056      7058      7054      7056      7059      7058      7056      7059
      7056      7059      7061      7056      7059      7065      7061      7059      7065
      7054      7062      7064      7054      7062      7065      7064      7062      7065
      7059      7065      7062      7059      7065      7067      7062      7065      7067
      7071      7069      7072      7071      7069      7073      7071      7069      7074
      7072      7069      7073      7072      7069      7074      7073      7069      7074
      7069      7074      7076      7069      7074      7082      7076      7074      7082
      7074      7076      7078      7074      7076      7079      7078      7076      7079
      7076      7079      7081      7076      7079      7085      7081      7079      7085
      7074      7082      7084      7074      7082      7085      7084      7082      7085
      7079      7085      7082      7079      7085      7087      7082      7085      7087
      7091      7089      7092      7091      7089      7093      7091      7089      7094
      7092      7089      7093      7092      7089      7094      7093      7089      7094
      7089      7094      7096      7089      7094      7102      7096      7094      7102
      7094      7096      7098      7094      7096      7099      7098      7096      7099
      7096      7099      7101      7096      7099      7105      7101      7099      7105
      7094      7102      7104      7094      7102      7105      7104      7102      7105
      7099      7105      7102      7099      7105      7107      7102      7105      7107
      7111      7109      7112      7111      7109      7113      7111      7109      7114
      7112      7109      7113      7112      7109      7114      7113      7109      7114
      7109      7114      7116      7109      7114      7122      7116      7114      7122
      7114      7116      7118      7114      7116      7119      7118      7116      7119
      7116      7119      7121      7116      7119      7125      7121      7119      7125
      7114      7122      7124      7114      7122      7125      7124      7122      7125
      7119      7125      7122      7119      7125      7127      7122      7125      7127
      7131      7129      7132      7131      7129      7133      7131      7129      7134
      7132      7129      7133      7132      7129      7134      7133      7129      7134
      7129      7134      7136      7129      7134      7142      7136      7134      7142
      7134      7136      7138      7134      7136      7139      7138      7136      7139
      7136      7139      7141      7136      7139      7145      7141      7139      7145
      7134      7142      7144      7134      7142      7145      7144      7142      7145
      7139      7145      7142      7139      7145      7147      7142      7145      7147
      7151      7149      7152      7151      7149      7153      7151      7149      7154
      7152      7149      7153      7152      7149      7154      7153      7149      7154
      7149      7154      7156      7149      7154      7162      7156      7154      7162
      7154      7156      7158      7154      7156      7159      7158      7156      7159
      7156      7159      7161      7156      7159      7165      7161      7159      7165
      7154      7162      7164      7154      7162      7165      7164      7162      7165
      7159      7165      7162      7159      7165      7167      7162      7165      7167
      7171      7169      7172      7171      7169      7173      7171      7169      7174
      7172      7169      7173      7172      7169      7174      7173      7169      7174
      7169      7174      7176      7169      7174      7182      7176      7174      7182
      7174      7176      7178      7174      7176      7179      7178      7176      7179
      7176      7179      7181      7176      7179      7185      7181      7179      7185
      7174      7182      7184      7174      7182      7185      7184      7182      7185
      7179      7185      7182      7179      7185      7187      7182      7185      7187
      7191      7189      7192      7191      7189      7193      7191      7189      7194
      7192      7189      7193      7192      7189      7194      7193      7189      7194
      7189      7194      7196      7189      7194      7202      7196      7194      7202
      7194      7196      7198      7194      7196      7199      7198      7196      7199
      7196      7199      7201      7196      7199      7205      7201      7199      7205
      7194      7202      7204      7194      7202      7205      7204      7202      7205
      7199      7205      7202      7199      7205      7207      7202      7205      7207
      7211      7209      7212      7211      7209      7213      7211      7209      7214
      7212      7209      7213      7212      7209      7214      7213      7209      7214
      7209      7214      7216      7209      7214      7222      7216      7214      7222
      7214      7216      7218      7214      7216      7219      7218      7216      7219
      7216      7219      7221      7216      7219      7225      7221      7219      7225
      7214      7222      7224      7214      7222      7225      7224      7222      7225
      7219      7225      7222      7219      7225      7227      7222      7225      7227
      7231      7229      7232      7231      7229      7233      7231      7229      7234
      7232      7229      7233      7232      7229      7234      7233      7229      7234
      7229      7234      7236      7229      7234      7242      7236      7234      7242
      7234      7236      7238      7234      7236      7239      7238      7236      7239
      7236      7239      7241      7236      7239      7245      7241      7239      7245
      7234      7242      7244      7234      7242      7245      7244      7242      7245
      7239      7245      7242      7239      7245      7247      7242      7245      7247
      7251      7249      7252      7251      7249      7253      7251      7249      7254
      7252      7249      7253      7252      7249      7254      7253      7249      7254
      7249      7254      7256      7249      7254      7262      7256      7254      7262
      7254      7256      7258      7254      7256      7259      7258      7256      7259
      7256      7259      7261      7256      7259      7265      7261      7259      7265
      7254      7262      7264      7254      7262      7265      7264      7262      7265
      7259      7265      7262      7259      7265      7267      7262      7265      7267
      7271      7269      7272      7271      7269      7273      7271      7269      7274
      7272      7269      7273      7272      7269      7274      7273      7269      7274
      7269      7274      7276      7269      7274      7282      7276      7274      7282
      7274      7276      7278      7274      7276      7279      7278      7276      7279
      7276      7279      7281      7276      7279      7285      7281      7279      7285
      7274      7282      7284      7274      7282      7285      7284      7282      7285
      7279      7285      7282      7279      7285      7287      7282      7285      7287
      7291      7289      7292      7291      7289      7293      7291      7289      7294
      7292      7289      7293      7292      7289      7294      7293      7289      7294
      7289      7294      7296      7289      7294      7302      7296      7294      7302
      7294      7296      7298      7294      7296      7299      7298      7296      7299
      7296      7299      7301      7296      7299      7305      7301      7299      7305
      7294      7302      7304      7294      7302      7305      7304      7302      7305
      7299      7305      7302      7299      7305      7307      7302      7305      7307
      7311      7309      7312      7311      7309      7313      7311      7309      7314
      7312      7309      7313      7312      7309      7314      7313      7309      7314
      7309      7314      7316      7309      7314      7322      7316      7314      7322
      7314      7316      7318      7314      7316      7319      7318      7316      7319
      7316      7319      7321      7316      7319      7325      7321      7319      7325
      7314      7322      7324      7314      7322      7325      7324      7322      7325
      7319      7325      7322      7319      7325      7327      7322      7325      7327
      7331      7329      7332      7331      7329      7333      7331      7329      7334
      7332      7329      7333      7332      7329      7334      7333      7329      7334
      7329      7334      7336      7329      7334      7342      7336      7334      7342
      7334      7336      7338      7334      7336      7339      7338      7336      7339
      7336      7339      7341      7336      7339      7345      7341      7339      7345
      7334      7342      7344      7334      7342      7345      7344      7342      7345
      7339      7345      7342      7339      7345      7347      7342      7345      7347
      7351      7349      7352      7351      7349      7353      7351      7349      7354
      7352      7349      7353      7352      7349      7354      7353      7349      7354
      7349      7354      7356      7349      7354      7362      7356      7354      7362
      7354      7356      7358      7354      7356      7359      7358      7356      7359
      7356      7359      7361      7356      7359      7365      7361      7359      7365
      7354      7362      7364      7354      7362      7365      7364      7362      7365
      7359      7365      7362      7359      7365      7367      7362      7365      7367
      7371      7369      7372      7371      7369      7373      7371      7369      7374
      7372      7369      7373      7372      7369      7374      7373      7369      7374
      7369      7374      7376      7369      7374      7382      7376      7374      7382
      7374      7376      7378      7374      7376      7379      7378      7376      7379
      7376      7379      7381      7376      7379      7385      7381      7379      7385
      7374      7382      7384      7374      7382      7385      7384      7382      7385
      7379      7385      7382      7379      7385      7387      7382      7385      7387
      7391      7389      7392      7391      7389      7393      7391      7389      7394
      7392      7389      7393      7392      7389      7394      7393      7389      7394
      7389      7394      7396      7389      7394      7402      7396      7394      7402
      7394      7396      7398      7394      7396      7399      7398      7396      7399
      7396      7399      7401      7396      7399      7405      7401      7399      7405
      7394      7402      7404      7394      7402      7405      7404      7402      7405
      7399      7405      7402      7399      7405      7407      7402      7405      7407
      7411      7409      7412      7411      7409      7413      7411      7409      7414
      7412      7409      7413      7412      7409      7414      7413      7409      7414
      7409      7414      7416      7409      7414      7422      7416      7414      7422
      7414      7416      7418      7414      7416      7419      7418      7416      7419
      7416      7419      7421      7416      7419      7425      7421      7419      7425
      7414      7422      7424      7414      7422      7425      7424      7422      7425
      7419      7425      7422      7419      7425      7427      7422      7425      7427
      7431      7429      7432      7431      7429      7433      7431      7429      7434
      7432      7429      7433      7432      7429      7434      7433      7429      7434
      7429      7434      7436      7429      7434      7442      7436      7434      7442
      7434      7436      7438      7434      7436      7439      7438      7436      7439
      7436      7439      7441      7436      7439      7445      7441      7439      7445
      7434      7442      7444      7434      7442      7445      7444      7442      7445
      7439      7445      7442      7439      7445      7447      7442      7445      7447
      7451      7449      7452      7451      7449      7453      7451      7449      7454
      7452      7449      7453      7452      7449      7454      7453      7449      7454
      7449      7454      7456      7449      7454      7462      7456      7454      7462
      7454      7456      7458      7454      7456      7459      7458      7456      7459
      7456      7459      7461      7456      7459      7465      7461      7459      7465
      7454      7462      7464      7454      7462      7465      7464      7462      7465
      7459      7465      7462      7459      7465      7467      7462      7465      7467
      7471      7469      7472      7471      7469      7473      7471      7469      7474
      7472      7469      7473      7472      7469      7474      7473      7469      7474
      7469      7474      7476      7469      7474      7482      7476      7474      7482
      7474      7476      7478      7474      7476      7479      7478      7476      7479
      7476      7479      7481      7476      7479      7485      7481      7479      7485
      7474      7482      7484      7474      7482      7485      7484      7482      7485
      7479      7485      7482      7479      7485      7487      7482      7485      7487
      7491      7489      7492      7491      7489      7493      7491      7489      7494
      7492      7489      7493      7492      7489      7494      7493      7489      7494
      7489      7494      7496      7489      7494      7502      7496      7494      7502
      7494      7496      7498      7494      7496      7499      7498      7496      7499
      7496      7499      7501      7496      7499      7505      7501      7499      7505
      7494      7502      7504      7494      7502      7505      7504      7502      7505
      7499      7505      7502      7499      7505      7507      7502      7505      7507
      7511      7509      7512      7511      7509      7513      7511      7509      7514
      7512      7509      7513      7512      7509      7514      7513      7509      7514
      7509      7514      7516      7509      7514      7522      7516      7514      7522
      7514      7516      7518      7514      7516      7519      7518      7516      7519
      7516      7519      7521      7516      7519      7525      7521      7519      7525
      7514      7522      7524      7514      7522      7525      7524      7522      7525
      7519      7525      7522      7519      7525      7527      7522      7525      7527
      7531      7529      7532      7531      7529      7533      7531      7529      7534
      7532      7529      7533      7532      7529      7534      7533      7529      7534
      7529      7534      7536      7529      7534      7542      7536      7534      7542
      7534      7536      7538      7534      7536      7539      7538      7536      7539
      7536      7539      7541      7536      7539      7545      7541      7539      7545
      7534      7542      7544      7534      7542      7545      7544      7542      7545
      7539      7545      7542      7539      7545      7547      7542      7545      7547
      7551      7549      7552      7551      7549      7553      7551      7549      7554
      7552      7549      7553      7552      7549      7554      7553      7549      7554
      7549      7554      7556      7549      7554      7562      7556      7554      7562
      7554      7556      7558      7554      7556      7559      7558      7556      7559
      7556      7559      7561      7556      7559      7565      7561      7559      7565
      7554      7562      7564      7554      7562      7565      7564      7562      7565
      7559      7565      7562      7559      7565      7567      7562      7565      7567
      7571      7569      7572      7571      7569      7573      7571      7569      7574
      7572      7569      7573      7572      7569      7574      7573      7569      7574
      7569      7574      7576      7569      7574      7582      7576      7574      7582
      7574      7576      7578      7574      7576      7579      7578      7576      7579
      7576      7579      7581      7576      7579      7585      7581      7579      7585
      7574      7582      7584      7574      7582      7585      7584      7582      7585
      7579      7585      7582      7579      7585      7587      7582      7585      7587
      7591      7589      7592      7591      7589      7593      7591      7589      7594
      7592      7589      7593      7592      7589      7594      7593      7589      7594
      7589      7594      7596      7589      7594      7602      7596      7594      7602
      7594      7596      7598      7594      7596      7599      7598      7596      7599
      7596      7599      7601      7596      7599      7605      7601      7599      7605
      7594      7602      7604      7594      7602      7605      7604      7602      7605
      7599      7605      7602      7599      7605      7607      7602      7605      7607
      7611      7609      7612      7611      7609      7613      7611      7609      7614
      7612      7609      7613      7612      7609      7614      7613      7609      7614
      7609      7614      7616      7609      7614      7622      7616      7614      7622
      7614      7616      7618      7614      7616      7619      7618      7616      7619
      7616      7619      7621      7616      7619      7625      7621      7619      7625
      7614      7622      7624      7614      7622      7625      7624      7622      7625
      7619      7625      7622      7619      7625      7627      7622      7625      7627
      7631      7629      7632      7631      7629      7633      7631      7629      7634
      7632      7629      7633      7632      7629      7634      7633      7629      7634
      7629      7634      7636      7629      7634      7642      7636      7634      7642
      7634      7636      7638      7634      7636      7639      7638      7636      7639
      7636      7639      7641      7636      7639      7645      7641      7639      7645
      7634      7642      7644      7634      7642      7645      7644      7642      7645
      7639      7645      7642      7639      7645      7647      7642      7645      7647
      7651      7649      7652      7651      7649      7653      7651      7649      7654
      7652      7649      7653      7652      7649      7654      7653      7649      7654
      7649      7654      7656      7649      7654      7662      7656      7654      7662
      7654      7656      7658      7654      7656      7659      7658      7656      7659
      7656      7659      7661      7656      7659      7665      7661      7659      7665
      7654      7662      7664      7654      7662      7665      7664      7662      7665
      7659      7665      7662      7659      7665      7667      7662      7665      7667
      7671      7669      7672      7671      7669      7673      7671      7669      7674
      7672      7669      7673      7672      7669      7674      7673      7669      7674
      7669      7674      7676      7669      7674      7682      7676      7674      7682
      7674      7676      7678      7674      7676      7679      7678      7676      7679
      7676      7679      7681      7676      7679      7685      7681      7679      7685
      7674      7682      7684      7674      7682      7685      7684      7682      7685
      7679      7685      7682      7679      7685      7687      7682      7685      7687
      7691      7689      7692      7691      7689      7693      7691      7689      7694
      7692      7689      7693      7692      7689      7694      7693      7689      7694
      7689      7694      7696      7689      7694      7702      7696      7694      7702
      7694      7696      7698      7694      7696      7699      7698      7696      7699
      7696      7699      7701      7696      7699      7705      7701      7699      7705
      7694      7702      7704      7694      7702      7705      7704      7702      7705
      7699      7705      7702      7699      7705      7707      7702      7705      7707
      7711      7709      7712      7711      7709      7713      7711      7709      7714
      7712      7709      7713      7712      7709      7714      7713      7709      7714
      7709      7714      7716      7709      7714      7722      7716      7714      7722
      7714      7716      7718      7714      7716      7719      7718      7716      7719
      7716      7719      7721      7716      7719      7725      7721      7719      7725
      7714      7722      7724      7714      7722      7725      7724      7722      7725
      7719      7725      7722      7719      7725      7727      7722      7725      7727
      7731      7729      7732      7731      7729      7733      7731      7729      7734
      7732      7729      7733      7732      7729      7734      7733      7729      7734
      7729      7734      7736      7729      7734      7742      7736      7734      7742
      7734      7736      7738      7734      7736      7739      7738      7736      7739
      7736      7739      7741      7736      7739      7745      7741      7739      7745
      7734      7742      7744      7734      7742      7745      7744      7742      7745
      7739      7745      7742      7739      7745      7747      7742      7745      7747
      7751      7749      7752      7751      7749      7753      7751      7749      7754
      7752      7749      7753      7752      7749      7754      7753      7749      7754
      7749      7754      7756      7749      7754      7762      7756      7754      7762
      7754      7756      7758      7754      7756      7759      7758      7756      7759
      7756      7759      7761      7756      7759      7765      7761      7759      7765
      7754      7762      7764      7754      7762      7765      7764      7762      7765
      7759      7765      7762      7759      7765      7767      7762      7765      7767
      7771      7769      7772      7771      7769      7773      7771      7769      7774
      7772      7769      7773      7772      7769      7774      7773      7769      7774
      7769      7774      7776      7769      7774      7782      7776      7774      7782
      7774      7776      7778      7774      7776      7779      7778      7776      7779
      7776      7779      7781      7776      7779      7785      7781      7779      7785
      7774      7782      7784      7774      7782      7785      7784      7782      7785
      7779      7785      7782      7779      7785      7787      7782      7785      7787
      7791      7789      7792      7791      7789      7793      7791      7789      7794
      7792      7789      7793      7792      7789      7794      7793      7789      7794
      7789      7794      7796      7789      7794      7802      7796      7794      7802
      7794      7796      7798      7794      7796      7799      7798      7796      7799
      7796      7799      7801      7796      7799      7805      7801      7799      7805
      7794      7802      7804      7794      7802      7805      7804      7802      7805
      7799      7805      7802      7799      7805      7807      7802      7805      7807
      7811      7809      7812      7811      7809      7813      7811      7809      7814
      7812      7809      7813      7812      7809      7814      7813      7809      7814
      7809      7814      7816      7809      7814      7822      7816      7814      7822
      7814      7816      7818      7814      7816      7819      7818      7816      7819
      7816      7819      7821      7816      7819      7825      7821      7819      7825
      7814      7822      7824      7814      7822      7825      7824      7822      7825
      7819      7825      7822      7819      7825      7827      7822      7825      7827
      7831      7829      7832      7831      7829      7833      7831      7829      7834
      7832      7829      7833      7832      7829      7834      7833      7829      7834
      7829      7834      7836      7829      7834      7842      7836      7834      7842
      7834      7836      7838      7834      7836      7839      7838      7836      7839
      7836      7839      7841      7836      7839      7845      7841      7839      7845
      7834      7842      7844      7834      7842      7845      7844      7842      7845
      7839      7845      7842      7839      7845      7847      7842      7845      7847
      7851      7849      7852      7851      7849      7853      7851      7849      7854
      7852      7849      7853      7852      7849      7854      7853      7849      7854
      7849      7854      7856      7849      7854      7862      7856      7854      7862
      7854      7856      7858      7854      7856      7859      7858      7856      7859
      7856      7859      7861      7856      7859      7865      7861      7859      7865
      7854      7862      7864      7854      7862      7865      7864      7862      7865
      7859      7865      7862      7859      7865      7867      7862      7865      7867
      7871      7869      7872      7871      7869      7873      7871      7869      7874
      7872      7869      7873      7872      7869      7874      7873      7869      7874
      7869      7874      7876      7869      7874      7882      7876      7874      7882
      7874      7876      7878      7874      7876      7879      7878      7876      7879
      7876      7879      7881      7876      7879      7885      7881      7879      7885
      7874      7882      7884      7874      7882      7885      7884      7882      7885
      7879      7885      7882      7879      7885      7887      7882      7885      7887
      7891      7889      7892      7891      7889      7893      7891      7889      7894
      7892      7889      7893      7892      7889      7894      7893      7889      7894
      7889      7894      7896      7889      7894      7902      7896      7894      7902
      7894      7896      7898      7894      7896      7899      7898      7896      7899
      7896      7899      7901      7896      7899      7905      7901      7899      7905
      7894      7902      7904      7894      7902      7905      7904      7902      7905
      7899      7905      7902      7899      7905      7907      7902      7905      7907
      7911      7909      7912      7911      7909      7913      7911      7909      7914
      7912      7909      7913      7912      7909      7914      7913      7909      7914
      7909      7914      7916      7909      7914      7922      7916      7914      7922
      7914      7916      7918      7914      7916      7919      7918      7916      7919
      7916      7919      7921      7916      7919      7925      7921      7919      7925
      7914      7922      7924      7914      7922      7925      7924      7922      7925
      7919      7925      7922      7919      7925      7927      7922      7925      7927
      7931      7929      7932      7931      7929      7933      7931      7929      7934
      7932      7929      7933      7932      7929      7934      7933      7929      7934
      7929      7934      7936      7929      7934      7942      7936      7934      7942
      7934      7936      7938      7934      7936      7939      7938      7936      7939
      7936      7939      7941      7936      7939      7945      7941      7939      7945
      7934      7942      7944      7934      7942      7945      7944      7942      7945
      7939      7945      7942      7939      7945      7947      7942      7945      7947
      7951      7949      7952      7951      7949      7953      7951      7949      7954
      7952      7949      7953      7952      7949      7954      7953      7949      7954
      7949      7954      7956      7949      7954      7962      7956      7954      7962
      7954      7956      7958      7954      7956      7959      7958      7956      7959
      7956      7959      7961      7956      7959      7965      7961      7959      7965
      7954      7962      7964      7954      7962      7965      7964      7962      7965
      7959      7965      7962      7959      7965      7967      7962      7965      7967
      7971      7969      7972      7971      7969      7973      7971      7969      7974
      7972      7969      7973      7972      7969      7974      7973      7969      7974
      7969      7974      7976      7969      7974      7982      7976      7974      7982
      7974      7976      7978      7974      7976      7979      7978      7976      7979
      7976      7979      7981      7976      7979      7985      7981      7979      7985
      7974      7982      7984      7974      7982      7985      7984      7982      7985
      7979      7985      7982      7979      7985      7987      7982      7985      7987
      7991      7989      7992      7991      7989      7993      7991      7989      7994
      7992      7989      7993      7992      7989      7994      7993      7989      7994
      7989      7994      7996      7989      7994      8002      7996      7994      8002
      7994      7996      7998      7994      7996      7999      7998      7996      7999
      7996      7999      8001      7996      7999      8005      8001      7999      8005
      7994      8002      8004      7994      8002      8005      8004      8002      8005
      7999      8005      8002      7999      8005      8007      8002      8005      8007
      8011      8009      8012      8011      8009      8013      8011      8009      8014
      8012      8009      8013      8012      8009      8014      8013      8009      8014
      8009      8014      8016      8009      8014      8022      8016      8014      8022
      8014      8016      8018      8014      8016      8019      8018      8016      8019
      8016      8019      8021      8016      8019      8025      8021      8019      8025
      8014      8022      8024      8014      8022      8025      8024      8022      8025
      8019      8025      8022      8019      8025      8027      8022      8025      8027
      8031      8029      8032      8031      8029      8033      8031      8029      8034
      8032      8029      8033      8032      8029      8034      8033      8029      8034
      8029      8034      8036      8029      8034      8042      8036      8034      8042
      8034      8036      8038      8034      8036      8039      8038      8036      8039
      8036      8039      8041      8036      8039      8045      8041      8039      8045
      8034      8042      8044      8034      8042      8045      8044      8042      8045
      8039      8045      8042      8039      8045      8047      8042      8045      8047
      8051      8049      8052      8051      8049      8053      8051      8049      8054
      8052      8049      8053      8052      8049      8054      8053      8049      8054
      8049      8054      8056      8049      8054      8062      8056      8054      8062
      8054      8056      8058      8054      8056      8059      8058      8056      8059
      8056      8059      8061      8056      8059      8065      8061      8059      8065
      8054      8062      8064      8054      8062      8065      8064      8062      8065
      8059      8065      8062      8059      8065      8067      8062      8065      8067
      8071      8069      8072      8071      8069      8073      8071      8069      8074
      8072      8069      8073      8072      8069      8074      8073      8069      8074
      8069      8074      8076      8069      8074      8082      8076      8074      8082
      8074      8076      8078      8074      8076      8079      8078      8076      8079
      8076      8079      8081      8076      8079      8085      8081      8079      8085
      8074      8082      8084      8074      8082      8085      8084      8082      8085
      8079      8085      8082      8079      8085      8087      8082      8085      8087
      8091      8089      8092      8091      8089      8093      8091      8089      8094
      8092      8089      8093      8092      8089      8094      8093      8089      8094
      8089      8094      8096      8089      8094      8102      8096      8094      8102
      8094      8096      8098      8094      8096      8099      8098      8096      8099
      8096      8099      8101      8096      8099      8105      8101      8099      8105
      8094      8102      8104      8094      8102      8105      8104      8102      8105
      8099      8105      8102      8099      8105      8107      8102      8105      8107
      8111      8109      8112      8111      8109      8113      8111      8109      8114
      8112      8109      8113      8112      8109      8114      8113      8109      8114
      8109      8114      8116      8109      8114      8122      8116      8114      8122
      8114      8116      8118      8114      8116      8119      8118      8116      8119
      8116      8119      8121      8116      8119      8125      8121      8119      8125
      8114      8122      8124      8114      8122      8125      8124      8122      8125
      8119      8125      8122      8119      8125      8127      8122      8125      8127
      8131      8129      8132      8131      8129      8133      8131      8129      8134
      8132      8129      8133      8132      8129      8134      8133      8129      8134
      8129      8134      8136      8129      8134      8142      8136      8134      8142
      8134      8136      8138      8134      8136      8139      8138      8136      8139
      8136      8139      8141      8136      8139      8145      8141      8139      8145
      8134      8142      8144      8134      8142      8145      8144      8142      8145
      8139      8145      8142      8139      8145      8147      8142      8145      8147
      8151      8149      8152      8151      8149      8153      8151      8149      8154
      8152      8149      8153      8152      8149      8154      8153      8149      8154
      8149      8154      8156      8149      8154      8162      8156      8154      8162
      8154      8156      8158      8154      8156      8159      8158      8156      8159
      8156      8159      8161      8156      8159      8165      8161      8159      8165
      8154      8162      8164      8154      8162      8165      8164      8162      8165
      8159      8165      8162      8159      8165      8167      8162      8165      8167
      8171      8169      8172      8171      8169      8173      8171      8169      8174
      8172      8169      8173      8172      8169      8174      8173      8169      8174
      8169      8174      8176      8169      8174      8182      8176      8174      8182
      8174      8176      8178      8174      8176      8179      8178      8176      8179
      8176      8179      8181      8176      8179      8185      8181      8179      8185
      8174      8182      8184      8174      8182      8185      8184      8182      8185
      8179      8185      8182      8179      8185      8187      8182      8185      8187
      8191      8189      8192      8191      8189      8193      8191      8189      8194
      8192      8189      8193      8192      8189      8194      8193      8189      8194
      8189      8194      8196      8189      8194      8202      8196      8194      8202
      8194      8196      8198      8194      8196      8199      8198      8196      8199
      8196      8199      8201      8196      8199      8205      8201      8199      8205
      8194      8202      8204      8194      8202      8205      8204      8202      8205
      8199      8205      8202      8199      8205      8207      8202      8205      8207
      8211      8209      8212      8211      8209      8213      8211      8209      8214
      8212      8209      8213      8212      8209      8214      8213      8209      8214
      8209      8214      8216      8209      8214      8222      8216      8214      8222
      8214      8216      8218      8214      8216      8219      8218      8216      8219
      8216      8219      8221      8216      8219      8225      8221      8219      8225
      8214      8222      8224      8214      8222      8225      8224      8222      8225
      8219      8225      8222      8219      8225      8227      8222      8225      8227
      8231      8229      8232      8231      8229      8233      8231      8229      8234
      8232      8229      8233      8232      8229      8234      8233      8229      8234
      8229      8234      8236      8229      8234      8242      8236      8234      8242
      8234      8236      8238      8234      8236      8239      8238      8236      8239
      8236      8239      8241      8236      8239      8245      8241      8239      8245
      8234      8242      8244      8234      8242      8245      8244      8242      8245
      8239      8245      8242      8239      8245      8247      8242      8245      8247
      8251      8249      8252      8251      8249      8253      8251      8249      8254
      8252      8249      8253      8252      8249      8254      8253      8249      8254
      8249      8254      8256      8249      8254      8262      8256      8254      8262
      8254      8256      8258      8254      8256      8259      8258      8256      8259
      8256      8259      8261      8256      8259      8265      8261      8259      8265
      8254      8262      8264      8254      8262      8265      8264      8262      8265
      8259      8265      8262      8259      8265      8267      8262      8265      8267
      8271      8269      8272      8271      8269      8273      8271      8269      8274
      8272      8269      8273      8272      8269      8274      8273      8269      8274
      8269      8274      8276      8269      8274      8282      8276      8274      8282
      8274      8276      8278      8274      8276      8279      8278      8276      8279
      8276      8279      8281      8276      8279      8285      8281      8279      8285
      8274      8282      8284      8274      8282      8285      8284      8282      8285
      8279      8285      8282      8279      8285      8287      8282      8285      8287
      8291      8289      8292      8291      8289      8293      8291      8289      8294
      8292      8289      8293      8292      8289      8294      8293      8289      8294
      8289      8294      8296      8289      8294      8302      8296      8294      8302
      8294      8296      8298      8294      8296      8299      8298      8296      8299
      8296      8299      8301      8296      8299      8305      8301      8299      8305
      8294      8302      8304      8294      8302      8305      8304      8302      8305
      8299      8305      8302      8299      8305      8307      8302      8305      8307
      8311      8309      8312      8311      8309      8313      8311      8309      8314
      8312      8309      8313      8312      8309      8314      8313      8309      8314
      8309      8314      8316      8309      8314      8322      8316      8314      8322
      8314      8316      8318      8314      8316      8319      8318      8316      8319
      8316      8319      8321      8316      8319      8325      8321      8319      8325
      8314      8322      8324      8314      8322      8325      8324      8322      8325
      8319      8325      8322      8319      8325      8327      8322      8325      8327
      8331      8329      8332      8331      8329      8333      8331      8329      8334
      8332      8329      8333      8332      8329      8334      8333      8329      8334
      8329      8334      8336      8329      8334      8342      8336      8334      8342
      8334      8336      8338      8334      8336      8339      8338      8336      8339
      8336      8339      8341      8336      8339      8345      8341      8339      8345
      8334      8342      8344      8334      8342      8345      8344      8342      8345
      8339      8345      8342      8339      8345      8347      8342      8345      8347
      8351      8349      8352      8351      8349      8353      8351      8349      8354
      8352      8349      8353      8352      8349      8354      8353      8349      8354
      8349      8354      8356      8349      8354      8362      8356      8354      8362
      8354      8356      8358      8354      8356      8359      8358      8356      8359
      8356      8359      8361      8356      8359      8365      8361      8359      8365
      8354      8362      8364      8354      8362      8365      8364      8362      8365
      8359      8365      8362      8359      8365      8367      8362      8365      8367
      8371      8369      8372      8371      8369      8373      8371      8369      8374
      8372      8369      8373      8372      8369      8374      8373      8369      8374
      8369      8374      8376      8369      8374      8382      8376      8374      8382
      8374      8376      8378      8374      8376      8379      8378      8376      8379
      8376      8379      8381      8376      8379      8385      8381      8379      8385
      8374      8382      8384      8374      8382      8385      8384      8382      8385
      8379      8385      8382      8379      8385      8387      8382      8385      8387
      8391      8389      8392      8391      8389      8393      8391      8389      8394
      8392      8389      8393      8392      8389      8394      8393      8389      8394
      8389      8394      8396      8389      8394      8402      8396      8394      8402
      8394      8396      8398      8394      8396      8399      8398      8396      8399
      8396      8399      8401      8396      8399      8405      8401      8399      8405
      8394      8402      8404      8394      8402      8405      8404      8402      8405
      8399      8405      8402      8399      8405      8407      8402      8405      8407
      8411      8409      8412      8411      8409      8413      8411      8409      8414
      8412      8409      8413      8412      8409      8414      8413      8409      8414
      8409      8414      8416      8409      8414      8422      8416      8414      8422
      8414      8416      8418      8414      8416      8419      8418      8416      8419
      8416      8419      8421      8416      8419      8425      8421      8419      8425
      8414      8422      8424      8414      8422      8425      8424      8422      8425
      8419      8425      8422      8419      8425      8427      8422      8425      8427
      8431      8429      8432      8431      8429      8433      8431      8429      8434
      8432      8429      8433      8432      8429      8434      8433      8429      8434
      8429      8434      8436      8429      8434      8442      8436      8434      8442
      8434      8436      8438      8434      8436      8439      8438      8436      8439
      8436      8439      8441      8436      8439      8445      8441      8439      8445
      8434      8442      8444      8434      8442      8445      8444      8442      8445
      8439      8445      8442      8439      8445      8447      8442      8445      8447
      8451      8449      8452      8451      8449      8453      8451      8449      8454
      8452      8449      8453      8452      8449      8454      8453      8449      8454
      8449      8454      8456      8449      8454      8462      8456      8454      8462
      8454      8456      8458      8454      8456      8459      8458      8456      8459
      8456      8459      8461      8456      8459      8465      8461      8459      8465
      8454      8462      8464      8454      8462      8465      8464      8462      8465
      8459      8465      8462      8459      8465      8467      8462      8465      8467
      8471      8469      8472      8471      8469      8473      8471      8469      8474
      8472      8469      8473      8472      8469      8474      8473      8469      8474
      8469      8474      8476      8469      8474      8482      8476      8474      8482
      8474      8476      8478      8474      8476      8479      8478      8476      8479
      8476      8479      8481      8476      8479      8485      8481      8479      8485
      8474      8482      8484      8474      8482      8485      8484      8482      8485
      8479      8485      8482      8479      8485      8487      8482      8485      8487
      8491      8489      8492      8491      8489      8493      8491      8489      8494
      8492      8489      8493      8492      8489      8494      8493      8489      8494
      8489      8494      8496      8489      8494      8502      8496      8494      8502
      8494      8496      8498      8494      8496      8499      8498      8496      8499
      8496      8499      8501      8496      8499      8505      8501      8499      8505
      8494      8502      8504      8494      8502      8505      8504      8502      8505
      8499      8505      8502      8499      8505      8507      8502      8505      8507
      8511      8509      8512      8511      8509      8513      8511      8509      8514
      8512      8509      8513      8512      8509      8514      8513      8509      8514
      8509      8514      8516      8509      8514      8522      8516      8514      8522
      8514      8516      8518      8514      8516      8519      8518      8516      8519
      8516      8519      8521      8516      8519      8525      8521      8519      8525
      8514      8522      8524      8514      8522      8525      8524      8522      8525
      8519      8525      8522      8519      8525      8527      8522      8525      8527
      8531      8529      8532      8531      8529      8533      8531      8529      8534
      8532      8529      8533      8532      8529      8534      8533      8529      8534
      8529      8534      8536      8529      8534      8542      8536      8534      8542
      8534      8536      8538      8534      8536      8539      8538      8536      8539
      8536      8539      8541      8536      8539      8545      8541      8539      8545
      8534      8542      8544      8534      8542      8545      8544      8542      8545
      8539      8545      8542      8539      8545      8547      8542      8545      8547
      8551      8549      8552      8551      8549      8553      8551      8549      8554
      8552      8549      8553      8552      8549      8554      8553      8549      8554
      8549      8554      8556      8549      8554      8562      8556      8554      8562
      8554      8556      8558      8554      8556      8559      8558      8556      8559
      8556      8559      8561      8556      8559      8565      8561      8559      8565
      8554      8562      8564      8554      8562      8565      8564      8562      8565
      8559      8565      8562      8559      8565      8567      8562      8565      8567
      8571      8569      8572      8571      8569      8573      8571      8569      8574
      8572      8569      8573      8572      8569      8574      8573      8569      8574
      8569      8574      8576      8569      8574      8582      8576      8574      8582
      8574      8576      8578      8574      8576      8579      8578      8576      8579
      8576      8579      8581      8576      8579      8585      8581      8579      8585
      8574      8582      8584      8574      8582      8585      8584      8582      8585
      8579      8585      8582      8579      8585      8587      8582      8585      8587
      8591      8589      8592      8591      8589      8593      8591      8589      8594
      8592      8589      8593      8592      8589      8594      8593      8589      8594
      8589      8594      8596      8589      8594      8602      8596      8594      8602
      8594      8596      8598      8594      8596      8599      8598      8596      8599
      8596      8599      8601      8596      8599      8605      8601      8599      8605
      8594      8602      8604      8594      8602      8605      8604      8602      8605
      8599      8605      8602      8599      8605      8607      8602      8605      8607
      8611      8609      8612      8611      8609      8613      8611      8609      8614
      8612      8609      8613      8612      8609      8614      8613      8609      8614
      8609      8614      8616      8609      8614      8622      8616      8614      8622
      8614      8616      8618      8614      8616      8619      8618      8616      8619
      8616      8619      8621      8616      8619      8625      8621      8619      8625
      8614      8622      8624      8614      8622      8625      8624      8622      8625
      8619      8625      8622      8619      8625      8627      8622      8625      8627
      8631      8629      8632      8631      8629      8633      8631      8629      8634
      8632      8629      8633      8632      8629      8634      8633      8629      8634
      8629      8634      8636      8629      8634      8642      8636      8634      8642
      8634      8636      8638      8634      8636      8639      8638      8636      8639
      8636      8639      8641      8636      8639      8645      8641      8639      8645
      8634      8642      8644      8634      8642      8645      8644      8642      8645
      8639      8645      8642      8639      8645      8647      8642      8645      8647
      8651      8649      8652      8651      8649      8653      8651      8649      8654
      8652      8649      8653      8652      8649      8654      8653      8649      8654
      8649      8654      8656      8649      8654      8662      8656      8654      8662
      8654      8656      8658      8654      8656      8659      8658      8656      8659
      8656      8659      8661      8656      8659      8665      8661      8659      8665
      8654      8662      8664      8654      8662      8665      8664      8662      8665
      8659      8665      8662      8659      8665      8667      8662      8665      8667
      8671      8669      8672      8671      8669      8673      8671      8669      8674
      8672      8669      8673      8672      8669      8674      8673      8669      8674
      8669      8674      8676      8669      8674      8682      8676      8674      8682
      8674      8676      8678      8674      8676      8679      8678      8676      8679
      8676      8679      8681      8676      8679      8685      8681      8679      8685
      8674      8682      8684      8674      8682      8685      8684      8682      8685
      8679      8685      8682      8679      8685      8687      8682      8685      8687
      8691      8689      8692      8691      8689      8693      8691      8689      8694
      8692      8689      8693      8692      8689      8694      8693      8689      8694
      8689      8694      8696      8689      8694      8702      8696      8694      8702
      8694      8696      8698      8694      8696      8699      8698      8696      8699
      8696      8699      8701      8696      8699      8705      8701      8699      8705
      8694      8702      8704      8694      8702      8705      8704      8702      8705
      8699      8705      8702      8699      8705      8707      8702      8705      8707
      8711      8709      8712      8711      8709      8713      8711      8709      8714
      8712      8709      8713      8712      8709      8714      8713      8709      8714
      8709      8714      8716      8709      8714      8722      8716      8714      8722
      8714      8716      8718      8714      8716      8719      8718      8716      8719
      8716      8719      8721      8716      8719      8725      8721      8719      8725
      8714      8722      8724      8714      8722      8725      8724      8722      8725
      8719      8725      8722      8719      8725      8727      8722      8725      8727
      8731      8729      8732      8731      8729      8733      8731      8729      8734
      8732      8729      8733      8732      8729      8734      8733      8729      8734
      8729      8734      8736      8729      8734      8742      8736      8734      8742
      8734      8736      8738      8734      8736      8739      8738      8736      8739
      8736      8739      8741      8736      8739      8745      8741      8739      8745
      8734      8742      8744      8734      8742      8745      8744      8742      8745
      8739      8745      8742      8739      8745      8747      8742      8745      8747
      8751      8749      8752      8751      8749      8753      8751      8749      8754
      8752      8749      8753      8752      8749      8754      8753      8749      8754
      8749      8754      8756      8749      8754      8762      8756      8754      8762
      8754      8756      8758      8754      8756      8759      8758      8756      8759
      8756      8759      8761      8756      8759      8765      8761      8759      8765
      8754      8762      8764      8754      8762      8765      8764      8762      8765
      8759      8765      8762      8759      8765      8767      8762      8765      8767
      8771      8769      8776      8771      8769      8778      8776      8769      8778
      8769      8771      8773      8769      8771      8774      8769      8771      8775
      8773      8771      8774      8773      8771      8775      8774      8771      8775
      8769      8778      8780      8787      8785      8792      8787      8785      8794
      8792      8785      8794      8785      8787      8789      8785      8787      8790
      8785      8787      8791      8789      8787      8790      8789      8787      8791
      8790      8787      8791      8785      8794      8796      8803      8801      8808
      8803      8801      8810      8808      8801      8810      8801      8803      8805
      8801      8803      8806      8801      8803      8807      8805      8803      8806
      8805      8803      8807      8806      8803      8807      8801      8810      8812
      8819      8817      8824      8819      8817      8826      8824      8817      8826
      8817      8819      8821      8817      8819      8822      8817      8819      8823
      8821      8819      8822      8821      8819      8823      8822      8819      8823
      8817      8826      8828      8835      8833      8840      8835      8833      8842
      8840      8833      8842      8833      8835      8837      8833      8835      8838
      8833      8835      8839      8837      8835      8838      8837      8835      8839
      8838      8835      8839      8833      8842      8844      8851      8849      8856
      8851      8849      8858      8856      8849      8858      8849      8851      8853
      8849      8851      8854      8849      8851      8855      8853      8851      8854
      8853      8851      8855      8854      8851      8855      8849      8858      8860
      8867      8865      8872      8867      8865      8874      8872      8865      8874
      8865      8867      8869      8865      8867      8870      8865      8867      8871
      8869      8867      8870      8869      8867      8871      8870      8867      8871
      8865      8874      8876      8883      8881      8888      8883      8881      8890
      8888      8881      8890      8881      8883      8885      8881      8883      8886
      8881      8883      8887      8885      8883      8886      8885      8883      8887
      8886      8883      8887      8881      8890      8892      8899      8897      8904
      8899      8897      8906      8904      8897      8906      8897      8899      8901
      8897      8899      8902      8897      8899      8903      8901      8899      8902
      8901      8899      8903      8902      8899      8903      8897      8906      8908
      8915      8913      8920      8915      8913      8922      8920      8913      8922
      8913      8915      8917      8913      8915      8918      8913      8915      8919
      8917      8915      8918      8917      8915      8919      8918      8915      8919
      8913      8922      8924      8931      8929      8936      8931      8929      8938
      8936      8929      8938      8929      8931      8933      8929      8931      8934
      8929      8931      8935      8933      8931      8934      8933      8931      8935
      8934      8931      8935      8929      8938      8940      8947      8945      8952
      8947      8945      8954      8952      8945      8954      8945      8947      8949
      8945      8947      8950      8945      8947      8951      8949      8947      8950
      8949      8947      8951      8950      8947      8951      8945      8954      8956
      8963      8961      8968      8963      8961      8970      8968      8961      8970
      8961      8963      8965      8961      8963      8966      8961      8963      8967
      8965      8963      8966      8965      8963      8967      8966      8963      8967
      8961      8970      8972      8979      8977      8984      8979      8977      8986
      8984      8977      8986      8977      8979      8981      8977      8979      8982
      8977      8979      8983      8981      8979      8982      8981      8979      8983
      8982      8979      8983      8977      8986      8988      8995      8993      9000
      8995      8993      9002      9000      8993      9002      8993      8995      8997
      8993      8995      8998      8993      8995      8999      8997      8995      8998
      8997      8995      8999      8998      8995      8999      8993      9002      9004
      9011      9009      9016      9011      9009      9018      9016      9009      9018
      9009      9011      9013      9009      9011      9014      9009      9011      9015
      9013      9011      9014      9013      9011      9015      9014      9011      9015
      9009      9018      9020      9027      9025      9032      9027      9025      9034
      9032      9025      9034      9025      9027      9029      9025      9027      9030
      9025      9027      9031      9029      9027      9030      9029      9027      9031
      9030      9027      9031      9025      9034      9036      9043      9041      9048
      9043      9041      9050      9048      9041      9050      9041      9043      9045
      9041      9043      9046      9041      9043      9047      9045      9043      9046
      9045      9043      9047      9046      9043      9047      9041      9050      9052
      9059      9057      9064      9059      9057      9066      9064      9057      9066
      9057      9059      9061      9057      9059      9062      9057      9059      9063
      9061      9059      9062      9061      9059      9063      9062      9059      9063
      9057      9066      9068      9075      9073      9080      9075      9073      9082
      9080      9073      9082      9073      9075      9077      9073      9075      9078
      9073      9075      9079      9077      9075      9078      9077      9075      9079
      9078      9075      9079      9073      9082      9084      9091      9089      9096
      9091      9089      9098      9096      9089      9098      9089      9091      9093
      9089      9091      9094      9089      9091      9095      9093      9091      9094
      9093      9091      9095      9094      9091      9095      9089      9098      9100
      9107      9105      9112      9107      9105      9114      9112      9105      9114
      9105      9107      9109      9105      9107      9110      9105      9107      9111
      9109      9107      9110      9109      9107      9111      9110      9107      9111
      9105      9114      9116      9123      9121      9128      9123      9121      9130
      9128      9121      9130      9121      9123      9125      9121      9123      9126
      9121      9123      9127      9125      9123      9126      9125      9123      9127
      9126      9123      9127      9121      9130      9132      9139      9137      9144
      9139      9137      9146      9144      9137      9146      9137      9139      9141
      9137      9139      9142      9137      9139      9143      9141      9139      9142
      9141      9139      9143      9142      9139      9143      9137      9146      9148
      9155      9153      9160      9155      9153      9162      9160      9153      9162
      9153      9155      9157      9153      9155      9158      9153      9155      9159
      9157      9155      9158      9157      9155      9159      9158      9155      9159
      9153      9162      9164      9171      9169      9176      9171      9169      9178
      9176      9169      9178      9169      9171      9173      9169      9171      9174
      9169      9171      9175      9173      9171      9174      9173      9171      9175
      9174      9171      9175      9169      9178      9180      9187      9185      9192
      9187      9185      9194      9192      9185      9194      9185      9187      9189
      9185      9187      9190      9185      9187      9191      9189      9187      9190
      9189      9187      9191      9190      9187      9191      9185      9194      9196
      9203      9201      9208      9203      9201      9210      9208      9201      9210
      9201      9203      9205      9201      9203      9206      9201      9203      9207
      9205      9203      9206      9205      9203      9207      9206      9203      9207
      9201      9210      9212      9219      9217      9224      9219      9217      9226
      9224      9217      9226      9217      9219      9221      9217      9219      9222
      9217      9219      9223      9221      9219      9222      9221      9219      9223
      9222      9219      9223      9217      9226      9228      9235      9233      9240
      9235      9233      9242      9240      9233      9242      9233      9235      9237
      9233      9235      9238      9233      9235      9239      9237      9235      9238
      9237      9235      9239      9238      9235      9239      9233      9242      9244
      9251      9249      9256      9251      9249      9258      9256      9249      9258
      9249      9251      9253      9249      9251      9254      9249      9251      9255
      9253      9251      9254      9253      9251      9255      9254      9251      9255
      9249      9258      9260      9267      9265      9272      9267      9265      9274
      9272      9265      9274      9265      9267      9269      9265      9267      9270
      9265      9267      9271      9269      9267      9270      9269      9267      9271
      9270      9267      9271      9265      9274      9276      9283      9281      9288
      9283      9281      9290      9288      9281      9290      9281      9283      9285
      9281      9283      9286      9281      9283      9287      9285      9283      9286
      9285      9283      9287      9286      9283      9287      9281      9290      9292
      9299      9297      9304      9299      9297      9306      9304      9297      9306
      9297      9299      9301      9297      9299      9302      9297      9299      9303
      9301      9299      9302      9301      9299      9303      9302      9299      9303
      9297      9306      9308      9315      9313      9320      9315      9313      9322
      9320      9313      9322      9313      9315      9317      9313      9315      9318
      9313      9315      9319      9317      9315      9318      9317      9315      9319
      9318      9315      9319      9313      9322      9324      9331      9329      9336
      9331      9329      9338      9336      9329      9338      9329      9331      9333
      9329      9331      9334      9329      9331      9335      9333      9331      9334
      9333      9331      9335      9334      9331      9335      9329      9338      9340
      9347      9345      9352      9347      9345      9354      9352      9345      9354
      9345      9347      9349      9345      9347      9350      9345      9347      9351
      9349      9347      9350      9349      9347      9351      9350      9347      9351
      9345      9354      9356      9363      9361      9368      9363      9361      9370
      9368      9361      9370      9361      9363      9365      9361      9363      9366
      9361      9363      9367      9365      9363      9366      9365      9363      9367
      9366      9363      9367      9361      9370      9372      9379      9377      9384
      9379      9377      9386      9384      9377      9386      9377      9379      9381
      9377      9379      9382      9377      9379      9383      9381      9379      9382
      9381      9379      9383      9382      9379      9383      9377      9386      9388
      9395      9393      9400      9395      9393      9402      9400      9393      9402
      9393      9395      9397      9393      9395      9398      9393      9395      9399
      9397      9395      9398      9397      9395      9399      9398      9395      9399
      9393      9402      9404      9411      9409      9416      9411      9409      9418
      9416      9409      9418      9409      9411      9413      9409      9411      9414
      9409      9411      9415      9413      9411      9414      9413      9411      9415
      9414      9411      9415      9409      9418      9420      9427      9425      9432
      9427      9425      9434      9432      9425      9434      9425      9427      9429
      9425      9427      9430      9425      9427      9431      9429      9427      9430
      9429      9427      9431      9430      9427      9431      9425      9434      9436
      9443      9441      9448      9443      9441      9450      9448      9441      9450
      9441      9443      9445      9441      9443      9446      9441      9443      9447
      9445      9443      9446      9445      9443      9447      9446      9443      9447
      9441      9450      9452      9459      9457      9464      9459      9457      9466
      9464      9457      9466      9457      9459      9461      9457      9459      9462
      9457      9459      9463      9461      9459      9462      9461      9459      9463
      9462      9459      9463      9457      9466      9468      9475      9473      9480
      9475      9473      9482      9480      9473      9482      9473      9475      9477
      9473      9475      9478      9473      9475      9479      9477      9475      9478
      9477      9475      9479      9478      9475      9479      9473      9482      9484
      9491      9489      9496      9491      9489      9498      9496      9489      9498
      9489      9491      9493      9489      9491      9494      9489      9491      9495
      9493      9491      9494      9493      9491      9495      9494      9491      9495
      9489      9498      9500      9507      9505      9512      9507      9505      9514
      9512      9505      9514      9505      9507      9509      9505      9507      9510
      9505      9507      9511      9509      9507      9510      9509      9507      9511
      9510      9507      9511      9505      9514      9516      9523      9521      9528
      9523      9521      9530      9528      9521      9530      9521      9523      9525
      9521      9523      9526      9521      9523      9527      9525      9523      9526
      9525      9523      9527      9526      9523      9527      9521      9530      9532
      9539      9537      9544      9539      9537      9546      9544      9537      9546
      9537      9539      9541      9537      9539      9542      9537      9539      9543
      9541      9539      9542      9541      9539      9543      9542      9539      9543
      9537      9546      9548      9555      9553      9560      9555      9553      9562
      9560      9553      9562      9553      9555      9557      9553      9555      9558
      9553      9555      9559      9557      9555      9558      9557      9555      9559
      9558      9555      9559      9553      9562      9564      9571      9569      9576
      9571      9569      9578      9576      9569      9578      9569      9571      9573
      9569      9571      9574      9569      9571      9575      9573      9571      9574
      9573      9571      9575      9574      9571      9575      9569      9578      9580
      9587      9585      9592      9587      9585      9594      9592      9585      9594
      9585      9587      9589      9585      9587      9590      9585      9587      9591
      9589      9587      9590      9589      9587      9591      9590      9587      9591
      9585      9594      9596      9603      9601      9608      9603      9601      9610
      9608      9601      9610      9601      9603      9605      9601      9603      9606
      9601      9603      9607      9605      9603      9606      9605      9603      9607
      9606      9603      9607      9601      9610      9612      9619      9617      9624
      9619      9617      9626      9624      9617      9626      9617      9619      9621
      9617      9619      9622      9617      9619      9623      9621      9619      9622
      9621      9619      9623      9622      9619      9623      9617      9626      9628
      9635      9633      9640      9635      9633      9642      9640      9633      9642
      9633      9635      9637      9633      9635      9638      9633      9635      9639
      9637      9635      9638      9637      9635      9639      9638      9635      9639
      9633      9642      9644      9651      9649      9656      9651      9649      9658
      9656      9649      9658      9649      9651      9653      9649      9651      9654
      9649      9651      9655      9653      9651      9654      9653      9651      9655
      9654      9651      9655      9649      9658      9660      9667      9665      9672
      9667      9665      9674      9672      9665      9674      9665      9667      9669
      9665      9667      9670      9665      9667      9671      9669      9667      9670
      9669      9667      9671      9670      9667      9671      9665      9674      9676
      9683      9681      9688      9683      9681      9690      9688      9681      9690
      9681      9683      9685      9681      9683      9686      9681      9683      9687
      9685      9683      9686      9685      9683      9687      9686      9683      9687
      9681      9690      9692      9699      9697      9704      9699      9697      9706
      9704      9697      9706      9697      9699      9701      9697      9699      9702
      9697      9699      9703      9701      9699      9702      9701      9699      9703
      9702      9699      9703      9697      9706      9708      9715      9713      9720
      9715      9713      9722      9720      9713      9722      9713      9715      9717
      9713      9715      9718      9713      9715      9719      9717      9715      9718
      9717      9715      9719      9718      9715      9719      9713      9722      9724
      9731      9729      9736      9731      9729      9738      9736      9729      9738
      9729      9731      9733      9729      9731      9734      9729      9731      9735
      9733      9731      9734      9733      9731      9735      9734      9731      9735
      9729      9738      9740      9747      9745      9752      9747      9745      9754
      9752      9745      9754      9745      9747      9749      9745      9747      9750
      9745      9747      9751      9749      9747      9750      9749      9747      9751
      9750      9747      9751      9745      9754      9756      9763      9761      9768
      9763      9761      9770      9768      9761      9770      9761      9763      9765
      9761      9763      9766      9761      9763      9767      9765      9763      9766
      9765      9763      9767      9766      9763      9767      9761      9770      9772
      9779      9777      9784      9779      9777      9786      9784      9777      9786
      9777      9779      9781      9777      9779      9782      9777      9779      9783
      9781      9779      9782      9781      9779      9783      9782      9779      9783
      9777      9786      9788      9795      9793      9800      9795      9793      9802
      9800      9793      9802      9793      9795      9797      9793      9795      9798
      9793      9795      9799      9797      9795      9798      9797      9795      9799
      9798      9795      9799      9793      9802      9804      9811      9809      9816
      9811      9809      9818      9816      9809      9818      9809      9811      9813
      9809      9811      9814      9809      9811      9815      9813      9811      9814
      9813      9811      9815      9814      9811      9815      9809      9818      9820
      9827      9825      9832      9827      9825      9834      9832      9825      9834
      9825      9827      9829      9825      9827      9830      9825      9827      9831
      9829      9827      9830      9829      9827      9831      9830      9827      9831
      9825      9834      9836      9843      9841      9848      9843      9841      9850
      9848      9841      9850      9841      9843      9845      9841      9843      9846
      9841      9843      9847      9845      9843      9846      9845      9843      9847
      9846      9843      9847      9841      9850      9852      9859      9857      9864
      9859      9857      9866      9864      9857      9866      9857      9859      9861
      9857      9859      9862      9857      9859      9863      9861      9859      9862
      9861      9859      9863      9862      9859      9863      9857      9866      9868
      9875      9873      9880      9875      9873      9882      9880      9873      9882
      9873      9875      9877      9873      9875      9878      9873      9875      9879
      9877      9875      9878      9877      9875      9879      9878      9875      9879
      9873      9882      9884      9891      9889      9896      9891      9889      9898
      9896      9889      9898      9889      9891      9893      9889      9891      9894
      9889      9891      9895      9893      9891      9894      9893      9891      9895
      9894      9891      9895      9889      9898      9900      9907      9905      9912
      9907      9905      9914      9912      9905      9914      9905      9907      9909
      9905      9907      9910      9905      9907      9911      9909      9907      9910
      9909      9907      9911      9910      9907      9911      9905      9914      9916
      9923      9921      9928      9923      9921      9930      9928      9921      9930
      9921      9923      9925      9921      9923      9926      9921      9923      9927
      9925      9923      9926      9925      9923      9927      9926      9923      9927
      9921      9930      9932      9939      9937      9944      9939      9937      9946
      9944      9937      9946      9937      9939      9941      9937      9939      9942
      9937      9939      9943      9941      9939      9942      9941      9939      9943
      9942      9939      9943      9937      9946      9948      9955      9953      9960
      9955      9953      9962      9960      9953      9962      9953      9955      9957
      9953      9955      9958      9953      9955      9959      9957      9955      9958
      9957      9955      9959      9958      9955      9959      9953      9962      9964
      9971      9969      9976      9971      9969      9978      9976      9969      9978
      9969      9971      9973      9969      9971      9974      9969      9971      9975
      9973      9971      9974      9973      9971      9975      9974      9971      9975
      9969      9978      9980      9987      9985      9992      9987      9985      9994
      9992      9985      9994      9985      9987      9989      9985      9987      9990
      9985      9987      9991      9989      9987      9990      9989      9987      9991
      9990      9987      9991      9985      9994      9996     10003     10001     10008
     10003     10001     10010     10008     10001     10010     10001     10003     10005
     10001     10003     10006     10001     10003     10007     10005     10003     10006
     10005     10003     10007     10006     10003     10007     10001     10010     10012
     10019     10017     10024     10019     10017     10026     10024     10017     10026
     10017     10019     10021     10017     10019     10022     10017     10019     10023
     10021     10019     10022     10021     10019     10023     10022     10019     10023
     10017     10026     10028     10035     10033     10040     10035     10033     10042
     10040     10033     10042     10033     10035     10037     10033     10035     10038
     10033     10035     10039     10037     10035     10038     10037     10035     10039
     10038     10035     10039     10033     10042     10044     10051     10049     10056
     10051     10049     10058     10056     10049     10058     10049     10051     10053
     10049     10051     10054     10049     10051     10055     10053     10051     10054
     10053     10051     10055     10054     10051     10055     10049     10058     10060
     10067     10065     10072     10067     10065     10074     10072     10065     10074
     10065     10067     10069     10065     10067     10070     10065     10067     10071
     10069     10067     10070     10069     10067     10071     10070     10067     10071
     10065     10074     10076     10083     10081     10088     10083     10081     10090
     10088     10081     10090     10081     10083     10085     10081     10083     10086
     10081     10083     10087     10085     10083     10086     10085     10083     10087
     10086     10083     10087     10081     10090     10092     10099     10097     10104
     10099     10097     10106     10104     10097     10106     10097     10099     10101
     10097     10099     10102     10097     10099     10103     10101     10099     10102
     10101     10099     10103     10102     10099     10103     10097     10106     10108
     10115     10113     10120     10115     10113     10122     10120     10113     10122
     10113     10115     10117     10113     10115     10118     10113     10115     10119
     10117     10115     10118     10117     10115     10119     10118     10115     10119
     10113     10122     10124     10131     10129     10136     10131     10129     10138
     10136     10129     10138     10129     10131     10133     10129     10131     10134
     10129     10131     10135     10133     10131     10134     10133     10131     10135
     10134     10131     10135     10129     10138     10140     10147     10145     10152
     10147     10145     10154     10152     10145     10154     10145     10147     10149
     10145     10147     10150     10145     10147     10151     10149     10147     10150
     10149     10147     10151     10150     10147     10151     10145     10154     10156
     10163     10161     10168     10163     10161     10170     10168     10161     10170
     10161     10163     10165     10161     10163     10166     10161     10163     10167
     10165     10163     10166     10165     10163     10167     10166     10163     10167
     10161     10170     10172     10179     10177     10184     10179     10177     10186
     10184     10177     10186     10177     10179     10181     10177     10179     10182
     10177     10179     10183     10181     10179     10182     10181     10179     10183
     10182     10179     10183     10177     10186     10188     10195     10193     10200
     10195     10193     10202     10200     10193     10202     10193     10195     10197
     10193     10195     10198     10193     10195     10199     10197     10195     10198
     10197     10195     10199     10198     10195     10199     10193     10202     10204
     10211     10209     10216     10211     10209     10218     10216     10209     10218
     10209     10211     10213     10209     10211     10214     10209     10211     10215
     10213     10211     10214     10213     10211     10215     10214     10211     10215
     10209     10218     10220     10227     10225     10232     10227     10225     10234
     10232     10225     10234     10225     10227     10229     10225     10227     10230
     10225     10227     10231     10229     10227     10230     10229     10227     10231
     10230     10227     10231     10225     10234     10236     10243     10241     10248
     10243     10241     10250     10248     10241     10250     10241     10243     10245
     10241     10243     10246     10241     10243     10247     10245     10243     10246
     10245     10243     10247     10246     10243     10247     10241     10250     10252
     10259     10257     10264     10259     10257     10266     10264     10257     10266
     10257     10259     10261     10257     10259     10262     10257     10259     10263
     10261     10259     10262     10261     10259     10263     10262     10259     10263
     10257     10266     10268     10275     10273     10280     10275     10273     10282
     10280     10273     10282     10273     10275     10277     10273     10275     10278
     10273     10275     10279     10277     10275     10278     10277     10275     10279
     10278     10275     10279     10273     10282     10284     10291     10289     10296
     10291     10289     10298     10296     10289     10298     10289     10291     10293
     10289     10291     10294     10289     10291     10295     10293     10291     10294
     10293     10291     10295     10294     10291     10295     10289     10298     10300
     10307     10305     10312     10307     10305     10314     10312     10305     10314
     10305     10307     10309     10305     10307     10310     10305     10307     10311
     10309     10307     10310     10309     10307     10311     10310     10307     10311
     10305     10314     10316     10323     10321     10328     10323     10321     10330
     10328     10321     10330     10321     10323     10325     10321     10323     10326
     10321     10323     10327     10325     10323     10326     10325     10323     10327
     10326     10323     10327     10321     10330     10332     10339     10337     10344
     10339     10337     10346     10344     10337     10346     10337     10339     10341
     10337     10339     10342     10337     10339     10343     10341     10339     10342
     10341     10339     10343     10342     10339     10343     10337     10346     10348
     10355     10353     10360     10355     10353     10362     10360     10353     10362
     10353     10355     10357     10353     10355     10358     10353     10355     10359
     10357     10355     10358     10357     10355     10359     10358     10355     10359
     10353     10362     10364     10371     10369     10376     10371     10369     10378
     10376     10369     10378     10369     10371     10373     10369     10371     10374
     10369     10371     10375     10373     10371     10374     10373     10371     10375
     10374     10371     10375     10369     10378     10380     10387     10385     10392
     10387     10385     10394     10392     10385     10394     10385     10387     10389
     10385     10387     10390     10385     10387     10391     10389     10387     10390
     10389     10387     10391     10390     10387     10391     10385     10394     10396
     10403     10401     10408     10403     10401     10410     10408     10401     10410
     10401     10403     10405     10401     10403     10406     10401     10403     10407
     10405     10403     10406     10405     10403     10407     10406     10403     10407
     10401     10410     10412     10419     10417     10424     10419     10417     10426
     10424     10417     10426     10417     10419     10421     10417     10419     10422
     10417     10419     10423     10421     10419     10422     10421     10419     10423
     10422     10419     10423     10417     10426     10428     10435     10433     10440
     10435     10433     10442     10440     10433     10442     10433     10435     10437
     10433     10435     10438     10433     10435     10439     10437     10435     10438
     10437     10435     10439     10438     10435     10439     10433     10442     10444
     10451     10449     10456     10451     10449     10458     10456     10449     10458
     10449     10451     10453     10449     10451     10454     10449     10451     10455
     10453     10451     10454     10453     10451     10455     10454     10451     10455
     10449     10458     10460     10467     10465     10472     10467     10465     10474
     10472     10465     10474     10465     10467     10469     10465     10467     10470
     10465     10467     10471     10469     10467     10470     10469     10467     10471
     10470     10467     10471     10465     10474     10476     10483     10481     10488
     10483     10481     10490     10488     10481     10490     10481     10483     10485
     10481     10483     10486     10481     10483     10487     10485     10483     10486
     10485     10483     10487     10486     10483     10487     10481     10490     10492
     10499     10497     10504     10499     10497     10506     10504     10497     10506
     10497     10499     10501     10497     10499     10502     10497     10499     10503
     10501     10499     10502     10501     10499     10503     10502     10499     10503
     10497     10506     10508     10515     10513     10520     10515     10513     10522
     10520     10513     10522     10513     10515     10517     10513     10515     10518
     10513     10515     10519     10517     10515     10518     10517     10515     10519
     10518     10515     10519     10513     10522     10524     10531     10529     10536
     10531     10529     10538     10536     10529     10538     10529     10531     10533
     10529     10531     10534     10529     10531     10535     10533     10531     10534
     10533     10531     10535     10534     10531     10535     10529     10538     10540
     10547     10545     10552     10547     10545     10554     10552     10545     10554
     10545     10547     10549     10545     10547     10550     10545     10547     10551
     10549     10547     10550     10549     10547     10551     10550     10547     10551
     10545     10554     10556     10563     10561     10568     10563     10561     10570
     10568     10561     10570     10561     10563     10565     10561     10563     10566
     10561     10563     10567     10565     10563     10566     10565     10563     10567
     10566     10563     10567     10561     10570     10572     10579     10577     10584
     10579     10577     10586     10584     10577     10586     10577     10579     10581
     10577     10579     10582     10577     10579     10583     10581     10579     10582
     10581     10579     10583     10582     10579     10583     10577     10586     10588
     10595     10593     10600     10595     10593     10602     10600     10593     10602
     10593     10595     10597     10593     10595     10598     10593     10595     10599
     10597     10595     10598     10597     10595     10599     10598     10595     10599
     10593     10602     10604     10611     10609     10616     10611     10609     10618
     10616     10609     10618     10609     10611     10613     10609     10611     10614
     10609     10611     10615     10613     10611     10614     10613     10611     10615
     10614     10611     10615     10609     10618     10620     10627     10625     10632
     10627     10625     10634     10632     10625     10634     10625     10627     10629
     10625     10627     10630     10625     10627     10631     10629     10627     10630
     10629     10627     10631     10630     10627     10631     10625     10634     10636
     10643     10641     10648     10643     10641     10650     10648     10641     10650
     10641     10643     10645     10641     10643     10646     10641     10643     10647
     10645     10643     10646     10645     10643     10647     10646     10643     10647
     10641     10650     10652     10659     10657     10664     10659     10657     10666
     10664     10657     10666     10657     10659     10661     10657     10659     10662
     10657     10659     10663     10661     10659     10662     10661     10659     10663
     10662     10659     10663     10657     10666     10668     10675     10673     10680
     10675     10673     10682     10680     10673     10682     10673     10675     10677
     10673     10675     10678     10673     10675     10679     10677     10675     10678
     10677     10675     10679     10678     10675     10679     10673     10682     10684
     10691     10689     10696     10691     10689     10698     10696     10689     10698
     10689     10691     10693     10689     10691     10694     10689     10691     10695
     10693     10691     10694     10693     10691     10695     10694     10691     10695
     10689     10698     10700     10707     10705     10712     10707     10705     10714
     10712     10705     10714     10705     10707     10709     10705     10707     10710
     10705     10707     10711     10709     10707     10710     10709     10707     10711
     10710     10707     10711     10705     10714     10716     10723     10721     10728
     10723     10721     10730     10728     10721     10730     10721     10723     10725
     10721     10723     10726     10721     10723     10727     10725     10723     10726
     10725     10723     10727     10726     10723     10727     10721     10730     10732
     10739     10737     10744     10739     10737     10746     10744     10737     10746
     10737     10739     10741     10737     10739     10742     10737     10739     10743
     10741     10739     10742     10741     10739     10743     10742     10739     10743
     10737     10746     10748     10755     10753     10760     10755     10753     10762
     10760     10753     10762     10753     10755     10757     10753     10755     10758
     10753     10755     10759     10757     10755     10758     10757     10755     10759
     10758     10755     10759     10753     10762     10764     10771     10769     10776
     10771     10769     10778     10776     10769     10778     10769     10771     10773
     10769     10771     10774     10769     10771     10775     10773     10771     10774
     10773     10771     10775     10774     10771     10775     10769     10778     10780
     10787     10785     10792     10787     10785     10794     10792     10785     10794
     10785     10787     10789     10785     10787     10790     10785     10787     10791
     10789     10787     10790     10789     10787     10791     10790     10787     10791
     10785     10794     10796     10803     10801     10808     10803     10801     10810
     10808     10801     10810     10801     10803     10805     10801     10803     10806
     10801     10803     10807     10805     10803     10806     10805     10803     10807
     10806     10803     10807     10801     10810     10812     10819     10817     10824
     10819     10817     10826     10824     10817     10826     10817     10819     10821
     10817     10819     10822     10817     10819     10823     10821     10819     10822
     10821     10819     10823     10822     10819     10823     10817     10826     10828
     10835     10833     10840     10835     10833     10842     10840     10833     10842
     10833     10835     10837     10833     10835     10838     10833     10835     10839
     10837     10835     10838     10837     10835     10839     10838     10835     10839
     10833     10842     10844     10851     10849     10856     10851     10849     10858
     10856     10849     10858     10849     10851     10853     10849     10851     10854
     10849     10851     10855     10853     10851     10854     10853     10851     10855
     10854     10851     10855     10849     10858     10860     10867     10865     10872
     10867     10865     10874     10872     10865     10874     10865     10867     10869
     10865     10867     10870     10865     10867     10871     10869     10867     10870
     10869     10867     10871     10870     10867     10871     10865     10874     10876
     10883     10881     10888     10883     10881     10890     10888     10881     10890
     10881     10883     10885     10881     10883     10886     10881     10883     10887
     10885     10883     10886     10885     10883     10887     10886     10883     10887
     10881     10890     10892     10899     10897     10904     10899     10897     10906
     10904     10897     10906     10897     10899     10901     10897     10899     10902
     10897     10899     10903     10901     10899     10902     10901     10899     10903
     10902     10899     10903     10897     10906     10908     10915     10913     10920
     10915     10913     10922     10920     10913     10922     10913     10915     10917
     10913     10915     10918     10913     10915     10919     10917     10915     10918
     10917     10915     10919     10918     10915     10919     10913     10922     10924
     10931     10929     10936     10931     10929     10938     10936     10929     10938
     10929     10931     10933     10929     10931     10934     10929     10931     10935
     10933     10931     10934     10933     10931     10935     10934     10931     10935
     10929     10938     10940     10947     10945     10952     10947     10945     10954
     10952     10945     10954     10945     10947     10949     10945     10947     10950
     10945     10947     10951     10949     10947     10950     10949     10947     10951
     10950     10947     10951     10945     10954     10956     10963     10961     10968
     10963     10961     10970     10968     10961     10970     10961     10963     10965
     10961     10963     10966     10961     10963     10967     10965     10963     10966
     10965     10963     10967     10966     10963     10967     10961     10970     10972
     10979     10977     10984     10979     10977     10986     10984     10977     10986
     10977     10979     10981     10977     10979     10982     10977     10979     10983
     10981     10979     10982     10981     10979     10983     10982     10979     10983
     10977     10986     10988     10995     10993     11000     10995     10993     11002
     11000     10993     11002     10993     10995     10997     10993     10995     10998
     10993     10995     10999     10997     10995     10998     10997     10995     10999
     10998     10995     10999     10993     11002     11004     11011     11009     11016
     11011     11009     11018     11016     11009     11018     11009     11011     11013
     11009     11011     11014     11009     11011     11015     11013     11011     11014
     11013     11011     11015     11014     11011     11015     11009     11018     11020
     11027     11025     11032     11027     11025     11034     11032     11025     11034
     11025     11027     11029     11025     11027     11030     11025     11027     11031
     11029     11027     11030     11029     11027     11031     11030     11027     11031
     11025     11034     11036     11043     11041     11048     11043     11041     11050
     11048     11041     11050     11041     11043     11045     11041     11043     11046
     11041     11043     11047     11045     11043     11046     11045     11043     11047
     11046     11043     11047     11041     11050     11052     11059     11057     11064
     11059     11057     11066     11064     11057     11066     11057     11059     11061
     11057     11059     11062     11057     11059     11063     11061     11059     11062
     11061     11059     11063     11062     11059     11063     11057     11066     11068
     11075     11073     11080     11075     11073     11082     11080     11073     11082
     11073     11075     11077     11073     11075     11078     11073     11075     11079
     11077     11075     11078     11077     11075     11079     11078     11075     11079
     11073     11082     11084     11091     11089     11096     11091     11089     11098
     11096     11089     11098     11089     11091     11093     11089     11091     11094
     11089     11091     11095     11093     11091     11094     11093     11091     11095
     11094     11091     11095     11089     11098     11100     11107     11105     11112
     11107     11105     11114     11112     11105     11114     11105     11107     11109
     11105     11107     11110     11105     11107     11111     11109     11107     11110
     11109     11107     11111     11110     11107     11111     11105     11114     11116
     11123     11121     11128     11123     11121     11130     11128     11121     11130
     11121     11123     11125     11121     11123     11126     11121     11123     11127
     11125     11123     11126     11125     11123     11127     11126     11123     11127
     11121     11130     11132     11139     11137     11144     11139     11137     11146
     11144     11137     11146     11137     11139     11141     11137     11139     11142
     11137     11139     11143     11141     11139     11142     11141     11139     11143
     11142     11139     11143     11137     11146     11148     11155     11153     11160
     11155     11153     11162     11160     11153     11162     11153     11155     11157
     11153     11155     11158     11153     11155     11159     11157     11155     11158
     11157     11155     11159     11158     11155     11159     11153     11162     11164
     11171     11169     11176     11171     11169     11178     11176     11169     11178
     11169     11171     11173     11169     11171     11174     11169     11171     11175
     11173     11171     11174     11173     11171     11175     11174     11171     11175
     11169     11178     11180     11187     11185     11192     11187     11185     11194
     11192     11185     11194     11185     11187     11189     11185     11187     11190
     11185     11187     11191     11189     11187     11190     11189     11187     11191
     11190     11187     11191     11185     11194     11196     11203     11201     11208
     11203     11201     11210     11208     11201     11210     11201     11203     11205
     11201     11203     11206     11201     11203     11207     11205     11203     11206
     11205     11203     11207     11206     11203     11207     11201     11210     11212
     11219     11217     11224     11219     11217     11226     11224     11217     11226
     11217     11219     11221     11217     11219     11222     11217     11219     11223
     11221     11219     11222     11221     11219     11223     11222     11219     11223
     11217     11226     11228     11235     11233     11240     11235     11233     11242
     11240     11233     11242     11233     11235     11237     11233     11235     11238
     11233     11235     11239     11237     11235     11238     11237     11235     11239
     11238     11235     11239     11233     11242     11244     11251     11249     11256
     11251     11249     11258     11256     11249     11258     11249     11251     11253
     11249     11251     11254     11249     11251     11255     11253     11251     11254
     11253     11251     11255     11254     11251     11255     11249     11258     11260
     11267     11265     11272     11267     11265     11274     11272     11265     11274
     11265     11267     11269     11265     11267     11270     11265     11267     11271
     11269     11267     11270     11269     11267     11271     11270     11267     11271
     11265     11274     11276     11283     11281     11288     11283     11281     11290
     11288     11281     11290     11281     11283     11285     11281     11283     11286
     11281     11283     11287     11285     11283     11286     11285     11283     11287
     11286     11283     11287     11281     11290     11292     11299     11297     11304
     11299     11297     11306     11304     11297     11306     11297     11299     11301
     11297     11299     11302     11297     11299     11303     11301     11299     11302
     11301     11299     11303     11302     11299     11303     11297     11306     11308
     11315     11313     11320     11315     11313     11322     11320     11313     11322
     11313     11315     11317     11313     11315     11318     11313     11315     11319
     11317     11315     11318     11317     11315     11319     11318     11315     11319
     11313     11322     11324     11331     11329     11336     11331     11329     11338
     11336     11329     11338     11329     11331     11333     11329     11331     11334
     11329     11331     11335     11333     11331     11334     11333     11331     11335
     11334     11331     11335     11329     11338     11340     11347     11345     11352
     11347     11345     11354     11352     11345     11354     11345     11347     11349
     11345     11347     11350     11345     11347     11351     11349     11347     11350
     11349     11347     11351     11350     11347     11351     11345     11354     11356
     11363     11361     11368     11363     11361     11370     11368     11361     11370
     11361     11363     11365     11361     11363     11366     11361     11363     11367
     11365     11363     11366     11365     11363     11367     11366     11363     11367
     11361     11370     11372     11379     11377     11384     11379     11377     11386
     11384     11377     11386     11377     11379     11381     11377     11379     11382
     11377     11379     11383     11381     11379     11382     11381     11379     11383
     11382     11379     11383     11377     11386     11388     11395     11393     11400
     11395     11393     11402     11400     11393     11402     11393     11395     11397
     11393     11395     11398     11393     11395     11399     11397     11395     11398
     11397     11395     11399     11398     11395     11399     11393     11402     11404
     11411     11409     11416     11411     11409     11418     11416     11409     11418
     11409     11411     11413     11409     11411     11414     11409     11411     11415
     11413     11411     11414     11413     11411     11415     11414     11411     11415
     11409     11418     11420     11427     11425     11432     11427     11425     11434
     11432     11425     11434     11425     11427     11429     11425     11427     11430
     11425     11427     11431     11429     11427     11430     11429     11427     11431
     11430     11427     11431     11425     11434     11436     11443     11441     11448
     11443     11441     11450     11448     11441     11450     11441     11443     11445
     11441     11443     11446     11441     11443     11447     11445     11443     11446
     11445     11443     11447     11446     11443     11447     11441     11450     11452
     11459     11457     11464     11459     11457     11466     11464     11457     11466
     11457     11459     11461     11457     11459     11462     11457     11459     11463
     11461     11459     11462     11461     11459     11463     11462     11459     11463
     11457     11466     11468     11475     11473     11480     11475     11473     11482
     11480     11473     11482     11473     11475     11477     11473     11475     11478
     11473     11475     11479     11477     11475     11478     11477     11475     11479
     11478     11475     11479     11473     11482     11484     11491     11489     11496
     11491     11489     11498     11496     11489     11498     11489     11491     11493
     11489     11491     11494     11489     11491     11495     11493     11491     11494
     11493     11491     11495     11494     11491     11495     11489     11498     11500
     11507     11505     11512     11507     11505     11514     11512     11505     11514
     11505     11507     11509     11505     11507     11510     11505     11507     11511
     11509     11507     11510     11509     11507     11511     11510     11507     11511
     11505     11514     11516     11523     11521     11528     11523     11521     11530
     11528     11521     11530     11521     11523     11525     11521     11523     11526
     11521     11523     11527     11525     11523     11526     11525     11523     11527
     11526     11523     11527     11521     11530     11532     11539     11537     11544
     11539     11537     11546     11544     11537     11546     11537     11539     11541
     11537     11539     11542     11537     11539     11543     11541     11539     11542
     11541     11539     11543     11542     11539     11543     11537     11546     11548
     11555     11553     11560     11555     11553     11562     11560     11553     11562
     11553     11555     11557     11553     11555     11558     11553     11555     11559
     11557     11555     11558     11557     11555     11559     11558     11555     11559
     11553     11562     11564     11571     11569     11576     11571     11569     11578
     11576     11569     11578     11569     11571     11573     11569     11571     11574
     11569     11571     11575     11573     11571     11574     11573     11571     11575
     11574     11571     11575     11569     11578     11580     11587     11585     11592
     11587     11585     11594     11592     11585     11594     11585     11587     11589
     11585     11587     11590     11585     11587     11591     11589     11587     11590
     11589     11587     11591     11590     11587     11591     11585     11594     11596
     11603     11601     11608     11603     11601     11610     11608     11601     11610
     11601     11603     11605     11601     11603     11606     11601     11603     11607
     11605     11603     11606     11605     11603     11607     11606     11603     11607
     11601     11610     11612     11619     11617     11624     11619     11617     11626
     11624     11617     11626     11617     11619     11621     11617     11619     11622
     11617     11619     11623     11621     11619     11622     11621     11619     11623
     11622     11619     11623     11617     11626     11628     11635     11633     11640
     11635     11633     11642     11640     11633     11642     11633     11635     11637
     11633     11635     11638     11633     11635     11639     11637     11635     11638
     11637     11635     11639     11638     11635     11639     11633     11642     11644
     11651     11649     11656     11651     11649     11658     11656     11649     11658
     11649     11651     11653     11649     11651     11654     11649     11651     11655
     11653     11651     11654     11653     11651     11655     11654     11651     11655
     11649     11658     11660     11667     11665     11672     11667     11665     11674
     11672     11665     11674     11665     11667     11669     11665     11667     11670
     11665     11667     11671     11669     11667     11670     11669     11667     11671
     11670     11667     11671     11665     11674     11676     11683     11681     11688
     11683     11681     11690     11688     11681     11690     11681     11683     11685
     11681     11683     11686     11681     11683     11687     11685     11683     11686
     11685     11683     11687     11686     11683     11687     11681     11690     11692
     11699     11697     11704     11699     11697     11706     11704     11697     11706
     11697     11699     11701     11697     11699     11702     11697     11699     11703
     11701     11699     11702     11701     11699     11703     11702     11699     11703
     11697     11706     11708     11715     11713     11720     11715     11713     11722
     11720     11713     11722     11713     11715     11717     11713     11715     11718
     11713     11715     11719     11717     11715     11718     11717     11715     11719
     11718     11715     11719     11713     11722     11724     11731     11729     11736
     11731     11729     11738     11736     11729     11738     11729     11731     11733
     11729     11731     11734     11729     11731     11735     11733     11731     11734
     11733     11731     11735     11734     11731     11735     11729     11738     11740
     11747     11745     11752     11747     11745     11754     11752     11745     11754
     11745     11747     11749     11745     11747     11750     11745     11747     11751
     11749     11747     11750     11749     11747     11751     11750     11747     11751
     11745     11754     11756     11763     11761     11768     11763     11761     11770
     11768     11761     11770     11761     11763     11765     11761     11763     11766
     11761     11763     11767     11765     11763     11766     11765     11763     11767
     11766     11763     11767     11761     11770     11772     11779     11777     11784
     11779     11777     11786     11784     11777     11786     11777     11779     11781
     11777     11779     11782     11777     11779     11783     11781     11779     11782
     11781     11779     11783     11782     11779     11783     11777     11786     11788
     11795     11793     11800     11795     11793     11802     11800     11793     11802
     11793     11795     11797     11793     11795     11798     11793     11795     11799
     11797     11795     11798     11797     11795     11799     11798     11795     11799
     11793     11802     11804     11811     11809     11816     11811     11809     11818
     11816     11809     11818     11809     11811     11813     11809     11811     11814
     11809     11811     11815     11813     11811     11814     11813     11811     11815
     11814     11811     11815     11809     11818     11820     11827     11825     11832
     11827     11825     11834     11832     11825     11834     11825     11827     11829
     11825     11827     11830     11825     11827     11831     11829     11827     11830
     11829     11827     11831     11830     11827     11831     11825     11834     11836
     11843     11841     11848     11843     11841     11850     11848     11841     11850
     11841     11843     11845     11841     11843     11846     11841     11843     11847
     11845     11843     11846     11845     11843     11847     11846     11843     11847
     11841     11850     11852     11859     11857     11864     11859     11857     11866
     11864     11857     11866     11857     11859     11861     11857     11859     11862
     11857     11859     11863     11861     11859     11862     11861     11859     11863
     11862     11859     11863     11857     11866     11868     11875     11873     11880
     11875     11873     11882     11880     11873     11882     11873     11875     11877
     11873     11875     11878     11873     11875     11879     11877     11875     11878
     11877     11875     11879     11878     11875     11879     11873     11882     11884
     11891     11889     11896     11891     11889     11898     11896     11889     11898
     11889     11891     11893     11889     11891     11894     11889     11891     11895
     11893     11891     11894     11893     11891     11895     11894     11891     11895
     11889     11898     11900     11907     11905     11912     11907     11905     11914
     11912     11905     11914     11905     11907     11909     11905     11907     11910
     11905     11907     11911     11909     11907     11910     11909     11907     11911
     11910     11907     11911     11905     11914     11916     11923     11921     11928
     11923     11921     11930     11928     11921     11930     11921     11923     11925
     11921     11923     11926     11921     11923     11927     11925     11923     11926
     11925     11923     11927     11926     11923     11927     11921     11930     11932
     11939     11937     11944     11939     11937     11946     11944     11937     11946
     11937     11939     11941     11937     11939     11942     11937     11939     11943
     11941     11939     11942     11941     11939     11943     11942     11939     11943
     11937     11946     11948     11955     11953     11960     11955     11953     11962
     11960     11953     11962     11953     11955     11957     11953     11955     11958
     11953     11955     11959     11957     11955     11958     11957     11955     11959
     11958     11955     11959     11953     11962     11964     11971     11969     11976
     11971     11969     11978     11976     11969     11978     11969     11971     11973
     11969     11971     11974     11969     11971     11975     11973     11971     11974
     11973     11971     11975     11974     11971     11975     11969     11978     11980
     11987     11985     11992     11987     11985     11994     11992     11985     11994
     11985     11987     11989     11985     11987     11990     11985     11987     11991
     11989     11987     11990     11989     11987     11991     11990     11987     11991
     11985     11994     11996     12003     12001     12008     12003     12001     12010
     12008     12001     12010     12001     12003     12005     12001     12003     12006
     12001     12003     12007     12005     12003     12006     12005     12003     12007
     12006     12003     12007     12001     12010     12012     12019     12017     12024
     12019     12017     12026     12024     12017     12026     12017     12019     12021
     12017     12019     12022     12017     12019     12023     12021     12019     12022
     12021     12019     12023     12022     12019     12023     12017     12026     12028
     12035     12033     12040     12035     12033     12042     12040     12033     12042
     12033     12035     12037     12033     12035     12038     12033     12035     12039
     12037     12035     12038     12037     12035     12039     12038     12035     12039
     12033     12042     12044     12051     12049     12056     12051     12049     12058
     12056     12049     12058     12049     12051     12053     12049     12051     12054
     12049     12051     12055     12053     12051     12054     12053     12051     12055
     12054     12051     12055     12049     12058     12060     12067     12065     12072
     12067     12065     12074     12072     12065     12074     12065     12067     12069
     12065     12067     12070     12065     12067     12071     12069     12067     12070
     12069     12067     12071     12070     12067     12071     12065     12074     12076
     12083     12081     12088     12083     12081     12090     12088     12081     12090
     12081     12083     12085     12081     12083     12086     12081     12083     12087
     12085     12083     12086     12085     12083     12087     12086     12083     12087
     12081     12090     12092     12099     12097     12104     12099     12097     12106
     12104     12097     12106     12097     12099     12101     12097     12099     12102
     12097     12099     12103     12101     12099     12102     12101     12099     12103
     12102     12099     12103     12097     12106     12108     12115     12113     12120
     12115     12113     12122     12120     12113     12122     12113     12115     12117
     12113     12115     12118     12113     12115     12119     12117     12115     12118
     12117     12115     12119     12118     12115     12119     12113     12122     12124
     12131     12129     12136     12131     12129     12138     12136     12129     12138
     12129     12131     12133     12129     12131     12134     12129     12131     12135
     12133     12131     12134     12133     12131     12135     12134     12131     12135
     12129     12138     12140     12147     12145     12152     12147     12145     12154
     12152     12145     12154     12145     12147     12149     12145     12147     12150
     12145     12147     12151     12149     12147     12150     12149     12147     12151
     12150     12147     12151     12145     12154     12156     12163     12161     12168
     12163     12161     12170     12168     12161     12170     12161     12163     12165
     12161     12163     12166     12161     12163     12167     12165     12163     12166
     12165     12163     12167     12166     12163     12167     12161     12170     12172
     12179     12177     12184     12179     12177     12186     12184     12177     12186
     12177     12179     12181     12177     12179     12182     12177     12179     12183
     12181     12179     12182     12181     12179     12183     12182     12179     12183
     12177     12186     12188     12195     12193     12200     12195     12193     12202
     12200     12193     12202     12193     12195     12197     12193     12195     12198
     12193     12195     12199     12197     12195     12198     12197     12195     12199
     12198     12195     12199     12193     12202     12204     12211     12209     12216
     12211     12209     12218     12216     12209     12218     12209     12211     12213
     12209     12211     12214     12209     12211     12215     12213     12211     12214
     12213     12211     12215     12214     12211     12215     12209     12218     12220
     12227     12225     12232     12227     12225     12234     12232     12225     12234
     12225     12227     12229     12225     12227     12230     12225     12227     12231
     12229     12227     12230     12229     12227     12231     12230     12227     12231
     12225     12234     12236     12243     12241     12285     12243     12241     12299
     12285     12241     12299     12241     12243     12245     12241     12243     12300
     12245     12243     12300     12243     12245     12247     12243     12245     12255
     12247     12245     12255     12245     12247     12249     12245     12247     12287
     12249     12247     12287     12247     12249     12251     12247     12249     12273
     12251     12249     12273     12249     12251     12253     12249     12251     12265
     12253     12251     12265     12251     12253     12255     12251     12253     12301
     12255     12253     12301     12245     12255     12253     12245     12255     12257
     12253     12255     12257     12255     12257     12259     12255     12257     12261
     12255     12257     12263     12259     12257     12261     12259     12257     12263
     12261     12257     12263     12251     12265     12267     12251     12265     12269
     12251     12265     12271     12267     12265     12269     12267     12265     12271
     12269     12265     12271     12249     12273     12275     12249     12273     12302
     12275     12273     12302     12273     12275     12277     12273     12275     12303
     12277     12275     12303     12275     12277     12279     12275     12277     12287
     12279     12277     12287     12277     12279     12281     12277     12279     12291
     12281     12279     12291     12279     12281     12283     12279     12281     12304
     12283     12281     12304     12281     12283     12285     12281     12283     12289
     12285     12283     12289     12241     12285     12283     12241     12285     12287
     12283     12285     12287     12247     12287     12277     12247     12287     12285
     12277     12287     12285     12283     12289     12305     12279     12291     12293
     12279     12291     12295     12279     12291     12297     12293     12291     12295
     12293     12291     12297     12295     12291     12297     12328     12326     12370
     12328     12326     12384     12370     12326     12384     12326     12328     12330
     12326     12328     12385     12330     12328     12385     12328     12330     12332
     12328     12330     12340     12332     12330     12340     12330     12332     12334
     12330     12332     12372     12334     12332     12372     12332     12334     12336
     12332     12334     12358     12336     12334     12358     12334     12336     12338
     12334     12336     12350     12338     12336     12350     12336     12338     12340
     12336     12338     12386     12340     12338     12386     12330     12340     12338
     12330     12340     12342     12338     12340     12342     12340     12342     12344
     12340     12342     12346     12340     12342     12348     12344     12342     12346
     12344     12342     12348     12346     12342     12348     12336     12350     12352
     12336     12350     12354     12336     12350     12356     12352     12350     12354
     12352     12350     12356     12354     12350     12356     12334     12358     12360
     12334     12358     12387     12360     12358     12387     12358     12360     12362
     12358     12360     12388     12362     12360     12388     12360     12362     12364
     12360     12362     12372     12364     12362     12372     12362     12364     12366
     12362     12364     12376     12366     12364     12376     12364     12366     12368
     12364     12366     12389     12368     12366     12389     12366     12368     12370
     12366     12368     12374     12370     12368     12374     12326     12370     12368
     12326     12370     12372     12368     12370     12372     12332     12372     12362
     12332     12372     12370     12362     12372     12370     12368     12374     12390
     12364     12376     12378     12364     12376     12380     12364     12376     12382
     12378     12376     12380     12378     12376     12382     12380     12376     12382
     12413     12411     12455     12413     12411     12469     12455     12411     12469
     12411     12413     12415     12411     12413     12470     12415     12413     12470
     12413     12415     12417     12413     12415     12425     12417     12415     12425
     12415     12417     12419     12415     12417     12457     12419     12417     12457
     12417     12419     12421     12417     12419     12443     12421     12419     12443
     12419     12421     12423     12419     12421     12435     12423     12421     12435
     12421     12423     12425     12421     12423     12471     12425     12423     12471
     12415     12425     12423     12415     12425     12427     12423     12425     12427
     12425     12427     12429     12425     12427     12431     12425     12427     12433
     12429     12427     12431     12429     12427     12433     12431     12427     12433
     12421     12435     12437     12421     12435     12439     12421     12435     12441
     12437     12435     12439     12437     12435     12441     12439     12435     12441
     12419     12443     12445     12419     12443     12472     12445     12443     12472
     12443     12445     12447     12443     12445     12473     12447     12445     12473
     12445     12447     12449     12445     12447     12457     12449     12447     12457
     12447     12449     12451     12447     12449     12461     12451     12449     12461
     12449     12451     12453     12449     12451     12474     12453     12451     12474
     12451     12453     12455     12451     12453     12459     12455     12453     12459
     12411     12455     12453     12411     12455     12457     12453     12455     12457
     12417     12457     12447     12417     12457     12455     12447     12457     12455
     12453     12459     12475     12449     12461     12463     12449     12461     12465
     12449     12461     12467     12463     12461     12465     12463     12461     12467
     12465     12461     12467     12498     12496     12540     12498     12496     12554
     12540     12496     12554     12496     12498     12500     12496     12498     12555
     12500     12498     12555     12498     12500     12502     12498     12500     12510
     12502     12500     12510     12500     12502     12504     12500     12502     12542
     12504     12502     12542     12502     12504     12506     12502     12504     12528
     12506     12504     12528     12504     12506     12508     12504     12506     12520
     12508     12506     12520     12506     12508     12510     12506     12508     12556
     12510     12508     12556     12500     12510     12508     12500     12510     12512
     12508     12510     12512     12510     12512     12514     12510     12512     12516
     12510     12512     12518     12514     12512     12516     12514     12512     12518
     12516     12512     12518     12506     12520     12522     12506     12520     12524
     12506     12520     12526     12522     12520     12524     12522     12520     12526
     12524     12520     12526     12504     12528     12530     12504     12528     12557
     12530     12528     12557     12528     12530     12532     12528     12530     12558
     12532     12530     12558     12530     12532     12534     12530     12532     12542
     12534     12532     12542     12532     12534     12536     12532     12534     12546
     12536     12534     12546     12534     12536     12538     12534     12536     12559
     12538     12536     12559     12536     12538     12540     12536     12538     12544
     12540     12538     12544     12496     12540     12538     12496     12540     12542
     12538     12540     12542     12502     12542     12532     12502     12542     12540
     12532     12542     12540     12538     12544     12560     12534     12546     12548
     12534     12546     12550     12534     12546     12552     12548     12546     12550
     12548     12546     12552     12550     12546     12552     12583     12581     12625
     12583     12581     12639     12625     12581     12639     12581     12583     12585
     12581     12583     12640     12585     12583     12640     12583     12585     12587
     12583     12585     12595     12587     12585     12595     12585     12587     12589
     12585     12587     12627     12589     12587     12627     12587     12589     12591
     12587     12589     12613     12591     12589     12613     12589     12591     12593
     12589     12591     12605     12593     12591     12605     12591     12593     12595
     12591     12593     12641     12595     12593     12641     12585     12595     12593
     12585     12595     12597     12593     12595     12597     12595     12597     12599
     12595     12597     12601     12595     12597     12603     12599     12597     12601
     12599     12597     12603     12601     12597     12603     12591     12605     12607
     12591     12605     12609     12591     12605     12611     12607     12605     12609
     12607     12605     12611     12609     12605     12611     12589     12613     12615
     12589     12613     12642     12615     12613     12642     12613     12615     12617
     12613     12615     12643     12617     12615     12643     12615     12617     12619
     12615     12617     12627     12619     12617     12627     12617     12619     12621
     12617     12619     12631     12621     12619     12631     12619     12621     12623
     12619     12621     12644     12623     12621     12644     12621     12623     12625
     12621     12623     12629     12625     12623     12629     12581     12625     12623
     12581     12625     12627     12623     12625     12627     12587     12627     12617
     12587     12627     12625     12617     12627     12625     12623     12629     12645
     12619     12631     12633     12619     12631     12635     12619     12631     12637
     12633     12631     12635     12633     12631     12637     12635     12631     12637
     12668     12666     12710     12668     12666     12724     12710     12666     12724
     12666     12668     12670     12666     12668     12725     12670     12668     12725
     12668     12670     12672     12668     12670     12680     12672     12670     12680
     12670     12672     12674     12670     12672     12712     12674     12672     12712
     12672     12674     12676     12672     12674     12698     12676     12674     12698
     12674     12676     12678     12674     12676     12690     12678     12676     12690
     12676     12678     12680     12676     12678     12726     12680     12678     12726
     12670     12680     12678     12670     12680     12682     12678     12680     12682
     12680     12682     12684     12680     12682     12686     12680     12682     12688
     12684     12682     12686     12684     12682     12688     12686     12682     12688
     12676     12690     12692     12676     12690     12694     12676     12690     12696
     12692     12690     12694     12692     12690     12696     12694     12690     12696
     12674     12698     12700     12674     12698     12727     12700     12698     12727
     12698     12700     12702     12698     12700     12728     12702     12700     12728
     12700     12702     12704     12700     12702     12712     12704     12702     12712
     12702     12704     12706     12702     12704     12716     12706     12704     12716
     12704     12706     12708     12704     12706     12729     12708     12706     12729
     12706     12708     12710     12706     12708     12714     12710     12708     12714
     12666     12710     12708     12666     12710     12712     12708     12710     12712
     12672     12712     12702     12672     12712     12710     12702     12712     12710
     12708     12714     12730     12704     12716     12718     12704     12716     12720
     12704     12716     12722     12718     12716     12720     12718     12716     12722
     12720     12716     12722     12753     12751     12795     12753     12751     12809
     12795     12751     12809     12751     12753     12755     12751     12753     12810
     12755     12753     12810     12753     12755     12757     12753     12755     12765
     12757     12755     12765     12755     12757     12759     12755     12757     12797
     12759     12757     12797     12757     12759     12761     12757     12759     12783
     12761     12759     12783     12759     12761     12763     12759     12761     12775
     12763     12761     12775     12761     12763     12765     12761     12763     12811
     12765     12763     12811     12755     12765     12763     12755     12765     12767
     12763     12765     12767     12765     12767     12769     12765     12767     12771
     12765     12767     12773     12769     12767     12771     12769     12767     12773
     12771     12767     12773     12761     12775     12777     12761     12775     12779
     12761     12775     12781     12777     12775     12779     12777     12775     12781
     12779     12775     12781     12759     12783     12785     12759     12783     12812
     12785     12783     12812     12783     12785     12787     12783     12785     12813
     12787     12785     12813     12785     12787     12789     12785     12787     12797
     12789     12787     12797     12787     12789     12791     12787     12789     12801
     12791     12789     12801     12789     12791     12793     12789     12791     12814
     12793     12791     12814     12791     12793     12795     12791     12793     12799
     12795     12793     12799     12751     12795     12793     12751     12795     12797
     12793     12795     12797     12757     12797     12787     12757     12797     12795
     12787     12797     12795     12793     12799     12815     12789     12801     12803
     12789     12801     12805     12789     12801     12807     12803     12801     12805
     12803     12801     12807     12805     12801     12807     12838     12836     12880
     12838     12836     12894     12880     12836     12894     12836     12838     12840
     12836     12838     12895     12840     12838     12895     12838     12840     12842
     12838     12840     12850     12842     12840     12850     12840     12842     12844
     12840     12842     12882     12844     12842     12882     12842     12844     12846
     12842     12844     12868     12846     12844     12868     12844     12846     12848
     12844     12846     12860     12848     12846     12860     12846     12848     12850
     12846     12848     12896     12850     12848     12896     12840     12850     12848
     12840     12850     12852     12848     12850     12852     12850     12852     12854
     12850     12852     12856     12850     12852     12858     12854     12852     12856
     12854     12852     12858     12856     12852     12858     12846     12860     12862
     12846     12860     12864     12846     12860     12866     12862     12860     12864
     12862     12860     12866     12864     12860     12866     12844     12868     12870
     12844     12868     12897     12870     12868     12897     12868     12870     12872
     12868     12870     12898     12872     12870     12898     12870     12872     12874
     12870     12872     12882     12874     12872     12882     12872     12874     12876
     12872     12874     12886     12876     12874     12886     12874     12876     12878
     12874     12876     12899     12878     12876     12899     12876     12878     12880
     12876     12878     12884     12880     12878     12884     12836     12880     12878
     12836     12880     12882     12878     12880     12882     12842     12882     12872
     12842     12882     12880     12872     12882     12880     12878     12884     12900
     12874     12886     12888     12874     12886     12890     12874     12886     12892
     12888     12886     12890     12888     12886     12892     12890     12886     12892
     12923     12921     12965     12923     12921     12979     12965     12921     12979
     12921     12923     12925     12921     12923     12980     12925     12923     12980
     12923     12925     12927     12923     12925     12935     12927     12925     12935
     12925     12927     12929     12925     12927     12967     12929     12927     12967
     12927     12929     12931     12927     12929     12953     12931     12929     12953
     12929     12931     12933     12929     12931     12945     12933     12931     12945
     12931     12933     12935     12931     12933     12981     12935     12933     12981
     12925     12935     12933     12925     12935     12937     12933     12935     12937
     12935     12937     12939     12935     12937     12941     12935     12937     12943
     12939     12937     12941     12939     12937     12943     12941     12937     12943
     12931     12945     12947     12931     12945     12949     12931     12945     12951
     12947     12945     12949     12947     12945     12951     12949     12945     12951
     12929     12953     12955     12929     12953     12982     12955     12953     12982
     12953     12955     12957     12953     12955     12983     12957     12955     12983
     12955     12957     12959     12955     12957     12967     12959     12957     12967
     12957     12959     12961     12957     12959     12971     12961     12959     12971
     12959     12961     12963     12959     12961     12984     12963     12961     12984
     12961     12963     12965     12961     12963     12969     12965     12963     12969
     12921     12965     12963     12921     12965     12967     12963     12965     12967
     12927     12967     12957     12927     12967     12965     12957     12967     12965
     12963     12969     12985     12959     12971     12973     12959     12971     12975
     12959     12971     12977     12973     12971     12975     12973     12971     12977
     12975     12971     12977     13008     13006     13050     13008     13006     13064
     13050     13006     13064     13006     13008     13010     13006     13008     13065
     13010     13008     13065     13008     13010     13012     13008     13010     13020
     13012     13010     13020     13010     13012     13014     13010     13012     13052
     13014     13012     13052     13012     13014     13016     13012     13014     13038
     13016     13014     13038     13014     13016     13018     13014     13016     13030
     13018     13016     13030     13016     13018     13020     13016     13018     13066
     13020     13018     13066     13010     13020     13018     13010     13020     13022
     13018     13020     13022     13020     13022     13024     13020     13022     13026
     13020     13022     13028     13024     13022     13026     13024     13022     13028
     13026     13022     13028     13016     13030     13032     13016     13030     13034
     13016     13030     13036     13032     13030     13034     13032     13030     13036
     13034     13030     13036     13014     13038     13040     13014     13038     13067
     13040     13038     13067     13038     13040     13042     13038     13040     13068
     13042     13040     13068     13040     13042     13044     13040     13042     13052
     13044     13042     13052     13042     13044     13046     13042     13044     13056
     13046     13044     13056     13044     13046     13048     13044     13046     13069
     13048     13046     13069     13046     13048     13050     13046     13048     13054
     13050     13048     13054     13006     13050     13048     13006     13050     13052
     13048     13050     13052     13012     13052     13042     13012     13052     13050
     13042     13052     13050     13048     13054     13070     13044     13056     13058
     13044     13056     13060     13044     13056     13062     13058     13056     13060
     13058     13056     13062     13060     13056     13062     13093     13091     13135
     13093     13091     13149     13135     13091     13149     13091     13093     13095
     13091     13093     13150     13095     13093     13150     13093     13095     13097
     13093     13095     13105     13097     13095     13105     13095     13097     13099
     13095     13097     13137     13099     13097     13137     13097     13099     13101
     13097     13099     13123     13101     13099     13123     13099     13101     13103
     13099     13101     13115     13103     13101     13115     13101     13103     13105
     13101     13103     13151     13105     13103     13151     13095     13105     13103
     13095     13105     13107     13103     13105     13107     13105     13107     13109
     13105     13107     13111     13105     13107     13113     13109     13107     13111
     13109     13107     13113     13111     13107     13113     13101     13115     13117
     13101     13115     13119     13101     13115     13121     13117     13115     13119
     13117     13115     13121     13119     13115     13121     13099     13123     13125
     13099     13123     13152     13125     13123     13152     13123     13125     13127
     13123     13125     13153     13127     13125     13153     13125     13127     13129
     13125     13127     13137     13129     13127     13137     13127     13129     13131
     13127     13129     13141     13131     13129     13141     13129     13131     13133
     13129     13131     13154     13133     13131     13154     13131     13133     13135
     13131     13133     13139     13135     13133     13139     13091     13135     13133
     13091     13135     13137     13133     13135     13137     13097     13137     13127
     13097     13137     13135     13127     13137     13135     13133     13139     13155
     13129     13141     13143     13129     13141     13145     13129     13141     13147
     13143     13141     13145     13143     13141     13147     13145     13141     13147
     13178     13176     13220     13178     13176     13234     13220     13176     13234
     13176     13178     13180     13176     13178     13235     13180     13178     13235
     13178     13180     13182     13178     13180     13190     13182     13180     13190
     13180     13182     13184     13180     13182     13222     13184     13182     13222
     13182     13184     13186     13182     13184     13208     13186     13184     13208
     13184     13186     13188     13184     13186     13200     13188     13186     13200
     13186     13188     13190     13186     13188     13236     13190     13188     13236
     13180     13190     13188     13180     13190     13192     13188     13190     13192
     13190     13192     13194     13190     13192     13196     13190     13192     13198
     13194     13192     13196     13194     13192     13198     13196     13192     13198
     13186     13200     13202     13186     13200     13204     13186     13200     13206
     13202     13200     13204     13202     13200     13206     13204     13200     13206
     13184     13208     13210     13184     13208     13237     13210     13208     13237
     13208     13210     13212     13208     13210     13238     13212     13210     13238
     13210     13212     13214     13210     13212     13222     13214     13212     13222
     13212     13214     13216     13212     13214     13226     13216     13214     13226
     13214     13216     13218     13214     13216     13239     13218     13216     13239
     13216     13218     13220     13216     13218     13224     13220     13218     13224
     13176     13220     13218     13176     13220     13222     13218     13220     13222
     13182     13222     13212     13182     13222     13220     13212     13222     13220
     13218     13224     13240     13214     13226     13228     13214     13226     13230
     13214     13226     13232     13228     13226     13230     13228     13226     13232
     13230     13226     13232     13263     13261     13305     13263     13261     13319
     13305     13261     13319     13261     13263     13265     13261     13263     13320
     13265     13263     13320     13263     13265     13267     13263     13265     13275
     13267     13265     13275     13265     13267     13269     13265     13267     13307
     13269     13267     13307     13267     13269     13271     13267     13269     13293
     13271     13269     13293     13269     13271     13273     13269     13271     13285
     13273     13271     13285     13271     13273     13275     13271     13273     13321
     13275     13273     13321     13265     13275     13273     13265     13275     13277
     13273     13275     13277     13275     13277     13279     13275     13277     13281
     13275     13277     13283     13279     13277     13281     13279     13277     13283
     13281     13277     13283     13271     13285     13287     13271     13285     13289
     13271     13285     13291     13287     13285     13289     13287     13285     13291
     13289     13285     13291     13269     13293     13295     13269     13293     13322
     13295     13293     13322     13293     13295     13297     13293     13295     13323
     13297     13295     13323     13295     13297     13299     13295     13297     13307
     13299     13297     13307     13297     13299     13301     13297     13299     13311
     13301     13299     13311     13299     13301     13303     13299     13301     13324
     13303     13301     13324     13301     13303     13305     13301     13303     13309
     13305     13303     13309     13261     13305     13303     13261     13305     13307
     13303     13305     13307     13267     13307     13297     13267     13307     13305
     13297     13307     13305     13303     13309     13325     13299     13311     13313
     13299     13311     13315     13299     13311     13317     13313     13311     13315
     13313     13311     13317     13315     13311     13317     13348     13346     13390
     13348     13346     13404     13390     13346     13404     13346     13348     13350
     13346     13348     13405     13350     13348     13405     13348     13350     13352
     13348     13350     13360     13352     13350     13360     13350     13352     13354
     13350     13352     13392     13354     13352     13392     13352     13354     13356
     13352     13354     13378     13356     13354     13378     13354     13356     13358
     13354     13356     13370     13358     13356     13370     13356     13358     13360
     13356     13358     13406     13360     13358     13406     13350     13360     13358
     13350     13360     13362     13358     13360     13362     13360     13362     13364
     13360     13362     13366     13360     13362     13368     13364     13362     13366
     13364     13362     13368     13366     13362     13368     13356     13370     13372
     13356     13370     13374     13356     13370     13376     13372     13370     13374
     13372     13370     13376     13374     13370     13376     13354     13378     13380
     13354     13378     13407     13380     13378     13407     13378     13380     13382
     13378     13380     13408     13382     13380     13408     13380     13382     13384
     13380     13382     13392     13384     13382     13392     13382     13384     13386
     13382     13384     13396     13386     13384     13396     13384     13386     13388
     13384     13386     13409     13388     13386     13409     13386     13388     13390
     13386     13388     13394     13390     13388     13394     13346     13390     13388
     13346     13390     13392     13388     13390     13392     13352     13392     13382
     13352     13392     13390     13382     13392     13390     13388     13394     13410
     13384     13396     13398     13384     13396     13400     13384     13396     13402
     13398     13396     13400     13398     13396     13402     13400     13396     13402
     13433     13431     13475     13433     13431     13489     13475     13431     13489
     13431     13433     13435     13431     13433     13490     13435     13433     13490
     13433     13435     13437     13433     13435     13445     13437     13435     13445
     13435     13437     13439     13435     13437     13477     13439     13437     13477
     13437     13439     13441     13437     13439     13463     13441     13439     13463
     13439     13441     13443     13439     13441     13455     13443     13441     13455
     13441     13443     13445     13441     13443     13491     13445     13443     13491
     13435     13445     13443     13435     13445     13447     13443     13445     13447
     13445     13447     13449     13445     13447     13451     13445     13447     13453
     13449     13447     13451     13449     13447     13453     13451     13447     13453
     13441     13455     13457     13441     13455     13459     13441     13455     13461
     13457     13455     13459     13457     13455     13461     13459     13455     13461
     13439     13463     13465     13439     13463     13492     13465     13463     13492
     13463     13465     13467     13463     13465     13493     13467     13465     13493
     13465     13467     13469     13465     13467     13477     13469     13467     13477
     13467     13469     13471     13467     13469     13481     13471     13469     13481
     13469     13471     13473     13469     13471     13494     13473     13471     13494
     13471     13473     13475     13471     13473     13479     13475     13473     13479
     13431     13475     13473     13431     13475     13477     13473     13475     13477
     13437     13477     13467     13437     13477     13475     13467     13477     13475
     13473     13479     13495     13469     13481     13483     13469     13481     13485
     13469     13481     13487     13483     13481     13485     13483     13481     13487
     13485     13481     13487     13518     13516     13560     13518     13516     13574
     13560     13516     13574     13516     13518     13520     13516     13518     13575
     13520     13518     13575     13518     13520     13522     13518     13520     13530
     13522     13520     13530     13520     13522     13524     13520     13522     13562
     13524     13522     13562     13522     13524     13526     13522     13524     13548
     13526     13524     13548     13524     13526     13528     13524     13526     13540
     13528     13526     13540     13526     13528     13530     13526     13528     13576
     13530     13528     13576     13520     13530     13528     13520     13530     13532
     13528     13530     13532     13530     13532     13534     13530     13532     13536
     13530     13532     13538     13534     13532     13536     13534     13532     13538
     13536     13532     13538     13526     13540     13542     13526     13540     13544
     13526     13540     13546     13542     13540     13544     13542     13540     13546
     13544     13540     13546     13524     13548     13550     13524     13548     13577
     13550     13548     13577     13548     13550     13552     13548     13550     13578
     13552     13550     13578     13550     13552     13554     13550     13552     13562
     13554     13552     13562     13552     13554     13556     13552     13554     13566
     13556     13554     13566     13554     13556     13558     13554     13556     13579
     13558     13556     13579     13556     13558     13560     13556     13558     13564
     13560     13558     13564     13516     13560     13558     13516     13560     13562
     13558     13560     13562     13522     13562     13552     13522     13562     13560
     13552     13562     13560     13558     13564     13580     13554     13566     13568
     13554     13566     13570     13554     13566     13572     13568     13566     13570
     13568     13566     13572     13570     13566     13572     13603     13601     13645
     13603     13601     13659     13645     13601     13659     13601     13603     13605
     13601     13603     13660     13605     13603     13660     13603     13605     13607
     13603     13605     13615     13607     13605     13615     13605     13607     13609
     13605     13607     13647     13609     13607     13647     13607     13609     13611
     13607     13609     13633     13611     13609     13633     13609     13611     13613
     13609     13611     13625     13613     13611     13625     13611     13613     13615
     13611     13613     13661     13615     13613     13661     13605     13615     13613
     13605     13615     13617     13613     13615     13617     13615     13617     13619
     13615     13617     13621     13615     13617     13623     13619     13617     13621
     13619     13617     13623     13621     13617     13623     13611     13625     13627
     13611     13625     13629     13611     13625     13631     13627     13625     13629
     13627     13625     13631     13629     13625     13631     13609     13633     13635
     13609     13633     13662     13635     13633     13662     13633     13635     13637
     13633     13635     13663     13637     13635     13663     13635     13637     13639
     13635     13637     13647     13639     13637     13647     13637     13639     13641
     13637     13639     13651     13641     13639     13651     13639     13641     13643
     13639     13641     13664     13643     13641     13664     13641     13643     13645
     13641     13643     13649     13645     13643     13649     13601     13645     13643
     13601     13645     13647     13643     13645     13647     13607     13647     13637
     13607     13647     13645     13637     13647     13645     13643     13649     13665
     13639     13651     13653     13639     13651     13655     13639     13651     13657
     13653     13651     13655     13653     13651     13657     13655     13651     13657
     13688     13686     13730     13688     13686     13744     13730     13686     13744
     13686     13688     13690     13686     13688     13745     13690     13688     13745
     13688     13690     13692     13688     13690     13700     13692     13690     13700
     13690     13692     13694     13690     13692     13732     13694     13692     13732
     13692     13694     13696     13692     13694     13718     13696     13694     13718
     13694     13696     13698     13694     13696     13710     13698     13696     13710
     13696     13698     13700     13696     13698     13746     13700     13698     13746
     13690     13700     13698     13690     13700     13702     13698     13700     13702
     13700     13702     13704     13700     13702     13706     13700     13702     13708
     13704     13702     13706     13704     13702     13708     13706     13702     13708
     13696     13710     13712     13696     13710     13714     13696     13710     13716
     13712     13710     13714     13712     13710     13716     13714     13710     13716
     13694     13718     13720     13694     13718     13747     13720     13718     13747
     13718     13720     13722     13718     13720     13748     13722     13720     13748
     13720     13722     13724     13720     13722     13732     13724     13722     13732
     13722     13724     13726     13722     13724     13736     13726     13724     13736
     13724     13726     13728     13724     13726     13749     13728     13726     13749
     13726     13728     13730     13726     13728     13734     13730     13728     13734
     13686     13730     13728     13686     13730     13732     13728     13730     13732
     13692     13732     13722     13692     13732     13730     13722     13732     13730
     13728     13734     13750     13724     13736     13738     13724     13736     13740
     13724     13736     13742     13738     13736     13740     13738     13736     13742
     13740     13736     13742     13773     13771     13777     13773     13771     13778
     13773     13771     13779     13777     13771     13778     13777     13771     13779
     13778     13771     13779     13771     13773     13775     13771     13773     13776
     13775     13773     13776     13784     13782     13788     13784     13782     13789
     13784     13782     13790     13788     13782     13789     13788     13782     13790
     13789     13782     13790     13782     13784     13786     13782     13784     13787
     13786     13784     13787     13795     13793     13799     13795     13793     13800
     13795     13793     13801     13799     13793     13800     13799     13793     13801
     13800     13793     13801     13793     13795     13797     13793     13795     13798
     13797     13795     13798     13806     13804     13810     13806     13804     13811
     13806     13804     13812     13810     13804     13811     13810     13804     13812
     13811     13804     13812     13804     13806     13808     13804     13806     13809
     13808     13806     13809     13817     13815     13821     13817     13815     13822
     13817     13815     13823     13821     13815     13822     13821     13815     13823
     13822     13815     13823     13815     13817     13819     13815     13817     13820
     13819     13817     13820     13828     13826     13832     13828     13826     13833
     13828     13826     13834     13832     13826     13833     13832     13826     13834
     13833     13826     13834     13826     13828     13830     13826     13828     13831
     13830     13828     13831     13839     13837     13843     13839     13837     13844
     13839     13837     13845     13843     13837     13844     13843     13837     13845
     13844     13837     13845     13837     13839     13841     13837     13839     13842
     13841     13839     13842     13850     13848     13854     13850     13848     13855
     13850     13848     13856     13854     13848     13855     13854     13848     13856
     13855     13848     13856     13848     13850     13852     13848     13850     13853
     13852     13850     13853     13861     13859     13865     13861     13859     13866
     13861     13859     13867     13865     13859     13866     13865     13859     13867
     13866     13859     13867     13859     13861     13863     13859     13861     13864
     13863     13861     13864     13872     13870     13876     13872     13870     13877
     13872     13870     13878     13876     13870     13877     13876     13870     13878
     13877     13870     13878     13870     13872     13874     13870     13872     13875
     13874     13872     13875     13883     13881     13887     13883     13881     13888
     13883     13881     13889     13887     13881     13888     13887     13881     13889
     13888     13881     13889     13881     13883     13885     13881     13883     13886
     13885     13883     13886     13894     13892     13898     13894     13892     13899
     13894     13892     13900     13898     13892     13899     13898     13892     13900
     13899     13892     13900     13892     13894     13896     13892     13894     13897
     13896     13894     13897     13905     13903     13909     13905     13903     13910
     13905     13903     13911     13909     13903     13910     13909     13903     13911
     13910     13903     13911     13903     13905     13907     13903     13905     13908
     13907     13905     13908     13916     13914     13920     13916     13914     13921
     13916     13914     13922     13920     13914     13921     13920     13914     13922
     13921     13914     13922     13914     13916     13918     13914     13916     13919
     13918     13916     13919     13927     13925     13931     13927     13925     13932
     13927     13925     13933     13931     13925     13932     13931     13925     13933
     13932     13925     13933     13925     13927     13929     13925     13927     13930
     13929     13927     13930     13938     13936     13942     13938     13936     13943
     13938     13936     13944     13942     13936     13943     13942     13936     13944
     13943     13936     13944     13936     13938     13940     13936     13938     13941
     13940     13938     13941     13949     13947     13953     13949     13947     13954
     13949     13947     13955     13953     13947     13954     13953     13947     13955
     13954     13947     13955     13947     13949     13951     13947     13949     13952
     13951     13949     13952     13960     13958     13964     13960     13958     13965
     13960     13958     13966     13964     13958     13965     13964     13958     13966
     13965     13958     13966     13958     13960     13962     13958     13960     13963
     13962     13960     13963     13971     13969     13975     13971     13969     13976
     13971     13969     13977     13975     13969     13976     13975     13969     13977
     13976     13969     13977     13969     13971     13973     13969     13971     13974
     13973     13971     13974     13982     13980     13986     13982     13980     13987
     13982     13980     13988     13986     13980     13987     13986     13980     13988
     13987     13980     13988     13980     13982     13984     13980     13982     13985
     13984     13982     13985     13993     13991     13997     13993     13991     13998
     13993     13991     13999     13997     13991     13998     13997     13991     13999
     13998     13991     13999     13991     13993     13995     13991     13993     13996
     13995     13993     13996     14004     14002     14008     14004     14002     14009
     14004     14002     14010     14008     14002     14009     14008     14002     14010
     14009     14002     14010     14002     14004     14006     14002     14004     14007
     14006     14004     14007     14015     14013     14019     14015     14013     14020
     14015     14013     14021     14019     14013     14020     14019     14013     14021
     14020     14013     14021     14013     14015     14017     14013     14015     14018
     14017     14015     14018     14026     14024     14030     14026     14024     14031
     14026     14024     14032     14030     14024     14031     14030     14024     14032
     14031     14024     14032     14024     14026     14028     14024     14026     14029
     14028     14026     14029     14037     14035     14041     14037     14035     14042
     14037     14035     14043     14041     14035     14042     14041     14035     14043
     14042     14035     14043     14035     14037     14039     14035     14037     14040
     14039     14037     14040     14048     14046     14052     14048     14046     14053
     14048     14046     14054     14052     14046     14053     14052     14046     14054
     14053     14046     14054     14046     14048     14050     14046     14048     14051
     14050     14048     14051     14059     14057     14063     14059     14057     14064
     14059     14057     14065     14063     14057     14064     14063     14057     14065
     14064     14057     14065     14057     14059     14061     14057     14059     14062
     14061     14059     14062     14070     14068     14074     14070     14068     14075
     14070     14068     14076     14074     14068     14075     14074     14068     14076
     14075     14068     14076     14068     14070     14072     14068     14070     14073
     14072     14070     14073     14081     14079     14085     14081     14079     14086
     14081     14079     14087     14085     14079     14086     14085     14079     14087
     14086     14079     14087     14079     14081     14083     14079     14081     14084
     14083     14081     14084     14092     14090     14096     14092     14090     14097
     14092     14090     14098     14096     14090     14097     14096     14090     14098
     14097     14090     14098     14090     14092     14094     14090     14092     14095
     14094     14092     14095     14103     14101     14107     14103     14101     14108
     14103     14101     14109     14107     14101     14108     14107     14101     14109
     14108     14101     14109     14101     14103     14105     14101     14103     14106
     14105     14103     14106     14114     14112     14118     14114     14112     14119
     14114     14112     14120     14118     14112     14119     14118     14112     14120
     14119     14112     14120     14112     14114     14116     14112     14114     14117
     14116     14114     14117     14125     14123     14129     14125     14123     14130
     14125     14123     14131     14129     14123     14130     14129     14123     14131
     14130     14123     14131     14123     14125     14127     14123     14125     14128
     14127     14125     14128     14136     14134     14140     14136     14134     14141
     14136     14134     14142     14140     14134     14141     14140     14134     14142
     14141     14134     14142     14134     14136     14138     14134     14136     14139
     14138     14136     14139     14147     14145     14151     14147     14145     14152
     14147     14145     14153     14151     14145     14152     14151     14145     14153
     14152     14145     14153     14145     14147     14149     14145     14147     14150
     14149     14147     14150     14158     14156     14162     14158     14156     14163
     14158     14156     14164     14162     14156     14163     14162     14156     14164
     14163     14156     14164     14156     14158     14160     14156     14158     14161
     14160     14158     14161     14169     14167     14173     14169     14167     14174
     14169     14167     14175     14173     14167     14174     14173     14167     14175
     14174     14167     14175     14167     14169     14171     14167     14169     14172
     14171     14169     14172     14180     14178     14184     14180     14178     14185
     14180     14178     14186     14184     14178     14185     14184     14178     14186
     14185     14178     14186     14178     14180     14182     14178     14180     14183
     14182     14180     14183     14191     14189     14195     14191     14189     14196
     14191     14189     14197     14195     14189     14196     14195     14189     14197
     14196     14189     14197     14189     14191     14193     14189     14191     14194
     14193     14191     14194     14202     14200     14206     14202     14200     14207
     14202     14200     14208     14206     14200     14207     14206     14200     14208
     14207     14200     14208     14200     14202     14204     14200     14202     14205
     14204     14202     14205     14213     14211     14217     14213     14211     14218
     14213     14211     14219     14217     14211     14218     14217     14211     14219
     14218     14211     14219     14211     14213     14215     14211     14213     14216
     14215     14213     14216     14224     14222     14228     14224     14222     14229
     14224     14222     14230     14228     14222     14229     14228     14222     14230
     14229     14222     14230     14222     14224     14226     14222     14224     14227
     14226     14224     14227     14235     14233     14239     14235     14233     14240
     14235     14233     14241     14239     14233     14240     14239     14233     14241
     14240     14233     14241     14233     14235     14237     14233     14235     14238
     14237     14235     14238     14246     14244     14250     14246     14244     14251
     14246     14244     14252     14250     14244     14251     14250     14244     14252
     14251     14244     14252     14244     14246     14248     14244     14246     14249
     14248     14246     14249     14257     14255     14261     14257     14255     14262
     14257     14255     14263     14261     14255     14262     14261     14255     14263
     14262     14255     14263     14255     14257     14259     14255     14257     14260
     14259     14257     14260     14268     14266     14272     14268     14266     14273
     14268     14266     14274     14272     14266     14273     14272     14266     14274
     14273     14266     14274     14266     14268     14270     14266     14268     14271
     14270     14268     14271     14279     14277     14283     14279     14277     14284
     14279     14277     14285     14283     14277     14284     14283     14277     14285
     14284     14277     14285     14277     14279     14281     14277     14279     14282
     14281     14279     14282     14290     14288     14294     14290     14288     14295
     14290     14288     14296     14294     14288     14295     14294     14288     14296
     14295     14288     14296     14288     14290     14292     14288     14290     14293
     14292     14290     14293     14301     14299     14305     14301     14299     14306
     14301     14299     14307     14305     14299     14306     14305     14299     14307
     14306     14299     14307     14299     14301     14303     14299     14301     14304
     14303     14301     14304     14312     14310     14316     14312     14310     14317
     14312     14310     14318     14316     14310     14317     14316     14310     14318
     14317     14310     14318     14310     14312     14314     14310     14312     14315
     14314     14312     14315     14323     14321     14327     14323     14321     14328
     14323     14321     14329     14327     14321     14328     14327     14321     14329
     14328     14321     14329     14321     14323     14325     14321     14323     14326
     14325     14323     14326     14334     14332     14338     14334     14332     14339
     14334     14332     14340     14338     14332     14339     14338     14332     14340
     14339     14332     14340     14332     14334     14336     14332     14334     14337
     14336     14334     14337     14345     14343     14349     14345     14343     14350
     14345     14343     14351     14349     14343     14350     14349     14343     14351
     14350     14343     14351     14343     14345     14347     14343     14345     14348
     14347     14345     14348     14356     14354     14360     14356     14354     14361
     14356     14354     14362     14360     14354     14361     14360     14354     14362
     14361     14354     14362     14354     14356     14358     14354     14356     14359
     14358     14356     14359     14367     14365     14371     14367     14365     14372
     14367     14365     14373     14371     14365     14372     14371     14365     14373
     14372     14365     14373     14365     14367     14369     14365     14367     14370
     14369     14367     14370     14378     14376     14382     14378     14376     14383
     14378     14376     14384     14382     14376     14383     14382     14376     14384
     14383     14376     14384     14376     14378     14380     14376     14378     14381
     14380     14378     14381     14389     14387     14393     14389     14387     14394
     14389     14387     14395     14393     14387     14394     14393     14387     14395
     14394     14387     14395     14387     14389     14391     14387     14389     14392
     14391     14389     14392     14400     14398     14404     14400     14398     14405
     14400     14398     14406     14404     14398     14405     14404     14398     14406
     14405     14398     14406     14398     14400     14402     14398     14400     14403
     14402     14400     14403     14411     14409     14415     14411     14409     14416
     14411     14409     14417     14415     14409     14416     14415     14409     14417
     14416     14409     14417     14409     14411     14413     14409     14411     14414
     14413     14411     14414     14422     14420     14426     14422     14420     14427
     14422     14420     14428     14426     14420     14427     14426     14420     14428
     14427     14420     14428     14420     14422     14424     14420     14422     14425
     14424     14422     14425     14433     14431     14437     14433     14431     14438
     14433     14431     14439     14437     14431     14438     14437     14431     14439
     14438     14431     14439     14431     14433     14435     14431     14433     14436
     14435     14433     14436     14444     14442     14448     14444     14442     14449
     14444     14442     14450     14448     14442     14449     14448     14442     14450
     14449     14442     14450     14442     14444     14446     14442     14444     14447
     14446     14444     14447     14455     14453     14459     14455     14453     14460
     14455     14453     14461     14459     14453     14460     14459     14453     14461
     14460     14453     14461     14453     14455     14457     14453     14455     14458
     14457     14455     14458     14466     14464     14470     14466     14464     14471
     14466     14464     14472     14470     14464     14471     14470     14464     14472
     14471     14464     14472     14464     14466     14468     14464     14466     14469
     14468     14466     14469     14477     14475     14481     14477     14475     14482
     14477     14475     14483     14481     14475     14482     14481     14475     14483
     14482     14475     14483     14475     14477     14479     14475     14477     14480
     14479     14477     14480     14488     14486     14492     14488     14486     14493
     14488     14486     14494     14492     14486     14493     14492     14486     14494
     14493     14486     14494     14486     14488     14490     14486     14488     14491
     14490     14488     14491     14499     14497     14503     14499     14497     14504
     14499     14497     14505     14503     14497     14504     14503     14497     14505
     14504     14497     14505     14497     14499     14501     14497     14499     14502
     14501     14499     14502     14510     14508     14514     14510     14508     14515
     14510     14508     14516     14514     14508     14515     14514     14508     14516
     14515     14508     14516     14508     14510     14512     14508     14510     14513
     14512     14510     14513     14521     14519     14525     14521     14519     14526
     14521     14519     14527     14525     14519     14526     14525     14519     14527
     14526     14519     14527     14519     14521     14523     14519     14521     14524
     14523     14521     14524     14532     14530     14536     14532     14530     14537
     14532     14530     14538     14536     14530     14537     14536     14530     14538
     14537     14530     14538     14530     14532     14534     14530     14532     14535
     14534     14532     14535     14543     14541     14547     14543     14541     14548
     14543     14541     14549     14547     14541     14548     14547     14541     14549
     14548     14541     14549     14541     14543     14545     14541     14543     14546
     14545     14543     14546     14554     14552     14558     14554     14552     14559
     14554     14552     14560     14558     14552     14559     14558     14552     14560
     14559     14552     14560     14552     14554     14556     14552     14554     14557
     14556     14554     14557     14565     14563     14569     14565     14563     14570
     14565     14563     14571     14569     14563     14570     14569     14563     14571
     14570     14563     14571     14563     14565     14567     14563     14565     14568
     14567     14565     14568     14576     14574     14580     14576     14574     14581
     14576     14574     14582     14580     14574     14581     14580     14574     14582
     14581     14574     14582     14574     14576     14578     14574     14576     14579
     14578     14576     14579     14587     14585     14591     14587     14585     14592
     14587     14585     14593     14591     14585     14592     14591     14585     14593
     14592     14585     14593     14585     14587     14589     14585     14587     14590
     14589     14587     14590     14598     14596     14602     14598     14596     14603
     14598     14596     14604     14602     14596     14603     14602     14596     14604
     14603     14596     14604     14596     14598     14600     14596     14598     14601
     14600     14598     14601     14609     14607     14613     14609     14607     14614
     14609     14607     14615     14613     14607     14614     14613     14607     14615
     14614     14607     14615     14607     14609     14611     14607     14609     14612
     14611     14609     14612     14620     14618     14624     14620     14618     14625
     14620     14618     14626     14624     14618     14625     14624     14618     14626
     14625     14618     14626     14618     14620     14622     14618     14620     14623
     14622     14620     14623     14631     14629     14635     14631     14629     14636
     14631     14629     14637     14635     14629     14636     14635     14629     14637
     14636     14629     14637     14629     14631     14633     14629     14631     14634
     14633     14631     14634     14642     14640     14646     14642     14640     14647
     14642     14640     14648     14646     14640     14647     14646     14640     14648
     14647     14640     14648     14640     14642     14644     14640     14642     14645
     14644     14642     14645     14653     14651     14657     14653     14651     14658
     14653     14651     14659     14657     14651     14658     14657     14651     14659
     14658     14651     14659     14651     14653     14655     14651     14653     14656
     14655     14653     14656     14664     14662     14668     14664     14662     14669
     14664     14662     14670     14668     14662     14669     14668     14662     14670
     14669     14662     14670     14662     14664     14666     14662     14664     14667
     14666     14664     14667     14675     14673     14679     14675     14673     14680
     14675     14673     14681     14679     14673     14680     14679     14673     14681
     14680     14673     14681     14673     14675     14677     14673     14675     14678
     14677     14675     14678     14686     14684     14690     14686     14684     14691
     14686     14684     14692     14690     14684     14691     14690     14684     14692
     14691     14684     14692     14684     14686     14688     14684     14686     14689
     14688     14686     14689     14697     14695     14701     14697     14695     14702
     14697     14695     14703     14701     14695     14702     14701     14695     14703
     14702     14695     14703     14695     14697     14699     14695     14697     14700
     14699     14697     14700     14708     14706     14712     14708     14706     14713
     14708     14706     14714     14712     14706     14713     14712     14706     14714
     14713     14706     14714     14706     14708     14710     14706     14708     14711
     14710     14708     14711     14719     14717     14723     14719     14717     14724
     14719     14717     14725     14723     14717     14724     14723     14717     14725
     14724     14717     14725     14717     14719     14721     14717     14719     14722
     14721     14719     14722     14730     14728     14734     14730     14728     14735
     14730     14728     14736     14734     14728     14735     14734     14728     14736
     14735     14728     14736     14728     14730     14732     14728     14730     14733
     14732     14730     14733     14741     14739     14745     14741     14739     14746
     14741     14739     14747     14745     14739     14746     14745     14739     14747
     14746     14739     14747     14739     14741     14743     14739     14741     14744
     14743     14741     14744     14752     14750     14756     14752     14750     14757
     14752     14750     14758     14756     14750     14757     14756     14750     14758
     14757     14750     14758     14750     14752     14754     14750     14752     14755
     14754     14752     14755     14763     14761     14767     14763     14761     14768
     14763     14761     14769     14767     14761     14768     14767     14761     14769
     14768     14761     14769     14761     14763     14765     14761     14763     14766
     14765     14763     14766     14774     14772     14778     14774     14772     14779
     14774     14772     14780     14778     14772     14779     14778     14772     14780
     14779     14772     14780     14772     14774     14776     14772     14774     14777
     14776     14774     14777     14785     14783     14789     14785     14783     14790
     14785     14783     14791     14789     14783     14790     14789     14783     14791
     14790     14783     14791     14783     14785     14787     14783     14785     14788
     14787     14785     14788     14796     14794     14800     14796     14794     14801
     14796     14794     14802     14800     14794     14801     14800     14794     14802
     14801     14794     14802     14794     14796     14798     14794     14796     14799
     14798     14796     14799     14807     14805     14811     14807     14805     14812
     14807     14805     14813     14811     14805     14812     14811     14805     14813
     14812     14805     14813     14805     14807     14809     14805     14807     14810
     14809     14807     14810     14818     14816     14822     14818     14816     14823
     14818     14816     14824     14822     14816     14823     14822     14816     14824
     14823     14816     14824     14816     14818     14820     14816     14818     14821
     14820     14818     14821     14829     14827     14833     14829     14827     14834
     14829     14827     14835     14833     14827     14834     14833     14827     14835
     14834     14827     14835     14827     14829     14831     14827     14829     14832
     14831     14829     14832     14840     14838     14844     14840     14838     14845
     14840     14838     14846     14844     14838     14845     14844     14838     14846
     14845     14838     14846     14838     14840     14842     14838     14840     14843
     14842     14840     14843     14851     14849     14855     14851     14849     14856
     14851     14849     14857     14855     14849     14856     14855     14849     14857
     14856     14849     14857     14849     14851     14853     14849     14851     14854
     14853     14851     14854     14862     14860     14866     14862     14860     14867
     14862     14860     14868     14866     14860     14867     14866     14860     14868
     14867     14860     14868     14860     14862     14864     14860     14862     14865
     14864     14862     14865     14873     14871     14877     14873     14871     14878
     14873     14871     14879     14877     14871     14878     14877     14871     14879
     14878     14871     14879     14871     14873     14875     14871     14873     14876
     14875     14873     14876     14884     14882     14888     14884     14882     14889
     14884     14882     14890     14888     14882     14889     14888     14882     14890
     14889     14882     14890     14882     14884     14886     14882     14884     14887
     14886     14884     14887     14895     14893     14899     14895     14893     14900
     14895     14893     14901     14899     14893     14900     14899     14893     14901
     14900     14893     14901     14893     14895     14897     14893     14895     14898
     14897     14895     14898     14906     14904     14910     14906     14904     14911
     14906     14904     14912     14910     14904     14911     14910     14904     14912
     14911     14904     14912     14904     14906     14908     14904     14906     14909
     14908     14906     14909     14917     14915     14921     14917     14915     14922
     14917     14915     14923     14921     14915     14922     14921     14915     14923
     14922     14915     14923     14915     14917     14919     14915     14917     14920
     14919     14917     14920     14928     14926     14932     14928     14926     14933
     14928     14926     14934     14932     14926     14933     14932     14926     14934
     14933     14926     14934     14926     14928     14930     14926     14928     14931
     14930     14928     14931     14939     14937     14943     14939     14937     14944
     14939     14937     14945     14943     14937     14944     14943     14937     14945
     14944     14937     14945     14937     14939     14941     14937     14939     14942
     14941     14939     14942     14950     14948     14954     14950     14948     14955
     14950     14948     14956     14954     14948     14955     14954     14948     14956
     14955     14948     14956     14948     14950     14952     14948     14950     14953
     14952     14950     14953     14961     14959     14965     14961     14959     14966
     14961     14959     14967     14965     14959     14966     14965     14959     14967
     14966     14959     14967     14959     14961     14963     14959     14961     14964
     14963     14961     14964     14972     14970     14976     14972     14970     14977
     14972     14970     14978     14976     14970     14977     14976     14970     14978
     14977     14970     14978     14970     14972     14974     14970     14972     14975
     14974     14972     14975     14983     14981     14987     14983     14981     14988
     14983     14981     14989     14987     14981     14988     14987     14981     14989
     14988     14981     14989     14981     14983     14985     14981     14983     14986
     14985     14983     14986     14994     14992     14998     14994     14992     14999
     14994     14992     15000     14998     14992     14999     14998     14992     15000
     14999     14992     15000     14992     14994     14996     14992     14994     14997
     14996     14994     14997     15005     15003     15009     15005     15003     15010
     15005     15003     15011     15009     15003     15010     15009     15003     15011
     15010     15003     15011     15003     15005     15007     15003     15005     15008
     15007     15005     15008     15016     15014     15020     15016     15014     15021
     15016     15014     15022     15020     15014     15021     15020     15014     15022
     15021     15014     15022     15014     15016     15018     15014     15016     15019
     15018     15016     15019     15027     15025     15031     15027     15025     15032
     15027     15025     15033     15031     15025     15032     15031     15025     15033
     15032     15025     15033     15025     15027     15029     15025     15027     15030
     15029     15027     15030     15038     15036     15042     15038     15036     15043
     15038     15036     15044     15042     15036     15043     15042     15036     15044
     15043     15036     15044     15036     15038     15040     15036     15038     15041
     15040     15038     15041     15049     15047     15053     15049     15047     15054
     15049     15047     15055     15053     15047     15054     15053     15047     15055
     15054     15047     15055     15047     15049     15051     15047     15049     15052
     15051     15049     15052     15060     15058     15064     15060     15058     15065
     15060     15058     15066     15064     15058     15065     15064     15058     15066
     15065     15058     15066     15058     15060     15062     15058     15060     15063
     15062     15060     15063     15071     15069     15075     15071     15069     15076
     15071     15069     15077     15075     15069     15076     15075     15069     15077
     15076     15069     15077     15069     15071     15073     15069     15071     15074
     15073     15071     15074     15082     15080     15086     15082     15080     15087
     15082     15080     15088     15086     15080     15087     15086     15080     15088
     15087     15080     15088     15080     15082     15084     15080     15082     15085
     15084     15082     15085     15093     15091     15097     15093     15091     15098
     15093     15091     15099     15097     15091     15098     15097     15091     15099
     15098     15091     15099     15091     15093     15095     15091     15093     15096
     15095     15093     15096     15104     15102     15108     15104     15102     15109
     15104     15102     15110     15108     15102     15109     15108     15102     15110
     15109     15102     15110     15102     15104     15106     15102     15104     15107
     15106     15104     15107     15115     15113     15119     15115     15113     15120
     15115     15113     15121     15119     15113     15120     15119     15113     15121
     15120     15113     15121     15113     15115     15117     15113     15115     15118
     15117     15115     15118     15126     15124     15130     15126     15124     15131
     15126     15124     15132     15130     15124     15131     15130     15124     15132
     15131     15124     15132     15124     15126     15128     15124     15126     15129
     15128     15126     15129     15137     15135     15141     15137     15135     15142
     15137     15135     15143     15141     15135     15142     15141     15135     15143
     15142     15135     15143     15135     15137     15139     15135     15137     15140
     15139     15137     15140     15148     15146     15152     15148     15146     15153
     15148     15146     15154     15152     15146     15153     15152     15146     15154
     15153     15146     15154     15146     15148     15150     15146     15148     15151
     15150     15148     15151     15159     15157     15163     15159     15157     15164
     15159     15157     15165     15163     15157     15164     15163     15157     15165
     15164     15157     15165     15157     15159     15161     15157     15159     15162
     15161     15159     15162     15170     15168     15174     15170     15168     15175
     15170     15168     15176     15174     15168     15175     15174     15168     15176
     15175     15168     15176     15168     15170     15172     15168     15170     15173
     15172     15170     15173     15181     15179     15185     15181     15179     15186
     15181     15179     15187     15185     15179     15186     15185     15179     15187
     15186     15179     15187     15179     15181     15183     15179     15181     15184
     15183     15181     15184     15192     15190     15196     15192     15190     15197
     15192     15190     15198     15196     15190     15197     15196     15190     15198
     15197     15190     15198     15190     15192     15194     15190     15192     15195
     15194     15192     15195     15203     15201     15207     15203     15201     15208
     15203     15201     15209     15207     15201     15208     15207     15201     15209
     15208     15201     15209     15201     15203     15205     15201     15203     15206
     15205     15203     15206     15214     15212     15218     15214     15212     15219
     15214     15212     15220     15218     15212     15219     15218     15212     15220
     15219     15212     15220     15212     15214     15216     15212     15214     15217
     15216     15214     15217     15225     15223     15229     15225     15223     15230
     15225     15223     15231     15229     15223     15230     15229     15223     15231
     15230     15223     15231     15223     15225     15227     15223     15225     15228
     15227     15225     15228     15236     15234     15240     15236     15234     15241
     15236     15234     15242     15240     15234     15241     15240     15234     15242
     15241     15234     15242     15234     15236     15238     15234     15236     15239
     15238     15236     15239     15247     15245     15251     15247     15245     15252
     15247     15245     15253     15251     15245     15252     15251     15245     15253
     15252     15245     15253     15245     15247     15249     15245     15247     15250
     15249     15247     15250     15258     15256     15262     15258     15256     15263
     15258     15256     15264     15262     15256     15263     15262     15256     15264
     15263     15256     15264     15256     15258     15260     15256     15258     15261
     15260     15258     15261     15269     15267     15273     15269     15267     15274
     15269     15267     15275     15273     15267     15274     15273     15267     15275
     15274     15267     15275     15267     15269     15271     15267     15269     15272
     15271     15269     15272     15280     15278     15284     15280     15278     15285
     15280     15278     15286     15284     15278     15285     15284     15278     15286
     15285     15278     15286     15278     15280     15282     15278     15280     15283
     15282     15280     15283     15291     15289     15295     15291     15289     15296
     15291     15289     15297     15295     15289     15296     15295     15289     15297
     15296     15289     15297     15289     15291     15293     15289     15291     15294
     15293     15291     15294     15302     15300     15306     15302     15300     15307
     15302     15300     15308     15306     15300     15307     15306     15300     15308
     15307     15300     15308     15300     15302     15304     15300     15302     15305
     15304     15302     15305     15313     15311     15317     15313     15311     15318
     15313     15311     15319     15317     15311     15318     15317     15311     15319
     15318     15311     15319     15311     15313     15315     15311     15313     15316
     15315     15313     15316     15324     15322     15328     15324     15322     15329
     15324     15322     15330     15328     15322     15329     15328     15322     15330
     15329     15322     15330     15322     15324     15326     15322     15324     15327
     15326     15324     15327     15335     15333     15339     15335     15333     15340
     15335     15333     15341     15339     15333     15340     15339     15333     15341
     15340     15333     15341     15333     15335     15337     15333     15335     15338
     15337     15335     15338     15346     15344     15350     15346     15344     15351
     15346     15344     15352     15350     15344     15351     15350     15344     15352
     15351     15344     15352     15344     15346     15348     15344     15346     15349
     15348     15346     15349     15357     15355     15361     15357     15355     15362
     15357     15355     15363     15361     15355     15362     15361     15355     15363
     15362     15355     15363     15355     15357     15359     15355     15357     15360
     15359     15357     15360     15368     15366     15372     15368     15366     15373
     15368     15366     15374     15372     15366     15373     15372     15366     15374
     15373     15366     15374     15366     15368     15370     15366     15368     15371
     15370     15368     15371     15379     15377     15383     15379     15377     15384
     15379     15377     15385     15383     15377     15384     15383     15377     15385
     15384     15377     15385     15377     15379     15381     15377     15379     15382
     15381     15379     15382     15390     15388     15394     15390     15388     15395
     15390     15388     15396     15394     15388     15395     15394     15388     15396
     15395     15388     15396     15388     15390     15392     15388     15390     15393
     15392     15390     15393     15401     15399     15405     15401     15399     15406
     15401     15399     15407     15405     15399     15406     15405     15399     15407
     15406     15399     15407     15399     15401     15403     15399     15401     15404
     15403     15401     15404     15412     15410     15416     15412     15410     15417
     15412     15410     15418     15416     15410     15417     15416     15410     15418
     15417     15410     15418     15410     15412     15414     15410     15412     15415
     15414     15412     15415     15423     15421     15427     15423     15421     15428
     15423     15421     15429     15427     15421     15428     15427     15421     15429
     15428     15421     15429     15421     15423     15425     15421     15423     15426
     15425     15423     15426     15434     15432     15438     15434     15432     15439
     15434     15432     15440     15438     15432     15439     15438     15432     15440
     15439     15432     15440     15432     15434     15436     15432     15434     15437
     15436     15434     15437     15445     15443     15449     15445     15443     15450
     15445     15443     15451     15449     15443     15450     15449     15443     15451
     15450     15443     15451     15443     15445     15447     15443     15445     15448
     15447     15445     15448     15456     15454     15460     15456     15454     15461
     15456     15454     15462     15460     15454     15461     15460     15454     15462
     15461     15454     15462     15454     15456     15458     15454     15456     15459
     15458     15456     15459     15467     15465     15471     15467     15465     15472
     15467     15465     15473     15471     15465     15472     15471     15465     15473
     15472     15465     15473     15465     15467     15469     15465     15467     15470
     15469     15467     15470     15478     15476     15482     15478     15476     15483
     15478     15476     15484     15482     15476     15483     15482     15476     15484
     15483     15476     15484     15476     15478     15480     15476     15478     15481
     15480     15478     15481     15489     15487     15493     15489     15487     15494
     15489     15487     15495     15493     15487     15494     15493     15487     15495
     15494     15487     15495     15487     15489     15491     15487     15489     15492
     15491     15489     15492     15500     15498     15504     15500     15498     15505
     15500     15498     15506     15504     15498     15505     15504     15498     15506
     15505     15498     15506     15498     15500     15502     15498     15500     15503
     15502     15500     15503     15511     15509     15515     15511     15509     15516
     15511     15509     15517     15515     15509     15516     15515     15509     15517
     15516     15509     15517     15509     15511     15513     15509     15511     15514
     15513     15511     15514     15522     15520     15526     15522     15520     15527
     15522     15520     15528     15526     15520     15527     15526     15520     15528
     15527     15520     15528     15520     15522     15524     15520     15522     15525
     15524     15522     15525     15533     15531     15537     15533     15531     15538
     15533     15531     15539     15537     15531     15538     15537     15531     15539
     15538     15531     15539     15531     15533     15535     15531     15533     15536
     15535     15533     15536     15544     15542     15548     15544     15542     15549
     15544     15542     15550     15548     15542     15549     15548     15542     15550
     15549     15542     15550     15542     15544     15546     15542     15544     15547
     15546     15544     15547     15555     15553     15559     15555     15553     15560
     15555     15553     15561     15559     15553     15560     15559     15553     15561
     15560     15553     15561     15553     15555     15557     15553     15555     15558
     15557     15555     15558     15566     15564     15570     15566     15564     15571
     15566     15564     15572     15570     15564     15571     15570     15564     15572
     15571     15564     15572     15564     15566     15568     15564     15566     15569
     15568     15566     15569     15577     15575     15581     15577     15575     15582
     15577     15575     15583     15581     15575     15582     15581     15575     15583
     15582     15575     15583     15575     15577     15579     15575     15577     15580
     15579     15577     15580     15588     15586     15592     15588     15586     15593
     15588     15586     15594     15592     15586     15593     15592     15586     15594
     15593     15586     15594     15586     15588     15590     15586     15588     15591
     15590     15588     15591     15599     15597     15603     15599     15597     15604
     15599     15597     15605     15603     15597     15604     15603     15597     15605
     15604     15597     15605     15597     15599     15601     15597     15599     15602
     15601     15599     15602     15610     15608     15614     15610     15608     15615
     15610     15608     15616     15614     15608     15615     15614     15608     15616
     15615     15608     15616     15608     15610     15612     15608     15610     15613
     15612     15610     15613     15621     15619     15625     15621     15619     15626
     15621     15619     15627     15625     15619     15626     15625     15619     15627
     15626     15619     15627     15619     15621     15623     15619     15621     15624
     15623     15621     15624     15632     15630     15636     15632     15630     15637
     15632     15630     15638     15636     15630     15637     15636     15630     15638
     15637     15630     15638     15630     15632     15634     15630     15632     15635
     15634     15632     15635     15643     15641     15647     15643     15641     15648
     15643     15641     15649     15647     15641     15648     15647     15641     15649
     15648     15641     15649     15641     15643     15645     15641     15643     15646
     15645     15643     15646     15654     15652     15658     15654     15652     15659
     15654     15652     15660     15658     15652     15659     15658     15652     15660
     15659     15652     15660     15652     15654     15656     15652     15654     15657
     15656     15654     15657     15665     15663     15669     15665     15663     15670
     15665     15663     15671     15669     15663     15670     15669     15663     15671
     15670     15663     15671     15663     15665     15667     15663     15665     15668
     15667     15665     15668     15676     15674     15680     15676     15674     15681
     15676     15674     15682     15680     15674     15681     15680     15674     15682
     15681     15674     15682     15674     15676     15678     15674     15676     15679
     15678     15676     15679     15687     15685     15691     15687     15685     15692
     15687     15685     15693     15691     15685     15692     15691     15685     15693
     15692     15685     15693     15685     15687     15689     15685     15687     15690
     15689     15687     15690     15698     15696     15702     15698     15696     15703
     15698     15696     15704     15702     15696     15703     15702     15696     15704
     15703     15696     15704     15696     15698     15700     15696     15698     15701
     15700     15698     15701     15709     15707     15713     15709     15707     15714
     15709     15707     15715     15713     15707     15714     15713     15707     15715
     15714     15707     15715     15707     15709     15711     15707     15709     15712
     15711     15709     15712     15720     15718     15724     15720     15718     15725
     15720     15718     15726     15724     15718     15725     15724     15718     15726
     15725     15718     15726     15718     15720     15722     15718     15720     15723
     15722     15720     15723     15731     15729     15735     15731     15729     15736
     15731     15729     15737     15735     15729     15736     15735     15729     15737
     15736     15729     15737     15729     15731     15733     15729     15731     15734
     15733     15731     15734     15742     15740     15746     15742     15740     15747
     15742     15740     15748     15746     15740     15747     15746     15740     15748
     15747     15740     15748     15740     15742     15744     15740     15742     15745
     15744     15742     15745     15753     15751     15757     15753     15751     15758
     15753     15751     15759     15757     15751     15758     15757     15751     15759
     15758     15751     15759     15751     15753     15755     15751     15753     15756
     15755     15753     15756     15764     15762     15768     15764     15762     15769
     15764     15762     15770     15768     15762     15769     15768     15762     15770
     15769     15762     15770     15762     15764     15766     15762     15764     15767
     15766     15764     15767     15775     15773     15779     15775     15773     15780
     15775     15773     15781     15779     15773     15780     15779     15773     15781
     15780     15773     15781     15773     15775     15777     15773     15775     15778
     15777     15775     15778     15786     15784     15790     15786     15784     15791
     15786     15784     15792     15790     15784     15791     15790     15784     15792
     15791     15784     15792     15784     15786     15788     15784     15786     15789
     15788     15786     15789     15797     15795     15801     15797     15795     15802
     15797     15795     15803     15801     15795     15802     15801     15795     15803
     15802     15795     15803     15795     15797     15799     15795     15797     15800
     15799     15797     15800     15808     15806     15812     15808     15806     15813
     15808     15806     15814     15812     15806     15813     15812     15806     15814
     15813     15806     15814     15806     15808     15810     15806     15808     15811
     15810     15808     15811     15819     15817     15823     15819     15817     15824
     15819     15817     15825     15823     15817     15824     15823     15817     15825
     15824     15817     15825     15817     15819     15821     15817     15819     15822
     15821     15819     15822     15830     15828     15834     15830     15828     15835
     15830     15828     15836     15834     15828     15835     15834     15828     15836
     15835     15828     15836     15828     15830     15832     15828     15830     15833
     15832     15830     15833     15841     15839     15845     15841     15839     15846
     15841     15839     15847     15845     15839     15846     15845     15839     15847
     15846     15839     15847     15839     15841     15843     15839     15841     15844
     15843     15841     15844     15852     15850     15856     15852     15850     15857
     15852     15850     15858     15856     15850     15857     15856     15850     15858
     15857     15850     15858     15850     15852     15854     15850     15852     15855
     15854     15852     15855     15863     15861     15867     15863     15861     15868
     15863     15861     15869     15867     15861     15868     15867     15861     15869
     15868     15861     15869     15861     15863     15865     15861     15863     15866
     15865     15863     15866     15874     15872     15878     15874     15872     15879
     15874     15872     15880     15878     15872     15879     15878     15872     15880
     15879     15872     15880     15872     15874     15876     15872     15874     15877
     15876     15874     15877     15885     15883     15889     15885     15883     15890
     15885     15883     15891     15889     15883     15890     15889     15883     15891
     15890     15883     15891     15883     15885     15887     15883     15885     15888
     15887     15885     15888     15896     15894     15900     15896     15894     15901
     15896     15894     15902     15900     15894     15901     15900     15894     15902
     15901     15894     15902     15894     15896     15898     15894     15896     15899
     15898     15896     15899     15907     15905     15911     15907     15905     15912
     15907     15905     15913     15911     15905     15912     15911     15905     15913
     15912     15905     15913     15905     15907     15909     15905     15907     15910
     15909     15907     15910     15918     15916     15922     15918     15916     15923
     15918     15916     15924     15922     15916     15923     15922     15916     15924
     15923     15916     15924     15916     15918     15920     15916     15918     15921
     15920     15918     15921     15929     15927     15933     15929     15927     15934
     15929     15927     15935     15933     15927     15934     15933     15927     15935
     15934     15927     15935     15927     15929     15931     15927     15929     15932
     15931     15929     15932     15940     15938     15944     15940     15938     15945
     15940     15938     15946     15944     15938     15945     15944     15938     15946
     15945     15938     15946     15938     15940     15942     15938     15940     15943
     15942     15940     15943     15951     15949     15955     15951     15949     15956
     15951     15949     15957     15955     15949     15956     15955     15949     15957
     15956     15949     15957     15949     15951     15953     15949     15951     15954
     15953     15951     15954     15962     15960     15966     15962     15960     15967
     15962     15960     15968     15966     15960     15967     15966     15960     15968
     15967     15960     15968     15960     15962     15964     15960     15962     15965
     15964     15962     15965     15973     15971     15977     15973     15971     15978
     15973     15971     15979     15977     15971     15978     15977     15971     15979
     15978     15971     15979     15971     15973     15975     15971     15973     15976
     15975     15973     15976     15984     15982     15988     15984     15982     15989
     15984     15982     15990     15988     15982     15989     15988     15982     15990
     15989     15982     15990     15982     15984     15986     15982     15984     15987
     15986     15984     15987     15995     15993     15999     15995     15993     16000
     15995     15993     16001     15999     15993     16000     15999     15993     16001
     16000     15993     16001     15993     15995     15997     15993     15995     15998
     15997     15995     15998     16006     16004     16010     16006     16004     16011
     16006     16004     16012     16010     16004     16011     16010     16004     16012
     16011     16004     16012     16004     16006     16008     16004     16006     16009
     16008     16006     16009     16017     16015     16021     16017     16015     16022
     16017     16015     16023     16021     16015     16022     16021     16015     16023
     16022     16015     16023     16015     16017     16019     16015     16017     16020
     16019     16017     16020     16028     16026     16032     16028     16026     16033
     16028     16026     16034     16032     16026     16033     16032     16026     16034
     16033     16026     16034     16026     16028     16030     16026     16028     16031
     16030     16028     16031     16039     16037     16043     16039     16037     16044
     16039     16037     16045     16043     16037     16044     16043     16037     16045
     16044     16037     16045     16037     16039     16041     16037     16039     16042
     16041     16039     16042     16050     16048     16054     16050     16048     16055
     16050     16048     16056     16054     16048     16055     16054     16048     16056
     16055     16048     16056     16048     16050     16052     16048     16050     16053
     16052     16050     16053     16061     16059     16065     16061     16059     16066
     16061     16059     16067     16065     16059     16066     16065     16059     16067
     16066     16059     16067     16059     16061     16063     16059     16061     16064
     16063     16061     16064     16072     16070     16076     16072     16070     16077
     16072     16070     16078     16076     16070     16077     16076     16070     16078
     16077     16070     16078     16070     16072     16074     16070     16072     16075
     16074     16072     16075     16083     16081     16087     16083     16081     16088
     16083     16081     16089     16087     16081     16088     16087     16081     16089
     16088     16081     16089     16081     16083     16085     16081     16083     16086
     16085     16083     16086     16094     16092     16098     16094     16092     16099
     16094     16092     16100     16098     16092     16099     16098     16092     16100
     16099     16092     16100     16092     16094     16096     16092     16094     16097
     16096     16094     16097     16105     16103     16109     16105     16103     16110
     16105     16103     16111     16109     16103     16110     16109     16103     16111
     16110     16103     16111     16103     16105     16107     16103     16105     16108
     16107     16105     16108     16116     16114     16120     16116     16114     16121
     16116     16114     16122     16120     16114     16121     16120     16114     16122
     16121     16114     16122     16114     16116     16118     16114     16116     16119
     16118     16116     16119     16127     16125     16131     16127     16125     16132
     16127     16125     16133     16131     16125     16132     16131     16125     16133
     16132     16125     16133     16125     16127     16129     16125     16127     16130
     16129     16127     16130     16138     16136     16142     16138     16136     16143
     16138     16136     16144     16142     16136     16143     16142     16136     16144
     16143     16136     16144     16136     16138     16140     16136     16138     16141
     16140     16138     16141     16149     16147     16153     16149     16147     16154
     16149     16147     16155     16153     16147     16154     16153     16147     16155
     16154     16147     16155     16147     16149     16151     16147     16149     16152
     16151     16149     16152     16160     16158     16164     16160     16158     16165
     16160     16158     16166     16164     16158     16165     16164     16158     16166
     16165     16158     16166     16158     16160     16162     16158     16160     16163
     16162     16160     16163     16171     16169     16175     16171     16169     16176
     16171     16169     16177     16175     16169     16176     16175     16169     16177
     16176     16169     16177     16169     16171     16173     16169     16171     16174
     16173     16171     16174     16182     16180     16186     16182     16180     16187
     16182     16180     16188     16186     16180     16187     16186     16180     16188
     16187     16180     16188     16180     16182     16184     16180     16182     16185
     16184     16182     16185     16193     16191     16197     16193     16191     16198
     16193     16191     16199     16197     16191     16198     16197     16191     16199
     16198     16191     16199     16191     16193     16195     16191     16193     16196
     16195     16193     16196     16204     16202     16208     16204     16202     16209
     16204     16202     16210     16208     16202     16209     16208     16202     16210
     16209     16202     16210     16202     16204     16206     16202     16204     16207
     16206     16204     16207     16215     16213     16219     16215     16213     16220
     16215     16213     16221     16219     16213     16220     16219     16213     16221
     16220     16213     16221     16213     16215     16217     16213     16215     16218
     16217     16215     16218     16226     16224     16230     16226     16224     16231
     16226     16224     16232     16230     16224     16231     16230     16224     16232
     16231     16224     16232     16224     16226     16228     16224     16226     16229
     16228     16226     16229     16237     16235     16241     16237     16235     16242
     16237     16235     16243     16241     16235     16242     16241     16235     16243
     16242     16235     16243     16235     16237     16239     16235     16237     16240
     16239     16237     16240     16248     16246     16252     16248     16246     16253
     16248     16246     16254     16252     16246     16253     16252     16246     16254
     16253     16246     16254     16246     16248     16250     16246     16248     16251
     16250     16248     16251     16259     16257     16263     16259     16257     16264
     16259     16257     16265     16263     16257     16264     16263     16257     16265
     16264     16257     16265     16257     16259     16261     16257     16259     16262
     16261     16259     16262     16270     16268     16274     16270     16268     16275
     16270     16268     16276     16274     16268     16275     16274     16268     16276
     16275     16268     16276     16268     16270     16272     16268     16270     16273
     16272     16270     16273     16281     16279     16285     16281     16279     16286
     16281     16279     16287     16285     16279     16286     16285     16279     16287
     16286     16279     16287     16279     16281     16283     16279     16281     16284
     16283     16281     16284     16292     16290     16296     16292     16290     16297
     16292     16290     16298     16296     16290     16297     16296     16290     16298
     16297     16290     16298     16290     16292     16294     16290     16292     16295
     16294     16292     16295     16303     16301     16307     16303     16301     16308
     16303     16301     16309     16307     16301     16308     16307     16301     16309
     16308     16301     16309     16301     16303     16305     16301     16303     16306
     16305     16303     16306     16314     16312     16318     16314     16312     16319
     16314     16312     16320     16318     16312     16319     16318     16312     16320
     16319     16312     16320     16312     16314     16316     16312     16314     16317
     16316     16314     16317     16325     16323     16329     16325     16323     16330
     16325     16323     16331     16329     16323     16330     16329     16323     16331
     16330     16323     16331     16323     16325     16327     16323     16325     16328
     16327     16325     16328     16336     16334     16340     16336     16334     16341
     16336     16334     16342     16340     16334     16341     16340     16334     16342
     16341     16334     16342     16334     16336     16338     16334     16336     16339
     16338     16336     16339     16347     16345     16351     16347     16345     16352
     16347     16345     16353     16351     16345     16352     16351     16345     16353
     16352     16345     16353     16345     16347     16349     16345     16347     16350
     16349     16347     16350     16358     16356     16362     16358     16356     16363
     16358     16356     16364     16362     16356     16363     16362     16356     16364
     16363     16356     16364     16356     16358     16360     16356     16358     16361
     16360     16358     16361     16369     16367     16373     16369     16367     16374
     16369     16367     16375     16373     16367     16374     16373     16367     16375
     16374     16367     16375     16367     16369     16371     16367     16369     16372
     16371     16369     16372     16380     16378     16384     16380     16378     16385
     16380     16378     16386     16384     16378     16385     16384     16378     16386
     16385     16378     16386     16378     16380     16382     16378     16380     16383
     16382     16380     16383     16391     16389     16395     16391     16389     16396
     16391     16389     16397     16395     16389     16396     16395     16389     16397
     16396     16389     16397     16389     16391     16393     16389     16391     16394
     16393     16391     16394     16402     16400     16406     16402     16400     16407
     16402     16400     16408     16406     16400     16407     16406     16400     16408
     16407     16400     16408     16400     16402     16404     16400     16402     16405
     16404     16402     16405     16413     16411     16417     16413     16411     16418
     16413     16411     16419     16417     16411     16418     16417     16411     16419
     16418     16411     16419     16411     16413     16415     16411     16413     16416
     16415     16413     16416     16424     16422     16428     16424     16422     16429
     16424     16422     16430     16428     16422     16429     16428     16422     16430
     16429     16422     16430     16422     16424     16426     16422     16424     16427
     16426     16424     16427     16435     16433     16439     16435     16433     16440
     16435     16433     16441     16439     16433     16440     16439     16433     16441
     16440     16433     16441     16433     16435     16437     16433     16435     16438
     16437     16435     16438     16446     16444     16450     16446     16444     16451
     16446     16444     16452     16450     16444     16451     16450     16444     16452
     16451     16444     16452     16444     16446     16448     16444     16446     16449
     16448     16446     16449     16457     16455     16461     16457     16455     16462
     16457     16455     16463     16461     16455     16462     16461     16455     16463
     16462     16455     16463     16455     16457     16459     16455     16457     16460
     16459     16457     16460     16468     16466     16472     16468     16466     16473
     16468     16466     16474     16472     16466     16473     16472     16466     16474
     16473     16466     16474     16466     16468     16470     16466     16468     16471
     16470     16468     16471     16479     16477     16483     16479     16477     16484
     16479     16477     16485     16483     16477     16484     16483     16477     16485
     16484     16477     16485     16477     16479     16481     16477     16479     16482
     16481     16479     16482     16490     16488     16494     16490     16488     16495
     16490     16488     16496     16494     16488     16495     16494     16488     16496
     16495     16488     16496     16488     16490     16492     16488     16490     16493
     16492     16490     16493     16501     16499     16505     16501     16499     16506
     16501     16499     16507     16505     16499     16506     16505     16499     16507
     16506     16499     16507     16499     16501     16503     16499     16501     16504
     16503     16501     16504     16512     16510     16516     16512     16510     16517
     16512     16510     16518     16516     16510     16517     16516     16510     16518
     16517     16510     16518     16510     16512     16514     16510     16512     16515
     16514     16512     16515     16523     16521     16527     16523     16521     16528
     16523     16521     16529     16527     16521     16528     16527     16521     16529
     16528     16521     16529     16521     16523     16525     16521     16523     16526
     16525     16523     16526     16534     16532     16538     16534     16532     16539
     16534     16532     16540     16538     16532     16539     16538     16532     16540
     16539     16532     16540     16532     16534     16536     16532     16534     16537
     16536     16534     16537     16545     16543     16549     16545     16543     16550
     16545     16543     16551     16549     16543     16550     16549     16543     16551
     16550     16543     16551     16543     16545     16547     16543     16545     16548
     16547     16545     16548     16556     16554     16560     16556     16554     16561
     16556     16554     16562     16560     16554     16561     16560     16554     16562
     16561     16554     16562     16554     16556     16558     16554     16556     16559
     16558     16556     16559     16567     16565     16571     16567     16565     16572
     16567     16565     16573     16571     16565     16572     16571     16565     16573
     16572     16565     16573     16565     16567     16569     16565     16567     16570
     16569     16567     16570     16578     16576     16582     16578     16576     16583
     16578     16576     16584     16582     16576     16583     16582     16576     16584
     16583     16576     16584     16576     16578     16580     16576     16578     16581
     16580     16578     16581     16589     16587     16593     16589     16587     16594
     16589     16587     16595     16593     16587     16594     16593     16587     16595
     16594     16587     16595     16587     16589     16591     16587     16589     16592
     16591     16589     16592     16600     16598     16604     16600     16598     16605
     16600     16598     16606     16604     16598     16605     16604     16598     16606
     16605     16598     16606     16598     16600     16602     16598     16600     16603
     16602     16600     16603     16611     16609     16615     16611     16609     16616
     16611     16609     16617     16615     16609     16616     16615     16609     16617
     16616     16609     16617     16609     16611     16613     16609     16611     16614
     16613     16611     16614     16622     16620     16626     16622     16620     16627
     16622     16620     16628     16626     16620     16627     16626     16620     16628
     16627     16620     16628     16620     16622     16624     16620     16622     16625
     16624     16622     16625     16633     16631     16637     16633     16631     16638
     16633     16631     16639     16637     16631     16638     16637     16631     16639
     16638     16631     16639     16631     16633     16635     16631     16633     16636
     16635     16633     16636     16644     16642     16648     16644     16642     16649
     16644     16642     16650     16648     16642     16649     16648     16642     16650
     16649     16642     16650     16642     16644     16646     16642     16644     16647
     16646     16644     16647     16655     16653     16659     16655     16653     16660
     16655     16653     16661     16659     16653     16660     16659     16653     16661
     16660     16653     16661     16653     16655     16657     16653     16655     16658
     16657     16655     16658     16666     16664     16670     16666     16664     16671
     16666     16664     16672     16670     16664     16671     16670     16664     16672
     16671     16664     16672     16664     16666     16668     16664     16666     16669
     16668     16666     16669     16677     16675     16681     16677     16675     16682
     16677     16675     16683     16681     16675     16682     16681     16675     16683
     16682     16675     16683     16675     16677     16679     16675     16677     16680
     16679     16677     16680     16688     16686     16692     16688     16686     16693
     16688     16686     16694     16692     16686     16693     16692     16686     16694
     16693     16686     16694     16686     16688     16690     16686     16688     16691
     16690     16688     16691     16699     16697     16703     16699     16697     16704
     16699     16697     16705     16703     16697     16704     16703     16697     16705
     16704     16697     16705     16697     16699     16701     16697     16699     16702
     16701     16699     16702     16710     16708     16714     16710     16708     16715
     16710     16708     16716     16714     16708     16715     16714     16708     16716
     16715     16708     16716     16708     16710     16712     16708     16710     16713
     16712     16710     16713     16721     16719     16725     16721     16719     16726
     16721     16719     16727     16725     16719     16726     16725     16719     16727
     16726     16719     16727     16719     16721     16723     16719     16721     16724
     16723     16721     16724     16732     16730     16736     16732     16730     16737
     16732     16730     16738     16736     16730     16737     16736     16730     16738
     16737     16730     16738     16730     16732     16734     16730     16732     16735
     16734     16732     16735     16743     16741     16747     16743     16741     16748
     16743     16741     16749     16747     16741     16748     16747     16741     16749
     16748     16741     16749     16741     16743     16745     16741     16743     16746
     16745     16743     16746     16754     16752     16758     16754     16752     16759
     16754     16752     16760     16758     16752     16759     16758     16752     16760
     16759     16752     16760     16752     16754     16756     16752     16754     16757
     16756     16754     16757     16765     16763     16769     16765     16763     16770
     16765     16763     16771     16769     16763     16770     16769     16763     16771
     16770     16763     16771     16763     16765     16767     16763     16765     16768
     16767     16765     16768     16776     16774     16780     16776     16774     16781
     16776     16774     16782     16780     16774     16781     16780     16774     16782
     16781     16774     16782     16774     16776     16778     16774     16776     16779
     16778     16776     16779     16787     16785     16791     16787     16785     16792
     16787     16785     16793     16791     16785     16792     16791     16785     16793
     16792     16785     16793     16785     16787     16789     16785     16787     16790
     16789     16787     16790     16798     16796     16802     16798     16796     16803
     16798     16796     16804     16802     16796     16803     16802     16796     16804
     16803     16796     16804     16796     16798     16800     16796     16798     16801
     16800     16798     16801     16809     16807     16813     16809     16807     16814
     16809     16807     16815     16813     16807     16814     16813     16807     16815
     16814     16807     16815     16807     16809     16811     16807     16809     16812
     16811     16809     16812     16820     16818     16824     16820     16818     16825
     16820     16818     16826     16824     16818     16825     16824     16818     16826
     16825     16818     16826     16818     16820     16822     16818     16820     16823
     16822     16820     16823     16831     16829     16835     16831     16829     16836
     16831     16829     16837     16835     16829     16836     16835     16829     16837
     16836     16829     16837     16829     16831     16833     16829     16831     16834
     16833     16831     16834     16842     16840     16846     16842     16840     16847
     16842     16840     16848     16846     16840     16847     16846     16840     16848
     16847     16840     16848     16840     16842     16844     16840     16842     16845
     16844     16842     16845     16853     16851     16857     16853     16851     16858
     16853     16851     16859     16857     16851     16858     16857     16851     16859
     16858     16851     16859     16851     16853     16855     16851     16853     16856
     16855     16853     16856     16864     16862     16868     16864     16862     16869
     16864     16862     16870     16868     16862     16869     16868     16862     16870
     16869     16862     16870     16862     16864     16866     16862     16864     16867
     16866     16864     16867     16875     16873     16879     16875     16873     16880
     16875     16873     16881     16879     16873     16880     16879     16873     16881
     16880     16873     16881     16873     16875     16877     16873     16875     16878
     16877     16875     16878     16886     16884     16890     16886     16884     16891
     16886     16884     16892     16890     16884     16891     16890     16884     16892
     16891     16884     16892     16884     16886     16888     16884     16886     16889
     16888     16886     16889     16897     16895     16901     16897     16895     16902
     16897     16895     16903     16901     16895     16902     16901     16895     16903
     16902     16895     16903     16895     16897     16899     16895     16897     16900
     16899     16897     16900     16908     16906     16912     16908     16906     16913
     16908     16906     16914     16912     16906     16913     16912     16906     16914
     16913     16906     16914     16906     16908     16910     16906     16908     16911
     16910     16908     16911     16919     16917     16923     16919     16917     16924
     16919     16917     16925     16923     16917     16924     16923     16917     16925
     16924     16917     16925     16917     16919     16921     16917     16919     16922
     16921     16919     16922     16930     16928     16934     16930     16928     16935
     16930     16928     16936     16934     16928     16935     16934     16928     16936
     16935     16928     16936     16928     16930     16932     16928     16930     16933
     16932     16930     16933     16941     16939     16945     16941     16939     16946
     16941     16939     16947     16945     16939     16946     16945     16939     16947
     16946     16939     16947     16939     16941     16943     16939     16941     16944
     16943     16941     16944     16952     16950     16956     16952     16950     16957
     16952     16950     16958     16956     16950     16957     16956     16950     16958
     16957     16950     16958     16950     16952     16954     16950     16952     16955
     16954     16952     16955     16963     16961     16967     16963     16961     16968
     16963     16961     16969     16967     16961     16968     16967     16961     16969
     16968     16961     16969     16961     16963     16965     16961     16963     16966
     16965     16963     16966     16974     16972     16978     16974     16972     16979
     16974     16972     16980     16978     16972     16979     16978     16972     16980
     16979     16972     16980     16972     16974     16976     16972     16974     16977
     16976     16974     16977     16985     16983     16989     16985     16983     16990
     16985     16983     16991     16989     16983     16990     16989     16983     16991
     16990     16983     16991     16983     16985     16987     16983     16985     16988
     16987     16985     16988     16996     16994     17000     16996     16994     17001
     16996     16994     17002     17000     16994     17001     17000     16994     17002
     17001     16994     17002     16994     16996     16998     16994     16996     16999
     16998     16996     16999     17007     17005     17011     17007     17005     17012
     17007     17005     17013     17011     17005     17012     17011     17005     17013
     17012     17005     17013     17005     17007     17009     17005     17007     17010
     17009     17007     17010     17018     17016     17022     17018     17016     17023
     17018     17016     17024     17022     17016     17023     17022     17016     17024
     17023     17016     17024     17016     17018     17020     17016     17018     17021
     17020     17018     17021     17029     17027     17033     17029     17027     17034
     17029     17027     17035     17033     17027     17034     17033     17027     17035
     17034     17027     17035     17027     17029     17031     17027     17029     17032
     17031     17029     17032     17040     17038     17044     17040     17038     17045
     17040     17038     17046     17044     17038     17045     17044     17038     17046
     17045     17038     17046     17038     17040     17042     17038     17040     17043
     17042     17040     17043     17051     17049     17055     17051     17049     17056
     17051     17049     17057     17055     17049     17056     17055     17049     17057
     17056     17049     17057     17049     17051     17053     17049     17051     17054
     17053     17051     17054     17062     17060     17066     17062     17060     17067
     17062     17060     17068     17066     17060     17067     17066     17060     17068
     17067     17060     17068     17060     17062     17064     17060     17062     17065
     17064     17062     17065     17073     17071     17077     17073     17071     17078
     17073     17071     17079     17077     17071     17078     17077     17071     17079
     17078     17071     17079     17071     17073     17075     17071     17073     17076
     17075     17073     17076     17084     17082     17088     17084     17082     17089
     17084     17082     17090     17088     17082     17089     17088     17082     17090
     17089     17082     17090     17082     17084     17086     17082     17084     17087
     17086     17084     17087     17095     17093     17099     17095     17093     17100
     17095     17093     17101     17099     17093     17100     17099     17093     17101
     17100     17093     17101     17093     17095     17097     17093     17095     17098
     17097     17095     17098     17106     17104     17110     17106     17104     17111
     17106     17104     17112     17110     17104     17111     17110     17104     17112
     17111     17104     17112     17104     17106     17108     17104     17106     17109
     17108     17106     17109     17117     17115     17121     17117     17115     17122
     17117     17115     17123     17121     17115     17122     17121     17115     17123
     17122     17115     17123     17115     17117     17119     17115     17117     17120
     17119     17117     17120     17128     17126     17132     17128     17126     17133
     17128     17126     17134     17132     17126     17133     17132     17126     17134
     17133     17126     17134     17126     17128     17130     17126     17128     17131
     17130     17128     17131     17139     17137     17143     17139     17137     17144
     17139     17137     17145     17143     17137     17144     17143     17137     17145
     17144     17137     17145     17137     17139     17141     17137     17139     17142
     17141     17139     17142     17150     17148     17154     17150     17148     17155
     17150     17148     17156     17154     17148     17155     17154     17148     17156
     17155     17148     17156     17148     17150     17152     17148     17150     17153
     17152     17150     17153     17161     17159     17165     17161     17159     17166
     17161     17159     17167     17165     17159     17166     17165     17159     17167
     17166     17159     17167     17159     17161     17163     17159     17161     17164
     17163     17161     17164     17172     17170     17176     17172     17170     17177
     17172     17170     17178     17176     17170     17177     17176     17170     17178
     17177     17170     17178     17170     17172     17174     17170     17172     17175
     17174     17172     17175     17183     17181     17187     17183     17181     17188
     17183     17181     17189     17187     17181     17188     17187     17181     17189
     17188     17181     17189     17181     17183     17185     17181     17183     17186
     17185     17183     17186     17194     17192     17198     17194     17192     17199
     17194     17192     17200     17198     17192     17199     17198     17192     17200
     17199     17192     17200     17192     17194     17196     17192     17194     17197
     17196     17194     17197     17205     17203     17209     17205     17203     17210
     17205     17203     17211     17209     17203     17210     17209     17203     17211
     17210     17203     17211     17203     17205     17207     17203     17205     17208
     17207     17205     17208     17216     17214     17220     17216     17214     17221
     17216     17214     17222     17220     17214     17221     17220     17214     17222
     17221     17214     17222     17214     17216     17218     17214     17216     17219
     17218     17216     17219     17227     17225     17231     17227     17225     17232
     17227     17225     17233     17231     17225     17232     17231     17225     17233
     17232     17225     17233     17225     17227     17229     17225     17227     17230
     17229     17227     17230     17238     17236     17242     17238     17236     17243
     17238     17236     17244     17242     17236     17243     17242     17236     17244
     17243     17236     17244     17236     17238     17240     17236     17238     17241
     17240     17238     17241     17249     17247     17253     17249     17247     17254
     17249     17247     17255     17253     17247     17254     17253     17247     17255
     17254     17247     17255     17247     17249     17251     17247     17249     17252
     17251     17249     17252     17260     17258     17264     17260     17258     17265
     17260     17258     17266     17264     17258     17265     17264     17258     17266
     17265     17258     17266     17258     17260     17262     17258     17260     17263
     17262     17260     17263     17271     17269     17275     17271     17269     17276
     17271     17269     17277     17275     17269     17276     17275     17269     17277
     17276     17269     17277     17269     17271     17273     17269     17271     17274
     17273     17271     17274     17282     17280     17286     17282     17280     17287
     17282     17280     17288     17286     17280     17287     17286     17280     17288
     17287     17280     17288     17280     17282     17284     17280     17282     17285
     17284     17282     17285     17293     17291     17297     17293     17291     17298
     17293     17291     17299     17297     17291     17298     17297     17291     17299
     17298     17291     17299     17291     17293     17295     17291     17293     17296
     17295     17293     17296     17304     17302     17308     17304     17302     17309
     17304     17302     17310     17308     17302     17309     17308     17302     17310
     17309     17302     17310     17302     17304     17306     17302     17304     17307
     17306     17304     17307     17315     17313     17319     17315     17313     17320
     17315     17313     17321     17319     17313     17320     17319     17313     17321
     17320     17313     17321     17313     17315     17317     17313     17315     17318
     17317     17315     17318     17326     17324     17330     17326     17324     17331
     17326     17324     17332     17330     17324     17331     17330     17324     17332
     17331     17324     17332     17324     17326     17328     17324     17326     17329
     17328     17326     17329     17337     17335     17341     17337     17335     17342
     17337     17335     17343     17341     17335     17342     17341     17335     17343
     17342     17335     17343     17335     17337     17339     17335     17337     17340
     17339     17337     17340     17348     17346     17352     17348     17346     17353
     17348     17346     17354     17352     17346     17353     17352     17346     17354
     17353     17346     17354     17346     17348     17350     17346     17348     17351
     17350     17348     17351     17359     17357     17363     17359     17357     17364
     17359     17357     17365     17363     17357     17364     17363     17357     17365
     17364     17357     17365     17357     17359     17361     17357     17359     17362
     17361     17359     17362     17370     17368     17374     17370     17368     17375
     17370     17368     17376     17374     17368     17375     17374     17368     17376
     17375     17368     17376     17368     17370     17372     17368     17370     17373
     17372     17370     17373     17381     17379     17385     17381     17379     17386
     17381     17379     17387     17385     17379     17386     17385     17379     17387
     17386     17379     17387     17379     17381     17383     17379     17381     17384
     17383     17381     17384     17392     17390     17396     17392     17390     17397
     17392     17390     17398     17396     17390     17397     17396     17390     17398
     17397     17390     17398     17390     17392     17394     17390     17392     17395
     17394     17392     17395     17403     17401     17407     17403     17401     17408
     17403     17401     17409     17407     17401     17408     17407     17401     17409
     17408     17401     17409     17401     17403     17405     17401     17403     17406
     17405     17403     17406     17414     17412     17418     17414     17412     17419
     17414     17412     17420     17418     17412     17419     17418     17412     17420
     17419     17412     17420     17412     17414     17416     17412     17414     17417
     17416     17414     17417     17425     17423     17429     17425     17423     17430
     17425     17423     17431     17429     17423     17430     17429     17423     17431
     17430     17423     17431     17423     17425     17427     17423     17425     17428
     17427     17425     17428     17436     17434     17440     17436     17434     17441
     17436     17434     17442     17440     17434     17441     17440     17434     17442
     17441     17434     17442     17434     17436     17438     17434     17436     17439
     17438     17436     17439     17447     17445     17451     17447     17445     17452
     17447     17445     17453     17451     17445     17452     17451     17445     17453
     17452     17445     17453     17445     17447     17449     17445     17447     17450
     17449     17447     17450     17458     17456     17462     17458     17456     17463
     17458     17456     17464     17462     17456     17463     17462     17456     17464
     17463     17456     17464     17456     17458     17460     17456     17458     17461
     17460     17458     17461     17469     17467     17473     17469     17467     17474
     17469     17467     17475     17473     17467     17474     17473     17467     17475
     17474     17467     17475     17467     17469     17471     17467     17469     17472
     17471     17469     17472     17480     17478     17484     17480     17478     17485
     17480     17478     17486     17484     17478     17485     17484     17478     17486
     17485     17478     17486     17478     17480     17482     17478     17480     17483
     17482     17480     17483     17491     17489     17495     17491     17489     17496
     17491     17489     17497     17495     17489     17496     17495     17489     17497
     17496     17489     17497     17489     17491     17493     17489     17491     17494
     17493     17491     17494     17502     17500     17506     17502     17500     17507
     17502     17500     17508     17506     17500     17507     17506     17500     17508
     17507     17500     17508     17500     17502     17504     17500     17502     17505
     17504     17502     17505     17513     17511     17517     17513     17511     17518
     17513     17511     17519     17517     17511     17518     17517     17511     17519
     17518     17511     17519     17511     17513     17515     17511     17513     17516
     17515     17513     17516     17524     17522     17528     17524     17522     17529
     17524     17522     17530     17528     17522     17529     17528     17522     17530
     17529     17522     17530     17522     17524     17526     17522     17524     17527
     17526     17524     17527     17535     17533     17539     17535     17533     17540
     17535     17533     17541     17539     17533     17540     17539     17533     17541
     17540     17533     17541     17533     17535     17537     17533     17535     17538
     17537     17535     17538     17546     17544     17550     17546     17544     17551
     17546     17544     17552     17550     17544     17551     17550     17544     17552
     17551     17544     17552     17544     17546     17548     17544     17546     17549
     17548     17546     17549     17557     17555     17561     17557     17555     17562
     17557     17555     17563     17561     17555     17562     17561     17555     17563
     17562     17555     17563     17555     17557     17559     17555     17557     17560
     17559     17557     17560     17568     17566     17572     17568     17566     17573
     17568     17566     17574     17572     17566     17573     17572     17566     17574
     17573     17566     17574     17566     17568     17570     17566     17568     17571
     17570     17568     17571     17579     17577     17583     17579     17577     17584
     17579     17577     17585     17583     17577     17584     17583     17577     17585
     17584     17577     17585     17577     17579     17581     17577     17579     17582
     17581     17579     17582     17590     17588     17594     17590     17588     17595
     17590     17588     17596     17594     17588     17595     17594     17588     17596
     17595     17588     17596     17588     17590     17592     17588     17590     17593
     17592     17590     17593     17601     17599     17605     17601     17599     17606
     17601     17599     17607     17605     17599     17606     17605     17599     17607
     17606     17599     17607     17599     17601     17603     17599     17601     17604
     17603     17601     17604     17612     17610     17616     17612     17610     17617
     17612     17610     17618     17616     17610     17617     17616     17610     17618
     17617     17610     17618     17610     17612     17614     17610     17612     17615
     17614     17612     17615     17623     17621     17627     17623     17621     17628
     17623     17621     17629     17627     17621     17628     17627     17621     17629
     17628     17621     17629     17621     17623     17625     17621     17623     17626
     17625     17623     17626     17634     17632     17638     17634     17632     17639
     17634     17632     17640     17638     17632     17639     17638     17632     17640
     17639     17632     17640     17632     17634     17636     17632     17634     17637
     17636     17634     17637     17645     17643     17649     17645     17643     17650
     17645     17643     17651     17649     17643     17650     17649     17643     17651
     17650     17643     17651     17643     17645     17647     17643     17645     17648
     17647     17645     17648     17656     17654     17660     17656     17654     17661
     17656     17654     17662     17660     17654     17661     17660     17654     17662
     17661     17654     17662     17654     17656     17658     17654     17656     17659
     17658     17656     17659     17667     17665     17671     17667     17665     17672
     17667     17665     17673     17671     17665     17672     17671     17665     17673
     17672     17665     17673     17665     17667     17669     17665     17667     17670
     17669     17667     17670     17678     17676     17682     17678     17676     17683
     17678     17676     17684     17682     17676     17683     17682     17676     17684
     17683     17676     17684     17676     17678     17680     17676     17678     17681
     17680     17678     17681     17689     17687     17693     17689     17687     17694
     17689     17687     17695     17693     17687     17694     17693     17687     17695
     17694     17687     17695     17687     17689     17691     17687     17689     17692
     17691     17689     17692     17700     17698     17704     17700     17698     17705
     17700     17698     17706     17704     17698     17705     17704     17698     17706
     17705     17698     17706     17698     17700     17702     17698     17700     17703
     17702     17700     17703     17711     17709     17715     17711     17709     17716
     17711     17709     17717     17715     17709     17716     17715     17709     17717
     17716     17709     17717     17709     17711     17713     17709     17711     17714
     17713     17711     17714     17722     17720     17726     17722     17720     17727
     17722     17720     17728     17726     17720     17727     17726     17720     17728
     17727     17720     17728     17720     17722     17724     17720     17722     17725
     17724     17722     17725     17733     17731     17737     17733     17731     17738
     17733     17731     17739     17737     17731     17738     17737     17731     17739
     17738     17731     17739     17731     17733     17735     17731     17733     17736
     17735     17733     17736     17744     17742     17748     17744     17742     17749
     17744     17742     17750     17748     17742     17749     17748     17742     17750
     17749     17742     17750     17742     17744     17746     17742     17744     17747
     17746     17744     17747     17755     17753     17759     17755     17753     17760
     17755     17753     17761     17759     17753     17760     17759     17753     17761
     17760     17753     17761     17753     17755     17757     17753     17755     17758
     17757     17755     17758     17766     17764     17770     17766     17764     17771
     17766     17764     17772     17770     17764     17771     17770     17764     17772
     17771     17764     17772     17764     17766     17768     17764     17766     17769
     17768     17766     17769     17777     17775     17781     17777     17775     17782
     17777     17775     17783     17781     17775     17782     17781     17775     17783
     17782     17775     17783     17775     17777     17779     17775     17777     17780
     17779     17777     17780     17788     17786     17792     17788     17786     17793
     17788     17786     17794     17792     17786     17793     17792     17786     17794
     17793     17786     17794     17786     17788     17790     17786     17788     17791
     17790     17788     17791     17799     17797     17803     17799     17797     17804
     17799     17797     17805     17803     17797     17804     17803     17797     17805
     17804     17797     17805     17797     17799     17801     17797     17799     17802
     17801     17799     17802     17810     17808     17814     17810     17808     17815
     17810     17808     17816     17814     17808     17815     17814     17808     17816
     17815     17808     17816     17808     17810     17812     17808     17810     17813
     17812     17810     17813     17821     17819     17825     17821     17819     17826
     17821     17819     17827     17825     17819     17826     17825     17819     17827
     17826     17819     17827     17819     17821     17823     17819     17821     17824
     17823     17821     17824     17832     17830     17836     17832     17830     17837
     17832     17830     17838     17836     17830     17837     17836     17830     17838
     17837     17830     17838     17830     17832     17834     17830     17832     17835
     17834     17832     17835     17843     17841     17847     17843     17841     17848
     17843     17841     17849     17847     17841     17848     17847     17841     17849
     17848     17841     17849     17841     17843     17845     17841     17843     17846
     17845     17843     17846     17854     17852     17858     17854     17852     17859
     17854     17852     17860     17858     17852     17859     17858     17852     17860
     17859     17852     17860     17852     17854     17856     17852     17854     17857
     17856     17854     17857     17865     17863     17869     17865     17863     17870
     17865     17863     17871     17869     17863     17870     17869     17863     17871
     17870     17863     17871     17863     17865     17867     17863     17865     17868
     17867     17865     17868     17876     17874     17880     17876     17874     17881
     17876     17874     17882     17880     17874     17881     17880     17874     17882
     17881     17874     17882     17874     17876     17878     17874     17876     17879
     17878     17876     17879     17887     17885     17891     17887     17885     17892
     17887     17885     17893     17891     17885     17892     17891     17885     17893
     17892     17885     17893     17885     17887     17889     17885     17887     17890
     17889     17887     17890     17898     17896     17902     17898     17896     17903
     17898     17896     17904     17902     17896     17903     17902     17896     17904
     17903     17896     17904     17896     17898     17900     17896     17898     17901
     17900     17898     17901     17909     17907     17913     17909     17907     17914
     17909     17907     17915     17913     17907     17914     17913     17907     17915
     17914     17907     17915     17907     17909     17911     17907     17909     17912
     17911     17909     17912     17920     17918     17924     17920     17918     17925
     17920     17918     17926     17924     17918     17925     17924     17918     17926
     17925     17918     17926     17918     17920     17922     17918     17920     17923
     17922     17920     17923     17931     17929     17935     17931     17929     17936
     17931     17929     17937     17935     17929     17936     17935     17929     17937
     17936     17929     17937     17929     17931     17933     17929     17931     17934
     17933     17931     17934     17942     17940     17946     17942     17940     17947
     17942     17940     17948     17946     17940     17947     17946     17940     17948
     17947     17940     17948     17940     17942     17944     17940     17942     17945
     17944     17942     17945     17953     17951     17957     17953     17951     17958
     17953     17951     17959     17957     17951     17958     17957     17951     17959
     17958     17951     17959     17951     17953     17955     17951     17953     17956
     17955     17953     17956     17964     17962     17968     17964     17962     17969
     17964     17962     17970     17968     17962     17969     17968     17962     17970
     17969     17962     17970     17962     17964     17966     17962     17964     17967
     17966     17964     17967     17975     17973     17979     17975     17973     17980
     17975     17973     17981     17979     17973     17980     17979     17973     17981
     17980     17973     17981     17973     17975     17977     17973     17975     17978
     17977     17975     17978     17986     17984     17990     17986     17984     17991
     17986     17984     17992     17990     17984     17991     17990     17984     17992
     17991     17984     17992     17984     17986     17988     17984     17986     17989
     17988     17986     17989     17997     17995     18001     17997     17995     18002
     17997     17995     18003     18001     17995     18002     18001     17995     18003
     18002     17995     18003     17995     17997     17999     17995     17997     18000
     17999     17997     18000     18008     18006     18012     18008     18006     18013
     18008     18006     18014     18012     18006     18013     18012     18006     18014
     18013     18006     18014     18006     18008     18010     18006     18008     18011
     18010     18008     18011     18019     18017     18023     18019     18017     18024
     18019     18017     18025     18023     18017     18024     18023     18017     18025
     18024     18017     18025     18017     18019     18021     18017     18019     18022
     18021     18019     18022     18030     18028     18034     18030     18028     18035
     18030     18028     18036     18034     18028     18035     18034     18028     18036
     18035     18028     18036     18028     18030     18032     18028     18030     18033
     18032     18030     18033     18041     18039     18045     18041     18039     18046
     18041     18039     18047     18045     18039     18046     18045     18039     18047
     18046     18039     18047     18039     18041     18043     18039     18041     18044
     18043     18041     18044     18052     18050     18056     18052     18050     18057
     18052     18050     18058     18056     18050     18057     18056     18050     18058
     18057     18050     18058     18050     18052     18054     18050     18052     18055
     18054     18052     18055     18063     18061     18067     18063     18061     18068
     18063     18061     18069     18067     18061     18068     18067     18061     18069
     18068     18061     18069     18061     18063     18065     18061     18063     18066
     18065     18063     18066     18074     18072     18078     18074     18072     18079
     18074     18072     18080     18078     18072     18079     18078     18072     18080
     18079     18072     18080     18072     18074     18076     18072     18074     18077
     18076     18074     18077     18085     18083     18089     18085     18083     18090
     18085     18083     18091     18089     18083     18090     18089     18083     18091
     18090     18083     18091     18083     18085     18087     18083     18085     18088
     18087     18085     18088     18096     18094     18100     18096     18094     18101
     18096     18094     18102     18100     18094     18101     18100     18094     18102
     18101     18094     18102     18094     18096     18098     18094     18096     18099
     18098     18096     18099     18107     18105     18111     18107     18105     18112
     18107     18105     18113     18111     18105     18112     18111     18105     18113
     18112     18105     18113     18105     18107     18109     18105     18107     18110
     18109     18107     18110     18118     18116     18122     18118     18116     18123
     18118     18116     18124     18122     18116     18123     18122     18116     18124
     18123     18116     18124     18116     18118     18120     18116     18118     18121
     18120     18118     18121     18129     18127     18133     18129     18127     18134
     18129     18127     18135     18133     18127     18134     18133     18127     18135
     18134     18127     18135     18127     18129     18131     18127     18129     18132
     18131     18129     18132     18140     18138     18144     18140     18138     18145
     18140     18138     18146     18144     18138     18145     18144     18138     18146
     18145     18138     18146     18138     18140     18142     18138     18140     18143
     18142     18140     18143     18151     18149     18155     18151     18149     18156
     18151     18149     18157     18155     18149     18156     18155     18149     18157
     18156     18149     18157     18149     18151     18153     18149     18151     18154
     18153     18151     18154     18162     18160     18166     18162     18160     18167
     18162     18160     18168     18166     18160     18167     18166     18160     18168
     18167     18160     18168     18160     18162     18164     18160     18162     18165
     18164     18162     18165     18173     18171     18177     18173     18171     18178
     18173     18171     18179     18177     18171     18178     18177     18171     18179
     18178     18171     18179     18171     18173     18175     18171     18173     18176
     18175     18173     18176     18184     18182     18188     18184     18182     18189
     18184     18182     18190     18188     18182     18189     18188     18182     18190
     18189     18182     18190     18182     18184     18186     18182     18184     18187
     18186     18184     18187     18195     18193     18199     18195     18193     18200
     18195     18193     18201     18199     18193     18200     18199     18193     18201
     18200     18193     18201     18193     18195     18197     18193     18195     18198
     18197     18195     18198     18206     18204     18210     18206     18204     18211
     18206     18204     18212     18210     18204     18211     18210     18204     18212
     18211     18204     18212     18204     18206     18208     18204     18206     18209
     18208     18206     18209     18217     18215     18221     18217     18215     18222
     18217     18215     18223     18221     18215     18222     18221     18215     18223
     18222     18215     18223     18215     18217     18219     18215     18217     18220
     18219     18217     18220     18228     18226     18232     18228     18226     18233
     18228     18226     18234     18232     18226     18233     18232     18226     18234
     18233     18226     18234     18226     18228     18230     18226     18228     18231
     18230     18228     18231     18239     18237     18243     18239     18237     18244
     18239     18237     18245     18243     18237     18244     18243     18237     18245
     18244     18237     18245     18237     18239     18241     18237     18239     18242
     18241     18239     18242     18250     18248     18254     18250     18248     18255
     18250     18248     18256     18254     18248     18255     18254     18248     18256
     18255     18248     18256     18248     18250     18252     18248     18250     18253
     18252     18250     18253     18261     18259     18265     18261     18259     18266
     18261     18259     18267     18265     18259     18266     18265     18259     18267
     18266     18259     18267     18259     18261     18263     18259     18261     18264
     18263     18261     18264     18272     18270     18276     18272     18270     18277
     18272     18270     18278     18276     18270     18277     18276     18270     18278
     18277     18270     18278     18270     18272     18274     18270     18272     18275
     18274     18272     18275     18283     18281     18287     18283     18281     18288
     18283     18281     18289     18287     18281     18288     18287     18281     18289
     18288     18281     18289     18281     18283     18285     18281     18283     18286
     18285     18283     18286     18294     18292     18298     18294     18292     18299
     18294     18292     18300     18298     18292     18299     18298     18292     18300
     18299     18292     18300     18292     18294     18296     18292     18294     18297
     18296     18294     18297     18305     18303     18309     18305     18303     18310
     18305     18303     18311     18309     18303     18310     18309     18303     18311
     18310     18303     18311     18303     18305     18307     18303     18305     18308
     18307     18305     18308     18316     18314     18320     18316     18314     18321
     18316     18314     18322     18320     18314     18321     18320     18314     18322
     18321     18314     18322     18314     18316     18318     18314     18316     18319
     18318     18316     18319     18327     18325     18331     18327     18325     18332
     18327     18325     18333     18331     18325     18332     18331     18325     18333
     18332     18325     18333     18325     18327     18329     18325     18327     18330
     18329     18327     18330     18338     18336     18342     18338     18336     18343
     18338     18336     18344     18342     18336     18343     18342     18336     18344
     18343     18336     18344     18336     18338     18340     18336     18338     18341
     18340     18338     18341     18349     18347     18353     18349     18347     18354
     18349     18347     18355     18353     18347     18354     18353     18347     18355
     18354     18347     18355     18347     18349     18351     18347     18349     18352
     18351     18349     18352     18360     18358     18364     18360     18358     18365
     18360     18358     18366     18364     18358     18365     18364     18358     18366
     18365     18358     18366     18358     18360     18362     18358     18360     18363
     18362     18360     18363     18371     18369     18375     18371     18369     18376
     18371     18369     18377     18375     18369     18376     18375     18369     18377
     18376     18369     18377     18369     18371     18373     18369     18371     18374
     18373     18371     18374     18382     18380     18386     18382     18380     18387
     18382     18380     18388     18386     18380     18387     18386     18380     18388
     18387     18380     18388     18380     18382     18384     18380     18382     18385
     18384     18382     18385     18393     18391     18397     18393     18391     18398
     18393     18391     18399     18397     18391     18398     18397     18391     18399
     18398     18391     18399     18391     18393     18395     18391     18393     18396
     18395     18393     18396     18404     18402     18408     18404     18402     18409
     18404     18402     18410     18408     18402     18409     18408     18402     18410
     18409     18402     18410     18402     18404     18406     18402     18404     18407
     18406     18404     18407     18415     18413     18419     18415     18413     18420
     18415     18413     18421     18419     18413     18420     18419     18413     18421
     18420     18413     18421     18413     18415     18417     18413     18415     18418
     18417     18415     18418     18426     18424     18430     18426     18424     18431
     18426     18424     18432     18430     18424     18431     18430     18424     18432
     18431     18424     18432     18424     18426     18428     18424     18426     18429
     18428     18426     18429     18437     18435     18441     18437     18435     18442
     18437     18435     18443     18441     18435     18442     18441     18435     18443
     18442     18435     18443     18435     18437     18439     18435     18437     18440
     18439     18437     18440     18448     18446     18452     18448     18446     18453
     18448     18446     18454     18452     18446     18453     18452     18446     18454
     18453     18446     18454     18446     18448     18450     18446     18448     18451
     18450     18448     18451     18459     18457     18463     18459     18457     18464
     18459     18457     18465     18463     18457     18464     18463     18457     18465
     18464     18457     18465     18457     18459     18461     18457     18459     18462
     18461     18459     18462     18470     18468     18474     18470     18468     18475
     18470     18468     18476     18474     18468     18475     18474     18468     18476
     18475     18468     18476     18468     18470     18472     18468     18470     18473
     18472     18470     18473     18481     18479     18485     18481     18479     18486
     18481     18479     18487     18485     18479     18486     18485     18479     18487
     18486     18479     18487     18479     18481     18483     18479     18481     18484
     18483     18481     18484     18492     18490     18496     18492     18490     18497
     18492     18490     18498     18496     18490     18497     18496     18490     18498
     18497     18490     18498     18490     18492     18494     18490     18492     18495
     18494     18492     18495     18503     18501     18507     18503     18501     18508
     18503     18501     18509     18507     18501     18508     18507     18501     18509
     18508     18501     18509     18501     18503     18505     18501     18503     18506
     18505     18503     18506     18514     18512     18518     18514     18512     18519
     18514     18512     18520     18518     18512     18519     18518     18512     18520
     18519     18512     18520     18512     18514     18516     18512     18514     18517
     18516     18514     18517     18525     18523     18529     18525     18523     18530
     18525     18523     18531     18529     18523     18530     18529     18523     18531
     18530     18523     18531     18523     18525     18527     18523     18525     18528
     18527     18525     18528     18536     18534     18540     18536     18534     18541
     18536     18534     18542     18540     18534     18541     18540     18534     18542
     18541     18534     18542     18534     18536     18538     18534     18536     18539
     18538     18536     18539     18547     18545     18551     18547     18545     18552
     18547     18545     18553     18551     18545     18552     18551     18545     18553
     18552     18545     18553     18545     18547     18549     18545     18547     18550
     18549     18547     18550     18558     18556     18562     18558     18556     18563
     18558     18556     18564     18562     18556     18563     18562     18556     18564
     18563     18556     18564     18556     18558     18560     18556     18558     18561
     18560     18558     18561     18569     18567     18573     18569     18567     18574
     18569     18567     18575     18573     18567     18574     18573     18567     18575
     18574     18567     18575     18567     18569     18571     18567     18569     18572
     18571     18569     18572     18580     18578     18584     18580     18578     18585
     18580     18578     18586     18584     18578     18585     18584     18578     18586
     18585     18578     18586     18578     18580     18582     18578     18580     18583
     18582     18580     18583     18591     18589     18595     18591     18589     18596
     18591     18589     18597     18595     18589     18596     18595     18589     18597
     18596     18589     18597     18589     18591     18593     18589     18591     18594
     18593     18591     18594     18602     18600     18606     18602     18600     18607
     18602     18600     18608     18606     18600     18607     18606     18600     18608
     18607     18600     18608     18600     18602     18604     18600     18602     18605
     18604     18602     18605     18613     18611     18617     18613     18611     18618
     18613     18611     18619     18617     18611     18618     18617     18611     18619
     18618     18611     18619     18611     18613     18615     18611     18613     18616
     18615     18613     18616     18624     18622     18628     18624     18622     18629
     18624     18622     18630     18628     18622     18629     18628     18622     18630
     18629     18622     18630     18622     18624     18626     18622     18624     18627
     18626     18624     18627     18635     18633     18639     18635     18633     18640
     18635     18633     18641     18639     18633     18640     18639     18633     18641
     18640     18633     18641     18633     18635     18637     18633     18635     18638
     18637     18635     18638     18646     18644     18650     18646     18644     18651
     18646     18644     18652     18650     18644     18651     18650     18644     18652
     18651     18644     18652     18644     18646     18648     18644     18646     18649
     18648     18646     18649     18657     18655     18661     18657     18655     18662
     18657     18655     18663     18661     18655     18662     18661     18655     18663
     18662     18655     18663     18655     18657     18659     18655     18657     18660
     18659     18657     18660     18668     18666     18672     18668     18666     18673
     18668     18666     18674     18672     18666     18673     18672     18666     18674
     18673     18666     18674     18666     18668     18670     18666     18668     18671
     18670     18668     18671     18679     18677     18683     18679     18677     18684
     18679     18677     18685     18683     18677     18684     18683     18677     18685
     18684     18677     18685     18677     18679     18681     18677     18679     18682
     18681     18679     18682     18690     18688     18694     18690     18688     18695
     18690     18688     18696     18694     18688     18695     18694     18688     18696
     18695     18688     18696     18688     18690     18692     18688     18690     18693
     18692     18690     18693     18701     18699     18705     18701     18699     18706
     18701     18699     18707     18705     18699     18706     18705     18699     18707
     18706     18699     18707     18699     18701     18703     18699     18701     18704
     18703     18701     18704     18712     18710     18716     18712     18710     18717
     18712     18710     18718     18716     18710     18717     18716     18710     18718
     18717     18710     18718     18710     18712     18714     18710     18712     18715
     18714     18712     18715     18723     18721     18727     18723     18721     18728
     18723     18721     18729     18727     18721     18728     18727     18721     18729
     18728     18721     18729     18721     18723     18725     18721     18723     18726
     18725     18723     18726     18734     18732     18738     18734     18732     18739
     18734     18732     18740     18738     18732     18739     18738     18732     18740
     18739     18732     18740     18732     18734     18736     18732     18734     18737
     18736     18734     18737     18745     18743     18749     18745     18743     18750
     18745     18743     18751     18749     18743     18750     18749     18743     18751
     18750     18743     18751     18743     18745     18747     18743     18745     18748
     18747     18745     18748     18756     18754     18760     18756     18754     18761
     18756     18754     18762     18760     18754     18761     18760     18754     18762
     18761     18754     18762     18754     18756     18758     18754     18756     18759
     18758     18756     18759     18767     18765     18771     18767     18765     18772
     18767     18765     18773     18771     18765     18772     18771     18765     18773
     18772     18765     18773     18765     18767     18769     18765     18767     18770
     18769     18767     18770     18778     18776     18782     18778     18776     18783
     18778     18776     18784     18782     18776     18783     18782     18776     18784
     18783     18776     18784     18776     18778     18780     18776     18778     18781
     18780     18778     18781     18789     18787     18793     18789     18787     18794
     18789     18787     18795     18793     18787     18794     18793     18787     18795
     18794     18787     18795     18787     18789     18791     18787     18789     18792
     18791     18789     18792     18800     18798     18804     18800     18798     18805
     18800     18798     18806     18804     18798     18805     18804     18798     18806
     18805     18798     18806     18798     18800     18802     18798     18800     18803
     18802     18800     18803     18811     18809     18815     18811     18809     18816
     18811     18809     18817     18815     18809     18816     18815     18809     18817
     18816     18809     18817     18809     18811     18813     18809     18811     18814
     18813     18811     18814     18822     18820     18826     18822     18820     18827
     18822     18820     18828     18826     18820     18827     18826     18820     18828
     18827     18820     18828     18820     18822     18824     18820     18822     18825
     18824     18822     18825     18833     18831     18837     18833     18831     18838
     18833     18831     18839     18837     18831     18838     18837     18831     18839
     18838     18831     18839     18831     18833     18835     18831     18833     18836
     18835     18833     18836     18844     18842     18848     18844     18842     18849
     18844     18842     18850     18848     18842     18849     18848     18842     18850
     18849     18842     18850     18842     18844     18846     18842     18844     18847
     18846     18844     18847     18855     18853     18859     18855     18853     18860
     18855     18853     18861     18859     18853     18860     18859     18853     18861
     18860     18853     18861     18853     18855     18857     18853     18855     18858
     18857     18855     18858     18866     18864     18870     18866     18864     18871
     18866     18864     18872     18870     18864     18871     18870     18864     18872
     18871     18864     18872     18864     18866     18868     18864     18866     18869
     18868     18866     18869     18877     18875     18881     18877     18875     18882
     18877     18875     18883     18881     18875     18882     18881     18875     18883
     18882     18875     18883     18875     18877     18879     18875     18877     18880
     18879     18877     18880     18888     18886     18892     18888     18886     18893
     18888     18886     18894     18892     18886     18893     18892     18886     18894
     18893     18886     18894     18886     18888     18890     18886     18888     18891
     18890     18888     18891     18899     18897     18903     18899     18897     18904
     18899     18897     18905     18903     18897     18904     18903     18897     18905
     18904     18897     18905     18897     18899     18901     18897     18899     18902
     18901     18899     18902     18910     18908     18914     18910     18908     18915
     18910     18908     18916     18914     18908     18915     18914     18908     18916
     18915     18908     18916     18908     18910     18912     18908     18910     18913
     18912     18910     18913     18921     18919     18925     18921     18919     18926
     18921     18919     18927     18925     18919     18926     18925     18919     18927
     18926     18919     18927     18919     18921     18923     18919     18921     18924
     18923     18921     18924     18932     18930     18936     18932     18930     18937
     18932     18930     18938     18936     18930     18937     18936     18930     18938
     18937     18930     18938     18930     18932     18934     18930     18932     18935
     18934     18932     18935     18943     18941     18947     18943     18941     18948
     18943     18941     18949     18947     18941     18948     18947     18941     18949
     18948     18941     18949     18941     18943     18945     18941     18943     18946
     18945     18943     18946     18954     18952     18958     18954     18952     18959
     18954     18952     18960     18958     18952     18959     18958     18952     18960
     18959     18952     18960     18952     18954     18956     18952     18954     18957
     18956     18954     18957     18965     18963     18969     18965     18963     18970
     18965     18963     18971     18969     18963     18970     18969     18963     18971
     18970     18963     18971     18963     18965     18967     18963     18965     18968
     18967     18965     18968     18976     18974     18980     18976     18974     18981
     18976     18974     18982     18980     18974     18981     18980     18974     18982
     18981     18974     18982     18974     18976     18978     18974     18976     18979
     18978     18976     18979     18987     18985     18991     18987     18985     18992
     18987     18985     18993     18991     18985     18992     18991     18985     18993
     18992     18985     18993     18985     18987     18989     18985     18987     18990
     18989     18987     18990     18998     18996     19002     18998     18996     19003
     18998     18996     19004     19002     18996     19003     19002     18996     19004
     19003     18996     19004     18996     18998     19000     18996     18998     19001
     19000     18998     19001     19009     19007     19013     19009     19007     19014
     19009     19007     19015     19013     19007     19014     19013     19007     19015
     19014     19007     19015     19007     19009     19011     19007     19009     19012
     19011     19009     19012     19020     19018     19024     19020     19018     19025
     19020     19018     19026     19024     19018     19025     19024     19018     19026
     19025     19018     19026     19018     19020     19022     19018     19020     19023
     19022     19020     19023     19031     19029     19035     19031     19029     19036
     19031     19029     19037     19035     19029     19036     19035     19029     19037
     19036     19029     19037     19029     19031     19033     19029     19031     19034
     19033     19031     19034     19042     19040     19046     19042     19040     19047
     19042     19040     19048     19046     19040     19047     19046     19040     19048
     19047     19040     19048     19040     19042     19044     19040     19042     19045
     19044     19042     19045     19053     19051     19057     19053     19051     19058
     19053     19051     19059     19057     19051     19058     19057     19051     19059
     19058     19051     19059     19051     19053     19055     19051     19053     19056
     19055     19053     19056     19064     19062     19068     19064     19062     19069
     19064     19062     19070     19068     19062     19069     19068     19062     19070
     19069     19062     19070     19062     19064     19066     19062     19064     19067
     19066     19064     19067     19075     19073     19079     19075     19073     19080
     19075     19073     19081     19079     19073     19080     19079     19073     19081
     19080     19073     19081     19073     19075     19077     19073     19075     19078
     19077     19075     19078     19086     19084     19090     19086     19084     19091
     19086     19084     19092     19090     19084     19091     19090     19084     19092
     19091     19084     19092     19084     19086     19088     19084     19086     19089
     19088     19086     19089     19097     19095     19101     19097     19095     19102
     19097     19095     19103     19101     19095     19102     19101     19095     19103
     19102     19095     19103     19095     19097     19099     19095     19097     19100
     19099     19097     19100     19108     19106     19112     19108     19106     19113
     19108     19106     19114     19112     19106     19113     19112     19106     19114
     19113     19106     19114     19106     19108     19110     19106     19108     19111
     19110     19108     19111     19119     19117     19123     19119     19117     19124
     19119     19117     19125     19123     19117     19124     19123     19117     19125
     19124     19117     19125     19117     19119     19121     19117     19119     19122
     19121     19119     19122     19130     19128     19134     19130     19128     19135
     19130     19128     19136     19134     19128     19135     19134     19128     19136
     19135     19128     19136     19128     19130     19132     19128     19130     19133
     19132     19130     19133     19141     19139     19145     19141     19139     19146
     19141     19139     19147     19145     19139     19146     19145     19139     19147
     19146     19139     19147     19139     19141     19143     19139     19141     19144
     19143     19141     19144     19152     19150     19156     19152     19150     19157
     19152     19150     19158     19156     19150     19157     19156     19150     19158
     19157     19150     19158     19150     19152     19154     19150     19152     19155
     19154     19152     19155     19163     19161     19167     19163     19161     19168
     19163     19161     19169     19167     19161     19168     19167     19161     19169
     19168     19161     19169     19161     19163     19165     19161     19163     19166
     19165     19163     19166     19174     19172     19178     19174     19172     19179
     19174     19172     19180     19178     19172     19179     19178     19172     19180
     19179     19172     19180     19172     19174     19176     19172     19174     19177
     19176     19174     19177     19185     19183     19189     19185     19183     19190
     19185     19183     19191     19189     19183     19190     19189     19183     19191
     19190     19183     19191     19183     19185     19187     19183     19185     19188
     19187     19185     19188     19196     19194     19200     19196     19194     19201
     19196     19194     19202     19200     19194     19201     19200     19194     19202
     19201     19194     19202     19194     19196     19198     19194     19196     19199
     19198     19196     19199     19207     19205     19211     19207     19205     19212
     19207     19205     19213     19211     19205     19212     19211     19205     19213
     19212     19205     19213     19205     19207     19209     19205     19207     19210
     19209     19207     19210     19218     19216     19222     19218     19216     19223
     19218     19216     19224     19222     19216     19223     19222     19216     19224
     19223     19216     19224     19216     19218     19220     19216     19218     19221
     19220     19218     19221     19229     19227     19233     19229     19227     19234
     19229     19227     19235     19233     19227     19234     19233     19227     19235
     19234     19227     19235     19227     19229     19231     19227     19229     19232
     19231     19229     19232     19240     19238     19244     19240     19238     19245
     19240     19238     19246     19244     19238     19245     19244     19238     19246
     19245     19238     19246     19238     19240     19242     19238     19240     19243
     19242     19240     19243     19251     19249     19255     19251     19249     19256
     19251     19249     19257     19255     19249     19256     19255     19249     19257
     19256     19249     19257     19249     19251     19253     19249     19251     19254
     19253     19251     19254     19262     19260     19266     19262     19260     19267
     19262     19260     19268     19266     19260     19267     19266     19260     19268
     19267     19260     19268     19260     19262     19264     19260     19262     19265
     19264     19262     19265     19273     19271     19277     19273     19271     19278
     19273     19271     19279     19277     19271     19278     19277     19271     19279
     19278     19271     19279     19271     19273     19275     19271     19273     19276
     19275     19273     19276     19284     19282     19288     19284     19282     19289
     19284     19282     19290     19288     19282     19289     19288     19282     19290
     19289     19282     19290     19282     19284     19286     19282     19284     19287
     19286     19284     19287     19295     19293     19299     19295     19293     19300
     19295     19293     19301     19299     19293     19300     19299     19293     19301
     19300     19293     19301     19293     19295     19297     19293     19295     19298
     19297     19295     19298     19306     19304     19310     19306     19304     19311
     19306     19304     19312     19310     19304     19311     19310     19304     19312
     19311     19304     19312     19304     19306     19308     19304     19306     19309
     19308     19306     19309     19317     19315     19321     19317     19315     19322
     19317     19315     19323     19321     19315     19322     19321     19315     19323
     19322     19315     19323     19315     19317     19319     19315     19317     19320
     19319     19317     19320     19328     19326     19332     19328     19326     19333
     19328     19326     19334     19332     19326     19333     19332     19326     19334
     19333     19326     19334     19326     19328     19330     19326     19328     19331
     19330     19328     19331     19339     19337     19343     19339     19337     19344
     19339     19337     19345     19343     19337     19344     19343     19337     19345
     19344     19337     19345     19337     19339     19341     19337     19339     19342
     19341     19339     19342     19350     19348     19354     19350     19348     19355
     19350     19348     19356     19354     19348     19355     19354     19348     19356
     19355     19348     19356     19348     19350     19352     19348     19350     19353
     19352     19350     19353     19361     19359     19365     19361     19359     19366
     19361     19359     19367     19365     19359     19366     19365     19359     19367
     19366     19359     19367     19359     19361     19363     19359     19361     19364
     19363     19361     19364     19372     19370     19376     19372     19370     19377
     19372     19370     19378     19376     19370     19377     19376     19370     19378
     19377     19370     19378     19370     19372     19374     19370     19372     19375
     19374     19372     19375     19383     19381     19387     19383     19381     19388
     19383     19381     19389     19387     19381     19388     19387     19381     19389
     19388     19381     19389     19381     19383     19385     19381     19383     19386
     19385     19383     19386     19394     19392     19398     19394     19392     19399
     19394     19392     19400     19398     19392     19399     19398     19392     19400
     19399     19392     19400     19392     19394     19396     19392     19394     19397
     19396     19394     19397     19405     19403     19409     19405     19403     19410
     19405     19403     19411     19409     19403     19410     19409     19403     19411
     19410     19403     19411     19403     19405     19407     19403     19405     19408
     19407     19405     19408     19416     19414     19420     19416     19414     19421
     19416     19414     19422     19420     19414     19421     19420     19414     19422
     19421     19414     19422     19414     19416     19418     19414     19416     19419
     19418     19416     19419     19427     19425     19431     19427     19425     19432
     19427     19425     19433     19431     19425     19432     19431     19425     19433
     19432     19425     19433     19425     19427     19429     19425     19427     19430
     19429     19427     19430     19438     19436     19442     19438     19436     19443
     19438     19436     19444     19442     19436     19443     19442     19436     19444
     19443     19436     19444     19436     19438     19440     19436     19438     19441
     19440     19438     19441     19449     19447     19453     19449     19447     19454
     19449     19447     19455     19453     19447     19454     19453     19447     19455
     19454     19447     19455     19447     19449     19451     19447     19449     19452
     19451     19449     19452     19460     19458     19464     19460     19458     19465
     19460     19458     19466     19464     19458     19465     19464     19458     19466
     19465     19458     19466     19458     19460     19462     19458     19460     19463
     19462     19460     19463     19471     19469     19475     19471     19469     19476
     19471     19469     19477     19475     19469     19476     19475     19469     19477
     19476     19469     19477     19469     19471     19473     19469     19471     19474
     19473     19471     19474     19482     19480     19486     19482     19480     19487
     19482     19480     19488     19486     19480     19487     19486     19480     19488
     19487     19480     19488     19480     19482     19484     19480     19482     19485
     19484     19482     19485     19493     19491     19497     19493     19491     19498
     19493     19491     19499     19497     19491     19498     19497     19491     19499
     19498     19491     19499     19491     19493     19495     19491     19493     19496
     19495     19493     19496     19504     19502     19508     19504     19502     19509
     19504     19502     19510     19508     19502     19509     19508     19502     19510
     19509     19502     19510     19502     19504     19506     19502     19504     19507
     19506     19504     19507     19515     19513     19519     19515     19513     19520
     19515     19513     19521     19519     19513     19520     19519     19513     19521
     19520     19513     19521     19513     19515     19517     19513     19515     19518
     19517     19515     19518     19526     19524     19530     19526     19524     19531
     19526     19524     19532     19530     19524     19531     19530     19524     19532
     19531     19524     19532     19524     19526     19528     19524     19526     19529
     19528     19526     19529     19537     19535     19541     19537     19535     19542
     19537     19535     19543     19541     19535     19542     19541     19535     19543
     19542     19535     19543     19535     19537     19539     19535     19537     19540
     19539     19537     19540     19548     19546     19552     19548     19546     19553
     19548     19546     19554     19552     19546     19553     19552     19546     19554
     19553     19546     19554     19546     19548     19550     19546     19548     19551
     19550     19548     19551     19559     19557     19563     19559     19557     19564
     19559     19557     19565     19563     19557     19564     19563     19557     19565
     19564     19557     19565     19557     19559     19561     19557     19559     19562
     19561     19559     19562     19570     19568     19574     19570     19568     19575
     19570     19568     19576     19574     19568     19575     19574     19568     19576
     19575     19568     19576     19568     19570     19572     19568     19570     19573
     19572     19570     19573     19581     19579     19585     19581     19579     19586
     19581     19579     19587     19585     19579     19586     19585     19579     19587
     19586     19579     19587     19579     19581     19583     19579     19581     19584
     19583     19581     19584     19592     19590     19596     19592     19590     19597
     19592     19590     19598     19596     19590     19597     19596     19590     19598
     19597     19590     19598     19590     19592     19594     19590     19592     19595
     19594     19592     19595     19603     19601     19607     19603     19601     19608
     19603     19601     19609     19607     19601     19608     19607     19601     19609
     19608     19601     19609     19601     19603     19605     19601     19603     19606
     19605     19603     19606     19614     19612     19618     19614     19612     19619
     19614     19612     19620     19618     19612     19619     19618     19612     19620
     19619     19612     19620     19612     19614     19616     19612     19614     19617
     19616     19614     19617     19625     19623     19629     19625     19623     19630
     19625     19623     19631     19629     19623     19630     19629     19623     19631
     19630     19623     19631     19623     19625     19627     19623     19625     19628
     19627     19625     19628     19636     19634     19640     19636     19634     19641
     19636     19634     19642     19640     19634     19641     19640     19634     19642
     19641     19634     19642     19634     19636     19638     19634     19636     19639
     19638     19636     19639     19647     19645     19651     19647     19645     19652
     19647     19645     19653     19651     19645     19652     19651     19645     19653
     19652     19645     19653     19645     19647     19649     19645     19647     19650
     19649     19647     19650     19658     19656     19662     19658     19656     19663
     19658     19656     19664     19662     19656     19663     19662     19656     19664
     19663     19656     19664     19656     19658     19660     19656     19658     19661
     19660     19658     19661     19669     19667     19673     19669     19667     19674
     19669     19667     19675     19673     19667     19674     19673     19667     19675
     19674     19667     19675     19667     19669     19671     19667     19669     19672
     19671     19669     19672     19680     19678     19684     19680     19678     19685
     19680     19678     19686     19684     19678     19685     19684     19678     19686
     19685     19678     19686     19678     19680     19682     19678     19680     19683
     19682     19680     19683     19691     19689     19695     19691     19689     19696
     19691     19689     19697     19695     19689     19696     19695     19689     19697
     19696     19689     19697     19689     19691     19693     19689     19691     19694
     19693     19691     19694     19702     19700     19706     19702     19700     19707
     19702     19700     19708     19706     19700     19707     19706     19700     19708
     19707     19700     19708     19700     19702     19704     19700     19702     19705
     19704     19702     19705     19713     19711     19717     19713     19711     19718
     19713     19711     19719     19717     19711     19718     19717     19711     19719
     19718     19711     19719     19711     19713     19715     19711     19713     19716
     19715     19713     19716     19724     19722     19728     19724     19722     19729
     19724     19722     19730     19728     19722     19729     19728     19722     19730
     19729     19722     19730     19722     19724     19726     19722     19724     19727
     19726     19724     19727     19735     19733     19739     19735     19733     19740
     19735     19733     19741     19739     19733     19740     19739     19733     19741
     19740     19733     19741     19733     19735     19737     19733     19735     19738
     19737     19735     19738     19746     19744     19750     19746     19744     19751
     19746     19744     19752     19750     19744     19751     19750     19744     19752
     19751     19744     19752     19744     19746     19748     19744     19746     19749
     19748     19746     19749     19757     19755     19761     19757     19755     19762
     19757     19755     19763     19761     19755     19762     19761     19755     19763
     19762     19755     19763     19755     19757     19759     19755     19757     19760
     19759     19757     19760     19768     19766     19772     19768     19766     19773
     19768     19766     19774     19772     19766     19773     19772     19766     19774
     19773     19766     19774     19766     19768     19770     19766     19768     19771
     19770     19768     19771     19779     19777     19783     19779     19777     19784
     19779     19777     19785     19783     19777     19784     19783     19777     19785
     19784     19777     19785     19777     19779     19781     19777     19779     19782
     19781     19779     19782     19790     19788     19794     19790     19788     19795
     19790     19788     19796     19794     19788     19795     19794     19788     19796
     19795     19788     19796     19788     19790     19792     19788     19790     19793
     19792     19790     19793     19801     19799     19805     19801     19799     19806
     19801     19799     19807     19805     19799     19806     19805     19799     19807
     19806     19799     19807     19799     19801     19803     19799     19801     19804
     19803     19801     19804     19812     19810     19816     19812     19810     19817
     19812     19810     19818     19816     19810     19817     19816     19810     19818
     19817     19810     19818     19810     19812     19814     19810     19812     19815
     19814     19812     19815     19823     19821     19827     19823     19821     19828
     19823     19821     19829     19827     19821     19828     19827     19821     19829
     19828     19821     19829     19821     19823     19825     19821     19823     19826
     19825     19823     19826     19834     19832     19838     19834     19832     19839
     19834     19832     19840     19838     19832     19839     19838     19832     19840
     19839     19832     19840     19832     19834     19836     19832     19834     19837
     19836     19834     19837     19845     19843     19849     19845     19843     19850
     19845     19843     19851     19849     19843     19850     19849     19843     19851
     19850     19843     19851     19843     19845     19847     19843     19845     19848
     19847     19845     19848     19856     19854     19860     19856     19854     19861
     19856     19854     19862     19860     19854     19861     19860     19854     19862
     19861     19854     19862     19854     19856     19858     19854     19856     19859
     19858     19856     19859     19867     19865     19871     19867     19865     19872
     19867     19865     19873     19871     19865     19872     19871     19865     19873
     19872     19865     19873     19865     19867     19869     19865     19867     19870
     19869     19867     19870     19878     19876     19882     19878     19876     19883
     19878     19876     19884     19882     19876     19883     19882     19876     19884
     19883     19876     19884     19876     19878     19880     19876     19878     19881
     19880     19878     19881     19889     19887     19893     19889     19887     19894
     19889     19887     19895     19893     19887     19894     19893     19887     19895
     19894     19887     19895     19887     19889     19891     19887     19889     19892
     19891     19889     19892     19900     19898     19904     19900     19898     19905
     19900     19898     19906     19904     19898     19905     19904     19898     19906
     19905     19898     19906     19898     19900     19902     19898     19900     19903
     19902     19900     19903     19911     19909     19915     19911     19909     19916
     19911     19909     19917     19915     19909     19916     19915     19909     19917
     19916     19909     19917     19909     19911     19913     19909     19911     19914
     19913     19911     19914     19922     19920     19926     19922     19920     19927
     19922     19920     19928     19926     19920     19927     19926     19920     19928
     19927     19920     19928     19920     19922     19924     19920     19922     19925
     19924     19922     19925     19933     19931     19937     19933     19931     19938
     19933     19931     19939     19937     19931     19938     19937     19931     19939
     19938     19931     19939     19931     19933     19935     19931     19933     19936
     19935     19933     19936     19944     19942     19948     19944     19942     19949
     19944     19942     19950     19948     19942     19949     19948     19942     19950
     19949     19942     19950     19942     19944     19946     19942     19944     19947
     19946     19944     19947     19955     19953     19959     19955     19953     19960
     19955     19953     19961     19959     19953     19960     19959     19953     19961
     19960     19953     19961     19953     19955     19957     19953     19955     19958
     19957     19955     19958     19966     19964     19970     19966     19964     19971
     19966     19964     19972     19970     19964     19971     19970     19964     19972
     19971     19964     19972     19964     19966     19968     19964     19966     19969
     19968     19966     19969     19977     19975     19981     19977     19975     19982
     19977     19975     19983     19981     19975     19982     19981     19975     19983
     19982     19975     19983     19975     19977     19979     19975     19977     19980
     19979     19977     19980     19988     19986     19992     19988     19986     19993
     19988     19986     19994     19992     19986     19993     19992     19986     19994
     19993     19986     19994     19986     19988     19990     19986     19988     19991
     19990     19988     19991     19999     19997     20003     19999     19997     20004
     19999     19997     20005     20003     19997     20004     20003     19997     20005
     20004     19997     20005     19997     19999     20001     19997     19999     20002
     20001     19999     20002     20010     20008     20014     20010     20008     20015
     20010     20008     20016     20014     20008     20015     20014     20008     20016
     20015     20008     20016     20008     20010     20012     20008     20010     20013
     20012     20010     20013     20021     20019     20025     20021     20019     20026
     20021     20019     20027     20025     20019     20026     20025     20019     20027
     20026     20019     20027     20019     20021     20023     20019     20021     20024
     20023     20021     20024     20032     20030     20036     20032     20030     20037
     20032     20030     20038     20036     20030     20037     20036     20030     20038
     20037     20030     20038     20030     20032     20034     20030     20032     20035
     20034     20032     20035     20043     20041     20047     20043     20041     20048
     20043     20041     20049     20047     20041     20048     20047     20041     20049
     20048     20041     20049     20041     20043     20045     20041     20043     20046
     20045     20043     20046     20054     20052     20058     20054     20052     20059
     20054     20052     20060     20058     20052     20059     20058     20052     20060
     20059     20052     20060     20052     20054     20056     20052     20054     20057
     20056     20054     20057     20065     20063     20069     20065     20063     20070
     20065     20063     20071     20069     20063     20070     20069     20063     20071
     20070     20063     20071     20063     20065     20067     20063     20065     20068
     20067     20065     20068     20076     20074     20080     20076     20074     20081
     20076     20074     20082     20080     20074     20081     20080     20074     20082
     20081     20074     20082     20074     20076     20078     20074     20076     20079
     20078     20076     20079     20087     20085     20091     20087     20085     20092
     20087     20085     20093     20091     20085     20092     20091     20085     20093
     20092     20085     20093     20085     20087     20089     20085     20087     20090
     20089     20087     20090     20098     20096     20102     20098     20096     20103
     20098     20096     20104     20102     20096     20103     20102     20096     20104
     20103     20096     20104     20096     20098     20100     20096     20098     20101
     20100     20098     20101     20109     20107     20113     20109     20107     20114
     20109     20107     20115     20113     20107     20114     20113     20107     20115
     20114     20107     20115     20107     20109     20111     20107     20109     20112
     20111     20109     20112     20120     20118     20124     20120     20118     20125
     20120     20118     20126     20124     20118     20125     20124     20118     20126
     20125     20118     20126     20118     20120     20122     20118     20120     20123
     20122     20120     20123     20131     20129     20135     20131     20129     20136
     20131     20129     20137     20135     20129     20136     20135     20129     20137
     20136     20129     20137     20129     20131     20133     20129     20131     20134
     20133     20131     20134     20142     20140     20146     20142     20140     20147
     20142     20140     20148     20146     20140     20147     20146     20140     20148
     20147     20140     20148     20140     20142     20144     20140     20142     20145
     20144     20142     20145     20153     20151     20157     20153     20151     20158
     20153     20151     20159     20157     20151     20158     20157     20151     20159
     20158     20151     20159     20151     20153     20155     20151     20153     20156
     20155     20153     20156     20164     20162     20168     20164     20162     20169
     20164     20162     20170     20168     20162     20169     20168     20162     20170
     20169     20162     20170     20162     20164     20166     20162     20164     20167
     20166     20164     20167     20175     20173     20179     20175     20173     20180
     20175     20173     20181     20179     20173     20180     20179     20173     20181
     20180     20173     20181     20173     20175     20177     20173     20175     20178
     20177     20175     20178     20186     20184     20190     20186     20184     20191
     20186     20184     20192     20190     20184     20191     20190     20184     20192
     20191     20184     20192     20184     20186     20188     20184     20186     20189
     20188     20186     20189     20197     20195     20201     20197     20195     20202
     20197     20195     20203     20201     20195     20202     20201     20195     20203
     20202     20195     20203     20195     20197     20199     20195     20197     20200
     20199     20197     20200     20208     20206     20212     20208     20206     20213
     20208     20206     20214     20212     20206     20213     20212     20206     20214
     20213     20206     20214     20206     20208     20210     20206     20208     20211
     20210     20208     20211     20219     20217     20223     20219     20217     20224
     20219     20217     20225     20223     20217     20224     20223     20217     20225
     20224     20217     20225     20217     20219     20221     20217     20219     20222
     20221     20219     20222     20230     20228     20234     20230     20228     20235
     20230     20228     20236     20234     20228     20235     20234     20228     20236
     20235     20228     20236     20228     20230     20232     20228     20230     20233
     20232     20230     20233     20241     20239     20245     20241     20239     20246
     20241     20239     20247     20245     20239     20246     20245     20239     20247
     20246     20239     20247     20239     20241     20243     20239     20241     20244
     20243     20241     20244     20252     20250     20256     20252     20250     20257
     20252     20250     20258     20256     20250     20257     20256     20250     20258
     20257     20250     20258     20250     20252     20254     20250     20252     20255
     20254     20252     20255     20263     20261     20267     20263     20261     20268
     20263     20261     20269     20267     20261     20268     20267     20261     20269
     20268     20261     20269     20261     20263     20265     20261     20263     20266
     20265     20263     20266     20274     20272     20278     20274     20272     20279
     20274     20272     20280     20278     20272     20279     20278     20272     20280
     20279     20272     20280     20272     20274     20276     20272     20274     20277
     20276     20274     20277     20285     20283     20289     20285     20283     20290
     20285     20283     20291     20289     20283     20290     20289     20283     20291
     20290     20283     20291     20283     20285     20287     20283     20285     20288
     20287     20285     20288     20296     20294     20300     20296     20294     20301
     20296     20294     20302     20300     20294     20301     20300     20294     20302
     20301     20294     20302     20294     20296     20298     20294     20296     20299
     20298     20296     20299     20307     20305     20311     20307     20305     20312
     20307     20305     20313     20311     20305     20312     20311     20305     20313
     20312     20305     20313     20305     20307     20309     20305     20307     20310
     20309     20307     20310     20318     20316     20322     20318     20316     20323
     20318     20316     20324     20322     20316     20323     20322     20316     20324
     20323     20316     20324     20316     20318     20320     20316     20318     20321
     20320     20318     20321     20329     20327     20333     20329     20327     20334
     20329     20327     20335     20333     20327     20334     20333     20327     20335
     20334     20327     20335     20327     20329     20331     20327     20329     20332
     20331     20329     20332     20340     20338     20344     20340     20338     20345
     20340     20338     20346     20344     20338     20345     20344     20338     20346
     20345     20338     20346     20338     20340     20342     20338     20340     20343
     20342     20340     20343     20351     20349     20355     20351     20349     20356
     20351     20349     20357     20355     20349     20356     20355     20349     20357
     20356     20349     20357     20349     20351     20353     20349     20351     20354
     20353     20351     20354     20362     20360     20366     20362     20360     20367
     20362     20360     20368     20366     20360     20367     20366     20360     20368
     20367     20360     20368     20360     20362     20364     20360     20362     20365
     20364     20362     20365     20373     20371     20377     20373     20371     20378
     20373     20371     20379     20377     20371     20378     20377     20371     20379
     20378     20371     20379     20371     20373     20375     20371     20373     20376
     20375     20373     20376     20384     20382     20388     20384     20382     20389
     20384     20382     20390     20388     20382     20389     20388     20382     20390
     20389     20382     20390     20382     20384     20386     20382     20384     20387
     20386     20384     20387     20395     20393     20399     20395     20393     20400
     20395     20393     20401     20399     20393     20400     20399     20393     20401
     20400     20393     20401     20393     20395     20397     20393     20395     20398
     20397     20395     20398     20406     20404     20410     20406     20404     20411
     20406     20404     20412     20410     20404     20411     20410     20404     20412
     20411     20404     20412     20404     20406     20408     20404     20406     20409
     20408     20406     20409     20417     20415     20421     20417     20415     20422
     20417     20415     20423     20421     20415     20422     20421     20415     20423
     20422     20415     20423     20415     20417     20419     20415     20417     20420
     20419     20417     20420     20428     20426     20432     20428     20426     20433
     20428     20426     20434     20432     20426     20433     20432     20426     20434
     20433     20426     20434     20426     20428     20430     20426     20428     20431
     20430     20428     20431     20439     20437     20443     20439     20437     20444
     20439     20437     20445     20443     20437     20444     20443     20437     20445
     20444     20437     20445     20437     20439     20441     20437     20439     20442
     20441     20439     20442     20450     20448     20454     20450     20448     20455
     20450     20448     20456     20454     20448     20455     20454     20448     20456
     20455     20448     20456     20448     20450     20452     20448     20450     20453
     20452     20450     20453     20461     20459     20465     20461     20459     20466
     20461     20459     20467     20465     20459     20466     20465     20459     20467
     20466     20459     20467     20459     20461     20463     20459     20461     20464
     20463     20461     20464     20472     20470     20476     20472     20470     20477
     20472     20470     20478     20476     20470     20477     20476     20470     20478
     20477     20470     20478     20470     20472     20474     20470     20472     20475
     20474     20472     20475     20483     20481     20487     20483     20481     20488
     20483     20481     20489     20487     20481     20488     20487     20481     20489
     20488     20481     20489     20481     20483     20485     20481     20483     20486
     20485     20483     20486     20494     20492     20498     20494     20492     20499
     20494     20492     20500     20498     20492     20499     20498     20492     20500
     20499     20492     20500     20492     20494     20496     20492     20494     20497
     20496     20494     20497     20505     20503     20509     20505     20503     20510
     20505     20503     20511     20509     20503     20510     20509     20503     20511
     20510     20503     20511     20503     20505     20507     20503     20505     20508
     20507     20505     20508     20516     20514     20520     20516     20514     20521
     20516     20514     20522     20520     20514     20521     20520     20514     20522
     20521     20514     20522     20514     20516     20518     20514     20516     20519
     20518     20516     20519     20527     20525     20531     20527     20525     20532
     20527     20525     20533     20531     20525     20532     20531     20525     20533
     20532     20525     20533     20525     20527     20529     20525     20527     20530
     20529     20527     20530     20538     20536     20542     20538     20536     20543
     20538     20536     20544     20542     20536     20543     20542     20536     20544
     20543     20536     20544     20536     20538     20540     20536     20538     20541
     20540     20538     20541     20549     20547     20553     20549     20547     20554
     20549     20547     20555     20553     20547     20554     20553     20547     20555
     20554     20547     20555     20547     20549     20551     20547     20549     20552
     20551     20549     20552     20560     20558     20564     20560     20558     20565
     20560     20558     20566     20564     20558     20565     20564     20558     20566
     20565     20558     20566     20558     20560     20562     20558     20560     20563
     20562     20560     20563     20571     20569     20575     20571     20569     20576
     20571     20569     20577     20575     20569     20576     20575     20569     20577
     20576     20569     20577     20569     20571     20573     20569     20571     20574
     20573     20571     20574     20582     20580     20586     20582     20580     20587
     20582     20580     20588     20586     20580     20587     20586     20580     20588
     20587     20580     20588     20580     20582     20584     20580     20582     20585
     20584     20582     20585     20593     20591     20597     20593     20591     20598
     20593     20591     20599     20597     20591     20598     20597     20591     20599
     20598     20591     20599     20591     20593     20595     20591     20593     20596
     20595     20593     20596     20604     20602     20608     20604     20602     20609
     20604     20602     20610     20608     20602     20609     20608     20602     20610
     20609     20602     20610     20602     20604     20606     20602     20604     20607
     20606     20604     20607     20615     20613     20619     20615     20613     20620
     20615     20613     20621     20619     20613     20620     20619     20613     20621
     20620     20613     20621     20613     20615     20617     20613     20615     20618
     20617     20615     20618     20626     20624     20630     20626     20624     20631
     20626     20624     20632     20630     20624     20631     20630     20624     20632
     20631     20624     20632     20624     20626     20628     20624     20626     20629
     20628     20626     20629     20637     20635     20641     20637     20635     20642
     20637     20635     20643     20641     20635     20642     20641     20635     20643
     20642     20635     20643     20635     20637     20639     20635     20637     20640
     20639     20637     20640     20648     20646     20652     20648     20646     20653
     20648     20646     20654     20652     20646     20653     20652     20646     20654
     20653     20646     20654     20646     20648     20650     20646     20648     20651
     20650     20648     20651     20659     20657     20663     20659     20657     20664
     20659     20657     20665     20663     20657     20664     20663     20657     20665
     20664     20657     20665     20657     20659     20661     20657     20659     20662
     20661     20659     20662     20670     20668     20674     20670     20668     20675
     20670     20668     20676     20674     20668     20675     20674     20668     20676
     20675     20668     20676     20668     20670     20672     20668     20670     20673
     20672     20670     20673     20681     20679     20685     20681     20679     20686
     20681     20679     20687     20685     20679     20686     20685     20679     20687
     20686     20679     20687     20679     20681     20683     20679     20681     20684
     20683     20681     20684     20692     20690     20696     20692     20690     20697
     20692     20690     20698     20696     20690     20697     20696     20690     20698
     20697     20690     20698     20690     20692     20694     20690     20692     20695
     20694     20692     20695     20703     20701     20707     20703     20701     20708
     20703     20701     20709     20707     20701     20708     20707     20701     20709
     20708     20701     20709     20701     20703     20705     20701     20703     20706
     20705     20703     20706     20714     20712     20718     20714     20712     20719
     20714     20712     20720     20718     20712     20719     20718     20712     20720
     20719     20712     20720     20712     20714     20716     20712     20714     20717
     20716     20714     20717     20725     20723     20729     20725     20723     20730
     20725     20723     20731     20729     20723     20730     20729     20723     20731
     20730     20723     20731     20723     20725     20727     20723     20725     20728
     20727     20725     20728     20736     20734     20740     20736     20734     20741
     20736     20734     20742     20740     20734     20741     20740     20734     20742
     20741     20734     20742     20734     20736     20738     20734     20736     20739
     20738     20736     20739     20747     20745     20751     20747     20745     20752
     20747     20745     20753     20751     20745     20752     20751     20745     20753
     20752     20745     20753     20745     20747     20749     20745     20747     20750
     20749     20747     20750     20758     20756     20762     20758     20756     20763
     20758     20756     20764     20762     20756     20763     20762     20756     20764
     20763     20756     20764     20756     20758     20760     20756     20758     20761
     20760     20758     20761     20769     20767     20773     20769     20767     20774
     20769     20767     20775     20773     20767     20774     20773     20767     20775
     20774     20767     20775     20767     20769     20771     20767     20769     20772
     20771     20769     20772     20780     20778     20784     20780     20778     20785
     20780     20778     20786     20784     20778     20785     20784     20778     20786
     20785     20778     20786     20778     20780     20782     20778     20780     20783
     20782     20780     20783     20791     20789     20795     20791     20789     20796
     20791     20789     20797     20795     20789     20796     20795     20789     20797
     20796     20789     20797     20789     20791     20793     20789     20791     20794
     20793     20791     20794     20802     20800     20806     20802     20800     20807
     20802     20800     20808     20806     20800     20807     20806     20800     20808
     20807     20800     20808     20800     20802     20804     20800     20802     20805
     20804     20802     20805     20813     20811     20817     20813     20811     20818
     20813     20811     20819     20817     20811     20818     20817     20811     20819
     20818     20811     20819     20811     20813     20815     20811     20813     20816
     20815     20813     20816     20824     20822     20828     20824     20822     20829
     20824     20822     20830     20828     20822     20829     20828     20822     20830
     20829     20822     20830     20822     20824     20826     20822     20824     20827
     20826     20824     20827     20835     20833     20839     20835     20833     20840
     20835     20833     20841     20839     20833     20840     20839     20833     20841
     20840     20833     20841     20833     20835     20837     20833     20835     20838
     20837     20835     20838     20846     20844     20850     20846     20844     20851
     20846     20844     20852     20850     20844     20851     20850     20844     20852
     20851     20844     20852     20844     20846     20848     20844     20846     20849
     20848     20846     20849     20857     20855     20861     20857     20855     20862
     20857     20855     20863     20861     20855     20862     20861     20855     20863
     20862     20855     20863     20855     20857     20859     20855     20857     20860
     20859     20857     20860     20868     20866     20872     20868     20866     20873
     20868     20866     20874     20872     20866     20873     20872     20866     20874
     20873     20866     20874     20866     20868     20870     20866     20868     20871
     20870     20868     20871     20879     20877     20883     20879     20877     20884
     20879     20877     20885     20883     20877     20884     20883     20877     20885
     20884     20877     20885     20877     20879     20881     20877     20879     20882
     20881     20879     20882     20890     20888     20894     20890     20888     20895
     20890     20888     20896     20894     20888     20895     20894     20888     20896
     20895     20888     20896     20888     20890     20892     20888     20890     20893
     20892     20890     20893     20901     20899     20905     20901     20899     20906
     20901     20899     20907     20905     20899     20906     20905     20899     20907
     20906     20899     20907     20899     20901     20903     20899     20901     20904
     20903     20901     20904     20912     20910     20916     20912     20910     20917
     20912     20910     20918     20916     20910     20917     20916     20910     20918
     20917     20910     20918     20910     20912     20914     20910     20912     20915
     20914     20912     20915     20923     20921     20927     20923     20921     20928
     20923     20921     20929     20927     20921     20928     20927     20921     20929
     20928     20921     20929     20921     20923     20925     20921     20923     20926
     20925     20923     20926     20934     20932     20938     20934     20932     20939
     20934     20932     20940     20938     20932     20939     20938     20932     20940
     20939     20932     20940     20932     20934     20936     20932     20934     20937
     20936     20934     20937     20945     20943     20949     20945     20943     20950
     20945     20943     20951     20949     20943     20950     20949     20943     20951
     20950     20943     20951     20943     20945     20947     20943     20945     20948
     20947     20945     20948     20956     20954     20960     20956     20954     20961
     20956     20954     20962     20960     20954     20961     20960     20954     20962
     20961     20954     20962     20954     20956     20958     20954     20956     20959
     20958     20956     20959     20967     20965     20971     20967     20965     20972
     20967     20965     20973     20971     20965     20972     20971     20965     20973
     20972     20965     20973     20965     20967     20969     20965     20967     20970
     20969     20967     20970     20978     20976     20982     20978     20976     20983
     20978     20976     20984     20982     20976     20983     20982     20976     20984
     20983     20976     20984     20976     20978     20980     20976     20978     20981
     20980     20978     20981     20989     20987     20993     20989     20987     20994
     20989     20987     20995     20993     20987     20994     20993     20987     20995
     20994     20987     20995     20987     20989     20991     20987     20989     20992
     20991     20989     20992     21000     20998     21004     21000     20998     21005
     21000     20998     21006     21004     20998     21005     21004     20998     21006
     21005     20998     21006     20998     21000     21002     20998     21000     21003
     21002     21000     21003     21011     21009     21015     21011     21009     21016
     21011     21009     21017     21015     21009     21016     21015     21009     21017
     21016     21009     21017     21009     21011     21013     21009     21011     21014
     21013     21011     21014     21022     21020     21026     21022     21020     21027
     21022     21020     21028     21026     21020     21027     21026     21020     21028
     21027     21020     21028     21020     21022     21024     21020     21022     21025
     21024     21022     21025     21033     21031     21037     21033     21031     21038
     21033     21031     21039     21037     21031     21038     21037     21031     21039
     21038     21031     21039     21031     21033     21035     21031     21033     21036
     21035     21033     21036     21044     21042     21048     21044     21042     21049
     21044     21042     21050     21048     21042     21049     21048     21042     21050
     21049     21042     21050     21042     21044     21046     21042     21044     21047
     21046     21044     21047     21055     21053     21059     21055     21053     21060
     21055     21053     21061     21059     21053     21060     21059     21053     21061
     21060     21053     21061     21053     21055     21057     21053     21055     21058
     21057     21055     21058     21066     21064     21070     21066     21064     21071
     21066     21064     21072     21070     21064     21071     21070     21064     21072
     21071     21064     21072     21064     21066     21068     21064     21066     21069
     21068     21066     21069     21077     21075     21081     21077     21075     21082
     21077     21075     21083     21081     21075     21082     21081     21075     21083
     21082     21075     21083     21075     21077     21079     21075     21077     21080
     21079     21077     21080     21088     21086     21092     21088     21086     21093
     21088     21086     21094     21092     21086     21093     21092     21086     21094
     21093     21086     21094     21086     21088     21090     21086     21088     21091
     21090     21088     21091     21099     21097     21103     21099     21097     21104
     21099     21097     21105     21103     21097     21104     21103     21097     21105
     21104     21097     21105     21097     21099     21101     21097     21099     21102
     21101     21099     21102     21110     21108     21114     21110     21108     21115
     21110     21108     21116     21114     21108     21115     21114     21108     21116
     21115     21108     21116     21108     21110     21112     21108     21110     21113
     21112     21110     21113     21121     21119     21125     21121     21119     21126
     21121     21119     21127     21125     21119     21126     21125     21119     21127
     21126     21119     21127     21119     21121     21123     21119     21121     21124
     21123     21121     21124     21132     21130     21136     21132     21130     21137
     21132     21130     21138     21136     21130     21137     21136     21130     21138
     21137     21130     21138     21130     21132     21134     21130     21132     21135
     21134     21132     21135     21143     21141     21147     21143     21141     21148
     21143     21141     21149     21147     21141     21148     21147     21141     21149
     21148     21141     21149     21141     21143     21145     21141     21143     21146
     21145     21143     21146     21154     21152     21158     21154     21152     21159
     21154     21152     21160     21158     21152     21159     21158     21152     21160
     21159     21152     21160     21152     21154     21156     21152     21154     21157
     21156     21154     21157     21165     21163     21169     21165     21163     21170
     21165     21163     21171     21169     21163     21170     21169     21163     21171
     21170     21163     21171     21163     21165     21167     21163     21165     21168
     21167     21165     21168     21176     21174     21180     21176     21174     21181
     21176     21174     21182     21180     21174     21181     21180     21174     21182
     21181     21174     21182     21174     21176     21178     21174     21176     21179
     21178     21176     21179     21187     21185     21191     21187     21185     21192
     21187     21185     21193     21191     21185     21192     21191     21185     21193
     21192     21185     21193     21185     21187     21189     21185     21187     21190
     21189     21187     21190     21198     21196     21202     21198     21196     21203
     21198     21196     21204     21202     21196     21203     21202     21196     21204
     21203     21196     21204     21196     21198     21200     21196     21198     21201
     21200     21198     21201     21209     21207     21213     21209     21207     21214
     21209     21207     21215     21213     21207     21214     21213     21207     21215
     21214     21207     21215     21207     21209     21211     21207     21209     21212
     21211     21209     21212     21220     21218     21224     21220     21218     21225
     21220     21218     21226     21224     21218     21225     21224     21218     21226
     21225     21218     21226     21218     21220     21222     21218     21220     21223
     21222     21220     21223     21231     21229     21235     21231     21229     21236
     21231     21229     21237     21235     21229     21236     21235     21229     21237
     21236     21229     21237     21229     21231     21233     21229     21231     21234
     21233     21231     21234     21242     21240     21246     21242     21240     21247
     21242     21240     21248     21246     21240     21247     21246     21240     21248
     21247     21240     21248     21240     21242     21244     21240     21242     21245
     21244     21242     21245     21253     21251     21257     21253     21251     21258
     21253     21251     21259     21257     21251     21258     21257     21251     21259
     21258     21251     21259     21251     21253     21255     21251     21253     21256
     21255     21253     21256     21264     21262     21268     21264     21262     21269
     21264     21262     21270     21268     21262     21269     21268     21262     21270
     21269     21262     21270     21262     21264     21266     21262     21264     21267
     21266     21264     21267     21275     21273     21279     21275     21273     21280
     21275     21273     21281     21279     21273     21280     21279     21273     21281
     21280     21273     21281     21273     21275     21277     21273     21275     21278
     21277     21275     21278     21286     21284     21290     21286     21284     21291
     21286     21284     21292     21290     21284     21291     21290     21284     21292
     21291     21284     21292     21284     21286     21288     21284     21286     21289
     21288     21286     21289     21297     21295     21301     21297     21295     21302
     21297     21295     21303     21301     21295     21302     21301     21295     21303
     21302     21295     21303     21295     21297     21299     21295     21297     21300
     21299     21297     21300     21308     21306     21312     21308     21306     21313
     21308     21306     21314     21312     21306     21313     21312     21306     21314
     21313     21306     21314     21306     21308     21310     21306     21308     21311
     21310     21308     21311     21319     21317     21323     21319     21317     21324
     21319     21317     21325     21323     21317     21324     21323     21317     21325
     21324     21317     21325     21317     21319     21321     21317     21319     21322
     21321     21319     21322     21330     21328     21334     21330     21328     21335
     21330     21328     21336     21334     21328     21335     21334     21328     21336
     21335     21328     21336     21328     21330     21332     21328     21330     21333
     21332     21330     21333     21341     21339     21345     21341     21339     21346
     21341     21339     21347     21345     21339     21346     21345     21339     21347
     21346     21339     21347     21339     21341     21343     21339     21341     21344
     21343     21341     21344     21352     21350     21356     21352     21350     21357
     21352     21350     21358     21356     21350     21357     21356     21350     21358
     21357     21350     21358     21350     21352     21354     21350     21352     21355
     21354     21352     21355     21363     21361     21367     21363     21361     21368
     21363     21361     21369     21367     21361     21368     21367     21361     21369
     21368     21361     21369     21361     21363     21365     21361     21363     21366
     21365     21363     21366     21374     21372     21378     21374     21372     21379
     21374     21372     21380     21378     21372     21379     21378     21372     21380
     21379     21372     21380     21372     21374     21376     21372     21374     21377
     21376     21374     21377     21385     21383     21389     21385     21383     21390
     21385     21383     21391     21389     21383     21390     21389     21383     21391
     21390     21383     21391     21383     21385     21387     21383     21385     21388
     21387     21385     21388     21396     21394     21400     21396     21394     21401
     21396     21394     21402     21400     21394     21401     21400     21394     21402
     21401     21394     21402     21394     21396     21398     21394     21396     21399
     21398     21396     21399     21407     21405     21411     21407     21405     21412
     21407     21405     21413     21411     21405     21412     21411     21405     21413
     21412     21405     21413     21405     21407     21409     21405     21407     21410
     21409     21407     21410     21418     21416     21422     21418     21416     21423
     21418     21416     21424     21422     21416     21423     21422     21416     21424
     21423     21416     21424     21416     21418     21420     21416     21418     21421
     21420     21418     21421     21429     21427     21433     21429     21427     21434
     21429     21427     21435     21433     21427     21434     21433     21427     21435
     21434     21427     21435     21427     21429     21431     21427     21429     21432
     21431     21429     21432     21440     21438     21444     21440     21438     21445
     21440     21438     21446     21444     21438     21445     21444     21438     21446
     21445     21438     21446     21438     21440     21442     21438     21440     21443
     21442     21440     21443     21451     21449     21455     21451     21449     21456
     21451     21449     21457     21455     21449     21456     21455     21449     21457
     21456     21449     21457     21449     21451     21453     21449     21451     21454
     21453     21451     21454     21462     21460     21466     21462     21460     21467
     21462     21460     21468     21466     21460     21467     21466     21460     21468
     21467     21460     21468     21460     21462     21464     21460     21462     21465
     21464     21462     21465     21473     21471     21477     21473     21471     21478
     21473     21471     21479     21477     21471     21478     21477     21471     21479
     21478     21471     21479     21471     21473     21475     21471     21473     21476
     21475     21473     21476     21484     21482     21488     21484     21482     21489
     21484     21482     21490     21488     21482     21489     21488     21482     21490
     21489     21482     21490     21482     21484     21486     21482     21484     21487
     21486     21484     21487     21495     21493     21499     21495     21493     21500
     21495     21493     21501     21499     21493     21500     21499     21493     21501
     21500     21493     21501     21493     21495     21497     21493     21495     21498
     21497     21495     21498     21506     21504     21510     21506     21504     21511
     21506     21504     21512     21510     21504     21511     21510     21504     21512
     21511     21504     21512     21504     21506     21508     21504     21506     21509
     21508     21506     21509     21517     21515     21521     21517     21515     21522
     21517     21515     21523     21521     21515     21522     21521     21515     21523
     21522     21515     21523     21515     21517     21519     21515     21517     21520
     21519     21517     21520     21528     21526     21532     21528     21526     21533
     21528     21526     21534     21532     21526     21533     21532     21526     21534
     21533     21526     21534     21526     21528     21530     21526     21528     21531
     21530     21528     21531     21539     21537     21543     21539     21537     21544
     21539     21537     21545     21543     21537     21544     21543     21537     21545
     21544     21537     21545     21537     21539     21541     21537     21539     21542
     21541     21539     21542     21550     21548     21554     21550     21548     21555
     21550     21548     21556     21554     21548     21555     21554     21548     21556
     21555     21548     21556     21548     21550     21552     21548     21550     21553
     21552     21550     21553     21561     21559     21565     21561     21559     21566
     21561     21559     21567     21565     21559     21566     21565     21559     21567
     21566     21559     21567     21559     21561     21563     21559     21561     21564
     21563     21561     21564     21572     21570     21576     21572     21570     21577
     21572     21570     21578     21576     21570     21577     21576     21570     21578
     21577     21570     21578     21570     21572     21574     21570     21572     21575
     21574     21572     21575     21583     21581     21587     21583     21581     21588
     21583     21581     21589     21587     21581     21588     21587     21581     21589
     21588     21581     21589     21581     21583     21585     21581     21583     21586
     21585     21583     21586     21594     21592     21598     21594     21592     21599
     21594     21592     21600     21598     21592     21599     21598     21592     21600
     21599     21592     21600     21592     21594     21596     21592     21594     21597
     21596     21594     21597     21605     21603     21609     21605     21603     21610
     21605     21603     21611     21609     21603     21610     21609     21603     21611
     21610     21603     21611     21603     21605     21607     21603     21605     21608
     21607     21605     21608     21616     21614     21620     21616     21614     21621
     21616     21614     21622     21620     21614     21621     21620     21614     21622
     21621     21614     21622     21614     21616     21618     21614     21616     21619
     21618     21616     21619     21627     21625     21631     21627     21625     21632
     21627     21625     21633     21631     21625     21632     21631     21625     21633
     21632     21625     21633     21625     21627     21629     21625     21627     21630
     21629     21627     21630     21638     21636     21642     21638     21636     21643
     21638     21636     21644     21642     21636     21643     21642     21636     21644
     21643     21636     21644     21636     21638     21640     21636     21638     21641
     21640     21638     21641     21649     21647     21653     21649     21647     21654
     21649     21647     21655     21653     21647     21654     21653     21647     21655
     21654     21647     21655     21647     21649     21651     21647     21649     21652
     21651     21649     21652     21660     21658     21664     21660     21658     21665
     21660     21658     21666     21664     21658     21665     21664     21658     21666
     21665     21658     21666     21658     21660     21662     21658     21660     21663
     21662     21660     21663     21671     21669     21675     21671     21669     21676
     21671     21669     21677     21675     21669     21676     21675     21669     21677
     21676     21669     21677     21669     21671     21673     21669     21671     21674
     21673     21671     21674     21682     21680     21686     21682     21680     21687
     21682     21680     21688     21686     21680     21687     21686     21680     21688
     21687     21680     21688     21680     21682     21684     21680     21682     21685
     21684     21682     21685     21693     21691     21697     21693     21691     21698
     21693     21691     21699     21697     21691     21698     21697     21691     21699
     21698     21691     21699     21691     21693     21695     21691     21693     21696
     21695     21693     21696     21704     21702     21708     21704     21702     21709
     21704     21702     21710     21708     21702     21709     21708     21702     21710
     21709     21702     21710     21702     21704     21706     21702     21704     21707
     21706     21704     21707     21715     21713     21719     21715     21713     21720
     21715     21713     21721     21719     21713     21720     21719     21713     21721
     21720     21713     21721     21713     21715     21717     21713     21715     21718
     21717     21715     21718     21726     21724     21730     21726     21724     21731
     21726     21724     21732     21730     21724     21731     21730     21724     21732
     21731     21724     21732     21724     21726     21728     21724     21726     21729
     21728     21726     21729     21737     21735     21741     21737     21735     21742
     21737     21735     21743     21741     21735     21742     21741     21735     21743
     21742     21735     21743     21735     21737     21739     21735     21737     21740
     21739     21737     21740     21748     21746     21752     21748     21746     21753
     21748     21746     21754     21752     21746     21753     21752     21746     21754
     21753     21746     21754     21746     21748     21750     21746     21748     21751
     21750     21748     21751     21759     21757     21763     21759     21757     21764
     21759     21757     21765     21763     21757     21764     21763     21757     21765
     21764     21757     21765     21757     21759     21761     21757     21759     21762
     21761     21759     21762     21770     21768     21774     21770     21768     21775
     21770     21768     21776     21774     21768     21775     21774     21768     21776
     21775     21768     21776     21768     21770     21772     21768     21770     21773
     21772     21770     21773     21781     21779     21785     21781     21779     21786
     21781     21779     21787     21785     21779     21786     21785     21779     21787
     21786     21779     21787     21779     21781     21783     21779     21781     21784
     21783     21781     21784     21792     21790     21796     21792     21790     21797
     21792     21790     21798     21796     21790     21797     21796     21790     21798
     21797     21790     21798     21790     21792     21794     21790     21792     21795
     21794     21792     21795     21803     21801     21807     21803     21801     21808
     21803     21801     21809     21807     21801     21808     21807     21801     21809
     21808     21801     21809     21801     21803     21805     21801     21803     21806
     21805     21803     21806     21814     21812     21818     21814     21812     21819
     21814     21812     21820     21818     21812     21819     21818     21812     21820
     21819     21812     21820     21812     21814     21816     21812     21814     21817
     21816     21814     21817     21825     21823     21829     21825     21823     21830
     21825     21823     21831     21829     21823     21830     21829     21823     21831
     21830     21823     21831     21823     21825     21827     21823     21825     21828
     21827     21825     21828     21836     21834     21840     21836     21834     21841
     21836     21834     21842     21840     21834     21841     21840     21834     21842
     21841     21834     21842     21834     21836     21838     21834     21836     21839
     21838     21836     21839     21847     21845     21851     21847     21845     21852
     21847     21845     21853     21851     21845     21852     21851     21845     21853
     21852     21845     21853     21845     21847     21849     21845     21847     21850
     21849     21847     21850     21858     21856     21862     21858     21856     21863
     21858     21856     21864     21862     21856     21863     21862     21856     21864
     21863     21856     21864     21856     21858     21860     21856     21858     21861
     21860     21858     21861     21869     21867     21873     21869     21867     21874
     21869     21867     21875     21873     21867     21874     21873     21867     21875
     21874     21867     21875     21867     21869     21871     21867     21869     21872
     21871     21869     21872     21880     21878     21884     21880     21878     21885
     21880     21878     21886     21884     21878     21885     21884     21878     21886
     21885     21878     21886     21878     21880     21882     21878     21880     21883
     21882     21880     21883     21891     21889     21895     21891     21889     21896
     21891     21889     21897     21895     21889     21896     21895     21889     21897
     21896     21889     21897     21889     21891     21893     21889     21891     21894
     21893     21891     21894     21902     21900     21906     21902     21900     21907
     21902     21900     21908     21906     21900     21907     21906     21900     21908
     21907     21900     21908     21900     21902     21904     21900     21902     21905
     21904     21902     21905     21913     21911     21917     21913     21911     21918
     21913     21911     21919     21917     21911     21918     21917     21911     21919
     21918     21911     21919     21911     21913     21915     21911     21913     21916
     21915     21913     21916     21924     21922     21928     21924     21922     21929
     21924     21922     21930     21928     21922     21929     21928     21922     21930
     21929     21922     21930     21922     21924     21926     21922     21924     21927
     21926     21924     21927     21935     21933     21939     21935     21933     21940
     21935     21933     21941     21939     21933     21940     21939     21933     21941
     21940     21933     21941     21933     21935     21937     21933     21935     21938
     21937     21935     21938     21946     21944     21950     21946     21944     21951
     21946     21944     21952     21950     21944     21951     21950     21944     21952
     21951     21944     21952     21944     21946     21948     21944     21946     21949
     21948     21946     21949     21957     21955     21961     21957     21955     21962
     21957     21955     21963     21961     21955     21962     21961     21955     21963
     21962     21955     21963     21955     21957     21959     21955     21957     21960
     21959     21957     21960     21968     21966     21972     21968     21966     21973
     21968     21966     21974     21972     21966     21973     21972     21966     21974
     21973     21966     21974     21966     21968     21970     21966     21968     21971
     21970     21968     21971     21979     21977     21983     21979     21977     21984
     21979     21977     21985     21983     21977     21984     21983     21977     21985
     21984     21977     21985     21977     21979     21981     21977     21979     21982
     21981     21979     21982     21990     21988     21994     21990     21988     21995
     21990     21988     21996     21994     21988     21995     21994     21988     21996
     21995     21988     21996     21988     21990     21992     21988     21990     21993
     21992     21990     21993     22001     21999     22005     22001     21999     22006
     22001     21999     22007     22005     21999     22006     22005     21999     22007
     22006     21999     22007     21999     22001     22003     21999     22001     22004
     22003     22001     22004     22012     22010     22016     22012     22010     22017
     22012     22010     22018     22016     22010     22017     22016     22010     22018
     22017     22010     22018     22010     22012     22014     22010     22012     22015
     22014     22012     22015     22023     22021     22027     22023     22021     22028
     22023     22021     22029     22027     22021     22028     22027     22021     22029
     22028     22021     22029     22021     22023     22025     22021     22023     22026
     22025     22023     22026     22034     22032     22038     22034     22032     22039
     22034     22032     22040     22038     22032     22039     22038     22032     22040
     22039     22032     22040     22032     22034     22036     22032     22034     22037
     22036     22034     22037     22045     22043     22049     22045     22043     22050
     22045     22043     22051     22049     22043     22050     22049     22043     22051
     22050     22043     22051     22043     22045     22047     22043     22045     22048
     22047     22045     22048     22056     22054     22060     22056     22054     22061
     22056     22054     22062     22060     22054     22061     22060     22054     22062
     22061     22054     22062     22054     22056     22058     22054     22056     22059
     22058     22056     22059     22067     22065     22071     22067     22065     22072
     22067     22065     22073     22071     22065     22072     22071     22065     22073
     22072     22065     22073     22065     22067     22069     22065     22067     22070
     22069     22067     22070     22078     22076     22082     22078     22076     22083
     22078     22076     22084     22082     22076     22083     22082     22076     22084
     22083     22076     22084     22076     22078     22080     22076     22078     22081
     22080     22078     22081     22089     22087     22093     22089     22087     22094
     22089     22087     22095     22093     22087     22094     22093     22087     22095
     22094     22087     22095     22087     22089     22091     22087     22089     22092
     22091     22089     22092     22100     22098     22104     22100     22098     22105
     22100     22098     22106     22104     22098     22105     22104     22098     22106
     22105     22098     22106     22098     22100     22102     22098     22100     22103
     22102     22100     22103     22111     22109     22115     22111     22109     22116
     22111     22109     22117     22115     22109     22116     22115     22109     22117
     22116     22109     22117     22109     22111     22113     22109     22111     22114
     22113     22111     22114     22122     22120     22126     22122     22120     22127
     22122     22120     22128     22126     22120     22127     22126     22120     22128
     22127     22120     22128     22120     22122     22124     22120     22122     22125
     22124     22122     22125     22133     22131     22137     22133     22131     22138
     22133     22131     22139     22137     22131     22138     22137     22131     22139
     22138     22131     22139     22131     22133     22135     22131     22133     22136
     22135     22133     22136     22144     22142     22148     22144     22142     22149
     22144     22142     22150     22148     22142     22149     22148     22142     22150
     22149     22142     22150     22142     22144     22146     22142     22144     22147
     22146     22144     22147     22155     22153     22159     22155     22153     22160
     22155     22153     22161     22159     22153     22160     22159     22153     22161
     22160     22153     22161     22153     22155     22157     22153     22155     22158
     22157     22155     22158     22166     22164     22170     22166     22164     22171
     22166     22164     22172     22170     22164     22171     22170     22164     22172
     22171     22164     22172     22164     22166     22168     22164     22166     22169
     22168     22166     22169     22177     22175     22181     22177     22175     22182
     22177     22175     22183     22181     22175     22182     22181     22175     22183
     22182     22175     22183     22175     22177     22179     22175     22177     22180
     22179     22177     22180     22188     22186     22192     22188     22186     22193
     22188     22186     22194     22192     22186     22193     22192     22186     22194
     22193     22186     22194     22186     22188     22190     22186     22188     22191
     22190     22188     22191     22199     22197     22203     22199     22197     22204
     22199     22197     22205     22203     22197     22204     22203     22197     22205
     22204     22197     22205     22197     22199     22201     22197     22199     22202
     22201     22199     22202     22210     22208     22214     22210     22208     22215
     22210     22208     22216     22214     22208     22215     22214     22208     22216
     22215     22208     22216     22208     22210     22212     22208     22210     22213
     22212     22210     22213     22221     22219     22225     22221     22219     22226
     22221     22219     22227     22225     22219     22226     22225     22219     22227
     22226     22219     22227     22219     22221     22223     22219     22221     22224
     22223     22221     22224     22232     22230     22236     22232     22230     22237
     22232     22230     22238     22236     22230     22237     22236     22230     22238
     22237     22230     22238     22230     22232     22234     22230     22232     22235
     22234     22232     22235     22243     22241     22247     22243     22241     22248
     22243     22241     22249     22247     22241     22248     22247     22241     22249
     22248     22241     22249     22241     22243     22245     22241     22243     22246
     22245     22243     22246     22254     22252     22258     22254     22252     22259
     22254     22252     22260     22258     22252     22259     22258     22252     22260
     22259     22252     22260     22252     22254     22256     22252     22254     22257
     22256     22254     22257     22265     22263     22269     22265     22263     22270
     22265     22263     22271     22269     22263     22270     22269     22263     22271
     22270     22263     22271     22263     22265     22267     22263     22265     22268
     22267     22265     22268     22276     22274     22280     22276     22274     22281
     22276     22274     22282     22280     22274     22281     22280     22274     22282
     22281     22274     22282     22274     22276     22278     22274     22276     22279
     22278     22276     22279     22287     22285     22291     22287     22285     22292
     22287     22285     22293     22291     22285     22292     22291     22285     22293
     22292     22285     22293     22285     22287     22289     22285     22287     22290
     22289     22287     22290     22298     22296     22302     22298     22296     22303
     22298     22296     22304     22302     22296     22303     22302     22296     22304
     22303     22296     22304     22296     22298     22300     22296     22298     22301
     22300     22298     22301     22309     22307     22313     22309     22307     22314
     22309     22307     22315     22313     22307     22314     22313     22307     22315
     22314     22307     22315     22307     22309     22311     22307     22309     22312
     22311     22309     22312     22320     22318     22324     22320     22318     22325
     22320     22318     22326     22324     22318     22325     22324     22318     22326
     22325     22318     22326     22318     22320     22322     22318     22320     22323
     22322     22320     22323     22331     22329     22335     22331     22329     22336
     22331     22329     22337     22335     22329     22336     22335     22329     22337
     22336     22329     22337     22329     22331     22333     22329     22331     22334
     22333     22331     22334     22342     22340     22346     22342     22340     22347
     22342     22340     22348     22346     22340     22347     22346     22340     22348
     22347     22340     22348     22340     22342     22344     22340     22342     22345
     22344     22342     22345     22353     22351     22357     22353     22351     22358
     22353     22351     22359     22357     22351     22358     22357     22351     22359
     22358     22351     22359     22351     22353     22355     22351     22353     22356
     22355     22353     22356     22364     22362     22368     22364     22362     22369
     22364     22362     22370     22368     22362     22369     22368     22362     22370
     22369     22362     22370     22362     22364     22366     22362     22364     22367
     22366     22364     22367     22375     22373     22379     22375     22373     22380
     22375     22373     22381     22379     22373     22380     22379     22373     22381
     22380     22373     22381     22373     22375     22377     22373     22375     22378
     22377     22375     22378     22386     22384     22390     22386     22384     22391
     22386     22384     22392     22390     22384     22391     22390     22384     22392
     22391     22384     22392     22384     22386     22388     22384     22386     22389
     22388     22386     22389     22397     22395     22401     22397     22395     22402
     22397     22395     22403     22401     22395     22402     22401     22395     22403
     22402     22395     22403     22395     22397     22399     22395     22397     22400
     22399     22397     22400     22408     22406     22412     22408     22406     22413
     22408     22406     22414     22412     22406     22413     22412     22406     22414
     22413     22406     22414     22406     22408     22410     22406     22408     22411
     22410     22408     22411     22419     22417     22423     22419     22417     22424
     22419     22417     22425     22423     22417     22424     22423     22417     22425
     22424     22417     22425     22417     22419     22421     22417     22419     22422
     22421     22419     22422     22430     22428     22434     22430     22428     22435
     22430     22428     22436     22434     22428     22435     22434     22428     22436
     22435     22428     22436     22428     22430     22432     22428     22430     22433
     22432     22430     22433     22441     22439     22445     22441     22439     22446
     22441     22439     22447     22445     22439     22446     22445     22439     22447
     22446     22439     22447     22439     22441     22443     22439     22441     22444
     22443     22441     22444     22452     22450     22456     22452     22450     22457
     22452     22450     22458     22456     22450     22457     22456     22450     22458
     22457     22450     22458     22450     22452     22454     22450     22452     22455
     22454     22452     22455     22463     22461     22467     22463     22461     22468
     22463     22461     22469     22467     22461     22468     22467     22461     22469
     22468     22461     22469     22461     22463     22465     22461     22463     22466
     22465     22463     22466     22474     22472     22478     22474     22472     22479
     22474     22472     22480     22478     22472     22479     22478     22472     22480
     22479     22472     22480     22472     22474     22476     22472     22474     22477
     22476     22474     22477     22485     22483     22489     22485     22483     22490
     22485     22483     22491     22489     22483     22490     22489     22483     22491
     22490     22483     22491     22483     22485     22487     22483     22485     22488
     22487     22485     22488     22496     22494     22500     22496     22494     22501
     22496     22494     22502     22500     22494     22501     22500     22494     22502
     22501     22494     22502     22494     22496     22498     22494     22496     22499
     22498     22496     22499     22507     22505     22511     22507     22505     22512
     22507     22505     22513     22511     22505     22512     22511     22505     22513
     22512     22505     22513     22505     22507     22509     22505     22507     22510
     22509     22507     22510     22518     22516     22522     22518     22516     22523
     22518     22516     22524     22522     22516     22523     22522     22516     22524
     22523     22516     22524     22516     22518     22520     22516     22518     22521
     22520     22518     22521     22529     22527     22533     22529     22527     22534
     22529     22527     22535     22533     22527     22534     22533     22527     22535
     22534     22527     22535     22527     22529     22531     22527     22529     22532
     22531     22529     22532     22540     22538     22544     22540     22538     22545
     22540     22538     22546     22544     22538     22545     22544     22538     22546
     22545     22538     22546     22538     22540     22542     22538     22540     22543
     22542     22540     22543     22551     22549     22555     22551     22549     22556
     22551     22549     22557     22555     22549     22556     22555     22549     22557
     22556     22549     22557     22549     22551     22553     22549     22551     22554
     22553     22551     22554     22562     22560     22566     22562     22560     22567
     22562     22560     22568     22566     22560     22567     22566     22560     22568
     22567     22560     22568     22560     22562     22564     22560     22562     22565
     22564     22562     22565     22573     22571     22577     22573     22571     22578
     22573     22571     22579     22577     22571     22578     22577     22571     22579
     22578     22571     22579     22571     22573     22575     22571     22573     22576
     22575     22573     22576     22584     22582     22588     22584     22582     22589
     22584     22582     22590     22588     22582     22589     22588     22582     22590
     22589     22582     22590     22582     22584     22586     22582     22584     22587
     22586     22584     22587     22595     22593     22599     22595     22593     22600
     22595     22593     22601     22599     22593     22600     22599     22593     22601
     22600     22593     22601     22593     22595     22597     22593     22595     22598
     22597     22595     22598     22606     22604     22610     22606     22604     22611
     22606     22604     22612     22610     22604     22611     22610     22604     22612
     22611     22604     22612     22604     22606     22608     22604     22606     22609
     22608     22606     22609     22617     22615     22621     22617     22615     22622
     22617     22615     22623     22621     22615     22622     22621     22615     22623
     22622     22615     22623     22615     22617     22619     22615     22617     22620
     22619     22617     22620     22628     22626     22632     22628     22626     22633
     22628     22626     22634     22632     22626     22633     22632     22626     22634
     22633     22626     22634     22626     22628     22630     22626     22628     22631
     22630     22628     22631     22639     22637     22643     22639     22637     22644
     22639     22637     22645     22643     22637     22644     22643     22637     22645
     22644     22637     22645     22637     22639     22641     22637     22639     22642
     22641     22639     22642     22650     22648     22654     22650     22648     22655
     22650     22648     22656     22654     22648     22655     22654     22648     22656
     22655     22648     22656     22648     22650     22652     22648     22650     22653
     22652     22650     22653     22661     22659     22665     22661     22659     22666
     22661     22659     22667     22665     22659     22666     22665     22659     22667
     22666     22659     22667     22659     22661     22663     22659     22661     22664
     22663     22661     22664     22672     22670     22676     22672     22670     22677
     22672     22670     22678     22676     22670     22677     22676     22670     22678
     22677     22670     22678     22670     22672     22674     22670     22672     22675
     22674     22672     22675     22683     22681     22687     22683     22681     22688
     22683     22681     22689     22687     22681     22688     22687     22681     22689
     22688     22681     22689     22681     22683     22685     22681     22683     22686
     22685     22683     22686     22694     22692     22698     22694     22692     22699
     22694     22692     22700     22698     22692     22699     22698     22692     22700
     22699     22692     22700     22692     22694     22696     22692     22694     22697
     22696     22694     22697     22705     22703     22709     22705     22703     22710
     22705     22703     22711     22709     22703     22710     22709     22703     22711
     22710     22703     22711     22703     22705     22707     22703     22705     22708
     22707     22705     22708     22716     22714     22720     22716     22714     22721
     22716     22714     22722     22720     22714     22721     22720     22714     22722
     22721     22714     22722     22714     22716     22718     22714     22716     22719
     22718     22716     22719     22727     22725     22731     22727     22725     22732
     22727     22725     22733     22731     22725     22732     22731     22725     22733
     22732     22725     22733     22725     22727     22729     22725     22727     22730
     22729     22727     22730     22738     22736     22742     22738     22736     22743
     22738     22736     22744     22742     22736     22743     22742     22736     22744
     22743     22736     22744     22736     22738     22740     22736     22738     22741
     22740     22738     22741     22749     22747     22753     22749     22747     22754
     22749     22747     22755     22753     22747     22754     22753     22747     22755
     22754     22747     22755     22747     22749     22751     22747     22749     22752
     22751     22749     22752     22760     22758     22764     22760     22758     22765
     22760     22758     22766     22764     22758     22765     22764     22758     22766
     22765     22758     22766     22758     22760     22762     22758     22760     22763
     22762     22760     22763     22771     22769     22775     22771     22769     22776
     22771     22769     22777     22775     22769     22776     22775     22769     22777
     22776     22769     22777     22769     22771     22773     22769     22771     22774
     22773     22771     22774     22782     22780     22786     22782     22780     22787
     22782     22780     22788     22786     22780     22787     22786     22780     22788
     22787     22780     22788     22780     22782     22784     22780     22782     22785
     22784     22782     22785     22793     22791     22797     22793     22791     22798
     22793     22791     22799     22797     22791     22798     22797     22791     22799
     22798     22791     22799     22791     22793     22795     22791     22793     22796
     22795     22793     22796     22804     22802     22808     22804     22802     22809
     22804     22802     22810     22808     22802     22809     22808     22802     22810
     22809     22802     22810     22802     22804     22806     22802     22804     22807
     22806     22804     22807     22815     22813     22819     22815     22813     22820
     22815     22813     22821     22819     22813     22820     22819     22813     22821
     22820     22813     22821     22813     22815     22817     22813     22815     22818
     22817     22815     22818     22826     22824     22830     22826     22824     22831
     22826     22824     22832     22830     22824     22831     22830     22824     22832
     22831     22824     22832     22824     22826     22828     22824     22826     22829
     22828     22826     22829     22837     22835     22841     22837     22835     22842
     22837     22835     22843     22841     22835     22842     22841     22835     22843
     22842     22835     22843     22835     22837     22839     22835     22837     22840
     22839     22837     22840     22848     22846     22852     22848     22846     22853
     22848     22846     22854     22852     22846     22853     22852     22846     22854
     22853     22846     22854     22846     22848     22850     22846     22848     22851
     22850     22848     22851     22859     22857     22863     22859     22857     22864
     22859     22857     22865     22863     22857     22864     22863     22857     22865
     22864     22857     22865     22857     22859     22861     22857     22859     22862
     22861     22859     22862     22870     22868     22874     22870     22868     22875
     22870     22868     22876     22874     22868     22875     22874     22868     22876
     22875     22868     22876     22868     22870     22872     22868     22870     22873
     22872     22870     22873     22881     22879     22885     22881     22879     22886
     22881     22879     22887     22885     22879     22886     22885     22879     22887
     22886     22879     22887     22879     22881     22883     22879     22881     22884
     22883     22881     22884     22892     22890     22896     22892     22890     22897
     22892     22890     22898     22896     22890     22897     22896     22890     22898
     22897     22890     22898     22890     22892     22894     22890     22892     22895
     22894     22892     22895     22903     22901     22907     22903     22901     22908
     22903     22901     22909     22907     22901     22908     22907     22901     22909
     22908     22901     22909     22901     22903     22905     22901     22903     22906
     22905     22903     22906     22914     22912     22918     22914     22912     22919
     22914     22912     22920     22918     22912     22919     22918     22912     22920
     22919     22912     22920     22912     22914     22916     22912     22914     22917
     22916     22914     22917     22925     22923     22929     22925     22923     22930
     22925     22923     22931     22929     22923     22930     22929     22923     22931
     22930     22923     22931     22923     22925     22927     22923     22925     22928
     22927     22925     22928     22936     22934     22940     22936     22934     22941
     22936     22934     22942     22940     22934     22941     22940     22934     22942
     22941     22934     22942     22934     22936     22938     22934     22936     22939
     22938     22936     22939     22947     22945     22951     22947     22945     22952
     22947     22945     22953     22951     22945     22952     22951     22945     22953
     22952     22945     22953     22945     22947     22949     22945     22947     22950
     22949     22947     22950     22958     22956     22962     22958     22956     22963
     22958     22956     22964     22962     22956     22963     22962     22956     22964
     22963     22956     22964     22956     22958     22960     22956     22958     22961
     22960     22958     22961     22969     22967     22973     22969     22967     22974
     22969     22967     22975     22973     22967     22974     22973     22967     22975
     22974     22967     22975     22967     22969     22971     22967     22969     22972
     22971     22969     22972     22980     22978     22984     22980     22978     22985
     22980     22978     22986     22984     22978     22985     22984     22978     22986
     22985     22978     22986     22978     22980     22982     22978     22980     22983
     22982     22980     22983     22991     22989     22995     22991     22989     22996
     22991     22989     22997     22995     22989     22996     22995     22989     22997
     22996     22989     22997     22989     22991     22993     22989     22991     22994
     22993     22991     22994     23002     23000     23006     23002     23000     23007
     23002     23000     23008     23006     23000     23007     23006     23000     23008
     23007     23000     23008     23000     23002     23004     23000     23002     23005
     23004     23002     23005     23013     23011     23017     23013     23011     23018
     23013     23011     23019     23017     23011     23018     23017     23011     23019
     23018     23011     23019     23011     23013     23015     23011     23013     23016
     23015     23013     23016     23024     23022     23028     23024     23022     23029
     23024     23022     23030     23028     23022     23029     23028     23022     23030
     23029     23022     23030     23022     23024     23026     23022     23024     23027
     23026     23024     23027     23035     23033     23039     23035     23033     23040
     23035     23033     23041     23039     23033     23040     23039     23033     23041
     23040     23033     23041     23033     23035     23037     23033     23035     23038
     23037     23035     23038     23046     23044     23050     23046     23044     23051
     23046     23044     23052     23050     23044     23051     23050     23044     23052
     23051     23044     23052     23044     23046     23048     23044     23046     23049
     23048     23046     23049     23057     23055     23061     23057     23055     23062
     23057     23055     23063     23061     23055     23062     23061     23055     23063
     23062     23055     23063     23055     23057     23059     23055     23057     23060
     23059     23057     23060     23068     23066     23072     23068     23066     23073
     23068     23066     23074     23072     23066     23073     23072     23066     23074
     23073     23066     23074     23066     23068     23070     23066     23068     23071
     23070     23068     23071     23079     23077     23083     23079     23077     23084
     23079     23077     23085     23083     23077     23084     23083     23077     23085
     23084     23077     23085     23077     23079     23081     23077     23079     23082
     23081     23079     23082     23090     23088     23094     23090     23088     23095
     23090     23088     23096     23094     23088     23095     23094     23088     23096
     23095     23088     23096     23088     23090     23092     23088     23090     23093
     23092     23090     23093     23101     23099     23105     23101     23099     23106
     23101     23099     23107     23105     23099     23106     23105     23099     23107
     23106     23099     23107     23099     23101     23103     23099     23101     23104
     23103     23101     23104     23112     23110     23116     23112     23110     23117
     23112     23110     23118     23116     23110     23117     23116     23110     23118
     23117     23110     23118     23110     23112     23114     23110     23112     23115
     23114     23112     23115     23123     23121     23127     23123     23121     23128
     23123     23121     23129     23127     23121     23128     23127     23121     23129
     23128     23121     23129     23121     23123     23125     23121     23123     23126
     23125     23123     23126     23134     23132     23138     23134     23132     23139
     23134     23132     23140     23138     23132     23139     23138     23132     23140
     23139     23132     23140     23132     23134     23136     23132     23134     23137
     23136     23134     23137     23145     23143     23149     23145     23143     23150
     23145     23143     23151     23149     23143     23150     23149     23143     23151
     23150     23143     23151     23143     23145     23147     23143     23145     23148
     23147     23145     23148     23156     23154     23160     23156     23154     23161
     23156     23154     23162     23160     23154     23161     23160     23154     23162
     23161     23154     23162     23154     23156     23158     23154     23156     23159
     23158     23156     23159     23167     23165     23171     23167     23165     23172
     23167     23165     23173     23171     23165     23172     23171     23165     23173
     23172     23165     23173     23165     23167     23169     23165     23167     23170
     23169     23167     23170     23178     23176     23182     23178     23176     23183
     23178     23176     23184     23182     23176     23183     23182     23176     23184
     23183     23176     23184     23176     23178     23180     23176     23178     23181
     23180     23178     23181     23189     23187     23193     23189     23187     23194
     23189     23187     23195     23193     23187     23194     23193     23187     23195
     23194     23187     23195     23187     23189     23191     23187     23189     23192
     23191     23189     23192     23200     23198     23204     23200     23198     23205
     23200     23198     23206     23204     23198     23205     23204     23198     23206
     23205     23198     23206     23198     23200     23202     23198     23200     23203
     23202     23200     23203     23211     23209     23215     23211     23209     23216
     23211     23209     23217     23215     23209     23216     23215     23209     23217
     23216     23209     23217     23209     23211     23213     23209     23211     23214
     23213     23211     23214     23222     23220     23226     23222     23220     23227
     23222     23220     23228     23226     23220     23227     23226     23220     23228
     23227     23220     23228     23220     23222     23224     23220     23222     23225
     23224     23222     23225     23233     23231     23237     23233     23231     23238
     23233     23231     23239     23237     23231     23238     23237     23231     23239
     23238     23231     23239     23231     23233     23235     23231     23233     23236
     23235     23233     23236     23244     23242     23248     23244     23242     23249
     23244     23242     23250     23248     23242     23249     23248     23242     23250
     23249     23242     23250     23242     23244     23246     23242     23244     23247
     23246     23244     23247     23255     23253     23259     23255     23253     23260
     23255     23253     23261     23259     23253     23260     23259     23253     23261
     23260     23253     23261     23253     23255     23257     23253     23255     23258
     23257     23255     23258     23266     23264     23270     23266     23264     23271
     23266     23264     23272     23270     23264     23271     23270     23264     23272
     23271     23264     23272     23264     23266     23268     23264     23266     23269
     23268     23266     23269     23277     23275     23281     23277     23275     23282
     23277     23275     23283     23281     23275     23282     23281     23275     23283
     23282     23275     23283     23275     23277     23279     23275     23277     23280
     23279     23277     23280     23288     23286     23292     23288     23286     23293
     23288     23286     23294     23292     23286     23293     23292     23286     23294
     23293     23286     23294     23286     23288     23290     23286     23288     23291
     23290     23288     23291     23299     23297     23303     23299     23297     23304
     23299     23297     23305     23303     23297     23304     23303     23297     23305
     23304     23297     23305     23297     23299     23301     23297     23299     23302
     23301     23299     23302     23310     23308     23314     23310     23308     23315
     23310     23308     23316     23314     23308     23315     23314     23308     23316
     23315     23308     23316     23308     23310     23312     23308     23310     23313
     23312     23310     23313     23321     23319     23325     23321     23319     23326
     23321     23319     23327     23325     23319     23326     23325     23319     23327
     23326     23319     23327     23319     23321     23323     23319     23321     23324
     23323     23321     23324     23332     23330     23336     23332     23330     23337
     23332     23330     23338     23336     23330     23337     23336     23330     23338
     23337     23330     23338     23330     23332     23334     23330     23332     23335
     23334     23332     23335     23343     23341     23347     23343     23341     23348
     23343     23341     23349     23347     23341     23348     23347     23341     23349
     23348     23341     23349     23341     23343     23345     23341     23343     23346
     23345     23343     23346     23354     23352     23358     23354     23352     23359
     23354     23352     23360     23358     23352     23359     23358     23352     23360
     23359     23352     23360     23352     23354     23356     23352     23354     23357
     23356     23354     23357     23365     23363     23369     23365     23363     23370
     23365     23363     23371     23369     23363     23370     23369     23363     23371
     23370     23363     23371     23363     23365     23367     23363     23365     23368
     23367     23365     23368     23376     23374     23380     23376     23374     23381
     23376     23374     23382     23380     23374     23381     23380     23374     23382
     23381     23374     23382     23374     23376     23378     23374     23376     23379
     23378     23376     23379     23387     23385     23391     23387     23385     23392
     23387     23385     23393     23391     23385     23392     23391     23385     23393
     23392     23385     23393     23385     23387     23389     23385     23387     23390
     23389     23387     23390     23398     23396     23402     23398     23396     23403
     23398     23396     23404     23402     23396     23403     23402     23396     23404
     23403     23396     23404     23396     23398     23400     23396     23398     23401
     23400     23398     23401     23409     23407     23413     23409     23407     23414
     23409     23407     23415     23413     23407     23414     23413     23407     23415
     23414     23407     23415     23407     23409     23411     23407     23409     23412
     23411     23409     23412     23420     23418     23424     23420     23418     23425
     23420     23418     23426     23424     23418     23425     23424     23418     23426
     23425     23418     23426     23418     23420     23422     23418     23420     23423
     23422     23420     23423     23431     23429     23435     23431     23429     23436
     23431     23429     23437     23435     23429     23436     23435     23429     23437
     23436     23429     23437     23429     23431     23433     23429     23431     23434
     23433     23431     23434     23442     23440     23446     23442     23440     23447
     23442     23440     23448     23446     23440     23447     23446     23440     23448
     23447     23440     23448     23440     23442     23444     23440     23442     23445
     23444     23442     23445     23453     23451     23457     23453     23451     23458
     23453     23451     23459     23457     23451     23458     23457     23451     23459
     23458     23451     23459     23451     23453     23455     23451     23453     23456
     23455     23453     23456     23464     23462     23468     23464     23462     23469
     23464     23462     23470     23468     23462     23469     23468     23462     23470
     23469     23462     23470     23462     23464     23466     23462     23464     23467
     23466     23464     23467     23475     23473     23479     23475     23473     23480
     23475     23473     23481     23479     23473     23480     23479     23473     23481
     23480     23473     23481     23473     23475     23477     23473     23475     23478
     23477     23475     23478     23486     23484     23490     23486     23484     23491
     23486     23484     23492     23490     23484     23491     23490     23484     23492
     23491     23484     23492     23484     23486     23488     23484     23486     23489
     23488     23486     23489     23497     23495     23501     23497     23495     23502
     23497     23495     23503     23501     23495     23502     23501     23495     23503
     23502     23495     23503     23495     23497     23499     23495     23497     23500
     23499     23497     23500     23508     23506     23512     23508     23506     23513
     23508     23506     23514     23512     23506     23513     23512     23506     23514
     23513     23506     23514     23506     23508     23510     23506     23508     23511
     23510     23508     23511     23519     23517     23523     23519     23517     23524
     23519     23517     23525     23523     23517     23524     23523     23517     23525
     23524     23517     23525     23517     23519     23521     23517     23519     23522
     23521     23519     23522     23530     23528     23534     23530     23528     23535
     23530     23528     23536     23534     23528     23535     23534     23528     23536
     23535     23528     23536     23528     23530     23532     23528     23530     23533
     23532     23530     23533     23541     23539     23545     23541     23539     23546
     23541     23539     23547     23545     23539     23546     23545     23539     23547
     23546     23539     23547     23539     23541     23543     23539     23541     23544
     23543     23541     23544     23552     23550     23556     23552     23550     23557
     23552     23550     23558     23556     23550     23557     23556     23550     23558
     23557     23550     23558     23550     23552     23554     23550     23552     23555
     23554     23552     23555     23563     23561     23567     23563     23561     23568
     23563     23561     23569     23567     23561     23568     23567     23561     23569
     23568     23561     23569     23561     23563     23565     23561     23563     23566
     23565     23563     23566     23574     23572     23578     23574     23572     23579
     23574     23572     23580     23578     23572     23579     23578     23572     23580
     23579     23572     23580     23572     23574     23576     23572     23574     23577
     23576     23574     23577     23585     23583     23589     23585     23583     23590
     23585     23583     23591     23589     23583     23590     23589     23583     23591
     23590     23583     23591     23583     23585     23587     23583     23585     23588
     23587     23585     23588     23596     23594     23600     23596     23594     23601
     23596     23594     23602     23600     23594     23601     23600     23594     23602
     23601     23594     23602     23594     23596     23598     23594     23596     23599
     23598     23596     23599     23607     23605     23611     23607     23605     23612
     23607     23605     23613     23611     23605     23612     23611     23605     23613
     23612     23605     23613     23605     23607     23609     23605     23607     23610
     23609     23607     23610     23618     23616     23622     23618     23616     23623
     23618     23616     23624     23622     23616     23623     23622     23616     23624
     23623     23616     23624     23616     23618     23620     23616     23618     23621
     23620     23618     23621     23629     23627     23633     23629     23627     23634
     23629     23627     23635     23633     23627     23634     23633     23627     23635
     23634     23627     23635     23627     23629     23631     23627     23629     23632
     23631     23629     23632     23640     23638     23644     23640     23638     23645
     23640     23638     23646     23644     23638     23645     23644     23638     23646
     23645     23638     23646     23638     23640     23642     23638     23640     23643
     23642     23640     23643     23651     23649     23655     23651     23649     23656
     23651     23649     23657     23655     23649     23656     23655     23649     23657
     23656     23649     23657     23649     23651     23653     23649     23651     23654
     23653     23651     23654     23662     23660     23666     23662     23660     23667
     23662     23660     23668     23666     23660     23667     23666     23660     23668
     23667     23660     23668     23660     23662     23664     23660     23662     23665
     23664     23662     23665     23673     23671     23677     23673     23671     23678
     23673     23671     23679     23677     23671     23678     23677     23671     23679
     23678     23671     23679     23671     23673     23675     23671     23673     23676
     23675     23673     23676     23684     23682     23688     23684     23682     23689
     23684     23682     23690     23688     23682     23689     23688     23682     23690
     23689     23682     23690     23682     23684     23686     23682     23684     23687
     23686     23684     23687     23695     23693     23699     23695     23693     23700
     23695     23693     23701     23699     23693     23700     23699     23693     23701
     23700     23693     23701     23693     23695     23697     23693     23695     23698
     23697     23695     23698     23706     23704     23710     23706     23704     23711
     23706     23704     23712     23710     23704     23711     23710     23704     23712
     23711     23704     23712     23704     23706     23708     23704     23706     23709
     23708     23706     23709     23717     23715     23721     23717     23715     23722
     23717     23715     23723     23721     23715     23722     23721     23715     23723
     23722     23715     23723     23715     23717     23719     23715     23717     23720
     23719     23717     23720     23728     23726     23732     23728     23726     23733
     23728     23726     23734     23732     23726     23733     23732     23726     23734
     23733     23726     23734     23726     23728     23730     23726     23728     23731
     23730     23728     23731     23739     23737     23743     23739     23737     23744
     23739     23737     23745     23743     23737     23744     23743     23737     23745
     23744     23737     23745     23737     23739     23741     23737     23739     23742
     23741     23739     23742     23750     23748     23754     23750     23748     23755
     23750     23748     23756     23754     23748     23755     23754     23748     23756
     23755     23748     23756     23748     23750     23752     23748     23750     23753
     23752     23750     23753     23761     23759     23765     23761     23759     23766
     23761     23759     23767     23765     23759     23766     23765     23759     23767
     23766     23759     23767     23759     23761     23763     23759     23761     23764
     23763     23761     23764     23772     23770     23776     23772     23770     23777
     23772     23770     23778     23776     23770     23777     23776     23770     23778
     23777     23770     23778     23770     23772     23774     23770     23772     23775
     23774     23772     23775     23783     23781     23787     23783     23781     23788
     23783     23781     23789     23787     23781     23788     23787     23781     23789
     23788     23781     23789     23781     23783     23785     23781     23783     23786
     23785     23783     23786     23794     23792     23798     23794     23792     23799
     23794     23792     23800     23798     23792     23799     23798     23792     23800
     23799     23792     23800     23792     23794     23796     23792     23794     23797
     23796     23794     23797     23805     23803     23809     23805     23803     23810
     23805     23803     23811     23809     23803     23810     23809     23803     23811
     23810     23803     23811     23803     23805     23807     23803     23805     23808
     23807     23805     23808     23816     23814     23820     23816     23814     23821
     23816     23814     23822     23820     23814     23821     23820     23814     23822
     23821     23814     23822     23814     23816     23818     23814     23816     23819
     23818     23816     23819     23827     23825     23831     23827     23825     23832
     23827     23825     23833     23831     23825     23832     23831     23825     23833
     23832     23825     23833     23825     23827     23829     23825     23827     23830
     23829     23827     23830     23838     23836     23842     23838     23836     23843
     23838     23836     23844     23842     23836     23843     23842     23836     23844
     23843     23836     23844     23836     23838     23840     23836     23838     23841
     23840     23838     23841     23849     23847     23853     23849     23847     23854
     23849     23847     23855     23853     23847     23854     23853     23847     23855
     23854     23847     23855     23847     23849     23851     23847     23849     23852
     23851     23849     23852     23860     23858     23864     23860     23858     23865
     23860     23858     23866     23864     23858     23865     23864     23858     23866
     23865     23858     23866     23858     23860     23862     23858     23860     23863
     23862     23860     23863     23871     23869     23875     23871     23869     23876
     23871     23869     23877     23875     23869     23876     23875     23869     23877
     23876     23869     23877     23869     23871     23873     23869     23871     23874
     23873     23871     23874     23882     23880     23886     23882     23880     23887
     23882     23880     23888     23886     23880     23887     23886     23880     23888
     23887     23880     23888     23880     23882     23884     23880     23882     23885
     23884     23882     23885     23893     23891     23897     23893     23891     23898
     23893     23891     23899     23897     23891     23898     23897     23891     23899
     23898     23891     23899     23891     23893     23895     23891     23893     23896
     23895     23893     23896     23904     23902     23908     23904     23902     23909
     23904     23902     23910     23908     23902     23909     23908     23902     23910
     23909     23902     23910     23902     23904     23906     23902     23904     23907
     23906     23904     23907     23915     23913     23919     23915     23913     23920
     23915     23913     23921     23919     23913     23920     23919     23913     23921
     23920     23913     23921     23913     23915     23917     23913     23915     23918
     23917     23915     23918     23926     23924     23930     23926     23924     23931
     23926     23924     23932     23930     23924     23931     23930     23924     23932
     23931     23924     23932     23924     23926     23928     23924     23926     23929
     23928     23926     23929     23937     23935     23941     23937     23935     23942
     23937     23935     23943     23941     23935     23942     23941     23935     23943
     23942     23935     23943     23935     23937     23939     23935     23937     23940
     23939     23937     23940     23948     23946     23952     23948     23946     23953
     23948     23946     23954     23952     23946     23953     23952     23946     23954
     23953     23946     23954     23946     23948     23950     23946     23948     23951
     23950     23948     23951     23959     23957     23963     23959     23957     23964
     23959     23957     23965     23963     23957     23964     23963     23957     23965
     23964     23957     23965     23957     23959     23961     23957     23959     23962
     23961     23959     23962     23970     23968     23974     23970     23968     23975
     23970     23968     23976     23974     23968     23975     23974     23968     23976
     23975     23968     23976     23968     23970     23972     23968     23970     23973
     23972     23970     23973     23981     23979     23985     23981     23979     23986
     23981     23979     23987     23985     23979     23986     23985     23979     23987
     23986     23979     23987     23979     23981     23983     23979     23981     23984
     23983     23981     23984     23992     23990     23996     23992     23990     23997
     23992     23990     23998     23996     23990     23997     23996     23990     23998
     23997     23990     23998     23990     23992     23994     23990     23992     23995
     23994     23992     23995     24003     24001     24007     24003     24001     24008
     24003     24001     24009     24007     24001     24008     24007     24001     24009
     24008     24001     24009     24001     24003     24005     24001     24003     24006
     24005     24003     24006     24014     24012     24018     24014     24012     24019
     24014     24012     24020     24018     24012     24019     24018     24012     24020
     24019     24012     24020     24012     24014     24016     24012     24014     24017
     24016     24014     24017     24025     24023     24029     24025     24023     24030
     24025     24023     24031     24029     24023     24030     24029     24023     24031
     24030     24023     24031     24023     24025     24027     24023     24025     24028
     24027     24025     24028     24036     24034     24040     24036     24034     24041
     24036     24034     24042     24040     24034     24041     24040     24034     24042
     24041     24034     24042     24034     24036     24038     24034     24036     24039
     24038     24036     24039     24047     24045     24051     24047     24045     24052
     24047     24045     24053     24051     24045     24052     24051     24045     24053
     24052     24045     24053     24045     24047     24049     24045     24047     24050
     24049     24047     24050     24058     24056     24062     24058     24056     24063
     24058     24056     24064     24062     24056     24063     24062     24056     24064
     24063     24056     24064     24056     24058     24060     24056     24058     24061
     24060     24058     24061     24069     24067     24073     24069     24067     24074
     24069     24067     24075     24073     24067     24074     24073     24067     24075
     24074     24067     24075     24067     24069     24071     24067     24069     24072
     24071     24069     24072     24080     24078     24084     24080     24078     24085
     24080     24078     24086     24084     24078     24085     24084     24078     24086
     24085     24078     24086     24078     24080     24082     24078     24080     24083
     24082     24080     24083     24091     24089     24095     24091     24089     24096
     24091     24089     24097     24095     24089     24096     24095     24089     24097
     24096     24089     24097     24089     24091     24093     24089     24091     24094
     24093     24091     24094     24102     24100     24106     24102     24100     24107
     24102     24100     24108     24106     24100     24107     24106     24100     24108
     24107     24100     24108     24100     24102     24104     24100     24102     24105
     24104     24102     24105     24113     24111     24117     24113     24111     24118
     24113     24111     24119     24117     24111     24118     24117     24111     24119
     24118     24111     24119     24111     24113     24115     24111     24113     24116
     24115     24113     24116     24124     24122     24128     24124     24122     24129
     24124     24122     24130     24128     24122     24129     24128     24122     24130
     24129     24122     24130     24122     24124     24126     24122     24124     24127
     24126     24124     24127     24135     24133     24139     24135     24133     24140
     24135     24133     24141     24139     24133     24140     24139     24133     24141
     24140     24133     24141     24133     24135     24137     24133     24135     24138
     24137     24135     24138     24146     24144     24150     24146     24144     24151
     24146     24144     24152     24150     24144     24151     24150     24144     24152
     24151     24144     24152     24144     24146     24148     24144     24146     24149
     24148     24146     24149     24157     24155     24161     24157     24155     24162
     24157     24155     24163     24161     24155     24162     24161     24155     24163
     24162     24155     24163     24155     24157     24159     24155     24157     24160
     24159     24157     24160     24168     24166     24172     24168     24166     24173
     24168     24166     24174     24172     24166     24173     24172     24166     24174
     24173     24166     24174     24166     24168     24170     24166     24168     24171
     24170     24168     24171     24179     24177     24183     24179     24177     24184
     24179     24177     24185     24183     24177     24184     24183     24177     24185
     24184     24177     24185     24177     24179     24181     24177     24179     24182
     24181     24179     24182     24190     24188     24194     24190     24188     24195
     24190     24188     24196     24194     24188     24195     24194     24188     24196
     24195     24188     24196     24188     24190     24192     24188     24190     24193
     24192     24190     24193     24201     24199     24205     24201     24199     24206
     24201     24199     24207     24205     24199     24206     24205     24199     24207
     24206     24199     24207     24199     24201     24203     24199     24201     24204
     24203     24201     24204     24212     24210     24216     24212     24210     24217
     24212     24210     24218     24216     24210     24217     24216     24210     24218
     24217     24210     24218     24210     24212     24214     24210     24212     24215
     24214     24212     24215     24223     24221     24227     24223     24221     24228
     24223     24221     24229     24227     24221     24228     24227     24221     24229
     24228     24221     24229     24221     24223     24225     24221     24223     24226
     24225     24223     24226     24234     24232     24238     24234     24232     24239
     24234     24232     24240     24238     24232     24239     24238     24232     24240
     24239     24232     24240     24232     24234     24236     24232     24234     24237
     24236     24234     24237     24245     24243     24249     24245     24243     24250
     24245     24243     24251     24249     24243     24250     24249     24243     24251
     24250     24243     24251     24243     24245     24247     24243     24245     24248
     24247     24245     24248     24256     24254     24260     24256     24254     24261
     24256     24254     24262     24260     24254     24261     24260     24254     24262
     24261     24254     24262     24254     24256     24258     24254     24256     24259
     24258     24256     24259     24267     24265     24271     24267     24265     24272
     24267     24265     24273     24271     24265     24272     24271     24265     24273
     24272     24265     24273     24265     24267     24269     24265     24267     24270
     24269     24267     24270     24278     24276     24282     24278     24276     24283
     24278     24276     24284     24282     24276     24283     24282     24276     24284
     24283     24276     24284     24276     24278     24280     24276     24278     24281
     24280     24278     24281     24289     24287     24293     24289     24287     24294
     24289     24287     24295     24293     24287     24294     24293     24287     24295
     24294     24287     24295     24287     24289     24291     24287     24289     24292
     24291     24289     24292     24300     24298     24304     24300     24298     24305
     24300     24298     24306     24304     24298     24305     24304     24298     24306
     24305     24298     24306     24298     24300     24302     24298     24300     24303
     24302     24300     24303     24311     24309     24315     24311     24309     24316
     24311     24309     24317     24315     24309     24316     24315     24309     24317
     24316     24309     24317     24309     24311     24313     24309     24311     24314
     24313     24311     24314     24322     24320     24326     24322     24320     24327
     24322     24320     24328     24326     24320     24327     24326     24320     24328
     24327     24320     24328     24320     24322     24324     24320     24322     24325
     24324     24322     24325     24333     24331     24337     24333     24331     24338
     24333     24331     24339     24337     24331     24338     24337     24331     24339
     24338     24331     24339     24331     24333     24335     24331     24333     24336
     24335     24333     24336     24344     24342     24348     24344     24342     24349
     24344     24342     24350     24348     24342     24349     24348     24342     24350
     24349     24342     24350     24342     24344     24346     24342     24344     24347
     24346     24344     24347     24355     24353     24359     24355     24353     24360
     24355     24353     24361     24359     24353     24360     24359     24353     24361
     24360     24353     24361     24353     24355     24357     24353     24355     24358
     24357     24355     24358     24366     24364     24370     24366     24364     24371
     24366     24364     24372     24370     24364     24371     24370     24364     24372
     24371     24364     24372     24364     24366     24368     24364     24366     24369
     24368     24366     24369     24377     24375     24381     24377     24375     24382
     24377     24375     24383     24381     24375     24382     24381     24375     24383
     24382     24375     24383     24375     24377     24379     24375     24377     24380
     24379     24377     24380     24388     24386     24392     24388     24386     24393
     24388     24386     24394     24392     24386     24393     24392     24386     24394
     24393     24386     24394     24386     24388     24390     24386     24388     24391
     24390     24388     24391     24399     24397     24403     24399     24397     24404
     24399     24397     24405     24403     24397     24404     24403     24397     24405
     24404     24397     24405     24397     24399     24401     24397     24399     24402
     24401     24399     24402     24410     24408     24414     24410     24408     24415
     24410     24408     24416     24414     24408     24415     24414     24408     24416
     24415     24408     24416     24408     24410     24412     24408     24410     24413
     24412     24410     24413     24421     24419     24425     24421     24419     24426
     24421     24419     24427     24425     24419     24426     24425     24419     24427
     24426     24419     24427     24419     24421     24423     24419     24421     24424
     24423     24421     24424     24432     24430     24436     24432     24430     24437
     24432     24430     24438     24436     24430     24437     24436     24430     24438
     24437     24430     24438     24430     24432     24434     24430     24432     24435
     24434     24432     24435     24443     24441     24447     24443     24441     24448
     24443     24441     24449     24447     24441     24448     24447     24441     24449
     24448     24441     24449     24441     24443     24445     24441     24443     24446
     24445     24443     24446     24454     24452     24458     24454     24452     24459
     24454     24452     24460     24458     24452     24459     24458     24452     24460
     24459     24452     24460     24452     24454     24456     24452     24454     24457
     24456     24454     24457     24465     24463     24469     24465     24463     24470
     24465     24463     24471     24469     24463     24470     24469     24463     24471
     24470     24463     24471     24463     24465     24467     24463     24465     24468
     24467     24465     24468     24476     24474     24480     24476     24474     24481
     24476     24474     24482     24480     24474     24481     24480     24474     24482
     24481     24474     24482     24474     24476     24478     24474     24476     24479
     24478     24476     24479     24487     24485     24491     24487     24485     24492
     24487     24485     24493     24491     24485     24492     24491     24485     24493
     24492     24485     24493     24485     24487     24489     24485     24487     24490
     24489     24487     24490     24498     24496     24502     24498     24496     24503
     24498     24496     24504     24502     24496     24503     24502     24496     24504
     24503     24496     24504     24496     24498     24500     24496     24498     24501
     24500     24498     24501     24509     24507     24513     24509     24507     24514
     24509     24507     24515     24513     24507     24514     24513     24507     24515
     24514     24507     24515     24507     24509     24511     24507     24509     24512
     24511     24509     24512     24520     24518     24524     24520     24518     24525
     24520     24518     24526     24524     24518     24525     24524     24518     24526
     24525     24518     24526     24518     24520     24522     24518     24520     24523
     24522     24520     24523     24531     24529     24535     24531     24529     24536
     24531     24529     24537     24535     24529     24536     24535     24529     24537
     24536     24529     24537     24529     24531     24533     24529     24531     24534
     24533     24531     24534     24542     24540     24546     24542     24540     24547
     24542     24540     24548     24546     24540     24547     24546     24540     24548
     24547     24540     24548     24540     24542     24544     24540     24542     24545
     24544     24542     24545     24553     24551     24557     24553     24551     24558
     24553     24551     24559     24557     24551     24558     24557     24551     24559
     24558     24551     24559     24551     24553     24555     24551     24553     24556
     24555     24553     24556     24564     24562     24568     24564     24562     24569
     24564     24562     24570     24568     24562     24569     24568     24562     24570
     24569     24562     24570     24562     24564     24566     24562     24564     24567
     24566     24564     24567     24575     24573     24579     24575     24573     24580
     24575     24573     24581     24579     24573     24580     24579     24573     24581
     24580     24573     24581     24573     24575     24577     24573     24575     24578
     24577     24575     24578     24586     24584     24590     24586     24584     24591
     24586     24584     24592     24590     24584     24591     24590     24584     24592
     24591     24584     24592     24584     24586     24588     24584     24586     24589
     24588     24586     24589     24597     24595     24601     24597     24595     24602
     24597     24595     24603     24601     24595     24602     24601     24595     24603
     24602     24595     24603     24595     24597     24599     24595     24597     24600
     24599     24597     24600     24608     24606     24612     24608     24606     24613
     24608     24606     24614     24612     24606     24613     24612     24606     24614
     24613     24606     24614     24606     24608     24610     24606     24608     24611
     24610     24608     24611     24619     24617     24623     24619     24617     24624
     24619     24617     24625     24623     24617     24624     24623     24617     24625
     24624     24617     24625     24617     24619     24621     24617     24619     24622
     24621     24619     24622     24630     24628     24634     24630     24628     24635
     24630     24628     24636     24634     24628     24635     24634     24628     24636
     24635     24628     24636     24628     24630     24632     24628     24630     24633
     24632     24630     24633     24641     24639     24645     24641     24639     24646
     24641     24639     24647     24645     24639     24646     24645     24639     24647
     24646     24639     24647     24639     24641     24643     24639     24641     24644
     24643     24641     24644     24652     24650     24656     24652     24650     24657
     24652     24650     24658     24656     24650     24657     24656     24650     24658
     24657     24650     24658     24650     24652     24654     24650     24652     24655
     24654     24652     24655     24663     24661     24667     24663     24661     24668
     24663     24661     24669     24667     24661     24668     24667     24661     24669
     24668     24661     24669     24661     24663     24665     24661     24663     24666
     24665     24663     24666     24674     24672     24678     24674     24672     24679
     24674     24672     24680     24678     24672     24679     24678     24672     24680
     24679     24672     24680     24672     24674     24676     24672     24674     24677
     24676     24674     24677     24685     24683     24689     24685     24683     24690
     24685     24683     24691     24689     24683     24690     24689     24683     24691
     24690     24683     24691     24683     24685     24687     24683     24685     24688
     24687     24685     24688     24696     24694     24700     24696     24694     24701
     24696     24694     24702     24700     24694     24701     24700     24694     24702
     24701     24694     24702     24694     24696     24698     24694     24696     24699
     24698     24696     24699     24707     24705     24711     24707     24705     24712
     24707     24705     24713     24711     24705     24712     24711     24705     24713
     24712     24705     24713     24705     24707     24709     24705     24707     24710
     24709     24707     24710     24718     24716     24722     24718     24716     24723
     24718     24716     24724     24722     24716     24723     24722     24716     24724
     24723     24716     24724     24716     24718     24720     24716     24718     24721
     24720     24718     24721     24729     24727     24733     24729     24727     24734
     24729     24727     24735     24733     24727     24734     24733     24727     24735
     24734     24727     24735     24727     24729     24731     24727     24729     24732
     24731     24729     24732     24740     24738     24744     24740     24738     24745
     24740     24738     24746     24744     24738     24745     24744     24738     24746
     24745     24738     24746     24738     24740     24742     24738     24740     24743
     24742     24740     24743     24751     24749     24755     24751     24749     24756
     24751     24749     24757     24755     24749     24756     24755     24749     24757
     24756     24749     24757     24749     24751     24753     24749     24751     24754
     24753     24751     24754     24762     24760     24766     24762     24760     24767
     24762     24760     24768     24766     24760     24767     24766     24760     24768
     24767     24760     24768     24760     24762     24764     24760     24762     24765
     24764     24762     24765     24773     24771     24777     24773     24771     24778
     24773     24771     24779     24777     24771     24778     24777     24771     24779
     24778     24771     24779     24771     24773     24775     24771     24773     24776
     24775     24773     24776     24784     24782     24788     24784     24782     24789
     24784     24782     24790     24788     24782     24789     24788     24782     24790
     24789     24782     24790     24782     24784     24786     24782     24784     24787
     24786     24784     24787     24795     24793     24799     24795     24793     24800
     24795     24793     24801     24799     24793     24800     24799     24793     24801
     24800     24793     24801     24793     24795     24797     24793     24795     24798
     24797     24795     24798     24806     24804     24810     24806     24804     24811
     24806     24804     24812     24810     24804     24811     24810     24804     24812
     24811     24804     24812     24804     24806     24808     24804     24806     24809
     24808     24806     24809     24817     24815     24821     24817     24815     24822
     24817     24815     24823     24821     24815     24822     24821     24815     24823
     24822     24815     24823     24815     24817     24819     24815     24817     24820
     24819     24817     24820     24828     24826     24832     24828     24826     24833
     24828     24826     24834     24832     24826     24833     24832     24826     24834
     24833     24826     24834     24826     24828     24830     24826     24828     24831
     24830     24828     24831     24839     24837     24843     24839     24837     24844
     24839     24837     24845     24843     24837     24844     24843     24837     24845
     24844     24837     24845     24837     24839     24841     24837     24839     24842
     24841     24839     24842     24850     24848     24854     24850     24848     24855
     24850     24848     24856     24854     24848     24855     24854     24848     24856
     24855     24848     24856     24848     24850     24852     24848     24850     24853
     24852     24850     24853     24861     24859     24865     24861     24859     24866
     24861     24859     24867     24865     24859     24866     24865     24859     24867
     24866     24859     24867     24859     24861     24863     24859     24861     24864
     24863     24861     24864     24872     24870     24876     24872     24870     24877
     24872     24870     24878     24876     24870     24877     24876     24870     24878
     24877     24870     24878     24870     24872     24874     24870     24872     24875
     24874     24872     24875     24883     24881     24887     24883     24881     24888
     24883     24881     24889     24887     24881     24888     24887     24881     24889
     24888     24881     24889     24881     24883     24885     24881     24883     24886
     24885     24883     24886     24894     24892     24898     24894     24892     24899
     24894     24892     24900     24898     24892     24899     24898     24892     24900
     24899     24892     24900     24892     24894     24896     24892     24894     24897
     24896     24894     24897     24905     24903     24909     24905     24903     24910
     24905     24903     24911     24909     24903     24910     24909     24903     24911
     24910     24903     24911     24903     24905     24907     24903     24905     24908
     24907     24905     24908     24916     24914     24920     24916     24914     24921
     24916     24914     24922     24920     24914     24921     24920     24914     24922
     24921     24914     24922     24914     24916     24918     24914     24916     24919
     24918     24916     24919     24927     24925     24931     24927     24925     24932
     24927     24925     24933     24931     24925     24932     24931     24925     24933
     24932     24925     24933     24925     24927     24929     24925     24927     24930
     24929     24927     24930     24938     24936     24942     24938     24936     24943
     24938     24936     24944     24942     24936     24943     24942     24936     24944
     24943     24936     24944     24936     24938     24940     24936     24938     24941
     24940     24938     24941     24949     24947     24953     24949     24947     24954
     24949     24947     24955     24953     24947     24954     24953     24947     24955
     24954     24947     24955     24947     24949     24951     24947     24949     24952
     24951     24949     24952     24960     24958     24964     24960     24958     24965
     24960     24958     24966     24964     24958     24965     24964     24958     24966
     24965     24958     24966     24958     24960     24962     24958     24960     24963
     24962     24960     24963     24971     24969     24975     24971     24969     24976
     24971     24969     24977     24975     24969     24976     24975     24969     24977
     24976     24969     24977     24969     24971     24973     24969     24971     24974
     24973     24971     24974     24982     24980     24986     24982     24980     24987
     24982     24980     24988     24986     24980     24987     24986     24980     24988
     24987     24980     24988     24980     24982     24984     24980     24982     24985
     24984     24982     24985     24993     24991     24997     24993     24991     24998
     24993     24991     24999     24997     24991     24998     24997     24991     24999
     24998     24991     24999     24991     24993     24995     24991     24993     24996
     24995     24993     24996     25004     25002     25008     25004     25002     25009
     25004     25002     25010     25008     25002     25009     25008     25002     25010
     25009     25002     25010     25002     25004     25006     25002     25004     25007
     25006     25004     25007     25015     25013     25019     25015     25013     25020
     25015     25013     25021     25019     25013     25020     25019     25013     25021
     25020     25013     25021     25013     25015     25017     25013     25015     25018
     25017     25015     25018     25026     25024     25030     25026     25024     25031
     25026     25024     25032     25030     25024     25031     25030     25024     25032
     25031     25024     25032     25024     25026     25028     25024     25026     25029
     25028     25026     25029     25037     25035     25041     25037     25035     25042
     25037     25035     25043     25041     25035     25042     25041     25035     25043
     25042     25035     25043     25035     25037     25039     25035     25037     25040
     25039     25037     25040     25048     25046     25052     25048     25046     25053
     25048     25046     25054     25052     25046     25053     25052     25046     25054
     25053     25046     25054     25046     25048     25050     25046     25048     25051
     25050     25048     25051     25059     25057     25063     25059     25057     25064
     25059     25057     25065     25063     25057     25064     25063     25057     25065
     25064     25057     25065     25057     25059     25061     25057     25059     25062
     25061     25059     25062     25070     25068     25074     25070     25068     25075
     25070     25068     25076     25074     25068     25075     25074     25068     25076
     25075     25068     25076     25068     25070     25072     25068     25070     25073
     25072     25070     25073     25081     25079     25085     25081     25079     25086
     25081     25079     25087     25085     25079     25086     25085     25079     25087
     25086     25079     25087     25079     25081     25083     25079     25081     25084
     25083     25081     25084     25092     25090     25096     25092     25090     25097
     25092     25090     25098     25096     25090     25097     25096     25090     25098
     25097     25090     25098     25090     25092     25094     25090     25092     25095
     25094     25092     25095     25103     25101     25107     25103     25101     25108
     25103     25101     25109     25107     25101     25108     25107     25101     25109
     25108     25101     25109     25101     25103     25105     25101     25103     25106
     25105     25103     25106     25114     25112     25118     25114     25112     25119
     25114     25112     25120     25118     25112     25119     25118     25112     25120
     25119     25112     25120     25112     25114     25116     25112     25114     25117
     25116     25114     25117     25125     25123     25129     25125     25123     25130
     25125     25123     25131     25129     25123     25130     25129     25123     25131
     25130     25123     25131     25123     25125     25127     25123     25125     25128
     25127     25125     25128     25136     25134     25140     25136     25134     25141
     25136     25134     25142     25140     25134     25141     25140     25134     25142
     25141     25134     25142     25134     25136     25138     25134     25136     25139
     25138     25136     25139     25147     25145     25151     25147     25145     25152
     25147     25145     25153     25151     25145     25152     25151     25145     25153
     25152     25145     25153     25145     25147     25149     25145     25147     25150
     25149     25147     25150     25158     25156     25162     25158     25156     25163
     25158     25156     25164     25162     25156     25163     25162     25156     25164
     25163     25156     25164     25156     25158     25160     25156     25158     25161
     25160     25158     25161     25169     25167     25173     25169     25167     25174
     25169     25167     25175     25173     25167     25174     25173     25167     25175
     25174     25167     25175     25167     25169     25171     25167     25169     25172
     25171     25169     25172     25180     25178     25184     25180     25178     25185
     25180     25178     25186     25184     25178     25185     25184     25178     25186
     25185     25178     25186     25178     25180     25182     25178     25180     25183
     25182     25180     25183     25191     25189     25195     25191     25189     25196
     25191     25189     25197     25195     25189     25196     25195     25189     25197
     25196     25189     25197     25189     25191     25193     25189     25191     25194
     25193     25191     25194     25202     25200     25206     25202     25200     25207
     25202     25200     25208     25206     25200     25207     25206     25200     25208
     25207     25200     25208     25200     25202     25204     25200     25202     25205
     25204     25202     25205     25213     25211     25217     25213     25211     25218
     25213     25211     25219     25217     25211     25218     25217     25211     25219
     25218     25211     25219     25211     25213     25215     25211     25213     25216
     25215     25213     25216     25224     25222     25228     25224     25222     25229
     25224     25222     25230     25228     25222     25229     25228     25222     25230
     25229     25222     25230     25222     25224     25226     25222     25224     25227
     25226     25224     25227     25235     25233     25239     25235     25233     25240
     25235     25233     25241     25239     25233     25240     25239     25233     25241
     25240     25233     25241     25233     25235     25237     25233     25235     25238
     25237     25235     25238     25246     25244     25250     25246     25244     25251
     25246     25244     25252     25250     25244     25251     25250     25244     25252
     25251     25244     25252     25244     25246     25248     25244     25246     25249
     25248     25246     25249     25257     25255     25261     25257     25255     25262
     25257     25255     25263     25261     25255     25262     25261     25255     25263
     25262     25255     25263     25255     25257     25259     25255     25257     25260
     25259     25257     25260     25268     25266     25272     25268     25266     25273
     25268     25266     25274     25272     25266     25273     25272     25266     25274
     25273     25266     25274     25266     25268     25270     25266     25268     25271
     25270     25268     25271     25279     25277     25283     25279     25277     25284
     25279     25277     25285     25283     25277     25284     25283     25277     25285
     25284     25277     25285     25277     25279     25281     25277     25279     25282
     25281     25279     25282     25290     25288     25294     25290     25288     25295
     25290     25288     25296     25294     25288     25295     25294     25288     25296
     25295     25288     25296     25288     25290     25292     25288     25290     25293
     25292     25290     25293     25301     25299     25305     25301     25299     25306
     25301     25299     25307     25305     25299     25306     25305     25299     25307
     25306     25299     25307     25299     25301     25303     25299     25301     25304
     25303     25301     25304     25312     25310     25316     25312     25310     25317
     25312     25310     25318     25316     25310     25317     25316     25310     25318
     25317     25310     25318     25310     25312     25314     25310     25312     25315
     25314     25312     25315     25323     25321     25327     25323     25321     25328
     25323     25321     25329     25327     25321     25328     25327     25321     25329
     25328     25321     25329     25321     25323     25325     25321     25323     25326
     25325     25323     25326     25334     25332     25338     25334     25332     25339
     25334     25332     25340     25338     25332     25339     25338     25332     25340
     25339     25332     25340     25332     25334     25336     25332     25334     25337
     25336     25334     25337     25345     25343     25349     25345     25343     25350
     25345     25343     25351     25349     25343     25350     25349     25343     25351
     25350     25343     25351     25343     25345     25347     25343     25345     25348
     25347     25345     25348     25356     25354     25360     25356     25354     25361
     25356     25354     25362     25360     25354     25361     25360     25354     25362
     25361     25354     25362     25354     25356     25358     25354     25356     25359
     25358     25356     25359     25367     25365     25371     25367     25365     25372
     25367     25365     25373     25371     25365     25372     25371     25365     25373
     25372     25365     25373     25365     25367     25369     25365     25367     25370
     25369     25367     25370     25378     25376     25382     25378     25376     25383
     25378     25376     25384     25382     25376     25383     25382     25376     25384
     25383     25376     25384     25376     25378     25380     25376     25378     25381
     25380     25378     25381     25389     25387     25393     25389     25387     25394
     25389     25387     25395     25393     25387     25394     25393     25387     25395
     25394     25387     25395     25387     25389     25391     25387     25389     25392
     25391     25389     25392     25400     25398     25404     25400     25398     25405
     25400     25398     25406     25404     25398     25405     25404     25398     25406
     25405     25398     25406     25398     25400     25402     25398     25400     25403
     25402     25400     25403     25411     25409     25415     25411     25409     25416
     25411     25409     25417     25415     25409     25416     25415     25409     25417
     25416     25409     25417     25409     25411     25413     25409     25411     25414
     25413     25411     25414     25422     25420     25426     25422     25420     25427
     25422     25420     25428     25426     25420     25427     25426     25420     25428
     25427     25420     25428     25420     25422     25424     25420     25422     25425
     25424     25422     25425     25433     25431     25437     25433     25431     25438
     25433     25431     25439     25437     25431     25438     25437     25431     25439
     25438     25431     25439     25431     25433     25435     25431     25433     25436
     25435     25433     25436     25444     25442     25448     25444     25442     25449
     25444     25442     25450     25448     25442     25449     25448     25442     25450
     25449     25442     25450     25442     25444     25446     25442     25444     25447
     25446     25444     25447     25455     25453     25459     25455     25453     25460
     25455     25453     25461     25459     25453     25460     25459     25453     25461
     25460     25453     25461     25453     25455     25457     25453     25455     25458
     25457     25455     25458     25466     25464     25470     25466     25464     25471
     25466     25464     25472     25470     25464     25471     25470     25464     25472
     25471     25464     25472     25464     25466     25468     25464     25466     25469
     25468     25466     25469     25477     25475     25481     25477     25475     25482
     25477     25475     25483     25481     25475     25482     25481     25475     25483
     25482     25475     25483     25475     25477     25479     25475     25477     25480
     25479     25477     25480     25488     25486     25492     25488     25486     25493
     25488     25486     25494     25492     25486     25493     25492     25486     25494
     25493     25486     25494     25486     25488     25490     25486     25488     25491
     25490     25488     25491     25499     25497     25503     25499     25497     25504
     25499     25497     25505     25503     25497     25504     25503     25497     25505
     25504     25497     25505     25497     25499     25501     25497     25499     25502
     25501     25499     25502     25510     25508     25514     25510     25508     25515
     25510     25508     25516     25514     25508     25515     25514     25508     25516
     25515     25508     25516     25508     25510     25512     25508     25510     25513
     25512     25510     25513     25521     25519     25525     25521     25519     25526
     25521     25519     25527     25525     25519     25526     25525     25519     25527
     25526     25519     25527     25519     25521     25523     25519     25521     25524
     25523     25521     25524     25532     25530     25536     25532     25530     25537
     25532     25530     25538     25536     25530     25537     25536     25530     25538
     25537     25530     25538     25530     25532     25534     25530     25532     25535
     25534     25532     25535     25543     25541     25547     25543     25541     25548
     25543     25541     25549     25547     25541     25548     25547     25541     25549
     25548     25541     25549     25541     25543     25545     25541     25543     25546
     25545     25543     25546     25554     25552     25558     25554     25552     25559
     25554     25552     25560     25558     25552     25559     25558     25552     25560
     25559     25552     25560     25552     25554     25556     25552     25554     25557
     25556     25554     25557     25565     25563     25569     25565     25563     25570
     25565     25563     25571     25569     25563     25570     25569     25563     25571
     25570     25563     25571     25563     25565     25567     25563     25565     25568
     25567     25565     25568     25576     25574     25580     25576     25574     25581
     25576     25574     25582     25580     25574     25581     25580     25574     25582
     25581     25574     25582     25574     25576     25578     25574     25576     25579
     25578     25576     25579     25587     25585     25591     25587     25585     25592
     25587     25585     25593     25591     25585     25592     25591     25585     25593
     25592     25585     25593     25585     25587     25589     25585     25587     25590
     25589     25587     25590     25598     25596     25602     25598     25596     25603
     25598     25596     25604     25602     25596     25603     25602     25596     25604
     25603     25596     25604     25596     25598     25600     25596     25598     25601
     25600     25598     25601     25609     25607     25613     25609     25607     25614
     25609     25607     25615     25613     25607     25614     25613     25607     25615
     25614     25607     25615     25607     25609     25611     25607     25609     25612
     25611     25609     25612     25620     25618     25624     25620     25618     25625
     25620     25618     25626     25624     25618     25625     25624     25618     25626
     25625     25618     25626     25618     25620     25622     25618     25620     25623
     25622     25620     25623     25631     25629     25635     25631     25629     25636
     25631     25629     25637     25635     25629     25636     25635     25629     25637
     25636     25629     25637     25629     25631     25633     25629     25631     25634
     25633     25631     25634     25642     25640     25646     25642     25640     25647
     25642     25640     25648     25646     25640     25647     25646     25640     25648
     25647     25640     25648     25640     25642     25644     25640     25642     25645
     25644     25642     25645     25653     25651     25657     25653     25651     25658
     25653     25651     25659     25657     25651     25658     25657     25651     25659
     25658     25651     25659     25651     25653     25655     25651     25653     25656
     25655     25653     25656     25664     25662     25668     25664     25662     25669
     25664     25662     25670     25668     25662     25669     25668     25662     25670
     25669     25662     25670     25662     25664     25666     25662     25664     25667
     25666     25664     25667     25675     25673     25679     25675     25673     25680
     25675     25673     25681     25679     25673     25680     25679     25673     25681
     25680     25673     25681     25673     25675     25677     25673     25675     25678
     25677     25675     25678     25686     25684     25690     25686     25684     25691
     25686     25684     25692     25690     25684     25691     25690     25684     25692
     25691     25684     25692     25684     25686     25688     25684     25686     25689
     25688     25686     25689     25697     25695     25701     25697     25695     25702
     25697     25695     25703     25701     25695     25702     25701     25695     25703
     25702     25695     25703     25695     25697     25699     25695     25697     25700
     25699     25697     25700     25708     25706     25712     25708     25706     25713
     25708     25706     25714     25712     25706     25713     25712     25706     25714
     25713     25706     25714     25706     25708     25710     25706     25708     25711
     25710     25708     25711     25719     25717     25723     25719     25717     25724
     25719     25717     25725     25723     25717     25724     25723     25717     25725
     25724     25717     25725     25717     25719     25721     25717     25719     25722
     25721     25719     25722     25730     25728     25734     25730     25728     25735
     25730     25728     25736     25734     25728     25735     25734     25728     25736
     25735     25728     25736     25728     25730     25732     25728     25730     25733
     25732     25730     25733     25741     25739     25745     25741     25739     25746
     25741     25739     25747     25745     25739     25746     25745     25739     25747
     25746     25739     25747     25739     25741     25743     25739     25741     25744
     25743     25741     25744     25752     25750     25756     25752     25750     25757
     25752     25750     25758     25756     25750     25757     25756     25750     25758
     25757     25750     25758     25750     25752     25754     25750     25752     25755
     25754     25752     25755     25763     25761     25767     25763     25761     25768
     25763     25761     25769     25767     25761     25768     25767     25761     25769
     25768     25761     25769     25761     25763     25765     25761     25763     25766
     25765     25763     25766     25774     25772     25778     25774     25772     25779
     25774     25772     25780     25778     25772     25779     25778     25772     25780
     25779     25772     25780     25772     25774     25776     25772     25774     25777
     25776     25774     25777     25785     25783     25789     25785     25783     25790
     25785     25783     25791     25789     25783     25790     25789     25783     25791
     25790     25783     25791     25783     25785     25787     25783     25785     25788
     25787     25785     25788     25796     25794     25800     25796     25794     25801
     25796     25794     25802     25800     25794     25801     25800     25794     25802
     25801     25794     25802     25794     25796     25798     25794     25796     25799
     25798     25796     25799     25807     25805     25811     25807     25805     25812
     25807     25805     25813     25811     25805     25812     25811     25805     25813
     25812     25805     25813     25805     25807     25809     25805     25807     25810
     25809     25807     25810     25818     25816     25822     25818     25816     25823
     25818     25816     25824     25822     25816     25823     25822     25816     25824
     25823     25816     25824     25816     25818     25820     25816     25818     25821
     25820     25818     25821     25829     25827     25833     25829     25827     25834
     25829     25827     25835     25833     25827     25834     25833     25827     25835
     25834     25827     25835     25827     25829     25831     25827     25829     25832
     25831     25829     25832     25840     25838     25844     25840     25838     25845
     25840     25838     25846     25844     25838     25845     25844     25838     25846
     25845     25838     25846     25838     25840     25842     25838     25840     25843
     25842     25840     25843     25851     25849     25855     25851     25849     25856
     25851     25849     25857     25855     25849     25856     25855     25849     25857
     25856     25849     25857     25849     25851     25853     25849     25851     25854
     25853     25851     25854     25862     25860     25866     25862     25860     25867
     25862     25860     25868     25866     25860     25867     25866     25860     25868
     25867     25860     25868     25860     25862     25864     25860     25862     25865
     25864     25862     25865     25873     25871     25877     25873     25871     25878
     25873     25871     25879     25877     25871     25878     25877     25871     25879
     25878     25871     25879     25871     25873     25875     25871     25873     25876
     25875     25873     25876     25884     25882     25888     25884     25882     25889
     25884     25882     25890     25888     25882     25889     25888     25882     25890
     25889     25882     25890     25882     25884     25886     25882     25884     25887
     25886     25884     25887     25895     25893     25899     25895     25893     25900
     25895     25893     25901     25899     25893     25900     25899     25893     25901
     25900     25893     25901     25893     25895     25897     25893     25895     25898
     25897     25895     25898     25906     25904     25910     25906     25904     25911
     25906     25904     25912     25910     25904     25911     25910     25904     25912
     25911     25904     25912     25904     25906     25908     25904     25906     25909
     25908     25906     25909     25917     25915     25921     25917     25915     25922
     25917     25915     25923     25921     25915     25922     25921     25915     25923
     25922     25915     25923     25915     25917     25919     25915     25917     25920
     25919     25917     25920     25928     25926     25932     25928     25926     25933
     25928     25926     25934     25932     25926     25933     25932     25926     25934
     25933     25926     25934     25926     25928     25930     25926     25928     25931
     25930     25928     25931     25939     25937     25943     25939     25937     25944
     25939     25937     25945     25943     25937     25944     25943     25937     25945
     25944     25937     25945     25937     25939     25941     25937     25939     25942
     25941     25939     25942     25950     25948     25954     25950     25948     25955
     25950     25948     25956     25954     25948     25955     25954     25948     25956
     25955     25948     25956     25948     25950     25952     25948     25950     25953
     25952     25950     25953     25961     25959     25965     25961     25959     25966
     25961     25959     25967     25965     25959     25966     25965     25959     25967
     25966     25959     25967     25959     25961     25963     25959     25961     25964
     25963     25961     25964     25972     25970     25976     25972     25970     25977
     25972     25970     25978     25976     25970     25977     25976     25970     25978
     25977     25970     25978     25970     25972     25974     25970     25972     25975
     25974     25972     25975     25983     25981     25987     25983     25981     25988
     25983     25981     25989     25987     25981     25988     25987     25981     25989
     25988     25981     25989     25981     25983     25985     25981     25983     25986
     25985     25983     25986     25994     25992     25998     25994     25992     25999
     25994     25992     26000     25998     25992     25999     25998     25992     26000
     25999     25992     26000     25992     25994     25996     25992     25994     25997
     25996     25994     25997     26005     26003     26009     26005     26003     26010
     26005     26003     26011     26009     26003     26010     26009     26003     26011
     26010     26003     26011     26003     26005     26007     26003     26005     26008
     26007     26005     26008     26016     26014     26020     26016     26014     26021
     26016     26014     26022     26020     26014     26021     26020     26014     26022
     26021     26014     26022     26014     26016     26018     26014     26016     26019
     26018     26016     26019     26027     26025     26031     26027     26025     26032
     26027     26025     26033     26031     26025     26032     26031     26025     26033
     26032     26025     26033     26025     26027     26029     26025     26027     26030
     26029     26027     26030     26038     26036     26042     26038     26036     26043
     26038     26036     26044     26042     26036     26043     26042     26036     26044
     26043     26036     26044     26036     26038     26040     26036     26038     26041
     26040     26038     26041     26049     26047     26053     26049     26047     26054
     26049     26047     26055     26053     26047     26054     26053     26047     26055
     26054     26047     26055     26047     26049     26051     26047     26049     26052
     26051     26049     26052     26060     26058     26064     26060     26058     26065
     26060     26058     26066     26064     26058     26065     26064     26058     26066
     26065     26058     26066     26058     26060     26062     26058     26060     26063
     26062     26060     26063     26071     26069     26075     26071     26069     26076
     26071     26069     26077     26075     26069     26076     26075     26069     26077
     26076     26069     26077     26069     26071     26073     26069     26071     26074
     26073     26071     26074     26082     26080     26086     26082     26080     26087
     26082     26080     26088     26086     26080     26087     26086     26080     26088
     26087     26080     26088     26080     26082     26084     26080     26082     26085
     26084     26082     26085     26093     26091     26097     26093     26091     26098
     26093     26091     26099     26097     26091     26098     26097     26091     26099
     26098     26091     26099     26091     26093     26095     26091     26093     26096
     26095     26093     26096     26104     26102     26108     26104     26102     26109
     26104     26102     26110     26108     26102     26109     26108     26102     26110
     26109     26102     26110     26102     26104     26106     26102     26104     26107
     26106     26104     26107     26115     26113     26119     26115     26113     26120
     26115     26113     26121     26119     26113     26120     26119     26113     26121
     26120     26113     26121     26113     26115     26117     26113     26115     26118
     26117     26115     26118     26126     26124     26130     26126     26124     26131
     26126     26124     26132     26130     26124     26131     26130     26124     26132
     26131     26124     26132     26124     26126     26128     26124     26126     26129
     26128     26126     26129     26137     26135     26141     26137     26135     26142
     26137     26135     26143     26141     26135     26142     26141     26135     26143
     26142     26135     26143     26135     26137     26139     26135     26137     26140
     26139     26137     26140     26148     26146     26152     26148     26146     26153
     26148     26146     26154     26152     26146     26153     26152     26146     26154
     26153     26146     26154     26146     26148     26150     26146     26148     26151
     26150     26148     26151     26159     26157     26163     26159     26157     26164
     26159     26157     26165     26163     26157     26164     26163     26157     26165
     26164     26157     26165     26157     26159     26161     26157     26159     26162
     26161     26159     26162     26170     26168     26174     26170     26168     26175
     26170     26168     26176     26174     26168     26175     26174     26168     26176
     26175     26168     26176     26168     26170     26172     26168     26170     26173
     26172     26170     26173     26181     26179     26185     26181     26179     26186
     26181     26179     26187     26185     26179     26186     26185     26179     26187
     26186     26179     26187     26179     26181     26183     26179     26181     26184
     26183     26181     26184     26192     26190     26196     26192     26190     26197
     26192     26190     26198     26196     26190     26197     26196     26190     26198
     26197     26190     26198     26190     26192     26194     26190     26192     26195
     26194     26192     26195     26203     26201     26207     26203     26201     26208
     26203     26201     26209     26207     26201     26208     26207     26201     26209
     26208     26201     26209     26201     26203     26205     26201     26203     26206
     26205     26203     26206     26214     26212     26218     26214     26212     26219
     26214     26212     26220     26218     26212     26219     26218     26212     26220
     26219     26212     26220     26212     26214     26216     26212     26214     26217
     26216     26214     26217     26225     26223     26229     26225     26223     26230
     26225     26223     26231     26229     26223     26230     26229     26223     26231
     26230     26223     26231     26223     26225     26227     26223     26225     26228
     26227     26225     26228     26236     26234     26240     26236     26234     26241
     26236     26234     26242     26240     26234     26241     26240     26234     26242
     26241     26234     26242     26234     26236     26238     26234     26236     26239
     26238     26236     26239     26247     26245     26251     26247     26245     26252
     26247     26245     26253     26251     26245     26252     26251     26245     26253
     26252     26245     26253     26245     26247     26249     26245     26247     26250
     26249     26247     26250     26258     26256     26262     26258     26256     26263
     26258     26256     26264     26262     26256     26263     26262     26256     26264
     26263     26256     26264     26256     26258     26260     26256     26258     26261
     26260     26258     26261     26269     26267     26273     26269     26267     26274
     26269     26267     26275     26273     26267     26274     26273     26267     26275
     26274     26267     26275     26267     26269     26271     26267     26269     26272
     26271     26269     26272     26280     26278     26284     26280     26278     26285
     26280     26278     26286     26284     26278     26285     26284     26278     26286
     26285     26278     26286     26278     26280     26282     26278     26280     26283
     26282     26280     26283     26291     26289     26295     26291     26289     26296
     26291     26289     26297     26295     26289     26296     26295     26289     26297
     26296     26289     26297     26289     26291     26293     26289     26291     26294
     26293     26291     26294     26302     26300     26306     26302     26300     26307
     26302     26300     26308     26306     26300     26307     26306     26300     26308
     26307     26300     26308     26300     26302     26304     26300     26302     26305
     26304     26302     26305     26313     26311     26317     26313     26311     26318
     26313     26311     26319     26317     26311     26318     26317     26311     26319
     26318     26311     26319     26311     26313     26315     26311     26313     26316
     26315     26313     26316     26324     26322     26328     26324     26322     26329
     26324     26322     26330     26328     26322     26329     26328     26322     26330
     26329     26322     26330     26322     26324     26326     26322     26324     26327
     26326     26324     26327     26335     26333     26339     26335     26333     26340
     26335     26333     26341     26339     26333     26340     26339     26333     26341
     26340     26333     26341     26333     26335     26337     26333     26335     26338
     26337     26335     26338     26346     26344     26350     26346     26344     26351
     26346     26344     26352     26350     26344     26351     26350     26344     26352
     26351     26344     26352     26344     26346     26348     26344     26346     26349
     26348     26346     26349     26357     26355     26361     26357     26355     26362
     26357     26355     26363     26361     26355     26362     26361     26355     26363
     26362     26355     26363     26355     26357     26359     26355     26357     26360
     26359     26357     26360     26368     26366     26372     26368     26366     26373
     26368     26366     26374     26372     26366     26373     26372     26366     26374
     26373     26366     26374     26366     26368     26370     26366     26368     26371
     26370     26368     26371     26379     26377     26383     26379     26377     26384
     26379     26377     26385     26383     26377     26384     26383     26377     26385
     26384     26377     26385     26377     26379     26381     26377     26379     26382
     26381     26379     26382     26390     26388     26394     26390     26388     26395
     26390     26388     26396     26394     26388     26395     26394     26388     26396
     26395     26388     26396     26388     26390     26392     26388     26390     26393
     26392     26390     26393     26401     26399     26405     26401     26399     26406
     26401     26399     26407     26405     26399     26406     26405     26399     26407
     26406     26399     26407     26399     26401     26403     26399     26401     26404
     26403     26401     26404     26412     26410     26416     26412     26410     26417
     26412     26410     26418     26416     26410     26417     26416     26410     26418
     26417     26410     26418     26410     26412     26414     26410     26412     26415
     26414     26412     26415     26423     26421     26427     26423     26421     26428
     26423     26421     26429     26427     26421     26428     26427     26421     26429
     26428     26421     26429     26421     26423     26425     26421     26423     26426
     26425     26423     26426     26434     26432     26438     26434     26432     26439
     26434     26432     26440     26438     26432     26439     26438     26432     26440
     26439     26432     26440     26432     26434     26436     26432     26434     26437
     26436     26434     26437     26445     26443     26449     26445     26443     26450
     26445     26443     26451     26449     26443     26450     26449     26443     26451
     26450     26443     26451     26443     26445     26447     26443     26445     26448
     26447     26445     26448     26456     26454     26460     26456     26454     26461
     26456     26454     26462     26460     26454     26461     26460     26454     26462
     26461     26454     26462     26454     26456     26458     26454     26456     26459
     26458     26456     26459     26467     26465     26471     26467     26465     26472
     26467     26465     26473     26471     26465     26472     26471     26465     26473
     26472     26465     26473     26465     26467     26469     26465     26467     26470
     26469     26467     26470     26478     26476     26482     26478     26476     26483
     26478     26476     26484     26482     26476     26483     26482     26476     26484
     26483     26476     26484     26476     26478     26480     26476     26478     26481
     26480     26478     26481     26489     26487     26493     26489     26487     26494
     26489     26487     26495     26493     26487     26494     26493     26487     26495
     26494     26487     26495     26487     26489     26491     26487     26489     26492
     26491     26489     26492     26500     26498     26504     26500     26498     26505
     26500     26498     26506     26504     26498     26505     26504     26498     26506
     26505     26498     26506     26498     26500     26502     26498     26500     26503
     26502     26500     26503     26511     26509     26515     26511     26509     26516
     26511     26509     26517     26515     26509     26516     26515     26509     26517
     26516     26509     26517     26509     26511     26513     26509     26511     26514
     26513     26511     26514     26522     26520     26526     26522     26520     26527
     26522     26520     26528     26526     26520     26527     26526     26520     26528
     26527     26520     26528     26520     26522     26524     26520     26522     26525
     26524     26522     26525     26533     26531     26537     26533     26531     26538
     26533     26531     26539     26537     26531     26538     26537     26531     26539
     26538     26531     26539     26531     26533     26535     26531     26533     26536
     26535     26533     26536     26544     26542     26548     26544     26542     26549
     26544     26542     26550     26548     26542     26549     26548     26542     26550
     26549     26542     26550     26542     26544     26546     26542     26544     26547
     26546     26544     26547     26555     26553     26559     26555     26553     26560
     26555     26553     26561     26559     26553     26560     26559     26553     26561
     26560     26553     26561     26553     26555     26557     26553     26555     26558
     26557     26555     26558     26566     26564     26570     26566     26564     26571
     26566     26564     26572     26570     26564     26571     26570     26564     26572
     26571     26564     26572     26564     26566     26568     26564     26566     26569
     26568     26566     26569     26577     26575     26581     26577     26575     26582
     26577     26575     26583     26581     26575     26582     26581     26575     26583
     26582     26575     26583     26575     26577     26579     26575     26577     26580
     26579     26577     26580     26588     26586     26592     26588     26586     26593
     26588     26586     26594     26592     26586     26593     26592     26586     26594
     26593     26586     26594     26586     26588     26590     26586     26588     26591
     26590     26588     26591     26599     26597     26603     26599     26597     26604
     26599     26597     26605     26603     26597     26604     26603     26597     26605
     26604     26597     26605     26597     26599     26601     26597     26599     26602
     26601     26599     26602     26610     26608     26614     26610     26608     26615
     26610     26608     26616     26614     26608     26615     26614     26608     26616
     26615     26608     26616     26608     26610     26612     26608     26610     26613
     26612     26610     26613     26621     26619     26625     26621     26619     26626
     26621     26619     26627     26625     26619     26626     26625     26619     26627
     26626     26619     26627     26619     26621     26623     26619     26621     26624
     26623     26621     26624     26632     26630     26636     26632     26630     26637
     26632     26630     26638     26636     26630     26637     26636     26630     26638
     26637     26630     26638     26630     26632     26634     26630     26632     26635
     26634     26632     26635     26643     26641     26647     26643     26641     26648
     26643     26641     26649     26647     26641     26648     26647     26641     26649
     26648     26641     26649     26641     26643     26645     26641     26643     26646
     26645     26643     26646     26654     26652     26658     26654     26652     26659
     26654     26652     26660     26658     26652     26659     26658     26652     26660
     26659     26652     26660     26652     26654     26656     26652     26654     26657
     26656     26654     26657     26665     26663     26669     26665     26663     26670
     26665     26663     26671     26669     26663     26670     26669     26663     26671
     26670     26663     26671     26663     26665     26667     26663     26665     26668
     26667     26665     26668     26676     26674     26680     26676     26674     26681
     26676     26674     26682     26680     26674     26681     26680     26674     26682
     26681     26674     26682     26674     26676     26678     26674     26676     26679
     26678     26676     26679     26687     26685     26691     26687     26685     26692
     26687     26685     26693     26691     26685     26692     26691     26685     26693
     26692     26685     26693     26685     26687     26689     26685     26687     26690
     26689     26687     26690     26698     26696     26702     26698     26696     26703
     26698     26696     26704     26702     26696     26703     26702     26696     26704
     26703     26696     26704     26696     26698     26700     26696     26698     26701
     26700     26698     26701     26709     26707     26713     26709     26707     26714
     26709     26707     26715     26713     26707     26714     26713     26707     26715
     26714     26707     26715     26707     26709     26711     26707     26709     26712
     26711     26709     26712     26720     26718     26724     26720     26718     26725
     26720     26718     26726     26724     26718     26725     26724     26718     26726
     26725     26718     26726     26718     26720     26722     26718     26720     26723
     26722     26720     26723     26731     26729     26735     26731     26729     26736
     26731     26729     26737     26735     26729     26736     26735     26729     26737
     26736     26729     26737     26729     26731     26733     26729     26731     26734
     26733     26731     26734     26742     26740     26746     26742     26740     26747
     26742     26740     26748     26746     26740     26747     26746     26740     26748
     26747     26740     26748     26740     26742     26744     26740     26742     26745
     26744     26742     26745     26753     26751     26757     26753     26751     26758
     26753     26751     26759     26757     26751     26758     26757     26751     26759
     26758     26751     26759     26751     26753     26755     26751     26753     26756
     26755     26753     26756     26764     26762     26768     26764     26762     26769
     26764     26762     26770     26768     26762     26769     26768     26762     26770
     26769     26762     26770     26762     26764     26766     26762     26764     26767
     26766     26764     26767     26775     26773     26779     26775     26773     26780
     26775     26773     26781     26779     26773     26780     26779     26773     26781
     26780     26773     26781     26773     26775     26777     26773     26775     26778
     26777     26775     26778     26786     26784     26790     26786     26784     26791
     26786     26784     26792     26790     26784     26791     26790     26784     26792
     26791     26784     26792     26784     26786     26788     26784     26786     26789
     26788     26786     26789     26797     26795     26801     26797     26795     26802
     26797     26795     26803     26801     26795     26802     26801     26795     26803
     26802     26795     26803     26795     26797     26799     26795     26797     26800
     26799     26797     26800     26808     26806     26812     26808     26806     26813
     26808     26806     26814     26812     26806     26813     26812     26806     26814
     26813     26806     26814     26806     26808     26810     26806     26808     26811
     26810     26808     26811     26819     26817     26823     26819     26817     26824
     26819     26817     26825     26823     26817     26824     26823     26817     26825
     26824     26817     26825     26817     26819     26821     26817     26819     26822
     26821     26819     26822     26830     26828     26834     26830     26828     26835
     26830     26828     26836     26834     26828     26835     26834     26828     26836
     26835     26828     26836     26828     26830     26832     26828     26830     26833
     26832     26830     26833     26841     26839     26845     26841     26839     26846
     26841     26839     26847     26845     26839     26846     26845     26839     26847
     26846     26839     26847     26839     26841     26843     26839     26841     26844
     26843     26841     26844     26852     26850     26856     26852     26850     26857
     26852     26850     26858     26856     26850     26857     26856     26850     26858
     26857     26850     26858     26850     26852     26854     26850     26852     26855
     26854     26852     26855     26863     26861     26867     26863     26861     26868
     26863     26861     26869     26867     26861     26868     26867     26861     26869
     26868     26861     26869     26861     26863     26865     26861     26863     26866
     26865     26863     26866     26874     26872     26878     26874     26872     26879
     26874     26872     26880     26878     26872     26879     26878     26872     26880
     26879     26872     26880     26872     26874     26876     26872     26874     26877
     26876     26874     26877     26885     26883     26889     26885     26883     26890
     26885     26883     26891     26889     26883     26890     26889     26883     26891
     26890     26883     26891     26883     26885     26887     26883     26885     26888
     26887     26885     26888     26896     26894     26900     26896     26894     26901
     26896     26894     26902     26900     26894     26901     26900     26894     26902
     26901     26894     26902     26894     26896     26898     26894     26896     26899
     26898     26896     26899     26907     26905     26911     26907     26905     26912
     26907     26905     26913     26911     26905     26912     26911     26905     26913
     26912     26905     26913     26905     26907     26909     26905     26907     26910
     26909     26907     26910     26918     26916     26922     26918     26916     26923
     26918     26916     26924     26922     26916     26923     26922     26916     26924
     26923     26916     26924     26916     26918     26920     26916     26918     26921
     26920     26918     26921     26929     26927     26933     26929     26927     26934
     26929     26927     26935     26933     26927     26934     26933     26927     26935
     26934     26927     26935     26927     26929     26931     26927     26929     26932
     26931     26929     26932     26940     26938     26944     26940     26938     26945
     26940     26938     26946     26944     26938     26945     26944     26938     26946
     26945     26938     26946     26938     26940     26942     26938     26940     26943
     26942     26940     26943     26951     26949     26955     26951     26949     26956
     26951     26949     26957     26955     26949     26956     26955     26949     26957
     26956     26949     26957     26949     26951     26953     26949     26951     26954
     26953     26951     26954     26962     26960     26966     26962     26960     26967
     26962     26960     26968     26966     26960     26967     26966     26960     26968
     26967     26960     26968     26960     26962     26964     26960     26962     26965
     26964     26962     26965     26973     26971     26977     26973     26971     26978
     26973     26971     26979     26977     26971     26978     26977     26971     26979
     26978     26971     26979     26971     26973     26975     26971     26973     26976
     26975     26973     26976     26984     26982     26988     26984     26982     26989
     26984     26982     26990     26988     26982     26989     26988     26982     26990
     26989     26982     26990     26982     26984     26986     26982     26984     26987
     26986     26984     26987     26995     26993     26999     26995     26993     27000
     26995     26993     27001     26999     26993     27000     26999     26993     27001
     27000     26993     27001     26993     26995     26997     26993     26995     26998
     26997     26995     26998     27006     27004     27010     27006     27004     27011
     27006     27004     27012     27010     27004     27011     27010     27004     27012
     27011     27004     27012     27004     27006     27008     27004     27006     27009
     27008     27006     27009     27017     27015     27021     27017     27015     27022
     27017     27015     27023     27021     27015     27022     27021     27015     27023
     27022     27015     27023     27015     27017     27019     27015     27017     27020
     27019     27017     27020     27028     27026     27032     27028     27026     27033
     27028     27026     27034     27032     27026     27033     27032     27026     27034
     27033     27026     27034     27026     27028     27030     27026     27028     27031
     27030     27028     27031     27039     27037     27043     27039     27037     27044
     27039     27037     27045     27043     27037     27044     27043     27037     27045
     27044     27037     27045     27037     27039     27041     27037     27039     27042
     27041     27039     27042     27050     27048     27054     27050     27048     27055
     27050     27048     27056     27054     27048     27055     27054     27048     27056
     27055     27048     27056     27048     27050     27052     27048     27050     27053
     27052     27050     27053     27061     27059     27065     27061     27059     27066
     27061     27059     27067     27065     27059     27066     27065     27059     27067
     27066     27059     27067     27059     27061     27063     27059     27061     27064
     27063     27061     27064     27072     27070     27076     27072     27070     27077
     27072     27070     27078     27076     27070     27077     27076     27070     27078
     27077     27070     27078     27070     27072     27074     27070     27072     27075
     27074     27072     27075     27083     27081     27087     27083     27081     27088
     27083     27081     27089     27087     27081     27088     27087     27081     27089
     27088     27081     27089     27081     27083     27085     27081     27083     27086
     27085     27083     27086     27094     27092     27098     27094     27092     27099
     27094     27092     27100     27098     27092     27099     27098     27092     27100
     27099     27092     27100     27092     27094     27096     27092     27094     27097
     27096     27094     27097     27105     27103     27109     27105     27103     27110
     27105     27103     27111     27109     27103     27110     27109     27103     27111
     27110     27103     27111     27103     27105     27107     27103     27105     27108
     27107     27105     27108     27116     27114     27120     27116     27114     27121
     27116     27114     27122     27120     27114     27121     27120     27114     27122
     27121     27114     27122     27114     27116     27118     27114     27116     27119
     27118     27116     27119     27127     27125     27131     27127     27125     27132
     27127     27125     27133     27131     27125     27132     27131     27125     27133
     27132     27125     27133     27125     27127     27129     27125     27127     27130
     27129     27127     27130     27138     27136     27142     27138     27136     27143
     27138     27136     27144     27142     27136     27143     27142     27136     27144
     27143     27136     27144     27136     27138     27140     27136     27138     27141
     27140     27138     27141     27149     27147     27153     27149     27147     27154
     27149     27147     27155     27153     27147     27154     27153     27147     27155
     27154     27147     27155     27147     27149     27151     27147     27149     27152
     27151     27149     27152     27160     27158     27164     27160     27158     27165
     27160     27158     27166     27164     27158     27165     27164     27158     27166
     27165     27158     27166     27158     27160     27162     27158     27160     27163
     27162     27160     27163     27171     27169     27175     27171     27169     27176
     27171     27169     27177     27175     27169     27176     27175     27169     27177
     27176     27169     27177     27169     27171     27173     27169     27171     27174
     27173     27171     27174     27182     27180     27186     27182     27180     27187
     27182     27180     27188     27186     27180     27187     27186     27180     27188
     27187     27180     27188     27180     27182     27184     27180     27182     27185
     27184     27182     27185     27193     27191     27197     27193     27191     27198
     27193     27191     27199     27197     27191     27198     27197     27191     27199
     27198     27191     27199     27191     27193     27195     27191     27193     27196
     27195     27193     27196     27204     27202     27208     27204     27202     27209
     27204     27202     27210     27208     27202     27209     27208     27202     27210
     27209     27202     27210     27202     27204     27206     27202     27204     27207
     27206     27204     27207     27215     27213     27219     27215     27213     27220
     27215     27213     27221     27219     27213     27220     27219     27213     27221
     27220     27213     27221     27213     27215     27217     27213     27215     27218
     27217     27215     27218     27226     27224     27230     27226     27224     27231
     27226     27224     27232     27230     27224     27231     27230     27224     27232
     27231     27224     27232     27224     27226     27228     27224     27226     27229
     27228     27226     27229     27237     27235     27241     27237     27235     27242
     27237     27235     27243     27241     27235     27242     27241     27235     27243
     27242     27235     27243     27235     27237     27239     27235     27237     27240
     27239     27237     27240     27248     27246     27252     27248     27246     27253
     27248     27246     27254     27252     27246     27253     27252     27246     27254
     27253     27246     27254     27246     27248     27250     27246     27248     27251
     27250     27248     27251     27259     27257     27263     27259     27257     27264
     27259     27257     27265     27263     27257     27264     27263     27257     27265
     27264     27257     27265     27257     27259     27261     27257     27259     27262
     27261     27259     27262     27270     27268     27274     27270     27268     27275
     27270     27268     27276     27274     27268     27275     27274     27268     27276
     27275     27268     27276     27268     27270     27272     27268     27270     27273
     27272     27270     27273     27281     27279     27285     27281     27279     27286
     27281     27279     27287     27285     27279     27286     27285     27279     27287
     27286     27279     27287     27279     27281     27283     27279     27281     27284
     27283     27281     27284     27292     27290     27296     27292     27290     27297
     27292     27290     27298     27296     27290     27297     27296     27290     27298
     27297     27290     27298     27290     27292     27294     27290     27292     27295
     27294     27292     27295     27303     27301     27307     27303     27301     27308
     27303     27301     27309     27307     27301     27308     27307     27301     27309
     27308     27301     27309     27301     27303     27305     27301     27303     27306
     27305     27303     27306     27314     27312     27318     27314     27312     27319
     27314     27312     27320     27318     27312     27319     27318     27312     27320
     27319     27312     27320     27312     27314     27316     27312     27314     27317
     27316     27314     27317     27325     27323     27329     27325     27323     27330
     27325     27323     27331     27329     27323     27330     27329     27323     27331
     27330     27323     27331     27323     27325     27327     27323     27325     27328
     27327     27325     27328     27336     27334     27340     27336     27334     27341
     27336     27334     27342     27340     27334     27341     27340     27334     27342
     27341     27334     27342     27334     27336     27338     27334     27336     27339
     27338     27336     27339     27347     27345     27351     27347     27345     27352
     27347     27345     27353     27351     27345     27352     27351     27345     27353
     27352     27345     27353     27345     27347     27349     27345     27347     27350
     27349     27347     27350     27358     27356     27362     27358     27356     27363
     27358     27356     27364     27362     27356     27363     27362     27356     27364
     27363     27356     27364     27356     27358     27360     27356     27358     27361
     27360     27358     27361     27369     27367     27373     27369     27367     27374
     27369     27367     27375     27373     27367     27374     27373     27367     27375
     27374     27367     27375     27367     27369     27371     27367     27369     27372
     27371     27369     27372     27380     27378     27384     27380     27378     27385
     27380     27378     27386     27384     27378     27385     27384     27378     27386
     27385     27378     27386     27378     27380     27382     27378     27380     27383
     27382     27380     27383     27391     27389     27395     27391     27389     27396
     27391     27389     27397     27395     27389     27396     27395     27389     27397
     27396     27389     27397     27389     27391     27393     27389     27391     27394
     27393     27391     27394     27402     27400     27406     27402     27400     27407
     27402     27400     27408     27406     27400     27407     27406     27400     27408
     27407     27400     27408     27400     27402     27404     27400     27402     27405
     27404     27402     27405     27413     27411     27417     27413     27411     27418
     27413     27411     27419     27417     27411     27418     27417     27411     27419
     27418     27411     27419     27411     27413     27415     27411     27413     27416
     27415     27413     27416     27424     27422     27428     27424     27422     27429
     27424     27422     27430     27428     27422     27429     27428     27422     27430
     27429     27422     27430     27422     27424     27426     27422     27424     27427
     27426     27424     27427     27435     27433     27439     27435     27433     27440
     27435     27433     27441     27439     27433     27440     27439     27433     27441
     27440     27433     27441     27433     27435     27437     27433     27435     27438
     27437     27435     27438     27446     27444     27450     27446     27444     27451
     27446     27444     27452     27450     27444     27451     27450     27444     27452
     27451     27444     27452     27444     27446     27448     27444     27446     27449
     27448     27446     27449     27457     27455     27461     27457     27455     27462
     27457     27455     27463     27461     27455     27462     27461     27455     27463
     27462     27455     27463     27455     27457     27459     27455     27457     27460
     27459     27457     27460     27468     27466     27472     27468     27466     27473
     27468     27466     27474     27472     27466     27473     27472     27466     27474
     27473     27466     27474     27466     27468     27470     27466     27468     27471
     27470     27468     27471     27479     27477     27483     27479     27477     27484
     27479     27477     27485     27483     27477     27484     27483     27477     27485
     27484     27477     27485     27477     27479     27481     27477     27479     27482
     27481     27479     27482     27490     27488     27494     27490     27488     27495
     27490     27488     27496     27494     27488     27495     27494     27488     27496
     27495     27488     27496     27488     27490     27492     27488     27490     27493
     27492     27490     27493     27501     27499     27505     27501     27499     27506
     27501     27499     27507     27505     27499     27506     27505     27499     27507
     27506     27499     27507     27499     27501     27503     27499     27501     27504
     27503     27501     27504     27512     27510     27516     27512     27510     27517
     27512     27510     27518     27516     27510     27517     27516     27510     27518
     27517     27510     27518     27510     27512     27514     27510     27512     27515
     27514     27512     27515     27523     27521     27527     27523     27521     27528
     27523     27521     27529     27527     27521     27528     27527     27521     27529
     27528     27521     27529     27521     27523     27525     27521     27523     27526
     27525     27523     27526     27534     27532     27538     27534     27532     27539
     27534     27532     27540     27538     27532     27539     27538     27532     27540
     27539     27532     27540     27532     27534     27536     27532     27534     27537
     27536     27534     27537     27545     27543     27549     27545     27543     27550
     27545     27543     27551     27549     27543     27550     27549     27543     27551
     27550     27543     27551     27543     27545     27547     27543     27545     27548
     27547     27545     27548     27556     27554     27560     27556     27554     27561
     27556     27554     27562     27560     27554     27561     27560     27554     27562
     27561     27554     27562     27554     27556     27558     27554     27556     27559
     27558     27556     27559     27567     27565     27571     27567     27565     27572
     27567     27565     27573     27571     27565     27572     27571     27565     27573
     27572     27565     27573     27565     27567     27569     27565     27567     27570
     27569     27567     27570     27578     27576     27582     27578     27576     27583
     27578     27576     27584     27582     27576     27583     27582     27576     27584
     27583     27576     27584     27576     27578     27580     27576     27578     27581
     27580     27578     27581     27589     27587     27593     27589     27587     27594
     27589     27587     27595     27593     27587     27594     27593     27587     27595
     27594     27587     27595     27587     27589     27591     27587     27589     27592
     27591     27589     27592     27600     27598     27604     27600     27598     27605
     27600     27598     27606     27604     27598     27605     27604     27598     27606
     27605     27598     27606     27598     27600     27602     27598     27600     27603
     27602     27600     27603     27611     27609     27615     27611     27609     27616
     27611     27609     27617     27615     27609     27616     27615     27609     27617
     27616     27609     27617     27609     27611     27613     27609     27611     27614
     27613     27611     27614     27622     27620     27626     27622     27620     27627
     27622     27620     27628     27626     27620     27627     27626     27620     27628
     27627     27620     27628     27620     27622     27624     27620     27622     27625
     27624     27622     27625     27633     27631     27637     27633     27631     27638
     27633     27631     27639     27637     27631     27638     27637     27631     27639
     27638     27631     27639     27631     27633     27635     27631     27633     27636
     27635     27633     27636     27644     27642     27648     27644     27642     27649
     27644     27642     27650     27648     27642     27649     27648     27642     27650
     27649     27642     27650     27642     27644     27646     27642     27644     27647
     27646     27644     27647     27655     27653     27659     27655     27653     27660
     27655     27653     27661     27659     27653     27660     27659     27653     27661
     27660     27653     27661     27653     27655     27657     27653     27655     27658
     27657     27655     27658     27666     27664     27670     27666     27664     27671
     27666     27664     27672     27670     27664     27671     27670     27664     27672
     27671     27664     27672     27664     27666     27668     27664     27666     27669
     27668     27666     27669     27677     27675     27681     27677     27675     27682
     27677     27675     27683     27681     27675     27682     27681     27675     27683
     27682     27675     27683     27675     27677     27679     27675     27677     27680
     27679     27677     27680     27688     27686     27692     27688     27686     27693
     27688     27686     27694     27692     27686     27693     27692     27686     27694
     27693     27686     27694     27686     27688     27690     27686     27688     27691
     27690     27688     27691     27699     27697     27703     27699     27697     27704
     27699     27697     27705     27703     27697     27704     27703     27697     27705
     27704     27697     27705     27697     27699     27701     27697     27699     27702
     27701     27699     27702     27710     27708     27714     27710     27708     27715
     27710     27708     27716     27714     27708     27715     27714     27708     27716
     27715     27708     27716     27708     27710     27712     27708     27710     27713
     27712     27710     27713     27721     27719     27725     27721     27719     27726
     27721     27719     27727     27725     27719     27726     27725     27719     27727
     27726     27719     27727     27719     27721     27723     27719     27721     27724
     27723     27721     27724     27732     27730     27736     27732     27730     27737
     27732     27730     27738     27736     27730     27737     27736     27730     27738
     27737     27730     27738     27730     27732     27734     27730     27732     27735
     27734     27732     27735     27743     27741     27747     27743     27741     27748
     27743     27741     27749     27747     27741     27748     27747     27741     27749
     27748     27741     27749     27741     27743     27745     27741     27743     27746
     27745     27743     27746     27754     27752     27758     27754     27752     27759
     27754     27752     27760     27758     27752     27759     27758     27752     27760
     27759     27752     27760     27752     27754     27756     27752     27754     27757
     27756     27754     27757     27765     27763     27769     27765     27763     27770
     27765     27763     27771     27769     27763     27770     27769     27763     27771
     27770     27763     27771     27763     27765     27767     27763     27765     27768
     27767     27765     27768     27776     27774     27780     27776     27774     27781
     27776     27774     27782     27780     27774     27781     27780     27774     27782
     27781     27774     27782     27774     27776     27778     27774     27776     27779
     27778     27776     27779     27787     27785     27791     27787     27785     27792
     27787     27785     27793     27791     27785     27792     27791     27785     27793
     27792     27785     27793     27785     27787     27789     27785     27787     27790
     27789     27787     27790     27798     27796     27802     27798     27796     27803
     27798     27796     27804     27802     27796     27803     27802     27796     27804
     27803     27796     27804     27796     27798     27800     27796     27798     27801
     27800     27798     27801     27809     27807     27813     27809     27807     27814
     27809     27807     27815     27813     27807     27814     27813     27807     27815
     27814     27807     27815     27807     27809     27811     27807     27809     27812
     27811     27809     27812     27820     27818     27824     27820     27818     27825
     27820     27818     27826     27824     27818     27825     27824     27818     27826
     27825     27818     27826     27818     27820     27822     27818     27820     27823
     27822     27820     27823     27831     27829     27835     27831     27829     27836
     27831     27829     27837     27835     27829     27836     27835     27829     27837
     27836     27829     27837     27829     27831     27833     27829     27831     27834
     27833     27831     27834     27842     27840     27846     27842     27840     27847
     27842     27840     27848     27846     27840     27847     27846     27840     27848
     27847     27840     27848     27840     27842     27844     27840     27842     27845
     27844     27842     27845     27853     27851     27857     27853     27851     27858
     27853     27851     27859     27857     27851     27858     27857     27851     27859
     27858     27851     27859     27851     27853     27855     27851     27853     27856
     27855     27853     27856     27864     27862     27868     27864     27862     27869
     27864     27862     27870     27868     27862     27869     27868     27862     27870
     27869     27862     27870     27862     27864     27866     27862     27864     27867
     27866     27864     27867     27875     27873     27879     27875     27873     27880
     27875     27873     27881     27879     27873     27880     27879     27873     27881
     27880     27873     27881     27873     27875     27877     27873     27875     27878
     27877     27875     27878     27886     27884     27890     27886     27884     27891
     27886     27884     27892     27890     27884     27891     27890     27884     27892
     27891     27884     27892     27884     27886     27888     27884     27886     27889
     27888     27886     27889     27897     27895     27901     27897     27895     27902
     27897     27895     27903     27901     27895     27902     27901     27895     27903
     27902     27895     27903     27895     27897     27899     27895     27897     27900
     27899     27897     27900     27908     27906     27912     27908     27906     27913
     27908     27906     27914     27912     27906     27913     27912     27906     27914
     27913     27906     27914     27906     27908     27910     27906     27908     27911
     27910     27908     27911     27919     27917     27923     27919     27917     27924
     27919     27917     27925     27923     27917     27924     27923     27917     27925
     27924     27917     27925     27917     27919     27921     27917     27919     27922
     27921     27919     27922     27930     27928     27934     27930     27928     27935
     27930     27928     27936     27934     27928     27935     27934     27928     27936
     27935     27928     27936     27928     27930     27932     27928     27930     27933
     27932     27930     27933     27941     27939     27945     27941     27939     27946
     27941     27939     27947     27945     27939     27946     27945     27939     27947
     27946     27939     27947     27939     27941     27943     27939     27941     27944
     27943     27941     27944     27952     27950     27956     27952     27950     27957
     27952     27950     27958     27956     27950     27957     27956     27950     27958
     27957     27950     27958     27950     27952     27954     27950     27952     27955
     27954     27952     27955     27963     27961     27967     27963     27961     27968
     27963     27961     27969     27967     27961     27968     27967     27961     27969
     27968     27961     27969     27961     27963     27965     27961     27963     27966
     27965     27963     27966     27974     27972     27978     27974     27972     27979
     27974     27972     27980     27978     27972     27979     27978     27972     27980
     27979     27972     27980     27972     27974     27976     27972     27974     27977
     27976     27974     27977     27985     27983     27989     27985     27983     27990
     27985     27983     27991     27989     27983     27990     27989     27983     27991
     27990     27983     27991     27983     27985     27987     27983     27985     27988
     27987     27985     27988     27996     27994     28000     27996     27994     28001
     27996     27994     28002     28000     27994     28001     28000     27994     28002
     28001     27994     28002     27994     27996     27998     27994     27996     27999
     27998     27996     27999     28007     28005     28011     28007     28005     28012
     28007     28005     28013     28011     28005     28012     28011     28005     28013
     28012     28005     28013     28005     28007     28009     28005     28007     28010
     28009     28007     28010     28018     28016     28022     28018     28016     28023
     28018     28016     28024     28022     28016     28023     28022     28016     28024
     28023     28016     28024     28016     28018     28020     28016     28018     28021
     28020     28018     28021     28029     28027     28033     28029     28027     28034
     28029     28027     28035     28033     28027     28034     28033     28027     28035
     28034     28027     28035     28027     28029     28031     28027     28029     28032
     28031     28029     28032     28040     28038     28044     28040     28038     28045
     28040     28038     28046     28044     28038     28045     28044     28038     28046
     28045     28038     28046     28038     28040     28042     28038     28040     28043
     28042     28040     28043     28051     28049     28055     28051     28049     28056
     28051     28049     28057     28055     28049     28056     28055     28049     28057
     28056     28049     28057     28049     28051     28053     28049     28051     28054
     28053     28051     28054     28062     28060     28066     28062     28060     28067
     28062     28060     28068     28066     28060     28067     28066     28060     28068
     28067     28060     28068     28060     28062     28064     28060     28062     28065
     28064     28062     28065     28073     28071     28077     28073     28071     28078
     28073     28071     28079     28077     28071     28078     28077     28071     28079
     28078     28071     28079     28071     28073     28075     28071     28073     28076
     28075     28073     28076     28084     28082     28088     28084     28082     28089
     28084     28082     28090     28088     28082     28089     28088     28082     28090
     28089     28082     28090     28082     28084     28086     28082     28084     28087
     28086     28084     28087     28095     28093     28099     28095     28093     28100
     28095     28093     28101     28099     28093     28100     28099     28093     28101
     28100     28093     28101     28093     28095     28097     28093     28095     28098
     28097     28095     28098     28106     28104     28110     28106     28104     28111
     28106     28104     28112     28110     28104     28111     28110     28104     28112
     28111     28104     28112     28104     28106     28108     28104     28106     28109
     28108     28106     28109     28117     28115     28121     28117     28115     28122
     28117     28115     28123     28121     28115     28122     28121     28115     28123
     28122     28115     28123     28115     28117     28119     28115     28117     28120
     28119     28117     28120     28128     28126     28132     28128     28126     28133
     28128     28126     28134     28132     28126     28133     28132     28126     28134
     28133     28126     28134     28126     28128     28130     28126     28128     28131
     28130     28128     28131     28139     28137     28143     28139     28137     28144
     28139     28137     28145     28143     28137     28144     28143     28137     28145
     28144     28137     28145     28137     28139     28141     28137     28139     28142
     28141     28139     28142     28150     28148     28154     28150     28148     28155
     28150     28148     28156     28154     28148     28155     28154     28148     28156
     28155     28148     28156     28148     28150     28152     28148     28150     28153
     28152     28150     28153     28161     28159     28165     28161     28159     28166
     28161     28159     28167     28165     28159     28166     28165     28159     28167
     28166     28159     28167     28159     28161     28163     28159     28161     28164
     28163     28161     28164     28172     28170     28176     28172     28170     28177
     28172     28170     28178     28176     28170     28177     28176     28170     28178
     28177     28170     28178     28170     28172     28174     28170     28172     28175
     28174     28172     28175     28183     28181     28187     28183     28181     28188
     28183     28181     28189     28187     28181     28188     28187     28181     28189
     28188     28181     28189     28181     28183     28185     28181     28183     28186
     28185     28183     28186     28194     28192     28198     28194     28192     28199
     28194     28192     28200     28198     28192     28199     28198     28192     28200
     28199     28192     28200     28192     28194     28196     28192     28194     28197
     28196     28194     28197     28205     28203     28209     28205     28203     28210
     28205     28203     28211     28209     28203     28210     28209     28203     28211
     28210     28203     28211     28203     28205     28207     28203     28205     28208
     28207     28205     28208     28216     28214     28220     28216     28214     28221
     28216     28214     28222     28220     28214     28221     28220     28214     28222
     28221     28214     28222     28214     28216     28218     28214     28216     28219
     28218     28216     28219     28227     28225     28231     28227     28225     28232
     28227     28225     28233     28231     28225     28232     28231     28225     28233
     28232     28225     28233     28225     28227     28229     28225     28227     28230
     28229     28227     28230     28238     28236     28242     28238     28236     28243
     28238     28236     28244     28242     28236     28243     28242     28236     28244
     28243     28236     28244     28236     28238     28240     28236     28238     28241
     28240     28238     28241     28249     28247     28253     28249     28247     28254
     28249     28247     28255     28253     28247     28254     28253     28247     28255
     28254     28247     28255     28247     28249     28251     28247     28249     28252
     28251     28249     28252     28260     28258     28264     28260     28258     28265
     28260     28258     28266     28264     28258     28265     28264     28258     28266
     28265     28258     28266     28258     28260     28262     28258     28260     28263
     28262     28260     28263     28271     28269     28275     28271     28269     28276
     28271     28269     28277     28275     28269     28276     28275     28269     28277
     28276     28269     28277     28269     28271     28273     28269     28271     28274
     28273     28271     28274     28282     28280     28286     28282     28280     28287
     28282     28280     28288     28286     28280     28287     28286     28280     28288
     28287     28280     28288     28280     28282     28284     28280     28282     28285
     28284     28282     28285     28293     28291     28297     28293     28291     28298
     28293     28291     28299     28297     28291     28298     28297     28291     28299
     28298     28291     28299     28291     28293     28295     28291     28293     28296
     28295     28293     28296     28304     28302     28308     28304     28302     28309
     28304     28302     28310     28308     28302     28309     28308     28302     28310
     28309     28302     28310     28302     28304     28306     28302     28304     28307
     28306     28304     28307     28315     28313     28319     28315     28313     28320
     28315     28313     28321     28319     28313     28320     28319     28313     28321
     28320     28313     28321     28313     28315     28317     28313     28315     28318
     28317     28315     28318     28326     28324     28330     28326     28324     28331
     28326     28324     28332     28330     28324     28331     28330     28324     28332
     28331     28324     28332     28324     28326     28328     28324     28326     28329
     28328     28326     28329     28337     28335     28341     28337     28335     28342
     28337     28335     28343     28341     28335     28342     28341     28335     28343
     28342     28335     28343     28335     28337     28339     28335     28337     28340
     28339     28337     28340     28348     28346     28352     28348     28346     28353
     28348     28346     28354     28352     28346     28353     28352     28346     28354
     28353     28346     28354     28346     28348     28350     28346     28348     28351
     28350     28348     28351     28359     28357     28363     28359     28357     28364
     28359     28357     28365     28363     28357     28364     28363     28357     28365
     28364     28357     28365     28357     28359     28361     28357     28359     28362
     28361     28359     28362     28370     28368     28374     28370     28368     28375
     28370     28368     28376     28374     28368     28375     28374     28368     28376
     28375     28368     28376     28368     28370     28372     28368     28370     28373
     28372     28370     28373     28381     28379     28385     28381     28379     28386
     28381     28379     28387     28385     28379     28386     28385     28379     28387
     28386     28379     28387     28379     28381     28383     28379     28381     28384
     28383     28381     28384     28392     28390     28396     28392     28390     28397
     28392     28390     28398     28396     28390     28397     28396     28390     28398
     28397     28390     28398     28390     28392     28394     28390     28392     28395
     28394     28392     28395     28403     28401     28407     28403     28401     28408
     28403     28401     28409     28407     28401     28408     28407     28401     28409
     28408     28401     28409     28401     28403     28405     28401     28403     28406
     28405     28403     28406     28414     28412     28418     28414     28412     28419
     28414     28412     28420     28418     28412     28419     28418     28412     28420
     28419     28412     28420     28412     28414     28416     28412     28414     28417
     28416     28414     28417     28425     28423     28429     28425     28423     28430
     28425     28423     28431     28429     28423     28430     28429     28423     28431
     28430     28423     28431     28423     28425     28427     28423     28425     28428
     28427     28425     28428     28436     28434     28440     28436     28434     28441
     28436     28434     28442     28440     28434     28441     28440     28434     28442
     28441     28434     28442     28434     28436     28438     28434     28436     28439
     28438     28436     28439     28447     28445     28451     28447     28445     28452
     28447     28445     28453     28451     28445     28452     28451     28445     28453
     28452     28445     28453     28445     28447     28449     28445     28447     28450
     28449     28447     28450     28458     28456     28462     28458     28456     28463
     28458     28456     28464     28462     28456     28463     28462     28456     28464
     28463     28456     28464     28456     28458     28460     28456     28458     28461
     28460     28458     28461     28469     28467     28473     28469     28467     28474
     28469     28467     28475     28473     28467     28474     28473     28467     28475
     28474     28467     28475     28467     28469     28471     28467     28469     28472
     28471     28469     28472     28480     28478     28484     28480     28478     28485
     28480     28478     28486     28484     28478     28485     28484     28478     28486
     28485     28478     28486     28478     28480     28482     28478     28480     28483
     28482     28480     28483     28491     28489     28495     28491     28489     28496
     28491     28489     28497     28495     28489     28496     28495     28489     28497
     28496     28489     28497     28489     28491     28493     28489     28491     28494
     28493     28491     28494     28502     28500     28506     28502     28500     28507
     28502     28500     28508     28506     28500     28507     28506     28500     28508
     28507     28500     28508     28500     28502     28504     28500     28502     28505
     28504     28502     28505     28513     28511     28517     28513     28511     28518
     28513     28511     28519     28517     28511     28518     28517     28511     28519
     28518     28511     28519     28511     28513     28515     28511     28513     28516
     28515     28513     28516     28524     28522     28528     28524     28522     28529
     28524     28522     28530     28528     28522     28529     28528     28522     28530
     28529     28522     28530     28522     28524     28526     28522     28524     28527
     28526     28524     28527     28535     28533     28539     28535     28533     28540
     28535     28533     28541     28539     28533     28540     28539     28533     28541
     28540     28533     28541     28533     28535     28537     28533     28535     28538
     28537     28535     28538     28546     28544     28550     28546     28544     28551
     28546     28544     28552     28550     28544     28551     28550     28544     28552
     28551     28544     28552     28544     28546     28548     28544     28546     28549
     28548     28546     28549     28557     28555     28561     28557     28555     28562
     28557     28555     28563     28561     28555     28562     28561     28555     28563
     28562     28555     28563     28555     28557     28559     28555     28557     28560
     28559     28557     28560     28568     28566     28572     28568     28566     28573
     28568     28566     28574     28572     28566     28573     28572     28566     28574
     28573     28566     28574     28566     28568     28570     28566     28568     28571
     28570     28568     28571     28579     28577     28583     28579     28577     28584
     28579     28577     28585     28583     28577     28584     28583     28577     28585
     28584     28577     28585     28577     28579     28581     28577     28579     28582
     28581     28579     28582     28590     28588     28594     28590     28588     28595
     28590     28588     28596     28594     28588     28595     28594     28588     28596
     28595     28588     28596     28588     28590     28592     28588     28590     28593
     28592     28590     28593     28601     28599     28605     28601     28599     28606
     28601     28599     28607     28605     28599     28606     28605     28599     28607
     28606     28599     28607     28599     28601     28603     28599     28601     28604
     28603     28601     28604     28612     28610     28616     28612     28610     28617
     28612     28610     28618     28616     28610     28617     28616     28610     28618
     28617     28610     28618     28610     28612     28614     28610     28612     28615
     28614     28612     28615     28623     28621     28627     28623     28621     28628
     28623     28621     28629     28627     28621     28628     28627     28621     28629
     28628     28621     28629     28621     28623     28625     28621     28623     28626
     28625     28623     28626     28634     28632     28638     28634     28632     28639
     28634     28632     28640     28638     28632     28639     28638     28632     28640
     28639     28632     28640     28632     28634     28636     28632     28634     28637
     28636     28634     28637     28645     28643     28649     28645     28643     28650
     28645     28643     28651     28649     28643     28650     28649     28643     28651
     28650     28643     28651     28643     28645     28647     28643     28645     28648
     28647     28645     28648     28656     28654     28660     28656     28654     28661
     28656     28654     28662     28660     28654     28661     28660     28654     28662
     28661     28654     28662     28654     28656     28658     28654     28656     28659
     28658     28656     28659     28667     28665     28671     28667     28665     28672
     28667     28665     28673     28671     28665     28672     28671     28665     28673
     28672     28665     28673     28665     28667     28669     28665     28667     28670
     28669     28667     28670     28678     28676     28682     28678     28676     28683
     28678     28676     28684     28682     28676     28683     28682     28676     28684
     28683     28676     28684     28676     28678     28680     28676     28678     28681
     28680     28678     28681     28689     28687     28693     28689     28687     28694
     28689     28687     28695     28693     28687     28694     28693     28687     28695
     28694     28687     28695     28687     28689     28691     28687     28689     28692
     28691     28689     28692     28700     28698     28704     28700     28698     28705
     28700     28698     28706     28704     28698     28705     28704     28698     28706
     28705     28698     28706     28698     28700     28702     28698     28700     28703
     28702     28700     28703     28711     28709     28715     28711     28709     28716
     28711     28709     28717     28715     28709     28716     28715     28709     28717
     28716     28709     28717     28709     28711     28713     28709     28711     28714
     28713     28711     28714     28722     28720     28726     28722     28720     28727
     28722     28720     28728     28726     28720     28727     28726     28720     28728
     28727     28720     28728     28720     28722     28724     28720     28722     28725
     28724     28722     28725     28733     28731     28737     28733     28731     28738
     28733     28731     28739     28737     28731     28738     28737     28731     28739
     28738     28731     28739     28731     28733     28735     28731     28733     28736
     28735     28733     28736     28744     28742     28748     28744     28742     28749
     28744     28742     28750     28748     28742     28749     28748     28742     28750
     28749     28742     28750     28742     28744     28746     28742     28744     28747
     28746     28744     28747     28755     28753     28759     28755     28753     28760
     28755     28753     28761     28759     28753     28760     28759     28753     28761
     28760     28753     28761     28753     28755     28757     28753     28755     28758
     28757     28755     28758     28766     28764     28770     28766     28764     28771
     28766     28764     28772     28770     28764     28771     28770     28764     28772
     28771     28764     28772     28764     28766     28768     28764     28766     28769
     28768     28766     28769     28777     28775     28781     28777     28775     28782
     28777     28775     28783     28781     28775     28782     28781     28775     28783
     28782     28775     28783     28775     28777     28779     28775     28777     28780
     28779     28777     28780     28788     28786     28792     28788     28786     28793
     28788     28786     28794     28792     28786     28793     28792     28786     28794
     28793     28786     28794     28786     28788     28790     28786     28788     28791
     28790     28788     28791     28799     28797     28803     28799     28797     28804
     28799     28797     28805     28803     28797     28804     28803     28797     28805
     28804     28797     28805     28797     28799     28801     28797     28799     28802
     28801     28799     28802     28810     28808     28814     28810     28808     28815
     28810     28808     28816     28814     28808     28815     28814     28808     28816
     28815     28808     28816     28808     28810     28812     28808     28810     28813
     28812     28810     28813     28821     28819     28825     28821     28819     28826
     28821     28819     28827     28825     28819     28826     28825     28819     28827
     28826     28819     28827     28819     28821     28823     28819     28821     28824
     28823     28821     28824     28832     28830     28836     28832     28830     28837
     28832     28830     28838     28836     28830     28837     28836     28830     28838
     28837     28830     28838     28830     28832     28834     28830     28832     28835
     28834     28832     28835     28843     28841     28847     28843     28841     28848
     28843     28841     28849     28847     28841     28848     28847     28841     28849
     28848     28841     28849     28841     28843     28845     28841     28843     28846
     28845     28843     28846     28854     28852     28858     28854     28852     28859
     28854     28852     28860     28858     28852     28859     28858     28852     28860
     28859     28852     28860     28852     28854     28856     28852     28854     28857
     28856     28854     28857     28865     28863     28869     28865     28863     28870
     28865     28863     28871     28869     28863     28870     28869     28863     28871
     28870     28863     28871     28863     28865     28867     28863     28865     28868
     28867     28865     28868     28876     28874     28880     28876     28874     28881
     28876     28874     28882     28880     28874     28881     28880     28874     28882
     28881     28874     28882     28874     28876     28878     28874     28876     28879
     28878     28876     28879     28887     28885     28891     28887     28885     28892
     28887     28885     28893     28891     28885     28892     28891     28885     28893
     28892     28885     28893     28885     28887     28889     28885     28887     28890
     28889     28887     28890     28898     28896     28902     28898     28896     28903
     28898     28896     28904     28902     28896     28903     28902     28896     28904
     28903     28896     28904     28896     28898     28900     28896     28898     28901
     28900     28898     28901     28909     28907     28913     28909     28907     28914
     28909     28907     28915     28913     28907     28914     28913     28907     28915
     28914     28907     28915     28907     28909     28911     28907     28909     28912
     28911     28909     28912     28920     28918     28924     28920     28918     28925
     28920     28918     28926     28924     28918     28925     28924     28918     28926
     28925     28918     28926     28918     28920     28922     28918     28920     28923
     28922     28920     28923     28931     28929     28935     28931     28929     28936
     28931     28929     28937     28935     28929     28936     28935     28929     28937
     28936     28929     28937     28929     28931     28933     28929     28931     28934
     28933     28931     28934     28942     28940     28946     28942     28940     28947
     28942     28940     28948     28946     28940     28947     28946     28940     28948
     28947     28940     28948     28940     28942     28944     28940     28942     28945
     28944     28942     28945     28953     28951     28957     28953     28951     28958
     28953     28951     28959     28957     28951     28958     28957     28951     28959
     28958     28951     28959     28951     28953     28955     28951     28953     28956
     28955     28953     28956     28964     28962     28968     28964     28962     28969
     28964     28962     28970     28968     28962     28969     28968     28962     28970
     28969     28962     28970     28962     28964     28966     28962     28964     28967
     28966     28964     28967     28975     28973     28979     28975     28973     28980
     28975     28973     28981     28979     28973     28980     28979     28973     28981
     28980     28973     28981     28973     28975     28977     28973     28975     28978
     28977     28975     28978     28986     28984     28990     28986     28984     28991
     28986     28984     28992     28990     28984     28991     28990     28984     28992
     28991     28984     28992     28984     28986     28988     28984     28986     28989
     28988     28986     28989     28997     28995     29001     28997     28995     29002
     28997     28995     29003     29001     28995     29002     29001     28995     29003
     29002     28995     29003     28995     28997     28999     28995     28997     29000
     28999     28997     29000     29008     29006     29012     29008     29006     29013
     29008     29006     29014     29012     29006     29013     29012     29006     29014
     29013     29006     29014     29006     29008     29010     29006     29008     29011
     29010     29008     29011     29019     29017     29023     29019     29017     29024
     29019     29017     29025     29023     29017     29024     29023     29017     29025
     29024     29017     29025     29017     29019     29021     29017     29019     29022
     29021     29019     29022     29030     29028     29034     29030     29028     29035
     29030     29028     29036     29034     29028     29035     29034     29028     29036
     29035     29028     29036     29028     29030     29032     29028     29030     29033
     29032     29030     29033     29041     29039     29045     29041     29039     29046
     29041     29039     29047     29045     29039     29046     29045     29039     29047
     29046     29039     29047     29039     29041     29043     29039     29041     29044
     29043     29041     29044     29052     29050     29056     29052     29050     29057
     29052     29050     29058     29056     29050     29057     29056     29050     29058
     29057     29050     29058     29050     29052     29054     29050     29052     29055
     29054     29052     29055     29063     29061     29067     29063     29061     29068
     29063     29061     29069     29067     29061     29068     29067     29061     29069
     29068     29061     29069     29061     29063     29065     29061     29063     29066
     29065     29063     29066     29074     29072     29078     29074     29072     29079
     29074     29072     29080     29078     29072     29079     29078     29072     29080
     29079     29072     29080     29072     29074     29076     29072     29074     29077
     29076     29074     29077     29085     29083     29089     29085     29083     29090
     29085     29083     29091     29089     29083     29090     29089     29083     29091
     29090     29083     29091     29083     29085     29087     29083     29085     29088
     29087     29085     29088     29096     29094     29100     29096     29094     29101
     29096     29094     29102     29100     29094     29101     29100     29094     29102
     29101     29094     29102     29094     29096     29098     29094     29096     29099
     29098     29096     29099     29107     29105     29111     29107     29105     29112
     29107     29105     29113     29111     29105     29112     29111     29105     29113
     29112     29105     29113     29105     29107     29109     29105     29107     29110
     29109     29107     29110     29118     29116     29122     29118     29116     29123
     29118     29116     29124     29122     29116     29123     29122     29116     29124
     29123     29116     29124     29116     29118     29120     29116     29118     29121
     29120     29118     29121     29129     29127     29133     29129     29127     29134
     29129     29127     29135     29133     29127     29134     29133     29127     29135
     29134     29127     29135     29127     29129     29131     29127     29129     29132
     29131     29129     29132     29140     29138     29144     29140     29138     29145
     29140     29138     29146     29144     29138     29145     29144     29138     29146
     29145     29138     29146     29138     29140     29142     29138     29140     29143
     29142     29140     29143     29151     29149     29155     29151     29149     29156
     29151     29149     29157     29155     29149     29156     29155     29149     29157
     29156     29149     29157     29149     29151     29153     29149     29151     29154
     29153     29151     29154     29162     29160     29166     29162     29160     29167
     29162     29160     29168     29166     29160     29167     29166     29160     29168
     29167     29160     29168     29160     29162     29164     29160     29162     29165
     29164     29162     29165     29173     29171     29177     29173     29171     29178
     29173     29171     29179     29177     29171     29178     29177     29171     29179
     29178     29171     29179     29171     29173     29175     29171     29173     29176
     29175     29173     29176     29184     29182     29188     29184     29182     29189
     29184     29182     29190     29188     29182     29189     29188     29182     29190
     29189     29182     29190     29182     29184     29186     29182     29184     29187
     29186     29184     29187     29195     29193     29199     29195     29193     29200
     29195     29193     29201     29199     29193     29200     29199     29193     29201
     29200     29193     29201     29193     29195     29197     29193     29195     29198
     29197     29195     29198     29206     29204     29210     29206     29204     29211
     29206     29204     29212     29210     29204     29211     29210     29204     29212
     29211     29204     29212     29204     29206     29208     29204     29206     29209
     29208     29206     29209     29217     29215     29221     29217     29215     29222
     29217     29215     29223     29221     29215     29222     29221     29215     29223
     29222     29215     29223     29215     29217     29219     29215     29217     29220
     29219     29217     29220     29228     29226     29232     29228     29226     29233
     29228     29226     29234     29232     29226     29233     29232     29226     29234
     29233     29226     29234     29226     29228     29230     29226     29228     29231
     29230     29228     29231     29239     29237     29243     29239     29237     29244
     29239     29237     29245     29243     29237     29244     29243     29237     29245
     29244     29237     29245     29237     29239     29241     29237     29239     29242
     29241     29239     29242     29250     29248     29254     29250     29248     29255
     29250     29248     29256     29254     29248     29255     29254     29248     29256
     29255     29248     29256     29248     29250     29252     29248     29250     29253
     29252     29250     29253     29261     29259     29265     29261     29259     29266
     29261     29259     29267     29265     29259     29266     29265     29259     29267
     29266     29259     29267     29259     29261     29263     29259     29261     29264
     29263     29261     29264     29272     29270     29276     29272     29270     29277
     29272     29270     29278     29276     29270     29277     29276     29270     29278
     29277     29270     29278     29270     29272     29274     29270     29272     29275
     29274     29272     29275     29283     29281     29287     29283     29281     29288
     29283     29281     29289     29287     29281     29288     29287     29281     29289
     29288     29281     29289     29281     29283     29285     29281     29283     29286
     29285     29283     29286     29294     29292     29298     29294     29292     29299
     29294     29292     29300     29298     29292     29299     29298     29292     29300
     29299     29292     29300     29292     29294     29296     29292     29294     29297
     29296     29294     29297     29305     29303     29309     29305     29303     29310
     29305     29303     29311     29309     29303     29310     29309     29303     29311
     29310     29303     29311     29303     29305     29307     29303     29305     29308
     29307     29305     29308     29316     29314     29320     29316     29314     29321
     29316     29314     29322     29320     29314     29321     29320     29314     29322
     29321     29314     29322     29314     29316     29318     29314     29316     29319
     29318     29316     29319     29327     29325     29331     29327     29325     29332
     29327     29325     29333     29331     29325     29332     29331     29325     29333
     29332     29325     29333     29325     29327     29329     29325     29327     29330
     29329     29327     29330     29338     29336     29342     29338     29336     29343
     29338     29336     29344     29342     29336     29343     29342     29336     29344
     29343     29336     29344     29336     29338     29340     29336     29338     29341
     29340     29338     29341     29349     29347     29353     29349     29347     29354
     29349     29347     29355     29353     29347     29354     29353     29347     29355
     29354     29347     29355     29347     29349     29351     29347     29349     29352
     29351     29349     29352     29360     29358     29364     29360     29358     29365
     29360     29358     29366     29364     29358     29365     29364     29358     29366
     29365     29358     29366     29358     29360     29362     29358     29360     29363
     29362     29360     29363     29371     29369     29375     29371     29369     29376
     29371     29369     29377     29375     29369     29376     29375     29369     29377
     29376     29369     29377     29369     29371     29373     29369     29371     29374
     29373     29371     29374     29382     29380     29386     29382     29380     29387
     29382     29380     29388     29386     29380     29387     29386     29380     29388
     29387     29380     29388     29380     29382     29384     29380     29382     29385
     29384     29382     29385     29393     29391     29397     29393     29391     29398
     29393     29391     29399     29397     29391     29398     29397     29391     29399
     29398     29391     29399     29391     29393     29395     29391     29393     29396
     29395     29393     29396     29404     29402     29408     29404     29402     29409
     29404     29402     29410     29408     29402     29409     29408     29402     29410
     29409     29402     29410     29402     29404     29406     29402     29404     29407
     29406     29404     29407     29415     29413     29419     29415     29413     29420
     29415     29413     29421     29419     29413     29420     29419     29413     29421
     29420     29413     29421     29413     29415     29417     29413     29415     29418
     29417     29415     29418     29426     29424     29430     29426     29424     29431
     29426     29424     29432     29430     29424     29431     29430     29424     29432
     29431     29424     29432     29424     29426     29428     29424     29426     29429
     29428     29426     29429     29437     29435     29441     29437     29435     29442
     29437     29435     29443     29441     29435     29442     29441     29435     29443
     29442     29435     29443     29435     29437     29439     29435     29437     29440
     29439     29437     29440     29448     29446     29452     29448     29446     29453
     29448     29446     29454     29452     29446     29453     29452     29446     29454
     29453     29446     29454     29446     29448     29450     29446     29448     29451
     29450     29448     29451     29459     29457     29463     29459     29457     29464
     29459     29457     29465     29463     29457     29464     29463     29457     29465
     29464     29457     29465     29457     29459     29461     29457     29459     29462
     29461     29459     29462     29470     29468     29474     29470     29468     29475
     29470     29468     29476     29474     29468     29475     29474     29468     29476
     29475     29468     29476     29468     29470     29472     29468     29470     29473
     29472     29470     29473     29481     29479     29485     29481     29479     29486
     29481     29479     29487     29485     29479     29486     29485     29479     29487
     29486     29479     29487     29479     29481     29483     29479     29481     29484
     29483     29481     29484     29492     29490     29496     29492     29490     29497
     29492     29490     29498     29496     29490     29497     29496     29490     29498
     29497     29490     29498     29490     29492     29494     29490     29492     29495
     29494     29492     29495     29503     29501     29507     29503     29501     29508
     29503     29501     29509     29507     29501     29508     29507     29501     29509
     29508     29501     29509     29501     29503     29505     29501     29503     29506
     29505     29503     29506     29514     29512     29518     29514     29512     29519
     29514     29512     29520     29518     29512     29519     29518     29512     29520
     29519     29512     29520     29512     29514     29516     29512     29514     29517
     29516     29514     29517     29525     29523     29529     29525     29523     29530
     29525     29523     29531     29529     29523     29530     29529     29523     29531
     29530     29523     29531     29523     29525     29527     29523     29525     29528
     29527     29525     29528     29536     29534     29540     29536     29534     29541
     29536     29534     29542     29540     29534     29541     29540     29534     29542
     29541     29534     29542     29534     29536     29538     29534     29536     29539
     29538     29536     29539     29547     29545     29551     29547     29545     29552
     29547     29545     29553     29551     29545     29552     29551     29545     29553
     29552     29545     29553     29545     29547     29549     29545     29547     29550
     29549     29547     29550     29558     29556     29562     29558     29556     29563
     29558     29556     29564     29562     29556     29563     29562     29556     29564
     29563     29556     29564     29556     29558     29560     29556     29558     29561
     29560     29558     29561     29569     29567     29573     29569     29567     29574
     29569     29567     29575     29573     29567     29574     29573     29567     29575
     29574     29567     29575     29567     29569     29571     29567     29569     29572
     29571     29569     29572     29580     29578     29584     29580     29578     29585
     29580     29578     29586     29584     29578     29585     29584     29578     29586
     29585     29578     29586     29578     29580     29582     29578     29580     29583
     29582     29580     29583     29591     29589     29595     29591     29589     29596
     29591     29589     29597     29595     29589     29596     29595     29589     29597
     29596     29589     29597     29589     29591     29593     29589     29591     29594
     29593     29591     29594     29602     29600     29606     29602     29600     29607
     29602     29600     29608     29606     29600     29607     29606     29600     29608
     29607     29600     29608     29600     29602     29604     29600     29602     29605
     29604     29602     29605     29613     29611     29617     29613     29611     29618
     29613     29611     29619     29617     29611     29618     29617     29611     29619
     29618     29611     29619     29611     29613     29615     29611     29613     29616
     29615     29613     29616     29624     29622     29628     29624     29622     29629
     29624     29622     29630     29628     29622     29629     29628     29622     29630
     29629     29622     29630     29622     29624     29626     29622     29624     29627
     29626     29624     29627     29635     29633     29639     29635     29633     29640
     29635     29633     29641     29639     29633     29640     29639     29633     29641
     29640     29633     29641     29633     29635     29637     29633     29635     29638
     29637     29635     29638     29646     29644     29650     29646     29644     29651
     29646     29644     29652     29650     29644     29651     29650     29644     29652
     29651     29644     29652     29644     29646     29648     29644     29646     29649
     29648     29646     29649     29657     29655     29661     29657     29655     29662
     29657     29655     29663     29661     29655     29662     29661     29655     29663
     29662     29655     29663     29655     29657     29659     29655     29657     29660
     29659     29657     29660     29668     29666     29672     29668     29666     29673
     29668     29666     29674     29672     29666     29673     29672     29666     29674
     29673     29666     29674     29666     29668     29670     29666     29668     29671
     29670     29668     29671     29679     29677     29683     29679     29677     29684
     29679     29677     29685     29683     29677     29684     29683     29677     29685
     29684     29677     29685     29677     29679     29681     29677     29679     29682
     29681     29679     29682     29690     29688     29694     29690     29688     29695
     29690     29688     29696     29694     29688     29695     29694     29688     29696
     29695     29688     29696     29688     29690     29692     29688     29690     29693
     29692     29690     29693     29701     29699     29705     29701     29699     29706
     29701     29699     29707     29705     29699     29706     29705     29699     29707
     29706     29699     29707     29699     29701     29703     29699     29701     29704
     29703     29701     29704     29712     29710     29716     29712     29710     29717
     29712     29710     29718     29716     29710     29717     29716     29710     29718
     29717     29710     29718     29710     29712     29714     29710     29712     29715
     29714     29712     29715     29723     29721     29727     29723     29721     29728
     29723     29721     29729     29727     29721     29728     29727     29721     29729
     29728     29721     29729     29721     29723     29725     29721     29723     29726
     29725     29723     29726     29734     29732     29738     29734     29732     29739
     29734     29732     29740     29738     29732     29739     29738     29732     29740
     29739     29732     29740     29732     29734     29736     29732     29734     29737
     29736     29734     29737     29745     29743     29749     29745     29743     29750
     29745     29743     29751     29749     29743     29750     29749     29743     29751
     29750     29743     29751     29743     29745     29747     29743     29745     29748
     29747     29745     29748     29756     29754     29760     29756     29754     29761
     29756     29754     29762     29760     29754     29761     29760     29754     29762
     29761     29754     29762     29754     29756     29758     29754     29756     29759
     29758     29756     29759     29767     29765     29771     29767     29765     29772
     29767     29765     29773     29771     29765     29772     29771     29765     29773
     29772     29765     29773     29765     29767     29769     29765     29767     29770
     29769     29767     29770     29778     29776     29782     29778     29776     29783
     29778     29776     29784     29782     29776     29783     29782     29776     29784
     29783     29776     29784     29776     29778     29780     29776     29778     29781
     29780     29778     29781     29789     29787     29793     29789     29787     29794
     29789     29787     29795     29793     29787     29794     29793     29787     29795
     29794     29787     29795     29787     29789     29791     29787     29789     29792
     29791     29789     29792     29800     29798     29804     29800     29798     29805
     29800     29798     29806     29804     29798     29805     29804     29798     29806
     29805     29798     29806     29798     29800     29802     29798     29800     29803
     29802     29800     29803     29811     29809     29815     29811     29809     29816
     29811     29809     29817     29815     29809     29816     29815     29809     29817
     29816     29809     29817     29809     29811     29813     29809     29811     29814
     29813     29811     29814     29822     29820     29826     29822     29820     29827
     29822     29820     29828     29826     29820     29827     29826     29820     29828
     29827     29820     29828     29820     29822     29824     29820     29822     29825
     29824     29822     29825     29833     29831     29837     29833     29831     29838
     29833     29831     29839     29837     29831     29838     29837     29831     29839
     29838     29831     29839     29831     29833     29835     29831     29833     29836
     29835     29833     29836     29844     29842     29848     29844     29842     29849
     29844     29842     29850     29848     29842     29849     29848     29842     29850
     29849     29842     29850     29842     29844     29846     29842     29844     29847
     29846     29844     29847     29855     29853     29859     29855     29853     29860
     29855     29853     29861     29859     29853     29860     29859     29853     29861
     29860     29853     29861     29853     29855     29857     29853     29855     29858
     29857     29855     29858     29866     29864     29870     29866     29864     29871
     29866     29864     29872     29870     29864     29871     29870     29864     29872
     29871     29864     29872     29864     29866     29868     29864     29866     29869
     29868     29866     29869     29877     29875     29881     29877     29875     29882
     29877     29875     29883     29881     29875     29882     29881     29875     29883
     29882     29875     29883     29875     29877     29879     29875     29877     29880
     29879     29877     29880     29888     29886     29892     29888     29886     29893
     29888     29886     29894     29892     29886     29893     29892     29886     29894
     29893     29886     29894     29886     29888     29890     29886     29888     29891
     29890     29888     29891     29899     29897     29903     29899     29897     29904
     29899     29897     29905     29903     29897     29904     29903     29897     29905
     29904     29897     29905     29897     29899     29901     29897     29899     29902
     29901     29899     29902     29910     29908     29914     29910     29908     29915
     29910     29908     29916     29914     29908     29915     29914     29908     29916
     29915     29908     29916     29908     29910     29912     29908     29910     29913
     29912     29910     29913     29921     29919     29925     29921     29919     29926
     29921     29919     29927     29925     29919     29926     29925     29919     29927
     29926     29919     29927     29919     29921     29923     29919     29921     29924
     29923     29921     29924     29932     29930     29936     29932     29930     29937
     29932     29930     29938     29936     29930     29937     29936     29930     29938
     29937     29930     29938     29930     29932     29934     29930     29932     29935
     29934     29932     29935     29943     29941     29947     29943     29941     29948
     29943     29941     29949     29947     29941     29948     29947     29941     29949
     29948     29941     29949     29941     29943     29945     29941     29943     29946
     29945     29943     29946     29954     29952     29958     29954     29952     29959
     29954     29952     29960     29958     29952     29959     29958     29952     29960
     29959     29952     29960     29952     29954     29956     29952     29954     29957
     29956     29954     29957     29965     29963     29969     29965     29963     29970
     29965     29963     29971     29969     29963     29970     29969     29963     29971
     29970     29963     29971     29963     29965     29967     29963     29965     29968
     29967     29965     29968     29976     29974     29980     29976     29974     29981
     29976     29974     29982     29980     29974     29981     29980     29974     29982
     29981     29974     29982     29974     29976     29978     29974     29976     29979
     29978     29976     29979     29987     29985     29991     29987     29985     29992
     29987     29985     29993     29991     29985     29992     29991     29985     29993
     29992     29985     29993     29985     29987     29989     29985     29987     29990
     29989     29987     29990     29998     29996     30002     29998     29996     30003
     29998     29996     30004     30002     29996     30003     30002     29996     30004
     30003     29996     30004     29996     29998     30000     29996     29998     30001
     30000     29998     30001     30009     30007     30013     30009     30007     30014
     30009     30007     30015     30013     30007     30014     30013     30007     30015
     30014     30007     30015     30007     30009     30011     30007     30009     30012
     30011     30009     30012     30020     30018     30024     30020     30018     30025
     30020     30018     30026     30024     30018     30025     30024     30018     30026
     30025     30018     30026     30018     30020     30022     30018     30020     30023
     30022     30020     30023     30031     30029     30035     30031     30029     30036
     30031     30029     30037     30035     30029     30036     30035     30029     30037
     30036     30029     30037     30029     30031     30033     30029     30031     30034
     30033     30031     30034     30042     30040     30046     30042     30040     30047
     30042     30040     30048     30046     30040     30047     30046     30040     30048
     30047     30040     30048     30040     30042     30044     30040     30042     30045
     30044     30042     30045     30053     30051     30057     30053     30051     30058
     30053     30051     30059     30057     30051     30058     30057     30051     30059
     30058     30051     30059     30051     30053     30055     30051     30053     30056
     30055     30053     30056     30064     30062     30068     30064     30062     30069
     30064     30062     30070     30068     30062     30069     30068     30062     30070
     30069     30062     30070     30062     30064     30066     30062     30064     30067
     30066     30064     30067     30075     30073     30079     30075     30073     30080
     30075     30073     30081     30079     30073     30080     30079     30073     30081
     30080     30073     30081     30073     30075     30077     30073     30075     30078
     30077     30075     30078     30086     30084     30090     30086     30084     30091
     30086     30084     30092     30090     30084     30091     30090     30084     30092
     30091     30084     30092     30084     30086     30088     30084     30086     30089
     30088     30086     30089     30097     30095     30101     30097     30095     30102
     30097     30095     30103     30101     30095     30102     30101     30095     30103
     30102     30095     30103     30095     30097     30099     30095     30097     30100
     30099     30097     30100     30108     30106     30112     30108     30106     30113
     30108     30106     30114     30112     30106     30113     30112     30106     30114
     30113     30106     30114     30106     30108     30110     30106     30108     30111
     30110     30108     30111     30119     30117     30123     30119     30117     30124
     30119     30117     30125     30123     30117     30124     30123     30117     30125
     30124     30117     30125     30117     30119     30121     30117     30119     30122
     30121     30119     30122     30130     30128     30134     30130     30128     30135
     30130     30128     30136     30134     30128     30135     30134     30128     30136
     30135     30128     30136     30128     30130     30132     30128     30130     30133
     30132     30130     30133     30141     30139     30145     30141     30139     30146
     30141     30139     30147     30145     30139     30146     30145     30139     30147
     30146     30139     30147     30139     30141     30143     30139     30141     30144
     30143     30141     30144     30152     30150     30156     30152     30150     30157
     30152     30150     30158     30156     30150     30157     30156     30150     30158
     30157     30150     30158     30150     30152     30154     30150     30152     30155
     30154     30152     30155     30163     30161     30167     30163     30161     30168
     30163     30161     30169     30167     30161     30168     30167     30161     30169
     30168     30161     30169     30161     30163     30165     30161     30163     30166
     30165     30163     30166     30174     30172     30178     30174     30172     30179
     30174     30172     30180     30178     30172     30179     30178     30172     30180
     30179     30172     30180     30172     30174     30176     30172     30174     30177
     30176     30174     30177     30185     30183     30189     30185     30183     30190
     30185     30183     30191     30189     30183     30190     30189     30183     30191
     30190     30183     30191     30183     30185     30187     30183     30185     30188
     30187     30185     30188     30196     30194     30200     30196     30194     30201
     30196     30194     30202     30200     30194     30201     30200     30194     30202
     30201     30194     30202     30194     30196     30198     30194     30196     30199
     30198     30196     30199     30207     30205     30211     30207     30205     30212
     30207     30205     30213     30211     30205     30212     30211     30205     30213
     30212     30205     30213     30205     30207     30209     30205     30207     30210
     30209     30207     30210     30218     30216     30222     30218     30216     30223
     30218     30216     30224     30222     30216     30223     30222     30216     30224
     30223     30216     30224     30216     30218     30220     30216     30218     30221
     30220     30218     30221     30229     30227     30233     30229     30227     30234
     30229     30227     30235     30233     30227     30234     30233     30227     30235
     30234     30227     30235     30227     30229     30231     30227     30229     30232
     30231     30229     30232     30240     30238     30244     30240     30238     30245
     30240     30238     30246     30244     30238     30245     30244     30238     30246
     30245     30238     30246     30238     30240     30242     30238     30240     30243
     30242     30240     30243     30251     30249     30255     30251     30249     30256
     30251     30249     30257     30255     30249     30256     30255     30249     30257
     30256     30249     30257     30249     30251     30253     30249     30251     30254
     30253     30251     30254     30262     30260     30266     30262     30260     30267
     30262     30260     30268     30266     30260     30267     30266     30260     30268
     30267     30260     30268     30260     30262     30264     30260     30262     30265
     30264     30262     30265     30273     30271     30277     30273     30271     30278
     30273     30271     30279     30277     30271     30278     30277     30271     30279
     30278     30271     30279     30271     30273     30275     30271     30273     30276
     30275     30273     30276     30284     30282     30288     30284     30282     30289
     30284     30282     30290     30288     30282     30289     30288     30282     30290
     30289     30282     30290     30282     30284     30286     30282     30284     30287
     30286     30284     30287     30295     30293     30299     30295     30293     30300
     30295     30293     30301     30299     30293     30300     30299     30293     30301
     30300     30293     30301     30293     30295     30297     30293     30295     30298
     30297     30295     30298     30306     30304     30310     30306     30304     30311
     30306     30304     30312     30310     30304     30311     30310     30304     30312
     30311     30304     30312     30304     30306     30308     30304     30306     30309
     30308     30306     30309     30317     30315     30321     30317     30315     30322
     30317     30315     30323     30321     30315     30322     30321     30315     30323
     30322     30315     30323     30315     30317     30319     30315     30317     30320
     30319     30317     30320     30328     30326     30332     30328     30326     30333
     30328     30326     30334     30332     30326     30333     30332     30326     30334
     30333     30326     30334     30326     30328     30330     30326     30328     30331
     30330     30328     30331     30339     30337     30343     30339     30337     30344
     30339     30337     30345     30343     30337     30344     30343     30337     30345
     30344     30337     30345     30337     30339     30341     30337     30339     30342
     30341     30339     30342     30350     30348     30354     30350     30348     30355
     30350     30348     30356     30354     30348     30355     30354     30348     30356
     30355     30348     30356     30348     30350     30352     30348     30350     30353
     30352     30350     30353     30361     30359     30365     30361     30359     30366
     30361     30359     30367     30365     30359     30366     30365     30359     30367
     30366     30359     30367     30359     30361     30363     30359     30361     30364
     30363     30361     30364     30372     30370     30376     30372     30370     30377
     30372     30370     30378     30376     30370     30377     30376     30370     30378
     30377     30370     30378     30370     30372     30374     30370     30372     30375
     30374     30372     30375     30383     30381     30387     30383     30381     30388
     30383     30381     30389     30387     30381     30388     30387     30381     30389
     30388     30381     30389     30381     30383     30385     30381     30383     30386
     30385     30383     30386     30394     30392     30398     30394     30392     30399
     30394     30392     30400     30398     30392     30399     30398     30392     30400
     30399     30392     30400     30392     30394     30396     30392     30394     30397
     30396     30394     30397     30405     30403     30409     30405     30403     30410
     30405     30403     30411     30409     30403     30410     30409     30403     30411
     30410     30403     30411     30403     30405     30407     30403     30405     30408
     30407     30405     30408     30416     30414     30420     30416     30414     30421
     30416     30414     30422     30420     30414     30421     30420     30414     30422
     30421     30414     30422     30414     30416     30418     30414     30416     30419
     30418     30416     30419     30427     30425     30431     30427     30425     30432
     30427     30425     30433     30431     30425     30432     30431     30425     30433
     30432     30425     30433     30425     30427     30429     30425     30427     30430
     30429     30427     30430     30438     30436     30442     30438     30436     30443
     30438     30436     30444     30442     30436     30443     30442     30436     30444
     30443     30436     30444     30436     30438     30440     30436     30438     30441
     30440     30438     30441     30449     30447     30453     30449     30447     30454
     30449     30447     30455     30453     30447     30454     30453     30447     30455
     30454     30447     30455     30447     30449     30451     30447     30449     30452
     30451     30449     30452     30460     30458     30464     30460     30458     30465
     30460     30458     30466     30464     30458     30465     30464     30458     30466
     30465     30458     30466     30458     30460     30462     30458     30460     30463
     30462     30460     30463     30471     30469     30475     30471     30469     30476
     30471     30469     30477     30475     30469     30476     30475     30469     30477
     30476     30469     30477     30469     30471     30473     30469     30471     30474
     30473     30471     30474     30482     30480     30486     30482     30480     30487
     30482     30480     30488     30486     30480     30487     30486     30480     30488
     30487     30480     30488     30480     30482     30484     30480     30482     30485
     30484     30482     30485     30493     30491     30497     30493     30491     30498
     30493     30491     30499     30497     30491     30498     30497     30491     30499
     30498     30491     30499     30491     30493     30495     30491     30493     30496
     30495     30493     30496     30504     30502     30508     30504     30502     30509
     30504     30502     30510     30508     30502     30509     30508     30502     30510
     30509     30502     30510     30502     30504     30506     30502     30504     30507
     30506     30504     30507     30515     30513     30519     30515     30513     30520
     30515     30513     30521     30519     30513     30520     30519     30513     30521
     30520     30513     30521     30513     30515     30517     30513     30515     30518
     30517     30515     30518     30526     30524     30530     30526     30524     30531
     30526     30524     30532     30530     30524     30531     30530     30524     30532
     30531     30524     30532     30524     30526     30528     30524     30526     30529
     30528     30526     30529     30537     30535     30541     30537     30535     30542
     30537     30535     30543     30541     30535     30542     30541     30535     30543
     30542     30535     30543     30535     30537     30539     30535     30537     30540
     30539     30537     30540     30548     30546     30552     30548     30546     30553
     30548     30546     30554     30552     30546     30553     30552     30546     30554
     30553     30546     30554     30546     30548     30550     30546     30548     30551
     30550     30548     30551     30559     30557     30563     30559     30557     30564
     30559     30557     30565     30563     30557     30564     30563     30557     30565
     30564     30557     30565     30557     30559     30561     30557     30559     30562
     30561     30559     30562     30570     30568     30574     30570     30568     30575
     30570     30568     30576     30574     30568     30575     30574     30568     30576
     30575     30568     30576     30568     30570     30572     30568     30570     30573
     30572     30570     30573     30581     30579     30585     30581     30579     30586
     30581     30579     30587     30585     30579     30586     30585     30579     30587
     30586     30579     30587     30579     30581     30583     30579     30581     30584
     30583     30581     30584     30592     30590     30596     30592     30590     30597
     30592     30590     30598     30596     30590     30597     30596     30590     30598
     30597     30590     30598     30590     30592     30594     30590     30592     30595
     30594     30592     30595     30603     30601     30607     30603     30601     30608
     30603     30601     30609     30607     30601     30608     30607     30601     30609
     30608     30601     30609     30601     30603     30605     30601     30603     30606
     30605     30603     30606     30614     30612     30618     30614     30612     30619
     30614     30612     30620     30618     30612     30619     30618     30612     30620
     30619     30612     30620     30612     30614     30616     30612     30614     30617
     30616     30614     30617     30625     30623     30629     30625     30623     30630
     30625     30623     30631     30629     30623     30630     30629     30623     30631
     30630     30623     30631     30623     30625     30627     30623     30625     30628
     30627     30625     30628     30636     30634     30640     30636     30634     30641
     30636     30634     30642     30640     30634     30641     30640     30634     30642
     30641     30634     30642     30634     30636     30638     30634     30636     30639
     30638     30636     30639     30647     30645     30651     30647     30645     30652
     30647     30645     30653     30651     30645     30652     30651     30645     30653
     30652     30645     30653     30645     30647     30649     30645     30647     30650
     30649     30647     30650     30658     30656     30662     30658     30656     30663
     30658     30656     30664     30662     30656     30663     30662     30656     30664
     30663     30656     30664     30656     30658     30660     30656     30658     30661
     30660     30658     30661     30669     30667     30673     30669     30667     30674
     30669     30667     30675     30673     30667     30674     30673     30667     30675
     30674     30667     30675     30667     30669     30671     30667     30669     30672
     30671     30669     30672     30680     30678     30684     30680     30678     30685
     30680     30678     30686     30684     30678     30685     30684     30678     30686
     30685     30678     30686     30678     30680     30682     30678     30680     30683
     30682     30680     30683     30691     30689     30695     30691     30689     30696
     30691     30689     30697     30695     30689     30696     30695     30689     30697
     30696     30689     30697     30689     30691     30693     30689     30691     30694
     30693     30691     30694     30702     30700     30706     30702     30700     30707
     30702     30700     30708     30706     30700     30707     30706     30700     30708
     30707     30700     30708     30700     30702     30704     30700     30702     30705
     30704     30702     30705     30713     30711     30717     30713     30711     30718
     30713     30711     30719     30717     30711     30718     30717     30711     30719
     30718     30711     30719     30711     30713     30715     30711     30713     30716
     30715     30713     30716     30724     30722     30728     30724     30722     30729
     30724     30722     30730     30728     30722     30729     30728     30722     30730
     30729     30722     30730     30722     30724     30726     30722     30724     30727
     30726     30724     30727     30735     30733     30739     30735     30733     30740
     30735     30733     30741     30739     30733     30740     30739     30733     30741
     30740     30733     30741     30733     30735     30737     30733     30735     30738
     30737     30735     30738     30746     30744     30750     30746     30744     30751
     30746     30744     30752     30750     30744     30751     30750     30744     30752
     30751     30744     30752     30744     30746     30748     30744     30746     30749
     30748     30746     30749     30757     30755     30761     30757     30755     30762
     30757     30755     30763     30761     30755     30762     30761     30755     30763
     30762     30755     30763     30755     30757     30759     30755     30757     30760
     30759     30757     30760     30768     30766     30772     30768     30766     30773
     30768     30766     30774     30772     30766     30773     30772     30766     30774
     30773     30766     30774     30766     30768     30770     30766     30768     30771
     30770     30768     30771     30779     30777     30783     30779     30777     30784
     30779     30777     30785     30783     30777     30784     30783     30777     30785
     30784     30777     30785     30777     30779     30781     30777     30779     30782
     30781     30779     30782     30790     30788     30794     30790     30788     30795
     30790     30788     30796     30794     30788     30795     30794     30788     30796
     30795     30788     30796     30788     30790     30792     30788     30790     30793
     30792     30790     30793     30801     30799     30805     30801     30799     30806
     30801     30799     30807     30805     30799     30806     30805     30799     30807
     30806     30799     30807     30799     30801     30803     30799     30801     30804
     30803     30801     30804     30812     30810     30816     30812     30810     30817
     30812     30810     30818     30816     30810     30817     30816     30810     30818
     30817     30810     30818     30810     30812     30814     30810     30812     30815
     30814     30812     30815     30823     30821     30827     30823     30821     30828
     30823     30821     30829     30827     30821     30828     30827     30821     30829
     30828     30821     30829     30821     30823     30825     30821     30823     30826
     30825     30823     30826     30834     30832     30838     30834     30832     30839
     30834     30832     30840     30838     30832     30839     30838     30832     30840
     30839     30832     30840     30832     30834     30836     30832     30834     30837
     30836     30834     30837     30845     30843     30849     30845     30843     30850
     30845     30843     30851     30849     30843     30850     30849     30843     30851
     30850     30843     30851     30843     30845     30847     30843     30845     30848
     30847     30845     30848     30856     30854     30860     30856     30854     30861
     30856     30854     30862     30860     30854     30861     30860     30854     30862
     30861     30854     30862     30854     30856     30858     30854     30856     30859
     30858     30856     30859     30867     30865     30871     30867     30865     30872
     30867     30865     30873     30871     30865     30872     30871     30865     30873
     30872     30865     30873     30865     30867     30869     30865     30867     30870
     30869     30867     30870     30878     30876     30882     30878     30876     30883
     30878     30876     30884     30882     30876     30883     30882     30876     30884
     30883     30876     30884     30876     30878     30880     30876     30878     30881
     30880     30878     30881     30889     30887     30893     30889     30887     30894
     30889     30887     30895     30893     30887     30894     30893     30887     30895
     30894     30887     30895     30887     30889     30891     30887     30889     30892
     30891     30889     30892     30900     30898     30904     30900     30898     30905
     30900     30898     30906     30904     30898     30905     30904     30898     30906
     30905     30898     30906     30898     30900     30902     30898     30900     30903
     30902     30900     30903     30911     30909     30915     30911     30909     30916
     30911     30909     30917     30915     30909     30916     30915     30909     30917
     30916     30909     30917     30909     30911     30913     30909     30911     30914
     30913     30911     30914     30922     30920     30926     30922     30920     30927
     30922     30920     30928     30926     30920     30927     30926     30920     30928
     30927     30920     30928     30920     30922     30924     30920     30922     30925
     30924     30922     30925     30933     30931     30937     30933     30931     30938
     30933     30931     30939     30937     30931     30938     30937     30931     30939
     30938     30931     30939     30931     30933     30935     30931     30933     30936
     30935     30933     30936     30944     30942     30948     30944     30942     30949
     30944     30942     30950     30948     30942     30949     30948     30942     30950
     30949     30942     30950     30942     30944     30946     30942     30944     30947
     30946     30944     30947     30955     30953     30959     30955     30953     30960
     30955     30953     30961     30959     30953     30960     30959     30953     30961
     30960     30953     30961     30953     30955     30957     30953     30955     30958
     30957     30955     30958     30966     30964     30970     30966     30964     30971
     30966     30964     30972     30970     30964     30971     30970     30964     30972
     30971     30964     30972     30964     30966     30968     30964     30966     30969
     30968     30966     30969     30977     30975     30981     30977     30975     30982
     30977     30975     30983     30981     30975     30982     30981     30975     30983
     30982     30975     30983     30975     30977     30979     30975     30977     30980
     30979     30977     30980     30988     30986     30992     30988     30986     30993
     30988     30986     30994     30992     30986     30993     30992     30986     30994
     30993     30986     30994     30986     30988     30990     30986     30988     30991
     30990     30988     30991     30999     30997     31003     30999     30997     31004
     30999     30997     31005     31003     30997     31004     31003     30997     31005
     31004     30997     31005     30997     30999     31001     30997     30999     31002
     31001     30999     31002     31010     31008     31014     31010     31008     31015
     31010     31008     31016     31014     31008     31015     31014     31008     31016
     31015     31008     31016     31008     31010     31012     31008     31010     31013
     31012     31010     31013     31021     31019     31025     31021     31019     31026
     31021     31019     31027     31025     31019     31026     31025     31019     31027
     31026     31019     31027     31019     31021     31023     31019     31021     31024
     31023     31021     31024     31032     31030     31036     31032     31030     31037
     31032     31030     31038     31036     31030     31037     31036     31030     31038
     31037     31030     31038     31030     31032     31034     31030     31032     31035
     31034     31032     31035     31043     31041     31047     31043     31041     31048
     31043     31041     31049     31047     31041     31048     31047     31041     31049
     31048     31041     31049     31041     31043     31045     31041     31043     31046
     31045     31043     31046     31054     31052     31058     31054     31052     31059
     31054     31052     31060     31058     31052     31059     31058     31052     31060
     31059     31052     31060     31052     31054     31056     31052     31054     31057
     31056     31054     31057     31065     31063     31069     31065     31063     31070
     31065     31063     31071     31069     31063     31070     31069     31063     31071
     31070     31063     31071     31063     31065     31067     31063     31065     31068
     31067     31065     31068     31076     31074     31080     31076     31074     31081
     31076     31074     31082     31080     31074     31081     31080     31074     31082
     31081     31074     31082     31074     31076     31078     31074     31076     31079
     31078     31076     31079     31087     31085     31091     31087     31085     31092
     31087     31085     31093     31091     31085     31092     31091     31085     31093
     31092     31085     31093     31085     31087     31089     31085     31087     31090
     31089     31087     31090     31098     31096     31102     31098     31096     31103
     31098     31096     31104     31102     31096     31103     31102     31096     31104
     31103     31096     31104     31096     31098     31100     31096     31098     31101
     31100     31098     31101     31109     31107     31113     31109     31107     31114
     31109     31107     31115     31113     31107     31114     31113     31107     31115
     31114     31107     31115     31107     31109     31111     31107     31109     31112
     31111     31109     31112     31120     31118     31124     31120     31118     31125
     31120     31118     31126     31124     31118     31125     31124     31118     31126
     31125     31118     31126     31118     31120     31122     31118     31120     31123
     31122     31120     31123     31131     31129     31135     31131     31129     31136
     31131     31129     31137     31135     31129     31136     31135     31129     31137
     31136     31129     31137     31129     31131     31133     31129     31131     31134
     31133     31131     31134     31142     31140     31146     31142     31140     31147
     31142     31140     31148     31146     31140     31147     31146     31140     31148
     31147     31140     31148     31140     31142     31144     31140     31142     31145
     31144     31142     31145     31153     31151     31157     31153     31151     31158
     31153     31151     31159     31157     31151     31158     31157     31151     31159
     31158     31151     31159     31151     31153     31155     31151     31153     31156
     31155     31153     31156     31164     31162     31168     31164     31162     31169
     31164     31162     31170     31168     31162     31169     31168     31162     31170
     31169     31162     31170     31162     31164     31166     31162     31164     31167
     31166     31164     31167     31175     31173     31179     31175     31173     31180
     31175     31173     31181     31179     31173     31180     31179     31173     31181
     31180     31173     31181     31173     31175     31177     31173     31175     31178
     31177     31175     31178     31186     31184     31190     31186     31184     31191
     31186     31184     31192     31190     31184     31191     31190     31184     31192
     31191     31184     31192     31184     31186     31188     31184     31186     31189
     31188     31186     31189     31197     31195     31201     31197     31195     31202
     31197     31195     31203     31201     31195     31202     31201     31195     31203
     31202     31195     31203     31195     31197     31199     31195     31197     31200
     31199     31197     31200     31208     31206     31212     31208     31206     31213
     31208     31206     31214     31212     31206     31213     31212     31206     31214
     31213     31206     31214     31206     31208     31210     31206     31208     31211
     31210     31208     31211     31219     31217     31223     31219     31217     31224
     31219     31217     31225     31223     31217     31224     31223     31217     31225
     31224     31217     31225     31217     31219     31221     31217     31219     31222
     31221     31219     31222     31230     31228     31234     31230     31228     31235
     31230     31228     31236     31234     31228     31235     31234     31228     31236
     31235     31228     31236     31228     31230     31232     31228     31230     31233
     31232     31230     31233     31241     31239     31245     31241     31239     31246
     31241     31239     31247     31245     31239     31246     31245     31239     31247
     31246     31239     31247     31239     31241     31243     31239     31241     31244
     31243     31241     31244     31252     31250     31256     31252     31250     31257
     31252     31250     31258     31256     31250     31257     31256     31250     31258
     31257     31250     31258     31250     31252     31254     31250     31252     31255
     31254     31252     31255     31263     31261     31267     31263     31261     31268
     31263     31261     31269     31267     31261     31268     31267     31261     31269
     31268     31261     31269     31261     31263     31265     31261     31263     31266
     31265     31263     31266     31274     31272     31278     31274     31272     31279
     31274     31272     31280     31278     31272     31279     31278     31272     31280
     31279     31272     31280     31272     31274     31276     31272     31274     31277
     31276     31274     31277     31285     31283     31289     31285     31283     31290
     31285     31283     31291     31289     31283     31290     31289     31283     31291
     31290     31283     31291     31283     31285     31287     31283     31285     31288
     31287     31285     31288     31296     31294     31300     31296     31294     31301
     31296     31294     31302     31300     31294     31301     31300     31294     31302
     31301     31294     31302     31294     31296     31298     31294     31296     31299
     31298     31296     31299     31307     31305     31311     31307     31305     31312
     31307     31305     31313     31311     31305     31312     31311     31305     31313
     31312     31305     31313     31305     31307     31309     31305     31307     31310
     31309     31307     31310     31318     31316     31322     31318     31316     31323
     31318     31316     31324     31322     31316     31323     31322     31316     31324
     31323     31316     31324     31316     31318     31320     31316     31318     31321
     31320     31318     31321     31329     31327     31333     31329     31327     31334
     31329     31327     31335     31333     31327     31334     31333     31327     31335
     31334     31327     31335     31327     31329     31331     31327     31329     31332
     31331     31329     31332     31340     31338     31344     31340     31338     31345
     31340     31338     31346     31344     31338     31345     31344     31338     31346
     31345     31338     31346     31338     31340     31342     31338     31340     31343
     31342     31340     31343     31351     31349     31355     31351     31349     31356
     31351     31349     31357     31355     31349     31356     31355     31349     31357
     31356     31349     31357     31349     31351     31353     31349     31351     31354
     31353     31351     31354     31362     31360     31366     31362     31360     31367
     31362     31360     31368     31366     31360     31367     31366     31360     31368
     31367     31360     31368     31360     31362     31364     31360     31362     31365
     31364     31362     31365     31373     31371     31377     31373     31371     31378
     31373     31371     31379     31377     31371     31378     31377     31371     31379
     31378     31371     31379     31371     31373     31375     31371     31373     31376
     31375     31373     31376     31384     31382     31388     31384     31382     31389
     31384     31382     31390     31388     31382     31389     31388     31382     31390
     31389     31382     31390     31382     31384     31386     31382     31384     31387
     31386     31384     31387     31395     31393     31399     31395     31393     31400
     31395     31393     31401     31399     31393     31400     31399     31393     31401
     31400     31393     31401     31393     31395     31397     31393     31395     31398
     31397     31395     31398     31406     31404     31410     31406     31404     31411
     31406     31404     31412     31410     31404     31411     31410     31404     31412
     31411     31404     31412     31404     31406     31408     31404     31406     31409
     31408     31406     31409     31417     31415     31421     31417     31415     31422
     31417     31415     31423     31421     31415     31422     31421     31415     31423
     31422     31415     31423     31415     31417     31419     31415     31417     31420
     31419     31417     31420     31428     31426     31432     31428     31426     31433
     31428     31426     31434     31432     31426     31433     31432     31426     31434
     31433     31426     31434     31426     31428     31430     31426     31428     31431
     31430     31428     31431     31439     31437     31443     31439     31437     31444
     31439     31437     31445     31443     31437     31444     31443     31437     31445
     31444     31437     31445     31437     31439     31441     31437     31439     31442
     31441     31439     31442     31450     31448     31454     31450     31448     31455
     31450     31448     31456     31454     31448     31455     31454     31448     31456
     31455     31448     31456     31448     31450     31452     31448     31450     31453
     31452     31450     31453     31461     31459     31465     31461     31459     31466
     31461     31459     31467     31465     31459     31466     31465     31459     31467
     31466     31459     31467     31459     31461     31463     31459     31461     31464
     31463     31461     31464     31472     31470     31476     31472     31470     31477
     31472     31470     31478     31476     31470     31477     31476     31470     31478
     31477     31470     31478     31470     31472     31474     31470     31472     31475
     31474     31472     31475     31483     31481     31487     31483     31481     31488
     31483     31481     31489     31487     31481     31488     31487     31481     31489
     31488     31481     31489     31481     31483     31485     31481     31483     31486
     31485     31483     31486     31494     31492     31498     31494     31492     31499
     31494     31492     31500     31498     31492     31499     31498     31492     31500
     31499     31492     31500     31492     31494     31496     31492     31494     31497
     31496     31494     31497     31505     31503     31509     31505     31503     31510
     31505     31503     31511     31509     31503     31510     31509     31503     31511
     31510     31503     31511     31503     31505     31507     31503     31505     31508
     31507     31505     31508     31516     31514     31520     31516     31514     31521
     31516     31514     31522     31520     31514     31521     31520     31514     31522
     31521     31514     31522     31514     31516     31518     31514     31516     31519
     31518     31516     31519     31527     31525     31531     31527     31525     31532
     31527     31525     31533     31531     31525     31532     31531     31525     31533
     31532     31525     31533     31525     31527     31529     31525     31527     31530
     31529     31527     31530     31538     31536     31542     31538     31536     31543
     31538     31536     31544     31542     31536     31543     31542     31536     31544
     31543     31536     31544     31536     31538     31540     31536     31538     31541
     31540     31538     31541     31549     31547     31553     31549     31547     31554
     31549     31547     31555     31553     31547     31554     31553     31547     31555
     31554     31547     31555     31547     31549     31551     31547     31549     31552
     31551     31549     31552     31560     31558     31564     31560     31558     31565
     31560     31558     31566     31564     31558     31565     31564     31558     31566
     31565     31558     31566     31558     31560     31562     31558     31560     31563
     31562     31560     31563     31571     31569     31575     31571     31569     31576
     31571     31569     31577     31575     31569     31576     31575     31569     31577
     31576     31569     31577     31569     31571     31573     31569     31571     31574
     31573     31571     31574     31582     31580     31586     31582     31580     31587
     31582     31580     31588     31586     31580     31587     31586     31580     31588
     31587     31580     31588     31580     31582     31584     31580     31582     31585
     31584     31582     31585     31593     31591     31597     31593     31591     31598
     31593     31591     31599     31597     31591     31598     31597     31591     31599
     31598     31591     31599     31591     31593     31595     31591     31593     31596
     31595     31593     31596     31604     31602     31608     31604     31602     31609
     31604     31602     31610     31608     31602     31609     31608     31602     31610
     31609     31602     31610     31602     31604     31606     31602     31604     31607
     31606     31604     31607     31615     31613     31619     31615     31613     31620
     31615     31613     31621     31619     31613     31620     31619     31613     31621
     31620     31613     31621     31613     31615     31617     31613     31615     31618
     31617     31615     31618     31626     31624     31630     31626     31624     31631
     31626     31624     31632     31630     31624     31631     31630     31624     31632
     31631     31624     31632     31624     31626     31628     31624     31626     31629
     31628     31626     31629     31637     31635     31641     31637     31635     31642
     31637     31635     31643     31641     31635     31642     31641     31635     31643
     31642     31635     31643     31635     31637     31639     31635     31637     31640
     31639     31637     31640     31648     31646     31652     31648     31646     31653
     31648     31646     31654     31652     31646     31653     31652     31646     31654
     31653     31646     31654     31646     31648     31650     31646     31648     31651
     31650     31648     31651     31659     31657     31663     31659     31657     31664
     31659     31657     31665     31663     31657     31664     31663     31657     31665
     31664     31657     31665     31657     31659     31661     31657     31659     31662
     31661     31659     31662     31670     31668     31674     31670     31668     31675
     31670     31668     31676     31674     31668     31675     31674     31668     31676
     31675     31668     31676     31668     31670     31672     31668     31670     31673
     31672     31670     31673     31681     31679     31685     31681     31679     31686
     31681     31679     31687     31685     31679     31686     31685     31679     31687
     31686     31679     31687     31679     31681     31683     31679     31681     31684
     31683     31681     31684     31692     31690     31696     31692     31690     31697
     31692     31690     31698     31696     31690     31697     31696     31690     31698
     31697     31690     31698     31690     31692     31694     31690     31692     31695
     31694     31692     31695     31703     31701     31707     31703     31701     31708
     31703     31701     31709     31707     31701     31708     31707     31701     31709
     31708     31701     31709     31701     31703     31705     31701     31703     31706
     31705     31703     31706     31714     31712     31718     31714     31712     31719
     31714     31712     31720     31718     31712     31719     31718     31712     31720
     31719     31712     31720     31712     31714     31716     31712     31714     31717
     31716     31714     31717     31725     31723     31729     31725     31723     31730
     31725     31723     31731     31729     31723     31730     31729     31723     31731
     31730     31723     31731     31723     31725     31727     31723     31725     31728
     31727     31725     31728     31736     31734     31740     31736     31734     31741
     31736     31734     31742     31740     31734     31741     31740     31734     31742
     31741     31734     31742     31734     31736     31738     31734     31736     31739
     31738     31736     31739     31747     31745     31751     31747     31745     31752
     31747     31745     31753     31751     31745     31752     31751     31745     31753
     31752     31745     31753     31745     31747     31749     31745     31747     31750
     31749     31747     31750     31758     31756     31762     31758     31756     31763
     31758     31756     31764     31762     31756     31763     31762     31756     31764
     31763     31756     31764     31756     31758     31760     31756     31758     31761
     31760     31758     31761     31769     31767     31773     31769     31767     31774
     31769     31767     31775     31773     31767     31774     31773     31767     31775
     31774     31767     31775     31767     31769     31771     31767     31769     31772
     31771     31769     31772     31780     31778     31784     31780     31778     31785
     31780     31778     31786     31784     31778     31785     31784     31778     31786
     31785     31778     31786     31778     31780     31782     31778     31780     31783
     31782     31780     31783     31791     31789     31795     31791     31789     31796
     31791     31789     31797     31795     31789     31796     31795     31789     31797
     31796     31789     31797     31789     31791     31793     31789     31791     31794
     31793     31791     31794     31802     31800     31806     31802     31800     31807
     31802     31800     31808     31806     31800     31807     31806     31800     31808
     31807     31800     31808     31800     31802     31804     31800     31802     31805
     31804     31802     31805     31813     31811     31817     31813     31811     31818
     31813     31811     31819     31817     31811     31818     31817     31811     31819
     31818     31811     31819     31811     31813     31815     31811     31813     31816
     31815     31813     31816     31824     31822     31828     31824     31822     31829
     31824     31822     31830     31828     31822     31829     31828     31822     31830
     31829     31822     31830     31822     31824     31826     31822     31824     31827
     31826     31824     31827     31835     31833     31839     31835     31833     31840
     31835     31833     31841     31839     31833     31840     31839     31833     31841
     31840     31833     31841     31833     31835     31837     31833     31835     31838
     31837     31835     31838     31846     31844     31850     31846     31844     31851
     31846     31844     31852     31850     31844     31851     31850     31844     31852
     31851     31844     31852     31844     31846     31848     31844     31846     31849
     31848     31846     31849     31857     31855     31861     31857     31855     31862
     31857     31855     31863     31861     31855     31862     31861     31855     31863
     31862     31855     31863     31855     31857     31859     31855     31857     31860
     31859     31857     31860     31868     31866     31872     31868     31866     31873
     31868     31866     31874     31872     31866     31873     31872     31866     31874
     31873     31866     31874     31866     31868     31870     31866     31868     31871
     31870     31868     31871     31879     31877     31883     31879     31877     31884
     31879     31877     31885     31883     31877     31884     31883     31877     31885
     31884     31877     31885     31877     31879     31881     31877     31879     31882
     31881     31879     31882     31890     31888     31894     31890     31888     31895
     31890     31888     31896     31894     31888     31895     31894     31888     31896
     31895     31888     31896     31888     31890     31892     31888     31890     31893
     31892     31890     31893     31901     31899     31905     31901     31899     31906
     31901     31899     31907     31905     31899     31906     31905     31899     31907
     31906     31899     31907     31899     31901     31903     31899     31901     31904
     31903     31901     31904     31912     31910     31916     31912     31910     31917
     31912     31910     31918     31916     31910     31917     31916     31910     31918
     31917     31910     31918     31910     31912     31914     31910     31912     31915
     31914     31912     31915     31923     31921     31927     31923     31921     31928
     31923     31921     31929     31927     31921     31928     31927     31921     31929
     31928     31921     31929     31921     31923     31925     31921     31923     31926
     31925     31923     31926     31934     31932     31938     31934     31932     31939
     31934     31932     31940     31938     31932     31939     31938     31932     31940
     31939     31932     31940     31932     31934     31936     31932     31934     31937
     31936     31934     31937     31945     31943     31949     31945     31943     31950
     31945     31943     31951     31949     31943     31950     31949     31943     31951
     31950     31943     31951     31943     31945     31947     31943     31945     31948
     31947     31945     31948     31956     31954     31960     31956     31954     31961
     31956     31954     31962     31960     31954     31961     31960     31954     31962
     31961     31954     31962     31954     31956     31958     31954     31956     31959
     31958     31956     31959     31967     31965     31971     31967     31965     31972
     31967     31965     31973     31971     31965     31972     31971     31965     31973
     31972     31965     31973     31965     31967     31969     31965     31967     31970
     31969     31967     31970     31978     31976     31982     31978     31976     31983
     31978     31976     31984     31982     31976     31983     31982     31976     31984
     31983     31976     31984     31976     31978     31980     31976     31978     31981
     31980     31978     31981     31989     31987     31993     31989     31987     31994
     31989     31987     31995     31993     31987     31994     31993     31987     31995
     31994     31987     31995     31987     31989     31991     31987     31989     31992
     31991     31989     31992     32000     31998     32004     32000     31998     32005
     32000     31998     32006     32004     31998     32005     32004     31998     32006
     32005     31998     32006     31998     32000     32002     31998     32000     32003
     32002     32000     32003     32011     32009     32015     32011     32009     32016
     32011     32009     32017     32015     32009     32016     32015     32009     32017
     32016     32009     32017     32009     32011     32013     32009     32011     32014
     32013     32011     32014     32022     32020     32026     32022     32020     32027
     32022     32020     32028     32026     32020     32027     32026     32020     32028
     32027     32020     32028     32020     32022     32024     32020     32022     32025
     32024     32022     32025     32033     32031     32037     32033     32031     32038
     32033     32031     32039     32037     32031     32038     32037     32031     32039
     32038     32031     32039     32031     32033     32035     32031     32033     32036
     32035     32033     32036     32044     32042     32048     32044     32042     32049
     32044     32042     32050     32048     32042     32049     32048     32042     32050
     32049     32042     32050     32042     32044     32046     32042     32044     32047
     32046     32044     32047     32055     32053     32059     32055     32053     32060
     32055     32053     32061     32059     32053     32060     32059     32053     32061
     32060     32053     32061     32053     32055     32057     32053     32055     32058
     32057     32055     32058     32066     32064     32070     32066     32064     32071
     32066     32064     32072     32070     32064     32071     32070     32064     32072
     32071     32064     32072     32064     32066     32068     32064     32066     32069
     32068     32066     32069     32077     32075     32081     32077     32075     32082
     32077     32075     32083     32081     32075     32082     32081     32075     32083
     32082     32075     32083     32075     32077     32079     32075     32077     32080
     32079     32077     32080     32088     32086     32092     32088     32086     32093
     32088     32086     32094     32092     32086     32093     32092     32086     32094
     32093     32086     32094     32086     32088     32090     32086     32088     32091
     32090     32088     32091     32099     32097     32103     32099     32097     32104
     32099     32097     32105     32103     32097     32104     32103     32097     32105
     32104     32097     32105     32097     32099     32101     32097     32099     32102
     32101     32099     32102     32110     32108     32114     32110     32108     32115
     32110     32108     32116     32114     32108     32115     32114     32108     32116
     32115     32108     32116     32108     32110     32112     32108     32110     32113
     32112     32110     32113     32121     32119     32125     32121     32119     32126
     32121     32119     32127     32125     32119     32126     32125     32119     32127
     32126     32119     32127     32119     32121     32123     32119     32121     32124
     32123     32121     32124     32132     32130     32136     32132     32130     32137
     32132     32130     32138     32136     32130     32137     32136     32130     32138
     32137     32130     32138     32130     32132     32134     32130     32132     32135
     32134     32132     32135     32143     32141     32147     32143     32141     32148
     32143     32141     32149     32147     32141     32148     32147     32141     32149
     32148     32141     32149     32141     32143     32145     32141     32143     32146
     32145     32143     32146     32154     32152     32158     32154     32152     32159
     32154     32152     32160     32158     32152     32159     32158     32152     32160
     32159     32152     32160     32152     32154     32156     32152     32154     32157
     32156     32154     32157     32165     32163     32169     32165     32163     32170
     32165     32163     32171     32169     32163     32170     32169     32163     32171
     32170     32163     32171     32163     32165     32167     32163     32165     32168
     32167     32165     32168     32176     32174     32180     32176     32174     32181
     32176     32174     32182     32180     32174     32181     32180     32174     32182
     32181     32174     32182     32174     32176     32178     32174     32176     32179
     32178     32176     32179     32187     32185     32191     32187     32185     32192
     32187     32185     32193     32191     32185     32192     32191     32185     32193
     32192     32185     32193     32185     32187     32189     32185     32187     32190
     32189     32187     32190     32198     32196     32202     32198     32196     32203
     32198     32196     32204     32202     32196     32203     32202     32196     32204
     32203     32196     32204     32196     32198     32200     32196     32198     32201
     32200     32198     32201     32209     32207     32213     32209     32207     32214
     32209     32207     32215     32213     32207     32214     32213     32207     32215
     32214     32207     32215     32207     32209     32211     32207     32209     32212
     32211     32209     32212     32220     32218     32224     32220     32218     32225
     32220     32218     32226     32224     32218     32225     32224     32218     32226
     32225     32218     32226     32218     32220     32222     32218     32220     32223
     32222     32220     32223     32231     32229     32235     32231     32229     32236
     32231     32229     32237     32235     32229     32236     32235     32229     32237
     32236     32229     32237     32229     32231     32233     32229     32231     32234
     32233     32231     32234     32242     32240     32246     32242     32240     32247
     32242     32240     32248     32246     32240     32247     32246     32240     32248
     32247     32240     32248     32240     32242     32244     32240     32242     32245
     32244     32242     32245     32253     32251     32257     32253     32251     32258
     32253     32251     32259     32257     32251     32258     32257     32251     32259
     32258     32251     32259     32251     32253     32255     32251     32253     32256
     32255     32253     32256     32264     32262     32268     32264     32262     32269
     32264     32262     32270     32268     32262     32269     32268     32262     32270
     32269     32262     32270     32262     32264     32266     32262     32264     32267
     32266     32264     32267     32275     32273     32279     32275     32273     32280
     32275     32273     32281     32279     32273     32280     32279     32273     32281
     32280     32273     32281     32273     32275     32277     32273     32275     32278
     32277     32275     32278     32286     32284     32290     32286     32284     32291
     32286     32284     32292     32290     32284     32291     32290     32284     32292
     32291     32284     32292     32284     32286     32288     32284     32286     32289
     32288     32286     32289     32297     32295     32301     32297     32295     32302
     32297     32295     32303     32301     32295     32302     32301     32295     32303
     32302     32295     32303     32295     32297     32299     32295     32297     32300
     32299     32297     32300     32308     32306     32312     32308     32306     32313
     32308     32306     32314     32312     32306     32313     32312     32306     32314
     32313     32306     32314     32306     32308     32310     32306     32308     32311
     32310     32308     32311     32319     32317     32323     32319     32317     32324
     32319     32317     32325     32323     32317     32324     32323     32317     32325
     32324     32317     32325     32317     32319     32321     32317     32319     32322
     32321     32319     32322     32330     32328     32334     32330     32328     32335
     32330     32328     32336     32334     32328     32335     32334     32328     32336
     32335     32328     32336     32328     32330     32332     32328     32330     32333
     32332     32330     32333     32341     32339     32345     32341     32339     32346
     32341     32339     32347     32345     32339     32346     32345     32339     32347
     32346     32339     32347     32339     32341     32343     32339     32341     32344
     32343     32341     32344     32352     32350     32356     32352     32350     32357
     32352     32350     32358     32356     32350     32357     32356     32350     32358
     32357     32350     32358     32350     32352     32354     32350     32352     32355
     32354     32352     32355     32363     32361     32367     32363     32361     32368
     32363     32361     32369     32367     32361     32368     32367     32361     32369
     32368     32361     32369     32361     32363     32365     32361     32363     32366
     32365     32363     32366     32374     32372     32378     32374     32372     32379
     32374     32372     32380     32378     32372     32379     32378     32372     32380
     32379     32372     32380     32372     32374     32376     32372     32374     32377
     32376     32374     32377     32385     32383     32389     32385     32383     32390
     32385     32383     32391     32389     32383     32390     32389     32383     32391
     32390     32383     32391     32383     32385     32387     32383     32385     32388
     32387     32385     32388     32396     32394     32400     32396     32394     32401
     32396     32394     32402     32400     32394     32401     32400     32394     32402
     32401     32394     32402     32394     32396     32398     32394     32396     32399
     32398     32396     32399     32407     32405     32411     32407     32405     32412
     32407     32405     32413     32411     32405     32412     32411     32405     32413
     32412     32405     32413     32405     32407     32409     32405     32407     32410
     32409     32407     32410     32418     32416     32422     32418     32416     32423
     32418     32416     32424     32422     32416     32423     32422     32416     32424
     32423     32416     32424     32416     32418     32420     32416     32418     32421
     32420     32418     32421     32429     32427     32433     32429     32427     32434
     32429     32427     32435     32433     32427     32434     32433     32427     32435
     32434     32427     32435     32427     32429     32431     32427     32429     32432
     32431     32429     32432     32440     32438     32444     32440     32438     32445
     32440     32438     32446     32444     32438     32445     32444     32438     32446
     32445     32438     32446     32438     32440     32442     32438     32440     32443
     32442     32440     32443     32451     32449     32455     32451     32449     32456
     32451     32449     32457     32455     32449     32456     32455     32449     32457
     32456     32449     32457     32449     32451     32453     32449     32451     32454
     32453     32451     32454     32462     32460     32466     32462     32460     32467
     32462     32460     32468     32466     32460     32467     32466     32460     32468
     32467     32460     32468     32460     32462     32464     32460     32462     32465
     32464     32462     32465     32473     32471     32477     32473     32471     32478
     32473     32471     32479     32477     32471     32478     32477     32471     32479
     32478     32471     32479     32471     32473     32475     32471     32473     32476
     32475     32473     32476     32484     32482     32488     32484     32482     32489
     32484     32482     32490     32488     32482     32489     32488     32482     32490
     32489     32482     32490     32482     32484     32486     32482     32484     32487
     32486     32484     32487     32495     32493     32499     32495     32493     32500
     32495     32493     32501     32499     32493     32500     32499     32493     32501
     32500     32493     32501     32493     32495     32497     32493     32495     32498
     32497     32495     32498     32506     32504     32510     32506     32504     32511
     32506     32504     32512     32510     32504     32511     32510     32504     32512
     32511     32504     32512     32504     32506     32508     32504     32506     32509
     32508     32506     32509     32517     32515     32521     32517     32515     32522
     32517     32515     32523     32521     32515     32522     32521     32515     32523
     32522     32515     32523     32515     32517     32519     32515     32517     32520
     32519     32517     32520     32528     32526     32532     32528     32526     32533
     32528     32526     32534     32532     32526     32533     32532     32526     32534
     32533     32526     32534     32526     32528     32530     32526     32528     32531
     32530     32528     32531     32539     32537     32543     32539     32537     32544
     32539     32537     32545     32543     32537     32544     32543     32537     32545
     32544     32537     32545     32537     32539     32541     32537     32539     32542
     32541     32539     32542     32550     32548     32554     32550     32548     32555
     32550     32548     32556     32554     32548     32555     32554     32548     32556
     32555     32548     32556     32548     32550     32552     32548     32550     32553
     32552     32550     32553     32561     32559     32565     32561     32559     32566
     32561     32559     32567     32565     32559     32566     32565     32559     32567
     32566     32559     32567     32559     32561     32563     32559     32561     32564
     32563     32561     32564     32572     32570     32576     32572     32570     32577
     32572     32570     32578     32576     32570     32577     32576     32570     32578
     32577     32570     32578     32570     32572     32574     32570     32572     32575
     32574     32572     32575     32583     32581     32587     32583     32581     32588
     32583     32581     32589     32587     32581     32588     32587     32581     32589
     32588     32581     32589     32581     32583     32585     32581     32583     32586
     32585     32583     32586     32594     32592     32598     32594     32592     32599
     32594     32592     32600     32598     32592     32599     32598     32592     32600
     32599     32592     32600     32592     32594     32596     32592     32594     32597
     32596     32594     32597     32605     32603     32609     32605     32603     32610
     32605     32603     32611     32609     32603     32610     32609     32603     32611
     32610     32603     32611     32603     32605     32607     32603     32605     32608
     32607     32605     32608     32616     32614     32620     32616     32614     32621
     32616     32614     32622     32620     32614     32621     32620     32614     32622
     32621     32614     32622     32614     32616     32618     32614     32616     32619
     32618     32616     32619     32627     32625     32631     32627     32625     32632
     32627     32625     32633     32631     32625     32632     32631     32625     32633
     32632     32625     32633     32625     32627     32629     32625     32627     32630
     32629     32627     32630     32638     32636     32642     32638     32636     32643
     32638     32636     32644     32642     32636     32643     32642     32636     32644
     32643     32636     32644     32636     32638     32640     32636     32638     32641
     32640     32638     32641     32649     32647     32653     32649     32647     32654
     32649     32647     32655     32653     32647     32654     32653     32647     32655
     32654     32647     32655     32647     32649     32651     32647     32649     32652
     32651     32649     32652     32660     32658     32664     32660     32658     32665
     32660     32658     32666     32664     32658     32665     32664     32658     32666
     32665     32658     32666     32658     32660     32662     32658     32660     32663
     32662     32660     32663     32671     32669     32675     32671     32669     32676
     32671     32669     32677     32675     32669     32676     32675     32669     32677
     32676     32669     32677     32669     32671     32673     32669     32671     32674
     32673     32671     32674     32682     32680     32686     32682     32680     32687
     32682     32680     32688     32686     32680     32687     32686     32680     32688
     32687     32680     32688     32680     32682     32684     32680     32682     32685
     32684     32682     32685     32693     32691     32697     32693     32691     32698
     32693     32691     32699     32697     32691     32698     32697     32691     32699
     32698     32691     32699     32691     32693     32695     32691     32693     32696
     32695     32693     32696     32704     32702     32708     32704     32702     32709
     32704     32702     32710     32708     32702     32709     32708     32702     32710
     32709     32702     32710     32702     32704     32706     32702     32704     32707
     32706     32704     32707     32715     32713     32719     32715     32713     32720
     32715     32713     32721     32719     32713     32720     32719     32713     32721
     32720     32713     32721     32713     32715     32717     32713     32715     32718
     32717     32715     32718     32726     32724     32730     32726     32724     32731
     32726     32724     32732     32730     32724     32731     32730     32724     32732
     32731     32724     32732     32724     32726     32728     32724     32726     32729
     32728     32726     32729     32737     32735     32741     32737     32735     32742
     32737     32735     32743     32741     32735     32742     32741     32735     32743
     32742     32735     32743     32735     32737     32739     32735     32737     32740
     32739     32737     32740     32748     32746     32752     32748     32746     32753
     32748     32746     32754     32752     32746     32753     32752     32746     32754
     32753     32746     32754     32746     32748     32750     32746     32748     32751
     32750     32748     32751     32759     32757     32763     32759     32757     32764
     32759     32757     32765     32763     32757     32764     32763     32757     32765
     32764     32757     32765     32757     32759     32761     32757     32759     32762
     32761     32759     32762     32770     32768     32774     32770     32768     32775
     32770     32768     32776     32774     32768     32775     32774     32768     32776
     32775     32768     32776     32768     32770     32772     32768     32770     32773
     32772     32770     32773     32781     32779     32785     32781     32779     32786
     32781     32779     32787     32785     32779     32786     32785     32779     32787
     32786     32779     32787     32779     32781     32783     32779     32781     32784
     32783     32781     32784     32792     32790     32796     32792     32790     32797
     32792     32790     32798     32796     32790     32797     32796     32790     32798
     32797     32790     32798     32790     32792     32794     32790     32792     32795
     32794     32792     32795     32803     32801     32807     32803     32801     32808
     32803     32801     32809     32807     32801     32808     32807     32801     32809
     32808     32801     32809     32801     32803     32805     32801     32803     32806
     32805     32803     32806     32814     32812     32818     32814     32812     32819
     32814     32812     32820     32818     32812     32819     32818     32812     32820
     32819     32812     32820     32812     32814     32816     32812     32814     32817
     32816     32814     32817     32825     32823     32829     32825     32823     32830
     32825     32823     32831     32829     32823     32830     32829     32823     32831
     32830     32823     32831     32823     32825     32827     32823     32825     32828
     32827     32825     32828     32836     32834     32840     32836     32834     32841
     32836     32834     32842     32840     32834     32841     32840     32834     32842
     32841     32834     32842     32834     32836     32838     32834     32836     32839
     32838     32836     32839     32847     32845     32851     32847     32845     32852
     32847     32845     32853     32851     32845     32852     32851     32845     32853
     32852     32845     32853     32845     32847     32849     32845     32847     32850
     32849     32847     32850     32858     32856     32862     32858     32856     32863
     32858     32856     32864     32862     32856     32863     32862     32856     32864
     32863     32856     32864     32856     32858     32860     32856     32858     32861
     32860     32858     32861     32869     32867     32873     32869     32867     32874
     32869     32867     32875     32873     32867     32874     32873     32867     32875
     32874     32867     32875     32867     32869     32871     32867     32869     32872
     32871     32869     32872     32880     32878     32884     32880     32878     32885
     32880     32878     32886     32884     32878     32885     32884     32878     32886
     32885     32878     32886     32878     32880     32882     32878     32880     32883
     32882     32880     32883     32891     32889     32895     32891     32889     32896
     32891     32889     32897     32895     32889     32896     32895     32889     32897
     32896     32889     32897     32889     32891     32893     32889     32891     32894
     32893     32891     32894     32902     32900     32906     32902     32900     32907
     32902     32900     32908     32906     32900     32907     32906     32900     32908
     32907     32900     32908     32900     32902     32904     32900     32902     32905
     32904     32902     32905     32913     32911     32917     32913     32911     32918
     32913     32911     32919     32917     32911     32918     32917     32911     32919
     32918     32911     32919     32911     32913     32915     32911     32913     32916
     32915     32913     32916     32924     32922     32928     32924     32922     32929
     32924     32922     32930     32928     32922     32929     32928     32922     32930
     32929     32922     32930     32922     32924     32926     32922     32924     32927
     32926     32924     32927     32935     32933     32939     32935     32933     32940
     32935     32933     32941     32939     32933     32940     32939     32933     32941
     32940     32933     32941     32933     32935     32937     32933     32935     32938
     32937     32935     32938     32946     32944     32950     32946     32944     32951
     32946     32944     32952     32950     32944     32951     32950     32944     32952
     32951     32944     32952     32944     32946     32948     32944     32946     32949
     32948     32946     32949     32957     32955     32961     32957     32955     32962
     32957     32955     32963     32961     32955     32962     32961     32955     32963
     32962     32955     32963     32955     32957     32959     32955     32957     32960
     32959     32957     32960     32968     32966     32972     32968     32966     32973
     32968     32966     32974     32972     32966     32973     32972     32966     32974
     32973     32966     32974     32966     32968     32970     32966     32968     32971
     32970     32968     32971     32979     32977     32983     32979     32977     32984
     32979     32977     32985     32983     32977     32984     32983     32977     32985
     32984     32977     32985     32977     32979     32981     32977     32979     32982
     32981     32979     32982     32990     32988     32994     32990     32988     32995
     32990     32988     32996     32994     32988     32995     32994     32988     32996
     32995     32988     32996     32988     32990     32992     32988     32990     32993
     32992     32990     32993     33001     32999     33005     33001     32999     33006
     33001     32999     33007     33005     32999     33006     33005     32999     33007
     33006     32999     33007     32999     33001     33003     32999     33001     33004
     33003     33001     33004     33012     33010     33016     33012     33010     33017
     33012     33010     33018     33016     33010     33017     33016     33010     33018
     33017     33010     33018     33010     33012     33014     33010     33012     33015
     33014     33012     33015     33023     33021     33027     33023     33021     33028
     33023     33021     33029     33027     33021     33028     33027     33021     33029
     33028     33021     33029     33021     33023     33025     33021     33023     33026
     33025     33023     33026     33034     33032     33038     33034     33032     33039
     33034     33032     33040     33038     33032     33039     33038     33032     33040
     33039     33032     33040     33032     33034     33036     33032     33034     33037
     33036     33034     33037     33045     33043     33049     33045     33043     33050
     33045     33043     33051     33049     33043     33050     33049     33043     33051
     33050     33043     33051     33043     33045     33047     33043     33045     33048
     33047     33045     33048     33056     33054     33060     33056     33054     33061
     33056     33054     33062     33060     33054     33061     33060     33054     33062
     33061     33054     33062     33054     33056     33058     33054     33056     33059
     33058     33056     33059     33067     33065     33071     33067     33065     33072
     33067     33065     33073     33071     33065     33072     33071     33065     33073
     33072     33065     33073     33065     33067     33069     33065     33067     33070
     33069     33067     33070     33078     33076     33082     33078     33076     33083
     33078     33076     33084     33082     33076     33083     33082     33076     33084
     33083     33076     33084     33076     33078     33080     33076     33078     33081
     33080     33078     33081     33089     33087     33093     33089     33087     33094
     33089     33087     33095     33093     33087     33094     33093     33087     33095
     33094     33087     33095     33087     33089     33091     33087     33089     33092
     33091     33089     33092     33100     33098     33104     33100     33098     33105
     33100     33098     33106     33104     33098     33105     33104     33098     33106
     33105     33098     33106     33098     33100     33102     33098     33100     33103
     33102     33100     33103     33111     33109     33115     33111     33109     33116
     33111     33109     33117     33115     33109     33116     33115     33109     33117
     33116     33109     33117     33109     33111     33113     33109     33111     33114
     33113     33111     33114     33122     33120     33126     33122     33120     33127
     33122     33120     33128     33126     33120     33127     33126     33120     33128
     33127     33120     33128     33120     33122     33124     33120     33122     33125
     33124     33122     33125     33133     33131     33137     33133     33131     33138
     33133     33131     33139     33137     33131     33138     33137     33131     33139
     33138     33131     33139     33131     33133     33135     33131     33133     33136
     33135     33133     33136     33144     33142     33148     33144     33142     33149
     33144     33142     33150     33148     33142     33149     33148     33142     33150
     33149     33142     33150     33142     33144     33146     33142     33144     33147
     33146     33144     33147     33155     33153     33159     33155     33153     33160
     33155     33153     33161     33159     33153     33160     33159     33153     33161
     33160     33153     33161     33153     33155     33157     33153     33155     33158
     33157     33155     33158     33166     33164     33170     33166     33164     33171
     33166     33164     33172     33170     33164     33171     33170     33164     33172
     33171     33164     33172     33164     33166     33168     33164     33166     33169
     33168     33166     33169     33177     33175     33181     33177     33175     33182
     33177     33175     33183     33181     33175     33182     33181     33175     33183
     33182     33175     33183     33175     33177     33179     33175     33177     33180
     33179     33177     33180     33188     33186     33192     33188     33186     33193
     33188     33186     33194     33192     33186     33193     33192     33186     33194
     33193     33186     33194     33186     33188     33190     33186     33188     33191
     33190     33188     33191     33199     33197     33203     33199     33197     33204
     33199     33197     33205     33203     33197     33204     33203     33197     33205
     33204     33197     33205     33197     33199     33201     33197     33199     33202
     33201     33199     33202     33210     33208     33214     33210     33208     33215
     33210     33208     33216     33214     33208     33215     33214     33208     33216
     33215     33208     33216     33208     33210     33212     33208     33210     33213
     33212     33210     33213     33221     33219     33225     33221     33219     33226
     33221     33219     33227     33225     33219     33226     33225     33219     33227
     33226     33219     33227     33219     33221     33223     33219     33221     33224
     33223     33221     33224     33232     33230     33236     33232     33230     33237
     33232     33230     33238     33236     33230     33237     33236     33230     33238
     33237     33230     33238     33230     33232     33234     33230     33232     33235
     33234     33232     33235     33243     33241     33247     33243     33241     33248
     33243     33241     33249     33247     33241     33248     33247     33241     33249
     33248     33241     33249     33241     33243     33245     33241     33243     33246
     33245     33243     33246     33254     33252     33258     33254     33252     33259
     33254     33252     33260     33258     33252     33259     33258     33252     33260
     33259     33252     33260     33252     33254     33256     33252     33254     33257
     33256     33254     33257     33265     33263     33269     33265     33263     33270
     33265     33263     33271     33269     33263     33270     33269     33263     33271
     33270     33263     33271     33263     33265     33267     33263     33265     33268
     33267     33265     33268     33276     33274     33280     33276     33274     33281
     33276     33274     33282     33280     33274     33281     33280     33274     33282
     33281     33274     33282     33274     33276     33278     33274     33276     33279
     33278     33276     33279     33287     33285     33291     33287     33285     33292
     33287     33285     33293     33291     33285     33292     33291     33285     33293
     33292     33285     33293     33285     33287     33289     33285     33287     33290
     33289     33287     33290     33298     33296     33302     33298     33296     33303
     33298     33296     33304     33302     33296     33303     33302     33296     33304
     33303     33296     33304     33296     33298     33300     33296     33298     33301
     33300     33298     33301     33309     33307     33313     33309     33307     33314
     33309     33307     33315     33313     33307     33314     33313     33307     33315
     33314     33307     33315     33307     33309     33311     33307     33309     33312
     33311     33309     33312     33320     33318     33324     33320     33318     33325
     33320     33318     33326     33324     33318     33325     33324     33318     33326
     33325     33318     33326     33318     33320     33322     33318     33320     33323
     33322     33320     33323     33331     33329     33335     33331     33329     33336
     33331     33329     33337     33335     33329     33336     33335     33329     33337
     33336     33329     33337     33329     33331     33333     33329     33331     33334
     33333     33331     33334     33342     33340     33346     33342     33340     33347
     33342     33340     33348     33346     33340     33347     33346     33340     33348
     33347     33340     33348     33340     33342     33344     33340     33342     33345
     33344     33342     33345     33353     33351     33357     33353     33351     33358
     33353     33351     33359     33357     33351     33358     33357     33351     33359
     33358     33351     33359     33351     33353     33355     33351     33353     33356
     33355     33353     33356     33364     33362     33368     33364     33362     33369
     33364     33362     33370     33368     33362     33369     33368     33362     33370
     33369     33362     33370     33362     33364     33366     33362     33364     33367
     33366     33364     33367     33375     33373     33379     33375     33373     33380
     33375     33373     33381     33379     33373     33380     33379     33373     33381
     33380     33373     33381     33373     33375     33377     33373     33375     33378
     33377     33375     33378     33386     33384     33390     33386     33384     33391
     33386     33384     33392     33390     33384     33391     33390     33384     33392
     33391     33384     33392     33384     33386     33388     33384     33386     33389
     33388     33386     33389     33397     33395     33401     33397     33395     33402
     33397     33395     33403     33401     33395     33402     33401     33395     33403
     33402     33395     33403     33395     33397     33399     33395     33397     33400
     33399     33397     33400     33408     33406     33412     33408     33406     33413
     33408     33406     33414     33412     33406     33413     33412     33406     33414
     33413     33406     33414     33406     33408     33410     33406     33408     33411
     33410     33408     33411     33419     33417     33423     33419     33417     33424
     33419     33417     33425     33423     33417     33424     33423     33417     33425
     33424     33417     33425     33417     33419     33421     33417     33419     33422
     33421     33419     33422     33430     33428     33434     33430     33428     33435
     33430     33428     33436     33434     33428     33435     33434     33428     33436
     33435     33428     33436     33428     33430     33432     33428     33430     33433
     33432     33430     33433     33441     33439     33445     33441     33439     33446
     33441     33439     33447     33445     33439     33446     33445     33439     33447
     33446     33439     33447     33439     33441     33443     33439     33441     33444
     33443     33441     33444     33452     33450     33456     33452     33450     33457
     33452     33450     33458     33456     33450     33457     33456     33450     33458
     33457     33450     33458     33450     33452     33454     33450     33452     33455
     33454     33452     33455     33463     33461     33467     33463     33461     33468
     33463     33461     33469     33467     33461     33468     33467     33461     33469
     33468     33461     33469     33461     33463     33465     33461     33463     33466
     33465     33463     33466     33474     33472     33478     33474     33472     33479
     33474     33472     33480     33478     33472     33479     33478     33472     33480
     33479     33472     33480     33472     33474     33476     33472     33474     33477
     33476     33474     33477     33485     33483     33489     33485     33483     33490
     33485     33483     33491     33489     33483     33490     33489     33483     33491
     33490     33483     33491     33483     33485     33487     33483     33485     33488
     33487     33485     33488     33496     33494     33500     33496     33494     33501
     33496     33494     33502     33500     33494     33501     33500     33494     33502
     33501     33494     33502     33494     33496     33498     33494     33496     33499
     33498     33496     33499     33507     33505     33511     33507     33505     33512
     33507     33505     33513     33511     33505     33512     33511     33505     33513
     33512     33505     33513     33505     33507     33509     33505     33507     33510
     33509     33507     33510     33518     33516     33522     33518     33516     33523
     33518     33516     33524     33522     33516     33523     33522     33516     33524
     33523     33516     33524     33516     33518     33520     33516     33518     33521
     33520     33518     33521     33529     33527     33533     33529     33527     33534
     33529     33527     33535     33533     33527     33534     33533     33527     33535
     33534     33527     33535     33527     33529     33531     33527     33529     33532
     33531     33529     33532     33540     33538     33544     33540     33538     33545
     33540     33538     33546     33544     33538     33545     33544     33538     33546
     33545     33538     33546     33538     33540     33542     33538     33540     33543
     33542     33540     33543     33551     33549     33555     33551     33549     33556
     33551     33549     33557     33555     33549     33556     33555     33549     33557
     33556     33549     33557     33549     33551     33553     33549     33551     33554
     33553     33551     33554     33562     33560     33566     33562     33560     33567
     33562     33560     33568     33566     33560     33567     33566     33560     33568
     33567     33560     33568     33560     33562     33564     33560     33562     33565
     33564     33562     33565     33573     33571     33577     33573     33571     33578
     33573     33571     33579     33577     33571     33578     33577     33571     33579
     33578     33571     33579     33571     33573     33575     33571     33573     33576
     33575     33573     33576     33584     33582     33588     33584     33582     33589
     33584     33582     33590     33588     33582     33589     33588     33582     33590
     33589     33582     33590     33582     33584     33586     33582     33584     33587
     33586     33584     33587     33595     33593     33599     33595     33593     33600
     33595     33593     33601     33599     33593     33600     33599     33593     33601
     33600     33593     33601     33593     33595     33597     33593     33595     33598
     33597     33595     33598     33606     33604     33610     33606     33604     33611
     33606     33604     33612     33610     33604     33611     33610     33604     33612
     33611     33604     33612     33604     33606     33608     33604     33606     33609
     33608     33606     33609     33617     33615     33621     33617     33615     33622
     33617     33615     33623     33621     33615     33622     33621     33615     33623
     33622     33615     33623     33615     33617     33619     33615     33617     33620
     33619     33617     33620     33628     33626     33632     33628     33626     33633
     33628     33626     33634     33632     33626     33633     33632     33626     33634
     33633     33626     33634     33626     33628     33630     33626     33628     33631
     33630     33628     33631     33639     33637     33643     33639     33637     33644
     33639     33637     33645     33643     33637     33644     33643     33637     33645
     33644     33637     33645     33637     33639     33641     33637     33639     33642
     33641     33639     33642     33650     33648     33654     33650     33648     33655
     33650     33648     33656     33654     33648     33655     33654     33648     33656
     33655     33648     33656     33648     33650     33652     33648     33650     33653
     33652     33650     33653     33661     33659     33665     33661     33659     33666
     33661     33659     33667     33665     33659     33666     33665     33659     33667
     33666     33659     33667     33659     33661     33663     33659     33661     33664
     33663     33661     33664     33672     33670     33676     33672     33670     33677
     33672     33670     33678     33676     33670     33677     33676     33670     33678
     33677     33670     33678     33670     33672     33674     33670     33672     33675
     33674     33672     33675     33683     33681     33687     33683     33681     33688
     33683     33681     33689     33687     33681     33688     33687     33681     33689
     33688     33681     33689     33681     33683     33685     33681     33683     33686
     33685     33683     33686     33694     33692     33698     33694     33692     33699
     33694     33692     33700     33698     33692     33699     33698     33692     33700
     33699     33692     33700     33692     33694     33696     33692     33694     33697
     33696     33694     33697     33705     33703     33709     33705     33703     33710
     33705     33703     33711     33709     33703     33710     33709     33703     33711
     33710     33703     33711     33703     33705     33707     33703     33705     33708
     33707     33705     33708     33716     33714     33720     33716     33714     33721
     33716     33714     33722     33720     33714     33721     33720     33714     33722
     33721     33714     33722     33714     33716     33718     33714     33716     33719
     33718     33716     33719     33727     33725     33731     33727     33725     33732
     33727     33725     33733     33731     33725     33732     33731     33725     33733
     33732     33725     33733     33725     33727     33729     33725     33727     33730
     33729     33727     33730     33738     33736     33742     33738     33736     33743
     33738     33736     33744     33742     33736     33743     33742     33736     33744
     33743     33736     33744     33736     33738     33740     33736     33738     33741
     33740     33738     33741     33749     33747     33753     33749     33747     33754
     33749     33747     33755     33753     33747     33754     33753     33747     33755
     33754     33747     33755     33747     33749     33751     33747     33749     33752
     33751     33749     33752     33760     33758     33764     33760     33758     33765
     33760     33758     33766     33764     33758     33765     33764     33758     33766
     33765     33758     33766     33758     33760     33762     33758     33760     33763
     33762     33760     33763     33771     33769     33775     33771     33769     33776
     33771     33769     33777     33775     33769     33776     33775     33769     33777
     33776     33769     33777     33769     33771     33773     33769     33771     33774
     33773     33771     33774     33782     33780     33786     33782     33780     33787
     33782     33780     33788     33786     33780     33787     33786     33780     33788
     33787     33780     33788     33780     33782     33784     33780     33782     33785
     33784     33782     33785     33793     33791     33797     33793     33791     33798
     33793     33791     33799     33797     33791     33798     33797     33791     33799
     33798     33791     33799     33791     33793     33795     33791     33793     33796
     33795     33793     33796     33804     33802     33808     33804     33802     33809
     33804     33802     33810     33808     33802     33809     33808     33802     33810
     33809     33802     33810     33802     33804     33806     33802     33804     33807
     33806     33804     33807     33815     33813     33819     33815     33813     33820
     33815     33813     33821     33819     33813     33820     33819     33813     33821
     33820     33813     33821     33813     33815     33817     33813     33815     33818
     33817     33815     33818     33826     33824     33830     33826     33824     33831
     33826     33824     33832     33830     33824     33831     33830     33824     33832
     33831     33824     33832     33824     33826     33828     33824     33826     33829
     33828     33826     33829     33837     33835     33841     33837     33835     33842
     33837     33835     33843     33841     33835     33842     33841     33835     33843
     33842     33835     33843     33835     33837     33839     33835     33837     33840
     33839     33837     33840     33848     33846     33852     33848     33846     33853
     33848     33846     33854     33852     33846     33853     33852     33846     33854
     33853     33846     33854     33846     33848     33850     33846     33848     33851
     33850     33848     33851     33859     33857     33863     33859     33857     33864
     33859     33857     33865     33863     33857     33864     33863     33857     33865
     33864     33857     33865     33857     33859     33861     33857     33859     33862
     33861     33859     33862     33870     33868     33874     33870     33868     33875
     33870     33868     33876     33874     33868     33875     33874     33868     33876
     33875     33868     33876     33868     33870     33872     33868     33870     33873
     33872     33870     33873     33881     33879     33885     33881     33879     33886
     33881     33879     33887     33885     33879     33886     33885     33879     33887
     33886     33879     33887     33879     33881     33883     33879     33881     33884
     33883     33881     33884     33892     33890     33896     33892     33890     33897
     33892     33890     33898     33896     33890     33897     33896     33890     33898
     33897     33890     33898     33890     33892     33894     33890     33892     33895
     33894     33892     33895     33903     33901     33907     33903     33901     33908
     33903     33901     33909     33907     33901     33908     33907     33901     33909
     33908     33901     33909     33901     33903     33905     33901     33903     33906
     33905     33903     33906     33914     33912     33918     33914     33912     33919
     33914     33912     33920     33918     33912     33919     33918     33912     33920
     33919     33912     33920     33912     33914     33916     33912     33914     33917
     33916     33914     33917     33925     33923     33929     33925     33923     33930
     33925     33923     33931     33929     33923     33930     33929     33923     33931
     33930     33923     33931     33923     33925     33927     33923     33925     33928
     33927     33925     33928     33936     33934     33940     33936     33934     33941
     33936     33934     33942     33940     33934     33941     33940     33934     33942
     33941     33934     33942     33934     33936     33938     33934     33936     33939
     33938     33936     33939     33947     33945     33951     33947     33945     33952
     33947     33945     33953     33951     33945     33952     33951     33945     33953
     33952     33945     33953     33945     33947     33949     33945     33947     33950
     33949     33947     33950     33958     33956     33962     33958     33956     33963
     33958     33956     33964     33962     33956     33963     33962     33956     33964
     33963     33956     33964     33956     33958     33960     33956     33958     33961
     33960     33958     33961     33969     33967     33973     33969     33967     33974
     33969     33967     33975     33973     33967     33974     33973     33967     33975
     33974     33967     33975     33967     33969     33971     33967     33969     33972
     33971     33969     33972     33980     33978     33984     33980     33978     33985
     33980     33978     33986     33984     33978     33985     33984     33978     33986
     33985     33978     33986     33978     33980     33982     33978     33980     33983
     33982     33980     33983     33991     33989     33995     33991     33989     33996
     33991     33989     33997     33995     33989     33996     33995     33989     33997
     33996     33989     33997     33989     33991     33993     33989     33991     33994
     33993     33991     33994     34002     34000     34006     34002     34000     34007
     34002     34000     34008     34006     34000     34007     34006     34000     34008
     34007     34000     34008     34000     34002     34004     34000     34002     34005
     34004     34002     34005     34013     34011     34017     34013     34011     34018
     34013     34011     34019     34017     34011     34018     34017     34011     34019
     34018     34011     34019     34011     34013     34015     34011     34013     34016
     34015     34013     34016     34024     34022     34028     34024     34022     34029
     34024     34022     34030     34028     34022     34029     34028     34022     34030
     34029     34022     34030     34022     34024     34026     34022     34024     34027
     34026     34024     34027     34035     34033     34039     34035     34033     34040
     34035     34033     34041     34039     34033     34040     34039     34033     34041
     34040     34033     34041     34033     34035     34037     34033     34035     34038
     34037     34035     34038     34046     34044     34050     34046     34044     34051
     34046     34044     34052     34050     34044     34051     34050     34044     34052
     34051     34044     34052     34044     34046     34048     34044     34046     34049
     34048     34046     34049     34057     34055     34061     34057     34055     34062
     34057     34055     34063     34061     34055     34062     34061     34055     34063
     34062     34055     34063     34055     34057     34059     34055     34057     34060
     34059     34057     34060     34068     34066     34072     34068     34066     34073
     34068     34066     34074     34072     34066     34073     34072     34066     34074
     34073     34066     34074     34066     34068     34070     34066     34068     34071
     34070     34068     34071     34079     34077     34083     34079     34077     34084
     34079     34077     34085     34083     34077     34084     34083     34077     34085
     34084     34077     34085     34077     34079     34081     34077     34079     34082
     34081     34079     34082     34090     34088     34094     34090     34088     34095
     34090     34088     34096     34094     34088     34095     34094     34088     34096
     34095     34088     34096     34088     34090     34092     34088     34090     34093
     34092     34090     34093     34101     34099     34105     34101     34099     34106
     34101     34099     34107     34105     34099     34106     34105     34099     34107
     34106     34099     34107     34099     34101     34103     34099     34101     34104
     34103     34101     34104     34112     34110     34116     34112     34110     34117
     34112     34110     34118     34116     34110     34117     34116     34110     34118
     34117     34110     34118     34110     34112     34114     34110     34112     34115
     34114     34112     34115     34123     34121     34127     34123     34121     34128
     34123     34121     34129     34127     34121     34128     34127     34121     34129
     34128     34121     34129     34121     34123     34125     34121     34123     34126
     34125     34123     34126     34134     34132     34138     34134     34132     34139
     34134     34132     34140     34138     34132     34139     34138     34132     34140
     34139     34132     34140     34132     34134     34136     34132     34134     34137
     34136     34134     34137     34145     34143     34149     34145     34143     34150
     34145     34143     34151     34149     34143     34150     34149     34143     34151
     34150     34143     34151     34143     34145     34147     34143     34145     34148
     34147     34145     34148     34156     34154     34160     34156     34154     34161
     34156     34154     34162     34160     34154     34161     34160     34154     34162
     34161     34154     34162     34154     34156     34158     34154     34156     34159
     34158     34156     34159     34167     34165     34171     34167     34165     34172
     34167     34165     34173     34171     34165     34172     34171     34165     34173
     34172     34165     34173     34165     34167     34169     34165     34167     34170
     34169     34167     34170     34178     34176     34182     34178     34176     34183
     34178     34176     34184     34182     34176     34183     34182     34176     34184
     34183     34176     34184     34176     34178     34180     34176     34178     34181
     34180     34178     34181     34189     34187     34193     34189     34187     34194
     34189     34187     34195     34193     34187     34194     34193     34187     34195
     34194     34187     34195     34187     34189     34191     34187     34189     34192
     34191     34189     34192     34200     34198     34204     34200     34198     34205
     34200     34198     34206     34204     34198     34205     34204     34198     34206
     34205     34198     34206     34198     34200     34202     34198     34200     34203
     34202     34200     34203     34211     34209     34215     34211     34209     34216
     34211     34209     34217     34215     34209     34216     34215     34209     34217
     34216     34209     34217     34209     34211     34213     34209     34211     34214
     34213     34211     34214     34222     34220     34226     34222     34220     34227
     34222     34220     34228     34226     34220     34227     34226     34220     34228
     34227     34220     34228     34220     34222     34224     34220     34222     34225
     34224     34222     34225     34233     34231     34237     34233     34231     34238
     34233     34231     34239     34237     34231     34238     34237     34231     34239
     34238     34231     34239     34231     34233     34235     34231     34233     34236
     34235     34233     34236     34244     34242     34248     34244     34242     34249
     34244     34242     34250     34248     34242     34249     34248     34242     34250
     34249     34242     34250     34242     34244     34246     34242     34244     34247
     34246     34244     34247     34255     34253     34259     34255     34253     34260
     34255     34253     34261     34259     34253     34260     34259     34253     34261
     34260     34253     34261     34253     34255     34257     34253     34255     34258
     34257     34255     34258     34266     34264     34270     34266     34264     34271
     34266     34264     34272     34270     34264     34271     34270     34264     34272
     34271     34264     34272     34264     34266     34268     34264     34266     34269
     34268     34266     34269     34277     34275     34281     34277     34275     34282
     34277     34275     34283     34281     34275     34282     34281     34275     34283
     34282     34275     34283     34275     34277     34279     34275     34277     34280
     34279     34277     34280     34288     34286     34292     34288     34286     34293
     34288     34286     34294     34292     34286     34293     34292     34286     34294
     34293     34286     34294     34286     34288     34290     34286     34288     34291
     34290     34288     34291     34299     34297     34303     34299     34297     34304
     34299     34297     34305     34303     34297     34304     34303     34297     34305
     34304     34297     34305     34297     34299     34301     34297     34299     34302
     34301     34299     34302     34310     34308     34314     34310     34308     34315
     34310     34308     34316     34314     34308     34315     34314     34308     34316
     34315     34308     34316     34308     34310     34312     34308     34310     34313
     34312     34310     34313     34321     34319     34325     34321     34319     34326
     34321     34319     34327     34325     34319     34326     34325     34319     34327
     34326     34319     34327     34319     34321     34323     34319     34321     34324
     34323     34321     34324     34332     34330     34336     34332     34330     34337
     34332     34330     34338     34336     34330     34337     34336     34330     34338
     34337     34330     34338     34330     34332     34334     34330     34332     34335
     34334     34332     34335     34343     34341     34347     34343     34341     34348
     34343     34341     34349     34347     34341     34348     34347     34341     34349
     34348     34341     34349     34341     34343     34345     34341     34343     34346
     34345     34343     34346     34354     34352     34358     34354     34352     34359
     34354     34352     34360     34358     34352     34359     34358     34352     34360
     34359     34352     34360     34352     34354     34356     34352     34354     34357
     34356     34354     34357     34365     34363     34369     34365     34363     34370
     34365     34363     34371     34369     34363     34370     34369     34363     34371
     34370     34363     34371     34363     34365     34367     34363     34365     34368
     34367     34365     34368     34376     34374     34380     34376     34374     34381
     34376     34374     34382     34380     34374     34381     34380     34374     34382
     34381     34374     34382     34374     34376     34378     34374     34376     34379
     34378     34376     34379     34387     34385     34391     34387     34385     34392
     34387     34385     34393     34391     34385     34392     34391     34385     34393
     34392     34385     34393     34385     34387     34389     34385     34387     34390
     34389     34387     34390     34398     34396     34402     34398     34396     34403
     34398     34396     34404     34402     34396     34403     34402     34396     34404
     34403     34396     34404     34396     34398     34400     34396     34398     34401
     34400     34398     34401     34409     34407     34413     34409     34407     34414
     34409     34407     34415     34413     34407     34414     34413     34407     34415
     34414     34407     34415     34407     34409     34411     34407     34409     34412
     34411     34409     34412     34420     34418     34424     34420     34418     34425
     34420     34418     34426     34424     34418     34425     34424     34418     34426
     34425     34418     34426     34418     34420     34422     34418     34420     34423
     34422     34420     34423     34431     34429     34435     34431     34429     34436
     34431     34429     34437     34435     34429     34436     34435     34429     34437
     34436     34429     34437     34429     34431     34433     34429     34431     34434
     34433     34431     34434     34442     34440     34446     34442     34440     34447
     34442     34440     34448     34446     34440     34447     34446     34440     34448
     34447     34440     34448     34440     34442     34444     34440     34442     34445
     34444     34442     34445     34453     34451     34457     34453     34451     34458
     34453     34451     34459     34457     34451     34458     34457     34451     34459
     34458     34451     34459     34451     34453     34455     34451     34453     34456
     34455     34453     34456     34464     34462     34468     34464     34462     34469
     34464     34462     34470     34468     34462     34469     34468     34462     34470
     34469     34462     34470     34462     34464     34466     34462     34464     34467
     34466     34464     34467     34475     34473     34479     34475     34473     34480
     34475     34473     34481     34479     34473     34480     34479     34473     34481
     34480     34473     34481     34473     34475     34477     34473     34475     34478
     34477     34475     34478     34486     34484     34490     34486     34484     34491
     34486     34484     34492     34490     34484     34491     34490     34484     34492
     34491     34484     34492     34484     34486     34488     34484     34486     34489
     34488     34486     34489     34497     34495     34501     34497     34495     34502
     34497     34495     34503     34501     34495     34502     34501     34495     34503
     34502     34495     34503     34495     34497     34499     34495     34497     34500
     34499     34497     34500     34508     34506     34512     34508     34506     34513
     34508     34506     34514     34512     34506     34513     34512     34506     34514
     34513     34506     34514     34506     34508     34510     34506     34508     34511
     34510     34508     34511     34519     34517     34523     34519     34517     34524
     34519     34517     34525     34523     34517     34524     34523     34517     34525
     34524     34517     34525     34517     34519     34521     34517     34519     34522
     34521     34519     34522     34530     34528     34534     34530     34528     34535
     34530     34528     34536     34534     34528     34535     34534     34528     34536
     34535     34528     34536     34528     34530     34532     34528     34530     34533
     34532     34530     34533     34541     34539     34545     34541     34539     34546
     34541     34539     34547     34545     34539     34546     34545     34539     34547
     34546     34539     34547     34539     34541     34543     34539     34541     34544
     34543     34541     34544     34552     34550     34556     34552     34550     34557
     34552     34550     34558     34556     34550     34557     34556     34550     34558
     34557     34550     34558     34550     34552     34554     34550     34552     34555
     34554     34552     34555     34563     34561     34567     34563     34561     34568
     34563     34561     34569     34567     34561     34568     34567     34561     34569
     34568     34561     34569     34561     34563     34565     34561     34563     34566
     34565     34563     34566     34574     34572     34578     34574     34572     34579
     34574     34572     34580     34578     34572     34579     34578     34572     34580
     34579     34572     34580     34572     34574     34576     34572     34574     34577
     34576     34574     34577     34585     34583     34589     34585     34583     34590
     34585     34583     34591     34589     34583     34590     34589     34583     34591
     34590     34583     34591     34583     34585     34587     34583     34585     34588
     34587     34585     34588     34596     34594     34600     34596     34594     34601
     34596     34594     34602     34600     34594     34601     34600     34594     34602
     34601     34594     34602     34594     34596     34598     34594     34596     34599
     34598     34596     34599     34607     34605     34611     34607     34605     34612
     34607     34605     34613     34611     34605     34612     34611     34605     34613
     34612     34605     34613     34605     34607     34609     34605     34607     34610
     34609     34607     34610     34618     34616     34622     34618     34616     34623
     34618     34616     34624     34622     34616     34623     34622     34616     34624
     34623     34616     34624     34616     34618     34620     34616     34618     34621
     34620     34618     34621     34629     34627     34633     34629     34627     34634
     34629     34627     34635     34633     34627     34634     34633     34627     34635
     34634     34627     34635     34627     34629     34631     34627     34629     34632
     34631     34629     34632     34640     34638     34644     34640     34638     34645
     34640     34638     34646     34644     34638     34645     34644     34638     34646
     34645     34638     34646     34638     34640     34642     34638     34640     34643
     34642     34640     34643     34651     34649     34655     34651     34649     34656
     34651     34649     34657     34655     34649     34656     34655     34649     34657
     34656     34649     34657     34649     34651     34653     34649     34651     34654
     34653     34651     34654     34662     34660     34666     34662     34660     34667
     34662     34660     34668     34666     34660     34667     34666     34660     34668
     34667     34660     34668     34660     34662     34664     34660     34662     34665
     34664     34662     34665     34673     34671     34677     34673     34671     34678
     34673     34671     34679     34677     34671     34678     34677     34671     34679
     34678     34671     34679     34671     34673     34675     34671     34673     34676
     34675     34673     34676     34684     34682     34688     34684     34682     34689
     34684     34682     34690     34688     34682     34689     34688     34682     34690
     34689     34682     34690     34682     34684     34686     34682     34684     34687
     34686     34684     34687     34695     34693     34699     34695     34693     34700
     34695     34693     34701     34699     34693     34700     34699     34693     34701
     34700     34693     34701     34693     34695     34697     34693     34695     34698
     34697     34695     34698     34706     34704     34710     34706     34704     34711
     34706     34704     34712     34710     34704     34711     34710     34704     34712
     34711     34704     34712     34704     34706     34708     34704     34706     34709
     34708     34706     34709     34717     34715     34721     34717     34715     34722
     34717     34715     34723     34721     34715     34722     34721     34715     34723
     34722     34715     34723     34715     34717     34719     34715     34717     34720
     34719     34717     34720     34728     34726     34732     34728     34726     34733
     34728     34726     34734     34732     34726     34733     34732     34726     34734
     34733     34726     34734     34726     34728     34730     34726     34728     34731
     34730     34728     34731     34739     34737     34743     34739     34737     34744
     34739     34737     34745     34743     34737     34744     34743     34737     34745
     34744     34737     34745     34737     34739     34741     34737     34739     34742
     34741     34739     34742     34750     34748     34754     34750     34748     34755
     34750     34748     34756     34754     34748     34755     34754     34748     34756
     34755     34748     34756     34748     34750     34752     34748     34750     34753
     34752     34750     34753     34761     34759     34765     34761     34759     34766
     34761     34759     34767     34765     34759     34766     34765     34759     34767
     34766     34759     34767     34759     34761     34763     34759     34761     34764
     34763     34761     34764     34772     34770     34776     34772     34770     34777
     34772     34770     34778     34776     34770     34777     34776     34770     34778
     34777     34770     34778     34770     34772     34774     34770     34772     34775
     34774     34772     34775     34783     34781     34787     34783     34781     34788
     34783     34781     34789     34787     34781     34788     34787     34781     34789
     34788     34781     34789     34781     34783     34785     34781     34783     34786
     34785     34783     34786     34794     34792     34798     34794     34792     34799
     34794     34792     34800     34798     34792     34799     34798     34792     34800
     34799     34792     34800     34792     34794     34796     34792     34794     34797
     34796     34794     34797     34805     34803     34809     34805     34803     34810
     34805     34803     34811     34809     34803     34810     34809     34803     34811
     34810     34803     34811     34803     34805     34807     34803     34805     34808
     34807     34805     34808     34816     34814     34820     34816     34814     34821
     34816     34814     34822     34820     34814     34821     34820     34814     34822
     34821     34814     34822     34814     34816     34818     34814     34816     34819
     34818     34816     34819     34827     34825     34831     34827     34825     34832
     34827     34825     34833     34831     34825     34832     34831     34825     34833
     34832     34825     34833     34825     34827     34829     34825     34827     34830
     34829     34827     34830     34838     34836     34842     34838     34836     34843
     34838     34836     34844     34842     34836     34843     34842     34836     34844
     34843     34836     34844     34836     34838     34840     34836     34838     34841
     34840     34838     34841     34849     34847     34853     34849     34847     34854
     34849     34847     34855     34853     34847     34854     34853     34847     34855
     34854     34847     34855     34847     34849     34851     34847     34849     34852
     34851     34849     34852     34860     34858     34864     34860     34858     34865
     34860     34858     34866     34864     34858     34865     34864     34858     34866
     34865     34858     34866     34858     34860     34862     34858     34860     34863
     34862     34860     34863     34871     34869     34875     34871     34869     34876
     34871     34869     34877     34875     34869     34876     34875     34869     34877
     34876     34869     34877     34869     34871     34873     34869     34871     34874
     34873     34871     34874     34882     34880     34886     34882     34880     34887
     34882     34880     34888     34886     34880     34887     34886     34880     34888
     34887     34880     34888     34880     34882     34884     34880     34882     34885
     34884     34882     34885     34893     34891     34897     34893     34891     34898
     34893     34891     34899     34897     34891     34898     34897     34891     34899
     34898     34891     34899     34891     34893     34895     34891     34893     34896
     34895     34893     34896     34904     34902     34908     34904     34902     34909
     34904     34902     34910     34908     34902     34909     34908     34902     34910
     34909     34902     34910     34902     34904     34906     34902     34904     34907
     34906     34904     34907     34915     34913     34919     34915     34913     34920
     34915     34913     34921     34919     34913     34920     34919     34913     34921
     34920     34913     34921     34913     34915     34917     34913     34915     34918
     34917     34915     34918     34926     34924     34930     34926     34924     34931
     34926     34924     34932     34930     34924     34931     34930     34924     34932
     34931     34924     34932     34924     34926     34928     34924     34926     34929
     34928     34926     34929     34937     34935     34941     34937     34935     34942
     34937     34935     34943     34941     34935     34942     34941     34935     34943
     34942     34935     34943     34935     34937     34939     34935     34937     34940
     34939     34937     34940     34948     34946     34952     34948     34946     34953
     34948     34946     34954     34952     34946     34953     34952     34946     34954
     34953     34946     34954     34946     34948     34950     34946     34948     34951
     34950     34948     34951     34959     34957     34963     34959     34957     34964
     34959     34957     34965     34963     34957     34964     34963     34957     34965
     34964     34957     34965     34957     34959     34961     34957     34959     34962
     34961     34959     34962     34970     34968     34974     34970     34968     34975
     34970     34968     34976     34974     34968     34975     34974     34968     34976
     34975     34968     34976     34968     34970     34972     34968     34970     34973
     34972     34970     34973     34981     34979     34985     34981     34979     34986
     34981     34979     34987     34985     34979     34986     34985     34979     34987
     34986     34979     34987     34979     34981     34983     34979     34981     34984
     34983     34981     34984     34992     34990     34996     34992     34990     34997
     34992     34990     34998     34996     34990     34997     34996     34990     34998
     34997     34990     34998     34990     34992     34994     34990     34992     34995
     34994     34992     34995     35003     35001     35007     35003     35001     35008
     35003     35001     35009     35007     35001     35008     35007     35001     35009
     35008     35001     35009     35001     35003     35005     35001     35003     35006
     35005     35003     35006     35014     35012     35018     35014     35012     35019
     35014     35012     35020     35018     35012     35019     35018     35012     35020
     35019     35012     35020     35012     35014     35016     35012     35014     35017
     35016     35014     35017     35025     35023     35029     35025     35023     35030
     35025     35023     35031     35029     35023     35030     35029     35023     35031
     35030     35023     35031     35023     35025     35027     35023     35025     35028
     35027     35025     35028     35036     35034     35040     35036     35034     35041
     35036     35034     35042     35040     35034     35041     35040     35034     35042
     35041     35034     35042     35034     35036     35038     35034     35036     35039
     35038     35036     35039     35047     35045     35051     35047     35045     35052
     35047     35045     35053     35051     35045     35052     35051     35045     35053
     35052     35045     35053     35045     35047     35049     35045     35047     35050
     35049     35047     35050     35058     35056     35062     35058     35056     35063
     35058     35056     35064     35062     35056     35063     35062     35056     35064
     35063     35056     35064     35056     35058     35060     35056     35058     35061
     35060     35058     35061     35069     35067     35073     35069     35067     35074
     35069     35067     35075     35073     35067     35074     35073     35067     35075
     35074     35067     35075     35067     35069     35071     35067     35069     35072
     35071     35069     35072     35080     35078     35084     35080     35078     35085
     35080     35078     35086     35084     35078     35085     35084     35078     35086
     35085     35078     35086     35078     35080     35082     35078     35080     35083
     35082     35080     35083     35091     35089     35095     35091     35089     35096
     35091     35089     35097     35095     35089     35096     35095     35089     35097
     35096     35089     35097     35089     35091     35093     35089     35091     35094
     35093     35091     35094     35102     35100     35106     35102     35100     35107
     35102     35100     35108     35106     35100     35107     35106     35100     35108
     35107     35100     35108     35100     35102     35104     35100     35102     35105
     35104     35102     35105     35113     35111     35117     35113     35111     35118
     35113     35111     35119     35117     35111     35118     35117     35111     35119
     35118     35111     35119     35111     35113     35115     35111     35113     35116
     35115     35113     35116     35124     35122     35128     35124     35122     35129
     35124     35122     35130     35128     35122     35129     35128     35122     35130
     35129     35122     35130     35122     35124     35126     35122     35124     35127
     35126     35124     35127     35135     35133     35139     35135     35133     35140
     35135     35133     35141     35139     35133     35140     35139     35133     35141
     35140     35133     35141     35133     35135     35137     35133     35135     35138
     35137     35135     35138     35146     35144     35150     35146     35144     35151
     35146     35144     35152     35150     35144     35151     35150     35144     35152
     35151     35144     35152     35144     35146     35148     35144     35146     35149
     35148     35146     35149     35157     35155     35161     35157     35155     35162
     35157     35155     35163     35161     35155     35162     35161     35155     35163
     35162     35155     35163     35155     35157     35159     35155     35157     35160
     35159     35157     35160     35168     35166     35172     35168     35166     35173
     35168     35166     35174     35172     35166     35173     35172     35166     35174
     35173     35166     35174     35166     35168     35170     35166     35168     35171
     35170     35168     35171     35179     35177     35183     35179     35177     35184
     35179     35177     35185     35183     35177     35184     35183     35177     35185
     35184     35177     35185     35177     35179     35181     35177     35179     35182
     35181     35179     35182     35190     35188     35194     35190     35188     35195
     35190     35188     35196     35194     35188     35195     35194     35188     35196
     35195     35188     35196     35188     35190     35192     35188     35190     35193
     35192     35190     35193     35201     35199     35205     35201     35199     35206
     35201     35199     35207     35205     35199     35206     35205     35199     35207
     35206     35199     35207     35199     35201     35203     35199     35201     35204
     35203     35201     35204     35212     35210     35216     35212     35210     35217
     35212     35210     35218     35216     35210     35217     35216     35210     35218
     35217     35210     35218     35210     35212     35214     35210     35212     35215
     35214     35212     35215     35223     35221     35227     35223     35221     35228
     35223     35221     35229     35227     35221     35228     35227     35221     35229
     35228     35221     35229     35221     35223     35225     35221     35223     35226
     35225     35223     35226     35234     35232     35238     35234     35232     35239
     35234     35232     35240     35238     35232     35239     35238     35232     35240
     35239     35232     35240     35232     35234     35236     35232     35234     35237
     35236     35234     35237     35245     35243     35249     35245     35243     35250
     35245     35243     35251     35249     35243     35250     35249     35243     35251
     35250     35243     35251     35243     35245     35247     35243     35245     35248
     35247     35245     35248     35256     35254     35260     35256     35254     35261
     35256     35254     35262     35260     35254     35261     35260     35254     35262
     35261     35254     35262     35254     35256     35258     35254     35256     35259
     35258     35256     35259     35267     35265     35271     35267     35265     35272
     35267     35265     35273     35271     35265     35272     35271     35265     35273
     35272     35265     35273     35265     35267     35269     35265     35267     35270
     35269     35267     35270     35278     35276     35282     35278     35276     35283
     35278     35276     35284     35282     35276     35283     35282     35276     35284
     35283     35276     35284     35276     35278     35280     35276     35278     35281
     35280     35278     35281     35289     35287     35293     35289     35287     35294
     35289     35287     35295     35293     35287     35294     35293     35287     35295
     35294     35287     35295     35287     35289     35291     35287     35289     35292
     35291     35289     35292     35300     35298     35304     35300     35298     35305
     35300     35298     35306     35304     35298     35305     35304     35298     35306
     35305     35298     35306     35298     35300     35302     35298     35300     35303
     35302     35300     35303     35311     35309     35315     35311     35309     35316
     35311     35309     35317     35315     35309     35316     35315     35309     35317
     35316     35309     35317     35309     35311     35313     35309     35311     35314
     35313     35311     35314     35322     35320     35326     35322     35320     35327
     35322     35320     35328     35326     35320     35327     35326     35320     35328
     35327     35320     35328     35320     35322     35324     35320     35322     35325
     35324     35322     35325     35333     35331     35337     35333     35331     35338
     35333     35331     35339     35337     35331     35338     35337     35331     35339
     35338     35331     35339     35331     35333     35335     35331     35333     35336
     35335     35333     35336     35344     35342     35348     35344     35342     35349
     35344     35342     35350     35348     35342     35349     35348     35342     35350
     35349     35342     35350     35342     35344     35346     35342     35344     35347
     35346     35344     35347     35355     35353     35359     35355     35353     35360
     35355     35353     35361     35359     35353     35360     35359     35353     35361
     35360     35353     35361     35353     35355     35357     35353     35355     35358
     35357     35355     35358     35366     35364     35370     35366     35364     35371
     35366     35364     35372     35370     35364     35371     35370     35364     35372
     35371     35364     35372     35364     35366     35368     35364     35366     35369
     35368     35366     35369     35377     35375     35381     35377     35375     35382
     35377     35375     35383     35381     35375     35382     35381     35375     35383
     35382     35375     35383     35375     35377     35379     35375     35377     35380
     35379     35377     35380     35388     35386     35392     35388     35386     35393
     35388     35386     35394     35392     35386     35393     35392     35386     35394
     35393     35386     35394     35386     35388     35390     35386     35388     35391
     35390     35388     35391     35399     35397     35403     35399     35397     35404
     35399     35397     35405     35403     35397     35404     35403     35397     35405
     35404     35397     35405     35397     35399     35401     35397     35399     35402
     35401     35399     35402     35410     35408     35414     35410     35408     35415
     35410     35408     35416     35414     35408     35415     35414     35408     35416
     35415     35408     35416     35408     35410     35412     35408     35410     35413
     35412     35410     35413     35421     35419     35425     35421     35419     35426
     35421     35419     35427     35425     35419     35426     35425     35419     35427
     35426     35419     35427     35419     35421     35423     35419     35421     35424
     35423     35421     35424     35432     35430     35436     35432     35430     35437
     35432     35430     35438     35436     35430     35437     35436     35430     35438
     35437     35430     35438     35430     35432     35434     35430     35432     35435
     35434     35432     35435     35443     35441     35447     35443     35441     35448
     35443     35441     35449     35447     35441     35448     35447     35441     35449
     35448     35441     35449     35441     35443     35445     35441     35443     35446
     35445     35443     35446     35454     35452     35458     35454     35452     35459
     35454     35452     35460     35458     35452     35459     35458     35452     35460
     35459     35452     35460     35452     35454     35456     35452     35454     35457
     35456     35454     35457     35465     35463     35469     35465     35463     35470
     35465     35463     35471     35469     35463     35470     35469     35463     35471
     35470     35463     35471     35463     35465     35467     35463     35465     35468
     35467     35465     35468     35476     35474     35480     35476     35474     35481
     35476     35474     35482     35480     35474     35481     35480     35474     35482
     35481     35474     35482     35474     35476     35478     35474     35476     35479
     35478     35476     35479     35487     35485     35491     35487     35485     35492
     35487     35485     35493     35491     35485     35492     35491     35485     35493
     35492     35485     35493     35485     35487     35489     35485     35487     35490
     35489     35487     35490     35498     35496     35502     35498     35496     35503
     35498     35496     35504     35502     35496     35503     35502     35496     35504
     35503     35496     35504     35496     35498     35500     35496     35498     35501
     35500     35498     35501     35509     35507     35513     35509     35507     35514
     35509     35507     35515     35513     35507     35514     35513     35507     35515
     35514     35507     35515     35507     35509     35511     35507     35509     35512
     35511     35509     35512     35520     35518     35524     35520     35518     35525
     35520     35518     35526     35524     35518     35525     35524     35518     35526
     35525     35518     35526     35518     35520     35522     35518     35520     35523
     35522     35520     35523     35531     35529     35535     35531     35529     35536
     35531     35529     35537     35535     35529     35536     35535     35529     35537
     35536     35529     35537     35529     35531     35533     35529     35531     35534
     35533     35531     35534     35542     35540     35546     35542     35540     35547
     35542     35540     35548     35546     35540     35547     35546     35540     35548
     35547     35540     35548     35540     35542     35544     35540     35542     35545
     35544     35542     35545     35553     35551     35557     35553     35551     35558
     35553     35551     35559     35557     35551     35558     35557     35551     35559
     35558     35551     35559     35551     35553     35555     35551     35553     35556
     35555     35553     35556     35564     35562     35568     35564     35562     35569
     35564     35562     35570     35568     35562     35569     35568     35562     35570
     35569     35562     35570     35562     35564     35566     35562     35564     35567
     35566     35564     35567     35575     35573     35579     35575     35573     35580
     35575     35573     35581     35579     35573     35580     35579     35573     35581
     35580     35573     35581     35573     35575     35577     35573     35575     35578
     35577     35575     35578     35586     35584     35590     35586     35584     35591
     35586     35584     35592     35590     35584     35591     35590     35584     35592
     35591     35584     35592     35584     35586     35588     35584     35586     35589
     35588     35586     35589     35597     35595     35601     35597     35595     35602
     35597     35595     35603     35601     35595     35602     35601     35595     35603
     35602     35595     35603     35595     35597     35599     35595     35597     35600
     35599     35597     35600     35608     35606     35612     35608     35606     35613
     35608     35606     35614     35612     35606     35613     35612     35606     35614
     35613     35606     35614     35606     35608     35610     35606     35608     35611
     35610     35608     35611     35619     35617     35623     35619     35617     35624
     35619     35617     35625     35623     35617     35624     35623     35617     35625
     35624     35617     35625     35617     35619     35621     35617     35619     35622
     35621     35619     35622     35630     35628     35634     35630     35628     35635
     35630     35628     35636     35634     35628     35635     35634     35628     35636
     35635     35628     35636     35628     35630     35632     35628     35630     35633
     35632     35630     35633     35641     35639     35645     35641     35639     35646
     35641     35639     35647     35645     35639     35646     35645     35639     35647
     35646     35639     35647     35639     35641     35643     35639     35641     35644
     35643     35641     35644     35652     35650     35656     35652     35650     35657
     35652     35650     35658     35656     35650     35657     35656     35650     35658
     35657     35650     35658     35650     35652     35654     35650     35652     35655
     35654     35652     35655     35663     35661     35667     35663     35661     35668
     35663     35661     35669     35667     35661     35668     35667     35661     35669
     35668     35661     35669     35661     35663     35665     35661     35663     35666
     35665     35663     35666     35674     35672     35678     35674     35672     35679
     35674     35672     35680     35678     35672     35679     35678     35672     35680
     35679     35672     35680     35672     35674     35676     35672     35674     35677
     35676     35674     35677     35685     35683     35689     35685     35683     35690
     35685     35683     35691     35689     35683     35690     35689     35683     35691
     35690     35683     35691     35683     35685     35687     35683     35685     35688
     35687     35685     35688     35696     35694     35700     35696     35694     35701
     35696     35694     35702     35700     35694     35701     35700     35694     35702
     35701     35694     35702     35694     35696     35698     35694     35696     35699
     35698     35696     35699     35707     35705     35711     35707     35705     35712
     35707     35705     35713     35711     35705     35712     35711     35705     35713
     35712     35705     35713     35705     35707     35709     35705     35707     35710
     35709     35707     35710     35718     35716     35722     35718     35716     35723
     35718     35716     35724     35722     35716     35723     35722     35716     35724
     35723     35716     35724     35716     35718     35720     35716     35718     35721
     35720     35718     35721     35729     35727     35733     35729     35727     35734
     35729     35727     35735     35733     35727     35734     35733     35727     35735
     35734     35727     35735     35727     35729     35731     35727     35729     35732
     35731     35729     35732     35740     35738     35744     35740     35738     35745
     35740     35738     35746     35744     35738     35745     35744     35738     35746
     35745     35738     35746     35738     35740     35742     35738     35740     35743
     35742     35740     35743     35751     35749     35755     35751     35749     35756
     35751     35749     35757     35755     35749     35756     35755     35749     35757
     35756     35749     35757     35749     35751     35753     35749     35751     35754
     35753     35751     35754     35762     35760     35766     35762     35760     35767
     35762     35760     35768     35766     35760     35767     35766     35760     35768
     35767     35760     35768     35760     35762     35764     35760     35762     35765
     35764     35762     35765     35773     35771     35777     35773     35771     35778
     35773     35771     35779     35777     35771     35778     35777     35771     35779
     35778     35771     35779     35771     35773     35775     35771     35773     35776
     35775     35773     35776     35784     35782     35788     35784     35782     35789
     35784     35782     35790     35788     35782     35789     35788     35782     35790
     35789     35782     35790     35782     35784     35786     35782     35784     35787
     35786     35784     35787     35795     35793     35799     35795     35793     35800
     35795     35793     35801     35799     35793     35800     35799     35793     35801
     35800     35793     35801     35793     35795     35797     35793     35795     35798
     35797     35795     35798     35806     35804     35810     35806     35804     35811
     35806     35804     35812     35810     35804     35811     35810     35804     35812
     35811     35804     35812     35804     35806     35808     35804     35806     35809
     35808     35806     35809     35817     35815     35821     35817     35815     35822
     35817     35815     35823     35821     35815     35822     35821     35815     35823
     35822     35815     35823     35815     35817     35819     35815     35817     35820
     35819     35817     35820     35828     35826     35832     35828     35826     35833
     35828     35826     35834     35832     35826     35833     35832     35826     35834
     35833     35826     35834     35826     35828     35830     35826     35828     35831
     35830     35828     35831     35839     35837     35843     35839     35837     35844
     35839     35837     35845     35843     35837     35844     35843     35837     35845
     35844     35837     35845     35837     35839     35841     35837     35839     35842
     35841     35839     35842     35850     35848     35854     35850     35848     35855
     35850     35848     35856     35854     35848     35855     35854     35848     35856
     35855     35848     35856     35848     35850     35852     35848     35850     35853
     35852     35850     35853     35861     35859     35865     35861     35859     35866
     35861     35859     35867     35865     35859     35866     35865     35859     35867
     35866     35859     35867     35859     35861     35863     35859     35861     35864
     35863     35861     35864     35872     35870     35876     35872     35870     35877
     35872     35870     35878     35876     35870     35877     35876     35870     35878
     35877     35870     35878     35870     35872     35874     35870     35872     35875
     35874     35872     35875     35883     35881     35887     35883     35881     35888
     35883     35881     35889     35887     35881     35888     35887     35881     35889
     35888     35881     35889     35881     35883     35885     35881     35883     35886
     35885     35883     35886     35894     35892     35898     35894     35892     35899
     35894     35892     35900     35898     35892     35899     35898     35892     35900
     35899     35892     35900     35892     35894     35896     35892     35894     35897
     35896     35894     35897     35905     35903     35909     35905     35903     35910
     35905     35903     35911     35909     35903     35910     35909     35903     35911
     35910     35903     35911     35903     35905     35907     35903     35905     35908
     35907     35905     35908     35916     35914     35920     35916     35914     35921
     35916     35914     35922     35920     35914     35921     35920     35914     35922
     35921     35914     35922     35914     35916     35918     35914     35916     35919
     35918     35916     35919     35927     35925     35931     35927     35925     35932
     35927     35925     35933     35931     35925     35932     35931     35925     35933
     35932     35925     35933     35925     35927     35929     35925     35927     35930
     35929     35927     35930     35938     35936     35942     35938     35936     35943
     35938     35936     35944     35942     35936     35943     35942     35936     35944
     35943     35936     35944     35936     35938     35940     35936     35938     35941
     35940     35938     35941     35949     35947     35953     35949     35947     35954
     35949     35947     35955     35953     35947     35954     35953     35947     35955
     35954     35947     35955     35947     35949     35951     35947     35949     35952
     35951     35949     35952     35960     35958     35964     35960     35958     35965
     35960     35958     35966     35964     35958     35965     35964     35958     35966
     35965     35958     35966     35958     35960     35962     35958     35960     35963
     35962     35960     35963     35971     35969     35975     35971     35969     35976
     35971     35969     35977     35975     35969     35976     35975     35969     35977
     35976     35969     35977     35969     35971     35973     35969     35971     35974
     35973     35971     35974     35982     35980     35986     35982     35980     35987
     35982     35980     35988     35986     35980     35987     35986     35980     35988
     35987     35980     35988     35980     35982     35984     35980     35982     35985
     35984     35982     35985     35993     35991     35997     35993     35991     35998
     35993     35991     35999     35997     35991     35998     35997     35991     35999
     35998     35991     35999     35991     35993     35995     35991     35993     35996
     35995     35993     35996     36004     36002     36008     36004     36002     36009
     36004     36002     36010     36008     36002     36009     36008     36002     36010
     36009     36002     36010     36002     36004     36006     36002     36004     36007
     36006     36004     36007     36015     36013     36019     36015     36013     36020
     36015     36013     36021     36019     36013     36020     36019     36013     36021
     36020     36013     36021     36013     36015     36017     36013     36015     36018
     36017     36015     36018     36026     36024     36030     36026     36024     36031
     36026     36024     36032     36030     36024     36031     36030     36024     36032
     36031     36024     36032     36024     36026     36028     36024     36026     36029
     36028     36026     36029     36037     36035     36041     36037     36035     36042
     36037     36035     36043     36041     36035     36042     36041     36035     36043
     36042     36035     36043     36035     36037     36039     36035     36037     36040
     36039     36037     36040     36048     36046     36052     36048     36046     36053
     36048     36046     36054     36052     36046     36053     36052     36046     36054
     36053     36046     36054     36046     36048     36050     36046     36048     36051
     36050     36048     36051     36059     36057     36063     36059     36057     36064
     36059     36057     36065     36063     36057     36064     36063     36057     36065
     36064     36057     36065     36057     36059     36061     36057     36059     36062
     36061     36059     36062     36070     36068     36074     36070     36068     36075
     36070     36068     36076     36074     36068     36075     36074     36068     36076
     36075     36068     36076     36068     36070     36072     36068     36070     36073
     36072     36070     36073     36081     36079     36085     36081     36079     36086
     36081     36079     36087     36085     36079     36086     36085     36079     36087
     36086     36079     36087     36079     36081     36083     36079     36081     36084
     36083     36081     36084     36092     36090     36096     36092     36090     36097
     36092     36090     36098     36096     36090     36097     36096     36090     36098
     36097     36090     36098     36090     36092     36094     36090     36092     36095
     36094     36092     36095     36103     36101     36107     36103     36101     36108
     36103     36101     36109     36107     36101     36108     36107     36101     36109
     36108     36101     36109     36101     36103     36105     36101     36103     36106
     36105     36103     36106     36114     36112     36118     36114     36112     36119
     36114     36112     36120     36118     36112     36119     36118     36112     36120
     36119     36112     36120     36112     36114     36116     36112     36114     36117
     36116     36114     36117     36125     36123     36129     36125     36123     36130
     36125     36123     36131     36129     36123     36130     36129     36123     36131
     36130     36123     36131     36123     36125     36127     36123     36125     36128
     36127     36125     36128     36136     36134     36140     36136     36134     36141
     36136     36134     36142     36140     36134     36141     36140     36134     36142
     36141     36134     36142     36134     36136     36138     36134     36136     36139
     36138     36136     36139     36147     36145     36151     36147     36145     36152
     36147     36145     36153     36151     36145     36152     36151     36145     36153
     36152     36145     36153     36145     36147     36149     36145     36147     36150
     36149     36147     36150     36158     36156     36162     36158     36156     36163
     36158     36156     36164     36162     36156     36163     36162     36156     36164
     36163     36156     36164     36156     36158     36160     36156     36158     36161
     36160     36158     36161     36169     36167     36173     36169     36167     36174
     36169     36167     36175     36173     36167     36174     36173     36167     36175
     36174     36167     36175     36167     36169     36171     36167     36169     36172
     36171     36169     36172     36180     36178     36184     36180     36178     36185
     36180     36178     36186     36184     36178     36185     36184     36178     36186
     36185     36178     36186     36178     36180     36182     36178     36180     36183
     36182     36180     36183     36191     36189     36195     36191     36189     36196
     36191     36189     36197     36195     36189     36196     36195     36189     36197
     36196     36189     36197     36189     36191     36193     36189     36191     36194
     36193     36191     36194     36202     36200     36206     36202     36200     36207
     36202     36200     36208     36206     36200     36207     36206     36200     36208
     36207     36200     36208     36200     36202     36204     36200     36202     36205
     36204     36202     36205     36213     36211     36217     36213     36211     36218
     36213     36211     36219     36217     36211     36218     36217     36211     36219
     36218     36211     36219     36211     36213     36215     36211     36213     36216
     36215     36213     36216     36224     36222     36228     36224     36222     36229
     36224     36222     36230     36228     36222     36229     36228     36222     36230
     36229     36222     36230     36222     36224     36226     36222     36224     36227
     36226     36224     36227     36235     36233     36239     36235     36233     36240
     36235     36233     36241     36239     36233     36240     36239     36233     36241
     36240     36233     36241     36233     36235     36237     36233     36235     36238
     36237     36235     36238     36246     36244     36250     36246     36244     36251
     36246     36244     36252     36250     36244     36251     36250     36244     36252
     36251     36244     36252     36244     36246     36248     36244     36246     36249
     36248     36246     36249     36257     36255     36261     36257     36255     36262
     36257     36255     36263     36261     36255     36262     36261     36255     36263
     36262     36255     36263     36255     36257     36259     36255     36257     36260
     36259     36257     36260     36268     36266     36272     36268     36266     36273
     36268     36266     36274     36272     36266     36273     36272     36266     36274
     36273     36266     36274     36266     36268     36270     36266     36268     36271
     36270     36268     36271     36279     36277     36283     36279     36277     36284
     36279     36277     36285     36283     36277     36284     36283     36277     36285
     36284     36277     36285     36277     36279     36281     36277     36279     36282
     36281     36279     36282     36290     36288     36294     36290     36288     36295
     36290     36288     36296     36294     36288     36295     36294     36288     36296
     36295     36288     36296     36288     36290     36292     36288     36290     36293
     36292     36290     36293     36301     36299     36305     36301     36299     36306
     36301     36299     36307     36305     36299     36306     36305     36299     36307
     36306     36299     36307     36299     36301     36303     36299     36301     36304
     36303     36301     36304     36312     36310     36316     36312     36310     36317
     36312     36310     36318     36316     36310     36317     36316     36310     36318
     36317     36310     36318     36310     36312     36314     36310     36312     36315
     36314     36312     36315     36323     36321     36327     36323     36321     36328
     36323     36321     36329     36327     36321     36328     36327     36321     36329
     36328     36321     36329     36321     36323     36325     36321     36323     36326
     36325     36323     36326     36334     36332     36338     36334     36332     36339
     36334     36332     36340     36338     36332     36339     36338     36332     36340
     36339     36332     36340     36332     36334     36336     36332     36334     36337
     36336     36334     36337     36345     36343     36349     36345     36343     36350
     36345     36343     36351     36349     36343     36350     36349     36343     36351
     36350     36343     36351     36343     36345     36347     36343     36345     36348
     36347     36345     36348     36356     36354     36360     36356     36354     36361
     36356     36354     36362     36360     36354     36361     36360     36354     36362
     36361     36354     36362     36354     36356     36358     36354     36356     36359
     36358     36356     36359     36367     36365     36371     36367     36365     36372
     36367     36365     36373     36371     36365     36372     36371     36365     36373
     36372     36365     36373     36365     36367     36369     36365     36367     36370
     36369     36367     36370     36378     36376     36382     36378     36376     36383
     36378     36376     36384     36382     36376     36383     36382     36376     36384
     36383     36376     36384     36376     36378     36380     36376     36378     36381
     36380     36378     36381     36389     36387     36393     36389     36387     36394
     36389     36387     36395     36393     36387     36394     36393     36387     36395
     36394     36387     36395     36387     36389     36391     36387     36389     36392
     36391     36389     36392     36400     36398     36404     36400     36398     36405
     36400     36398     36406     36404     36398     36405     36404     36398     36406
     36405     36398     36406     36398     36400     36402     36398     36400     36403
     36402     36400     36403     36411     36409     36415     36411     36409     36416
     36411     36409     36417     36415     36409     36416     36415     36409     36417
     36416     36409     36417     36409     36411     36413     36409     36411     36414
     36413     36411     36414     36422     36420     36426     36422     36420     36427
     36422     36420     36428     36426     36420     36427     36426     36420     36428
     36427     36420     36428     36420     36422     36424     36420     36422     36425
     36424     36422     36425     36433     36431     36437     36433     36431     36438
     36433     36431     36439     36437     36431     36438     36437     36431     36439
     36438     36431     36439     36431     36433     36435     36431     36433     36436
     36435     36433     36436     36444     36442     36448     36444     36442     36449
     36444     36442     36450     36448     36442     36449     36448     36442     36450
     36449     36442     36450     36442     36444     36446     36442     36444     36447
     36446     36444     36447     36455     36453     36459     36455     36453     36460
     36455     36453     36461     36459     36453     36460     36459     36453     36461
     36460     36453     36461     36453     36455     36457     36453     36455     36458
     36457     36455     36458     36466     36464     36470     36466     36464     36471
     36466     36464     36472     36470     36464     36471     36470     36464     36472
     36471     36464     36472     36464     36466     36468     36464     36466     36469
     36468     36466     36469     36477     36475     36481     36477     36475     36482
     36477     36475     36483     36481     36475     36482     36481     36475     36483
     36482     36475     36483     36475     36477     36479     36475     36477     36480
     36479     36477     36480     36488     36486     36492     36488     36486     36493
     36488     36486     36494     36492     36486     36493     36492     36486     36494
     36493     36486     36494     36486     36488     36490     36486     36488     36491
     36490     36488     36491     36499     36497     36503     36499     36497     36504
     36499     36497     36505     36503     36497     36504     36503     36497     36505
     36504     36497     36505     36497     36499     36501     36497     36499     36502
     36501     36499     36502     36510     36508     36514     36510     36508     36515
     36510     36508     36516     36514     36508     36515     36514     36508     36516
     36515     36508     36516     36508     36510     36512     36508     36510     36513
     36512     36510     36513     36521     36519     36525     36521     36519     36526
     36521     36519     36527     36525     36519     36526     36525     36519     36527
     36526     36519     36527     36519     36521     36523     36519     36521     36524
     36523     36521     36524     36532     36530     36536     36532     36530     36537
     36532     36530     36538     36536     36530     36537     36536     36530     36538
     36537     36530     36538     36530     36532     36534     36530     36532     36535
     36534     36532     36535     36543     36541     36547     36543     36541     36548
     36543     36541     36549     36547     36541     36548     36547     36541     36549
     36548     36541     36549     36541     36543     36545     36541     36543     36546
     36545     36543     36546     36554     36552     36558     36554     36552     36559
     36554     36552     36560     36558     36552     36559     36558     36552     36560
     36559     36552     36560     36552     36554     36556     36552     36554     36557
     36556     36554     36557     36565     36563     36569     36565     36563     36570
     36565     36563     36571     36569     36563     36570     36569     36563     36571
     36570     36563     36571     36563     36565     36567     36563     36565     36568
     36567     36565     36568     36576     36574     36580     36576     36574     36581
     36576     36574     36582     36580     36574     36581     36580     36574     36582
     36581     36574     36582     36574     36576     36578     36574     36576     36579
     36578     36576     36579     36587     36585     36591     36587     36585     36592
     36587     36585     36593     36591     36585     36592     36591     36585     36593
     36592     36585     36593     36585     36587     36589     36585     36587     36590
     36589     36587     36590     36598     36596     36602     36598     36596     36603
     36598     36596     36604     36602     36596     36603     36602     36596     36604
     36603     36596     36604     36596     36598     36600     36596     36598     36601
     36600     36598     36601     36609     36607     36613     36609     36607     36614
     36609     36607     36615     36613     36607     36614     36613     36607     36615
     36614     36607     36615     36607     36609     36611     36607     36609     36612
     36611     36609     36612     36620     36618     36624     36620     36618     36625
     36620     36618     36626     36624     36618     36625     36624     36618     36626
     36625     36618     36626     36618     36620     36622     36618     36620     36623
     36622     36620     36623     36631     36629     36635     36631     36629     36636
     36631     36629     36637     36635     36629     36636     36635     36629     36637
     36636     36629     36637     36629     36631     36633     36629     36631     36634
     36633     36631     36634     36642     36640     36646     36642     36640     36647
     36642     36640     36648     36646     36640     36647     36646     36640     36648
     36647     36640     36648     36640     36642     36644     36640     36642     36645
     36644     36642     36645     36653     36651     36657     36653     36651     36658
     36653     36651     36659     36657     36651     36658     36657     36651     36659
     36658     36651     36659     36651     36653     36655     36651     36653     36656
     36655     36653     36656     36664     36662     36668     36664     36662     36669
     36664     36662     36670     36668     36662     36669     36668     36662     36670
     36669     36662     36670     36662     36664     36666     36662     36664     36667
     36666     36664     36667     36675     36673     36679     36675     36673     36680
     36675     36673     36681     36679     36673     36680     36679     36673     36681
     36680     36673     36681     36673     36675     36677     36673     36675     36678
     36677     36675     36678     36686     36684     36690     36686     36684     36691
     36686     36684     36692     36690     36684     36691     36690     36684     36692
     36691     36684     36692     36684     36686     36688     36684     36686     36689
     36688     36686     36689     36697     36695     36701     36697     36695     36702
     36697     36695     36703     36701     36695     36702     36701     36695     36703
     36702     36695     36703     36695     36697     36699     36695     36697     36700
     36699     36697     36700     36708     36706     36712     36708     36706     36713
     36708     36706     36714     36712     36706     36713     36712     36706     36714
     36713     36706     36714     36706     36708     36710     36706     36708     36711
     36710     36708     36711     36719     36717     36723     36719     36717     36724
     36719     36717     36725     36723     36717     36724     36723     36717     36725
     36724     36717     36725     36717     36719     36721     36717     36719     36722
     36721     36719     36722     36730     36728     36734     36730     36728     36735
     36730     36728     36736     36734     36728     36735     36734     36728     36736
     36735     36728     36736     36728     36730     36732     36728     36730     36733
     36732     36730     36733     36741     36739     36745     36741     36739     36746
     36741     36739     36747     36745     36739     36746     36745     36739     36747
     36746     36739     36747     36739     36741     36743     36739     36741     36744
     36743     36741     36744     36752     36750     36756     36752     36750     36757
     36752     36750     36758     36756     36750     36757     36756     36750     36758
     36757     36750     36758     36750     36752     36754     36750     36752     36755
     36754     36752     36755     36763     36761     36767     36763     36761     36768
     36763     36761     36769     36767     36761     36768     36767     36761     36769
     36768     36761     36769     36761     36763     36765     36761     36763     36766
     36765     36763     36766     36774     36772     36778     36774     36772     36779
     36774     36772     36780     36778     36772     36779     36778     36772     36780
     36779     36772     36780     36772     36774     36776     36772     36774     36777
     36776     36774     36777     36785     36783     36789     36785     36783     36790
     36785     36783     36791     36789     36783     36790     36789     36783     36791
     36790     36783     36791     36783     36785     36787     36783     36785     36788
     36787     36785     36788     36796     36794     36800     36796     36794     36801
     36796     36794     36802     36800     36794     36801     36800     36794     36802
     36801     36794     36802     36794     36796     36798     36794     36796     36799
     36798     36796     36799     36807     36805     36811     36807     36805     36812
     36807     36805     36813     36811     36805     36812     36811     36805     36813
     36812     36805     36813     36805     36807     36809     36805     36807     36810
     36809     36807     36810     36818     36816     36822     36818     36816     36823
     36818     36816     36824     36822     36816     36823     36822     36816     36824
     36823     36816     36824     36816     36818     36820     36816     36818     36821
     36820     36818     36821     36829     36827     36833     36829     36827     36834
     36829     36827     36835     36833     36827     36834     36833     36827     36835
     36834     36827     36835     36827     36829     36831     36827     36829     36832
     36831     36829     36832     36840     36838     36844     36840     36838     36845
     36840     36838     36846     36844     36838     36845     36844     36838     36846
     36845     36838     36846     36838     36840     36842     36838     36840     36843
     36842     36840     36843     36851     36849     36855     36851     36849     36856
     36851     36849     36857     36855     36849     36856     36855     36849     36857
     36856     36849     36857     36849     36851     36853     36849     36851     36854
     36853     36851     36854     36862     36860     36866     36862     36860     36867
     36862     36860     36868     36866     36860     36867     36866     36860     36868
     36867     36860     36868     36860     36862     36864     36860     36862     36865
     36864     36862     36865     36873     36871     36877     36873     36871     36878
     36873     36871     36879     36877     36871     36878     36877     36871     36879
     36878     36871     36879     36871     36873     36875     36871     36873     36876
     36875     36873     36876     36884     36882     36888     36884     36882     36889
     36884     36882     36890     36888     36882     36889     36888     36882     36890
     36889     36882     36890     36882     36884     36886     36882     36884     36887
     36886     36884     36887     36895     36893     36899     36895     36893     36900
     36895     36893     36901     36899     36893     36900     36899     36893     36901
     36900     36893     36901     36893     36895     36897     36893     36895     36898
     36897     36895     36898     36906     36904     36910     36906     36904     36911
     36906     36904     36912     36910     36904     36911     36910     36904     36912
     36911     36904     36912     36904     36906     36908     36904     36906     36909
     36908     36906     36909     36917     36915     36921     36917     36915     36922
     36917     36915     36923     36921     36915     36922     36921     36915     36923
     36922     36915     36923     36915     36917     36919     36915     36917     36920
     36919     36917     36920     36928     36926     36932     36928     36926     36933
     36928     36926     36934     36932     36926     36933     36932     36926     36934
     36933     36926     36934     36926     36928     36930     36926     36928     36931
     36930     36928     36931     36939     36937     36943     36939     36937     36944
     36939     36937     36945     36943     36937     36944     36943     36937     36945
     36944     36937     36945     36937     36939     36941     36937     36939     36942
     36941     36939     36942     36950     36948     36954     36950     36948     36955
     36950     36948     36956     36954     36948     36955     36954     36948     36956
     36955     36948     36956     36948     36950     36952     36948     36950     36953
     36952     36950     36953     36961     36959     36965     36961     36959     36966
     36961     36959     36967     36965     36959     36966     36965     36959     36967
     36966     36959     36967     36959     36961     36963     36959     36961     36964
     36963     36961     36964     36972     36970     36976     36972     36970     36977
     36972     36970     36978     36976     36970     36977     36976     36970     36978
     36977     36970     36978     36970     36972     36974     36970     36972     36975
     36974     36972     36975     36983     36981     36987     36983     36981     36988
     36983     36981     36989     36987     36981     36988     36987     36981     36989
     36988     36981     36989     36981     36983     36985     36981     36983     36986
     36985     36983     36986     36994     36992     36998     36994     36992     36999
     36994     36992     37000     36998     36992     36999     36998     36992     37000
     36999     36992     37000     36992     36994     36996     36992     36994     36997
     36996     36994     36997     37005     37003     37009     37005     37003     37010
     37005     37003     37011     37009     37003     37010     37009     37003     37011
     37010     37003     37011     37003     37005     37007     37003     37005     37008
     37007     37005     37008     37016     37014     37020     37016     37014     37021
     37016     37014     37022     37020     37014     37021     37020     37014     37022
     37021     37014     37022     37014     37016     37018     37014     37016     37019
     37018     37016     37019     37027     37025     37031     37027     37025     37032
     37027     37025     37033     37031     37025     37032     37031     37025     37033
     37032     37025     37033     37025     37027     37029     37025     37027     37030
     37029     37027     37030     37038     37036     37042     37038     37036     37043
     37038     37036     37044     37042     37036     37043     37042     37036     37044
     37043     37036     37044     37036     37038     37040     37036     37038     37041
     37040     37038     37041     37049     37047     37053     37049     37047     37054
     37049     37047     37055     37053     37047     37054     37053     37047     37055
     37054     37047     37055     37047     37049     37051     37047     37049     37052
     37051     37049     37052     37060     37058     37064     37060     37058     37065
     37060     37058     37066     37064     37058     37065     37064     37058     37066
     37065     37058     37066     37058     37060     37062     37058     37060     37063
     37062     37060     37063     37071     37069     37075     37071     37069     37076
     37071     37069     37077     37075     37069     37076     37075     37069     37077
     37076     37069     37077     37069     37071     37073     37069     37071     37074
     37073     37071     37074     37082     37080     37086     37082     37080     37087
     37082     37080     37088     37086     37080     37087     37086     37080     37088
     37087     37080     37088     37080     37082     37084     37080     37082     37085
     37084     37082     37085     37093     37091     37097     37093     37091     37098
     37093     37091     37099     37097     37091     37098     37097     37091     37099
     37098     37091     37099     37091     37093     37095     37091     37093     37096
     37095     37093     37096     37104     37102     37108     37104     37102     37109
     37104     37102     37110     37108     37102     37109     37108     37102     37110
     37109     37102     37110     37102     37104     37106     37102     37104     37107
     37106     37104     37107     37115     37113     37119     37115     37113     37120
     37115     37113     37121     37119     37113     37120     37119     37113     37121
     37120     37113     37121     37113     37115     37117     37113     37115     37118
     37117     37115     37118     37126     37124     37130     37126     37124     37131
     37126     37124     37132     37130     37124     37131     37130     37124     37132
     37131     37124     37132     37124     37126     37128     37124     37126     37129
     37128     37126     37129     37137     37135     37141     37137     37135     37142
     37137     37135     37143     37141     37135     37142     37141     37135     37143
     37142     37135     37143     37135     37137     37139     37135     37137     37140
     37139     37137     37140     37148     37146     37152     37148     37146     37153
     37148     37146     37154     37152     37146     37153     37152     37146     37154
     37153     37146     37154     37146     37148     37150     37146     37148     37151
     37150     37148     37151     37159     37157     37163     37159     37157     37164
     37159     37157     37165     37163     37157     37164     37163     37157     37165
     37164     37157     37165     37157     37159     37161     37157     37159     37162
     37161     37159     37162     37170     37168     37174     37170     37168     37175
     37170     37168     37176     37174     37168     37175     37174     37168     37176
     37175     37168     37176     37168     37170     37172     37168     37170     37173
     37172     37170     37173     37181     37179     37185     37181     37179     37186
     37181     37179     37187     37185     37179     37186     37185     37179     37187
     37186     37179     37187     37179     37181     37183     37179     37181     37184
     37183     37181     37184     37192     37190     37196     37192     37190     37197
     37192     37190     37198     37196     37190     37197     37196     37190     37198
     37197     37190     37198     37190     37192     37194     37190     37192     37195
     37194     37192     37195     37203     37201     37207     37203     37201     37208
     37203     37201     37209     37207     37201     37208     37207     37201     37209
     37208     37201     37209     37201     37203     37205     37201     37203     37206
     37205     37203     37206     37214     37212     37218     37214     37212     37219
     37214     37212     37220     37218     37212     37219     37218     37212     37220
     37219     37212     37220     37212     37214     37216     37212     37214     37217
     37216     37214     37217     37225     37223     37229     37225     37223     37230
     37225     37223     37231     37229     37223     37230     37229     37223     37231
     37230     37223     37231     37223     37225     37227     37223     37225     37228
     37227     37225     37228     37236     37234     37240     37236     37234     37241
     37236     37234     37242     37240     37234     37241     37240     37234     37242
     37241     37234     37242     37234     37236     37238     37234     37236     37239
     37238     37236     37239     37247     37245     37251     37247     37245     37252
     37247     37245     37253     37251     37245     37252     37251     37245     37253
     37252     37245     37253     37245     37247     37249     37245     37247     37250
     37249     37247     37250     37258     37256     37262     37258     37256     37263
     37258     37256     37264     37262     37256     37263     37262     37256     37264
     37263     37256     37264     37256     37258     37260     37256     37258     37261
     37260     37258     37261     37269     37267     37273     37269     37267     37274
     37269     37267     37275     37273     37267     37274     37273     37267     37275
     37274     37267     37275     37267     37269     37271     37267     37269     37272
     37271     37269     37272     37280     37278     37284     37280     37278     37285
     37280     37278     37286     37284     37278     37285     37284     37278     37286
     37285     37278     37286     37278     37280     37282     37278     37280     37283
     37282     37280     37283     37291     37289     37295     37291     37289     37296
     37291     37289     37297     37295     37289     37296     37295     37289     37297
     37296     37289     37297     37289     37291     37293     37289     37291     37294
     37293     37291     37294     37302     37300     37306     37302     37300     37307
     37302     37300     37308     37306     37300     37307     37306     37300     37308
     37307     37300     37308     37300     37302     37304     37300     37302     37305
     37304     37302     37305     37313     37311     37317     37313     37311     37318
     37313     37311     37319     37317     37311     37318     37317     37311     37319
     37318     37311     37319     37311     37313     37315     37311     37313     37316
     37315     37313     37316     37324     37322     37328     37324     37322     37329
     37324     37322     37330     37328     37322     37329     37328     37322     37330
     37329     37322     37330     37322     37324     37326     37322     37324     37327
     37326     37324     37327     37335     37333     37339     37335     37333     37340
     37335     37333     37341     37339     37333     37340     37339     37333     37341
     37340     37333     37341     37333     37335     37337     37333     37335     37338
     37337     37335     37338     37346     37344     37350     37346     37344     37351
     37346     37344     37352     37350     37344     37351     37350     37344     37352
     37351     37344     37352     37344     37346     37348     37344     37346     37349
     37348     37346     37349     37357     37355     37361     37357     37355     37362
     37357     37355     37363     37361     37355     37362     37361     37355     37363
     37362     37355     37363     37355     37357     37359     37355     37357     37360
     37359     37357     37360     37368     37366     37372     37368     37366     37373
     37368     37366     37374     37372     37366     37373     37372     37366     37374
     37373     37366     37374     37366     37368     37370     37366     37368     37371
     37370     37368     37371     37379     37377     37383     37379     37377     37384
     37379     37377     37385     37383     37377     37384     37383     37377     37385
     37384     37377     37385     37377     37379     37381     37377     37379     37382
     37381     37379     37382     37390     37388     37394     37390     37388     37395
     37390     37388     37396     37394     37388     37395     37394     37388     37396
     37395     37388     37396     37388     37390     37392     37388     37390     37393
     37392     37390     37393     37401     37399     37405     37401     37399     37406
     37401     37399     37407     37405     37399     37406     37405     37399     37407
     37406     37399     37407     37399     37401     37403     37399     37401     37404
     37403     37401     37404     37412     37410     37416     37412     37410     37417
     37412     37410     37418     37416     37410     37417     37416     37410     37418
     37417     37410     37418     37410     37412     37414     37410     37412     37415
     37414     37412     37415     37423     37421     37427     37423     37421     37428
     37423     37421     37429     37427     37421     37428     37427     37421     37429
     37428     37421     37429     37421     37423     37425     37421     37423     37426
     37425     37423     37426     37434     37432     37438     37434     37432     37439
     37434     37432     37440     37438     37432     37439     37438     37432     37440
     37439     37432     37440     37432     37434     37436     37432     37434     37437
     37436     37434     37437     37445     37443     37449     37445     37443     37450
     37445     37443     37451     37449     37443     37450     37449     37443     37451
     37450     37443     37451     37443     37445     37447     37443     37445     37448
     37447     37445     37448     37456     37454     37460     37456     37454     37461
     37456     37454     37462     37460     37454     37461     37460     37454     37462
     37461     37454     37462     37454     37456     37458     37454     37456     37459
     37458     37456     37459     37467     37465     37471     37467     37465     37472
     37467     37465     37473     37471     37465     37472     37471     37465     37473
     37472     37465     37473     37465     37467     37469     37465     37467     37470
     37469     37467     37470     37478     37476     37482     37478     37476     37483
     37478     37476     37484     37482     37476     37483     37482     37476     37484
     37483     37476     37484     37476     37478     37480     37476     37478     37481
     37480     37478     37481     37489     37487     37493     37489     37487     37494
     37489     37487     37495     37493     37487     37494     37493     37487     37495
     37494     37487     37495     37487     37489     37491     37487     37489     37492
     37491     37489     37492     37500     37498     37504     37500     37498     37505
     37500     37498     37506     37504     37498     37505     37504     37498     37506
     37505     37498     37506     37498     37500     37502     37498     37500     37503
     37502     37500     37503     37511     37509     37515     37511     37509     37516
     37511     37509     37517     37515     37509     37516     37515     37509     37517
     37516     37509     37517     37509     37511     37513     37509     37511     37514
     37513     37511     37514     37522     37520     37526     37522     37520     37527
     37522     37520     37528     37526     37520     37527     37526     37520     37528
     37527     37520     37528     37520     37522     37524     37520     37522     37525
     37524     37522     37525     37533     37531     37537     37533     37531     37538
     37533     37531     37539     37537     37531     37538     37537     37531     37539
     37538     37531     37539     37531     37533     37535     37531     37533     37536
     37535     37533     37536     37544     37542     37548     37544     37542     37549
     37544     37542     37550     37548     37542     37549     37548     37542     37550
     37549     37542     37550     37542     37544     37546     37542     37544     37547
     37546     37544     37547     37555     37553     37559     37555     37553     37560
     37555     37553     37561     37559     37553     37560     37559     37553     37561
     37560     37553     37561     37553     37555     37557     37553     37555     37558
     37557     37555     37558     37566     37564     37570     37566     37564     37571
     37566     37564     37572     37570     37564     37571     37570     37564     37572
     37571     37564     37572     37564     37566     37568     37564     37566     37569
     37568     37566     37569     37577     37575     37581     37577     37575     37582
     37577     37575     37583     37581     37575     37582     37581     37575     37583
     37582     37575     37583     37575     37577     37579     37575     37577     37580
     37579     37577     37580     37588     37586     37592     37588     37586     37593
     37588     37586     37594     37592     37586     37593     37592     37586     37594
     37593     37586     37594     37586     37588     37590     37586     37588     37591
     37590     37588     37591     37599     37597     37603     37599     37597     37604
     37599     37597     37605     37603     37597     37604     37603     37597     37605
     37604     37597     37605     37597     37599     37601     37597     37599     37602
     37601     37599     37602     37610     37608     37614     37610     37608     37615
     37610     37608     37616     37614     37608     37615     37614     37608     37616
     37615     37608     37616     37608     37610     37612     37608     37610     37613
     37612     37610     37613     37621     37619     37625     37621     37619     37626
     37621     37619     37627     37625     37619     37626     37625     37619     37627
     37626     37619     37627     37619     37621     37623     37619     37621     37624
     37623     37621     37624     37632     37630     37636     37632     37630     37637
     37632     37630     37638     37636     37630     37637     37636     37630     37638
     37637     37630     37638     37630     37632     37634     37630     37632     37635
     37634     37632     37635     37643     37641     37647     37643     37641     37648
     37643     37641     37649     37647     37641     37648     37647     37641     37649
     37648     37641     37649     37641     37643     37645     37641     37643     37646
     37645     37643     37646     37654     37652     37658     37654     37652     37659
     37654     37652     37660     37658     37652     37659     37658     37652     37660
     37659     37652     37660     37652     37654     37656     37652     37654     37657
     37656     37654     37657     37665     37663     37669     37665     37663     37670
     37665     37663     37671     37669     37663     37670     37669     37663     37671
     37670     37663     37671     37663     37665     37667     37663     37665     37668
     37667     37665     37668     37676     37674     37680     37676     37674     37681
     37676     37674     37682     37680     37674     37681     37680     37674     37682
     37681     37674     37682     37674     37676     37678     37674     37676     37679
     37678     37676     37679     37687     37685     37691     37687     37685     37692
     37687     37685     37693     37691     37685     37692     37691     37685     37693
     37692     37685     37693     37685     37687     37689     37685     37687     37690
     37689     37687     37690     37698     37696     37702     37698     37696     37703
     37698     37696     37704     37702     37696     37703     37702     37696     37704
     37703     37696     37704     37696     37698     37700     37696     37698     37701
     37700     37698     37701     37709     37707     37713     37709     37707     37714
     37709     37707     37715     37713     37707     37714     37713     37707     37715
     37714     37707     37715     37707     37709     37711     37707     37709     37712
     37711     37709     37712     37720     37718     37724     37720     37718     37725
     37720     37718     37726     37724     37718     37725     37724     37718     37726
     37725     37718     37726     37718     37720     37722     37718     37720     37723
     37722     37720     37723     37731     37729     37735     37731     37729     37736
     37731     37729     37737     37735     37729     37736     37735     37729     37737
     37736     37729     37737     37729     37731     37733     37729     37731     37734
     37733     37731     37734     37742     37740     37746     37742     37740     37747
     37742     37740     37748     37746     37740     37747     37746     37740     37748
     37747     37740     37748     37740     37742     37744     37740     37742     37745
     37744     37742     37745     37753     37751     37757     37753     37751     37758
     37753     37751     37759     37757     37751     37758     37757     37751     37759
     37758     37751     37759     37751     37753     37755     37751     37753     37756
     37755     37753     37756     37764     37762     37768     37764     37762     37769
     37764     37762     37770     37768     37762     37769     37768     37762     37770
     37769     37762     37770     37762     37764     37766     37762     37764     37767
     37766     37764     37767     37775     37773     37779     37775     37773     37780
     37775     37773     37781     37779     37773     37780     37779     37773     37781
     37780     37773     37781     37773     37775     37777     37773     37775     37778
     37777     37775     37778     37786     37784     37790     37786     37784     37791
     37786     37784     37792     37790     37784     37791     37790     37784     37792
     37791     37784     37792     37784     37786     37788     37784     37786     37789
     37788     37786     37789     37797     37795     37801     37797     37795     37802
     37797     37795     37803     37801     37795     37802     37801     37795     37803
     37802     37795     37803     37795     37797     37799     37795     37797     37800
     37799     37797     37800     37808     37806     37812     37808     37806     37813
     37808     37806     37814     37812     37806     37813     37812     37806     37814
     37813     37806     37814     37806     37808     37810     37806     37808     37811
     37810     37808     37811     37819     37817     37823     37819     37817     37824
     37819     37817     37825     37823     37817     37824     37823     37817     37825
     37824     37817     37825     37817     37819     37821     37817     37819     37822
     37821     37819     37822     37830     37828     37834     37830     37828     37835
     37830     37828     37836     37834     37828     37835     37834     37828     37836
     37835     37828     37836     37828     37830     37832     37828     37830     37833
     37832     37830     37833     37841     37839     37845     37841     37839     37846
     37841     37839     37847     37845     37839     37846     37845     37839     37847
     37846     37839     37847     37839     37841     37843     37839     37841     37844
     37843     37841     37844     37852     37850     37856     37852     37850     37857
     37852     37850     37858     37856     37850     37857     37856     37850     37858
     37857     37850     37858     37850     37852     37854     37850     37852     37855
     37854     37852     37855     37863     37861     37867     37863     37861     37868
     37863     37861     37869     37867     37861     37868     37867     37861     37869
     37868     37861     37869     37861     37863     37865     37861     37863     37866
     37865     37863     37866     37874     37872     37878     37874     37872     37879
     37874     37872     37880     37878     37872     37879     37878     37872     37880
     37879     37872     37880     37872     37874     37876     37872     37874     37877
     37876     37874     37877     37885     37883     37889     37885     37883     37890
     37885     37883     37891     37889     37883     37890     37889     37883     37891
     37890     37883     37891     37883     37885     37887     37883     37885     37888
     37887     37885     37888     37896     37894     37900     37896     37894     37901
     37896     37894     37902     37900     37894     37901     37900     37894     37902
     37901     37894     37902     37894     37896     37898     37894     37896     37899
     37898     37896     37899     37907     37905     37911     37907     37905     37912
     37907     37905     37913     37911     37905     37912     37911     37905     37913
     37912     37905     37913     37905     37907     37909     37905     37907     37910
     37909     37907     37910     37918     37916     37922     37918     37916     37923
     37918     37916     37924     37922     37916     37923     37922     37916     37924
     37923     37916     37924     37916     37918     37920     37916     37918     37921
     37920     37918     37921     37929     37927     37933     37929     37927     37934
     37929     37927     37935     37933     37927     37934     37933     37927     37935
     37934     37927     37935     37927     37929     37931     37927     37929     37932
     37931     37929     37932     37940     37938     37944     37940     37938     37945
     37940     37938     37946     37944     37938     37945     37944     37938     37946
     37945     37938     37946     37938     37940     37942     37938     37940     37943
     37942     37940     37943     37951     37949     37955     37951     37949     37956
     37951     37949     37957     37955     37949     37956     37955     37949     37957
     37956     37949     37957     37949     37951     37953     37949     37951     37954
     37953     37951     37954     37962     37960     37966     37962     37960     37967
     37962     37960     37968     37966     37960     37967     37966     37960     37968
     37967     37960     37968     37960     37962     37964     37960     37962     37965
     37964     37962     37965     37973     37971     37977     37973     37971     37978
     37973     37971     37979     37977     37971     37978     37977     37971     37979
     37978     37971     37979     37971     37973     37975     37971     37973     37976
     37975     37973     37976     37984     37982     37988     37984     37982     37989
     37984     37982     37990     37988     37982     37989     37988     37982     37990
     37989     37982     37990     37982     37984     37986     37982     37984     37987
     37986     37984     37987     37995     37993     37999     37995     37993     38000
     37995     37993     38001     37999     37993     38000     37999     37993     38001
     38000     37993     38001     37993     37995     37997     37993     37995     37998
     37997     37995     37998     38006     38004     38010     38006     38004     38011
     38006     38004     38012     38010     38004     38011     38010     38004     38012
     38011     38004     38012     38004     38006     38008     38004     38006     38009
     38008     38006     38009     38017     38015     38021     38017     38015     38022
     38017     38015     38023     38021     38015     38022     38021     38015     38023
     38022     38015     38023     38015     38017     38019     38015     38017     38020
     38019     38017     38020     38028     38026     38032     38028     38026     38033
     38028     38026     38034     38032     38026     38033     38032     38026     38034
     38033     38026     38034     38026     38028     38030     38026     38028     38031
     38030     38028     38031     38039     38037     38043     38039     38037     38044
     38039     38037     38045     38043     38037     38044     38043     38037     38045
     38044     38037     38045     38037     38039     38041     38037     38039     38042
     38041     38039     38042     38050     38048     38054     38050     38048     38055
     38050     38048     38056     38054     38048     38055     38054     38048     38056
     38055     38048     38056     38048     38050     38052     38048     38050     38053
     38052     38050     38053     38061     38059     38065     38061     38059     38066
     38061     38059     38067     38065     38059     38066     38065     38059     38067
     38066     38059     38067     38059     38061     38063     38059     38061     38064
     38063     38061     38064     38072     38070     38076     38072     38070     38077
     38072     38070     38078     38076     38070     38077     38076     38070     38078
     38077     38070     38078     38070     38072     38074     38070     38072     38075
     38074     38072     38075     38083     38081     38087     38083     38081     38088
     38083     38081     38089     38087     38081     38088     38087     38081     38089
     38088     38081     38089     38081     38083     38085     38081     38083     38086
     38085     38083     38086     38094     38092     38098     38094     38092     38099
     38094     38092     38100     38098     38092     38099     38098     38092     38100
     38099     38092     38100     38092     38094     38096     38092     38094     38097
     38096     38094     38097     38105     38103     38109     38105     38103     38110
     38105     38103     38111     38109     38103     38110     38109     38103     38111
     38110     38103     38111     38103     38105     38107     38103     38105     38108
     38107     38105     38108     38116     38114     38120     38116     38114     38121
     38116     38114     38122     38120     38114     38121     38120     38114     38122
     38121     38114     38122     38114     38116     38118     38114     38116     38119
     38118     38116     38119     38127     38125     38131     38127     38125     38132
     38127     38125     38133     38131     38125     38132     38131     38125     38133
     38132     38125     38133     38125     38127     38129     38125     38127     38130
     38129     38127     38130     38138     38136     38142     38138     38136     38143
     38138     38136     38144     38142     38136     38143     38142     38136     38144
     38143     38136     38144     38136     38138     38140     38136     38138     38141
     38140     38138     38141     38149     38147     38153     38149     38147     38154
     38149     38147     38155     38153     38147     38154     38153     38147     38155
     38154     38147     38155     38147     38149     38151     38147     38149     38152
     38151     38149     38152     38160     38158     38164     38160     38158     38165
     38160     38158     38166     38164     38158     38165     38164     38158     38166
     38165     38158     38166     38158     38160     38162     38158     38160     38163
     38162     38160     38163     38171     38169     38175     38171     38169     38176
     38171     38169     38177     38175     38169     38176     38175     38169     38177
     38176     38169     38177     38169     38171     38173     38169     38171     38174
     38173     38171     38174     38182     38180     38186     38182     38180     38187
     38182     38180     38188     38186     38180     38187     38186     38180     38188
     38187     38180     38188     38180     38182     38184     38180     38182     38185
     38184     38182     38185     38193     38191     38197     38193     38191     38198
     38193     38191     38199     38197     38191     38198     38197     38191     38199
     38198     38191     38199     38191     38193     38195     38191     38193     38196
     38195     38193     38196     38204     38202     38208     38204     38202     38209
     38204     38202     38210     38208     38202     38209     38208     38202     38210
     38209     38202     38210     38202     38204     38206     38202     38204     38207
     38206     38204     38207     38215     38213     38219     38215     38213     38220
     38215     38213     38221     38219     38213     38220     38219     38213     38221
     38220     38213     38221     38213     38215     38217     38213     38215     38218
     38217     38215     38218     38226     38224     38230     38226     38224     38231
     38226     38224     38232     38230     38224     38231     38230     38224     38232
     38231     38224     38232     38224     38226     38228     38224     38226     38229
     38228     38226     38229     38237     38235     38241     38237     38235     38242
     38237     38235     38243     38241     38235     38242     38241     38235     38243
     38242     38235     38243     38235     38237     38239     38235     38237     38240
     38239     38237     38240     38248     38246     38252     38248     38246     38253
     38248     38246     38254     38252     38246     38253     38252     38246     38254
     38253     38246     38254     38246     38248     38250     38246     38248     38251
     38250     38248     38251     38259     38257     38263     38259     38257     38264
     38259     38257     38265     38263     38257     38264     38263     38257     38265
     38264     38257     38265     38257     38259     38261     38257     38259     38262
     38261     38259     38262     38270     38268     38274     38270     38268     38275
     38270     38268     38276     38274     38268     38275     38274     38268     38276
     38275     38268     38276     38268     38270     38272     38268     38270     38273
     38272     38270     38273     38281     38279     38285     38281     38279     38286
     38281     38279     38287     38285     38279     38286     38285     38279     38287
     38286     38279     38287     38279     38281     38283     38279     38281     38284
     38283     38281     38284     38292     38290     38296     38292     38290     38297
     38292     38290     38298     38296     38290     38297     38296     38290     38298
     38297     38290     38298     38290     38292     38294     38290     38292     38295
     38294     38292     38295     38303     38301     38307     38303     38301     38308
     38303     38301     38309     38307     38301     38308     38307     38301     38309
     38308     38301     38309     38301     38303     38305     38301     38303     38306
     38305     38303     38306     38314     38312     38318     38314     38312     38319
     38314     38312     38320     38318     38312     38319     38318     38312     38320
     38319     38312     38320     38312     38314     38316     38312     38314     38317
     38316     38314     38317     38325     38323     38329     38325     38323     38330
     38325     38323     38331     38329     38323     38330     38329     38323     38331
     38330     38323     38331     38323     38325     38327     38323     38325     38328
     38327     38325     38328     38336     38334     38340     38336     38334     38341
     38336     38334     38342     38340     38334     38341     38340     38334     38342
     38341     38334     38342     38334     38336     38338     38334     38336     38339
     38338     38336     38339     38347     38345     38351     38347     38345     38352
     38347     38345     38353     38351     38345     38352     38351     38345     38353
     38352     38345     38353     38345     38347     38349     38345     38347     38350
     38349     38347     38350     38358     38356     38362     38358     38356     38363
     38358     38356     38364     38362     38356     38363     38362     38356     38364
     38363     38356     38364     38356     38358     38360     38356     38358     38361
     38360     38358     38361     38369     38367     38373     38369     38367     38374
     38369     38367     38375     38373     38367     38374     38373     38367     38375
     38374     38367     38375     38367     38369     38371     38367     38369     38372
     38371     38369     38372     38380     38378     38384     38380     38378     38385
     38380     38378     38386     38384     38378     38385     38384     38378     38386
     38385     38378     38386     38378     38380     38382     38378     38380     38383
     38382     38380     38383     38391     38389     38395     38391     38389     38396
     38391     38389     38397     38395     38389     38396     38395     38389     38397
     38396     38389     38397     38389     38391     38393     38389     38391     38394
     38393     38391     38394     38402     38400     38406     38402     38400     38407
     38402     38400     38408     38406     38400     38407     38406     38400     38408
     38407     38400     38408     38400     38402     38404     38400     38402     38405
     38404     38402     38405     38413     38411     38417     38413     38411     38418
     38413     38411     38419     38417     38411     38418     38417     38411     38419
     38418     38411     38419     38411     38413     38415     38411     38413     38416
     38415     38413     38416     38424     38422     38428     38424     38422     38429
     38424     38422     38430     38428     38422     38429     38428     38422     38430
     38429     38422     38430     38422     38424     38426     38422     38424     38427
     38426     38424     38427     38435     38433     38439     38435     38433     38440
     38435     38433     38441     38439     38433     38440     38439     38433     38441
     38440     38433     38441     38433     38435     38437     38433     38435     38438
     38437     38435     38438     38446     38444     38450     38446     38444     38451
     38446     38444     38452     38450     38444     38451     38450     38444     38452
     38451     38444     38452     38444     38446     38448     38444     38446     38449
     38448     38446     38449     38457     38455     38461     38457     38455     38462
     38457     38455     38463     38461     38455     38462     38461     38455     38463
     38462     38455     38463     38455     38457     38459     38455     38457     38460
     38459     38457     38460     38468     38466     38472     38468     38466     38473
     38468     38466     38474     38472     38466     38473     38472     38466     38474
     38473     38466     38474     38466     38468     38470     38466     38468     38471
     38470     38468     38471     38479     38477     38483     38479     38477     38484
     38479     38477     38485     38483     38477     38484     38483     38477     38485
     38484     38477     38485     38477     38479     38481     38477     38479     38482
     38481     38479     38482     38490     38488     38494     38490     38488     38495
     38490     38488     38496     38494     38488     38495     38494     38488     38496
     38495     38488     38496     38488     38490     38492     38488     38490     38493
     38492     38490     38493     38501     38499     38505     38501     38499     38506
     38501     38499     38507     38505     38499     38506     38505     38499     38507
     38506     38499     38507     38499     38501     38503     38499     38501     38504
     38503     38501     38504     38512     38510     38516     38512     38510     38517
     38512     38510     38518     38516     38510     38517     38516     38510     38518
     38517     38510     38518     38510     38512     38514     38510     38512     38515
     38514     38512     38515     38523     38521     38527     38523     38521     38528
     38523     38521     38529     38527     38521     38528     38527     38521     38529
     38528     38521     38529     38521     38523     38525     38521     38523     38526
     38525     38523     38526     38534     38532     38538     38534     38532     38539
     38534     38532     38540     38538     38532     38539     38538     38532     38540
     38539     38532     38540     38532     38534     38536     38532     38534     38537
     38536     38534     38537     38545     38543     38549     38545     38543     38550
     38545     38543     38551     38549     38543     38550     38549     38543     38551
     38550     38543     38551     38543     38545     38547     38543     38545     38548
     38547     38545     38548     38556     38554     38560     38556     38554     38561
     38556     38554     38562     38560     38554     38561     38560     38554     38562
     38561     38554     38562     38554     38556     38558     38554     38556     38559
     38558     38556     38559     38567     38565     38571     38567     38565     38572
     38567     38565     38573     38571     38565     38572     38571     38565     38573
     38572     38565     38573     38565     38567     38569     38565     38567     38570
     38569     38567     38570     38578     38576     38582     38578     38576     38583
     38578     38576     38584     38582     38576     38583     38582     38576     38584
     38583     38576     38584     38576     38578     38580     38576     38578     38581
     38580     38578     38581     38589     38587     38593     38589     38587     38594
     38589     38587     38595     38593     38587     38594     38593     38587     38595
     38594     38587     38595     38587     38589     38591     38587     38589     38592
     38591     38589     38592     38600     38598     38604     38600     38598     38605
     38600     38598     38606     38604     38598     38605     38604     38598     38606
     38605     38598     38606     38598     38600     38602     38598     38600     38603
     38602     38600     38603     38611     38609     38615     38611     38609     38616
     38611     38609     38617     38615     38609     38616     38615     38609     38617
     38616     38609     38617     38609     38611     38613     38609     38611     38614
     38613     38611     38614     38622     38620     38626     38622     38620     38627
     38622     38620     38628     38626     38620     38627     38626     38620     38628
     38627     38620     38628     38620     38622     38624     38620     38622     38625
     38624     38622     38625     38633     38631     38637     38633     38631     38638
     38633     38631     38639     38637     38631     38638     38637     38631     38639
     38638     38631     38639     38631     38633     38635     38631     38633     38636
     38635     38633     38636     38644     38642     38648     38644     38642     38649
     38644     38642     38650     38648     38642     38649     38648     38642     38650
     38649     38642     38650     38642     38644     38646     38642     38644     38647
     38646     38644     38647     38655     38653     38659     38655     38653     38660
     38655     38653     38661     38659     38653     38660     38659     38653     38661
     38660     38653     38661     38653     38655     38657     38653     38655     38658
     38657     38655     38658     38666     38664     38670     38666     38664     38671
     38666     38664     38672     38670     38664     38671     38670     38664     38672
     38671     38664     38672     38664     38666     38668     38664     38666     38669
     38668     38666     38669     38677     38675     38681     38677     38675     38682
     38677     38675     38683     38681     38675     38682     38681     38675     38683
     38682     38675     38683     38675     38677     38679     38675     38677     38680
     38679     38677     38680     38688     38686     38692     38688     38686     38693
     38688     38686     38694     38692     38686     38693     38692     38686     38694
     38693     38686     38694     38686     38688     38690     38686     38688     38691
     38690     38688     38691     38699     38697     38703     38699     38697     38704
     38699     38697     38705     38703     38697     38704     38703     38697     38705
     38704     38697     38705     38697     38699     38701     38697     38699     38702
     38701     38699     38702     38710     38708     38714     38710     38708     38715
     38710     38708     38716     38714     38708     38715     38714     38708     38716
     38715     38708     38716     38708     38710     38712     38708     38710     38713
     38712     38710     38713     38721     38719     38725     38721     38719     38726
     38721     38719     38727     38725     38719     38726     38725     38719     38727
     38726     38719     38727     38719     38721     38723     38719     38721     38724
     38723     38721     38724     38732     38730     38736     38732     38730     38737
     38732     38730     38738     38736     38730     38737     38736     38730     38738
     38737     38730     38738     38730     38732     38734     38730     38732     38735
     38734     38732     38735     38743     38741     38747     38743     38741     38748
     38743     38741     38749     38747     38741     38748     38747     38741     38749
     38748     38741     38749     38741     38743     38745     38741     38743     38746
     38745     38743     38746     38754     38752     38758     38754     38752     38759
     38754     38752     38760     38758     38752     38759     38758     38752     38760
     38759     38752     38760     38752     38754     38756     38752     38754     38757
     38756     38754     38757     38765     38763     38769     38765     38763     38770
     38765     38763     38771     38769     38763     38770     38769     38763     38771
     38770     38763     38771     38763     38765     38767     38763     38765     38768
     38767     38765     38768     38776     38774     38780     38776     38774     38781
     38776     38774     38782     38780     38774     38781     38780     38774     38782
     38781     38774     38782     38774     38776     38778     38774     38776     38779
     38778     38776     38779     38787     38785     38791     38787     38785     38792
     38787     38785     38793     38791     38785     38792     38791     38785     38793
     38792     38785     38793     38785     38787     38789     38785     38787     38790
     38789     38787     38790     38798     38796     38802     38798     38796     38803
     38798     38796     38804     38802     38796     38803     38802     38796     38804
     38803     38796     38804     38796     38798     38800     38796     38798     38801
     38800     38798     38801     38809     38807     38813     38809     38807     38814
     38809     38807     38815     38813     38807     38814     38813     38807     38815
     38814     38807     38815     38807     38809     38811     38807     38809     38812
     38811     38809     38812     38820     38818     38824     38820     38818     38825
     38820     38818     38826     38824     38818     38825     38824     38818     38826
     38825     38818     38826     38818     38820     38822     38818     38820     38823
     38822     38820     38823     38831     38829     38835     38831     38829     38836
     38831     38829     38837     38835     38829     38836     38835     38829     38837
     38836     38829     38837     38829     38831     38833     38829     38831     38834
     38833     38831     38834     38842     38840     38846     38842     38840     38847
     38842     38840     38848     38846     38840     38847     38846     38840     38848
     38847     38840     38848     38840     38842     38844     38840     38842     38845
     38844     38842     38845     38853     38851     38857     38853     38851     38858
     38853     38851     38859     38857     38851     38858     38857     38851     38859
     38858     38851     38859     38851     38853     38855     38851     38853     38856
     38855     38853     38856     38864     38862     38868     38864     38862     38869
     38864     38862     38870     38868     38862     38869     38868     38862     38870
     38869     38862     38870     38862     38864     38866     38862     38864     38867
     38866     38864     38867     38875     38873     38879     38875     38873     38880
     38875     38873     38881     38879     38873     38880     38879     38873     38881
     38880     38873     38881     38873     38875     38877     38873     38875     38878
     38877     38875     38878     38886     38884     38890     38886     38884     38891
     38886     38884     38892     38890     38884     38891     38890     38884     38892
     38891     38884     38892     38884     38886     38888     38884     38886     38889
     38888     38886     38889     38897     38895     38901     38897     38895     38902
     38897     38895     38903     38901     38895     38902     38901     38895     38903
     38902     38895     38903     38895     38897     38899     38895     38897     38900
     38899     38897     38900     38908     38906     38912     38908     38906     38913
     38908     38906     38914     38912     38906     38913     38912     38906     38914
     38913     38906     38914     38906     38908     38910     38906     38908     38911
     38910     38908     38911     38919     38917     38923     38919     38917     38924
     38919     38917     38925     38923     38917     38924     38923     38917     38925
     38924     38917     38925     38917     38919     38921     38917     38919     38922
     38921     38919     38922     38930     38928     38934     38930     38928     38935
     38930     38928     38936     38934     38928     38935     38934     38928     38936
     38935     38928     38936     38928     38930     38932     38928     38930     38933
     38932     38930     38933     38941     38939     38945     38941     38939     38946
     38941     38939     38947     38945     38939     38946     38945     38939     38947
     38946     38939     38947     38939     38941     38943     38939     38941     38944
     38943     38941     38944     38952     38950     38956     38952     38950     38957
     38952     38950     38958     38956     38950     38957     38956     38950     38958
     38957     38950     38958     38950     38952     38954     38950     38952     38955
     38954     38952     38955     38963     38961     38967     38963     38961     38968
     38963     38961     38969     38967     38961     38968     38967     38961     38969
     38968     38961     38969     38961     38963     38965     38961     38963     38966
     38965     38963     38966     38974     38972     38978     38974     38972     38979
     38974     38972     38980     38978     38972     38979     38978     38972     38980
     38979     38972     38980     38972     38974     38976     38972     38974     38977
     38976     38974     38977     38985     38983     38989     38985     38983     38990
     38985     38983     38991     38989     38983     38990     38989     38983     38991
     38990     38983     38991     38983     38985     38987     38983     38985     38988
     38987     38985     38988     38996     38994     39000     38996     38994     39001
     38996     38994     39002     39000     38994     39001     39000     38994     39002
     39001     38994     39002     38994     38996     38998     38994     38996     38999
     38998     38996     38999     39007     39005     39011     39007     39005     39012
     39007     39005     39013     39011     39005     39012     39011     39005     39013
     39012     39005     39013     39005     39007     39009     39005     39007     39010
     39009     39007     39010     39018     39016     39022     39018     39016     39023
     39018     39016     39024     39022     39016     39023     39022     39016     39024
     39023     39016     39024     39016     39018     39020     39016     39018     39021
     39020     39018     39021     39029     39027     39033     39029     39027     39034
     39029     39027     39035     39033     39027     39034     39033     39027     39035
     39034     39027     39035     39027     39029     39031     39027     39029     39032
     39031     39029     39032     39040     39038     39044     39040     39038     39045
     39040     39038     39046     39044     39038     39045     39044     39038     39046
     39045     39038     39046     39038     39040     39042     39038     39040     39043
     39042     39040     39043     39051     39049     39055     39051     39049     39056
     39051     39049     39057     39055     39049     39056     39055     39049     39057
     39056     39049     39057     39049     39051     39053     39049     39051     39054
     39053     39051     39054     39062     39060     39066     39062     39060     39067
     39062     39060     39068     39066     39060     39067     39066     39060     39068
     39067     39060     39068     39060     39062     39064     39060     39062     39065
     39064     39062     39065     39073     39071     39077     39073     39071     39078
     39073     39071     39079     39077     39071     39078     39077     39071     39079
     39078     39071     39079     39071     39073     39075     39071     39073     39076
     39075     39073     39076     39084     39082     39088     39084     39082     39089
     39084     39082     39090     39088     39082     39089     39088     39082     39090
     39089     39082     39090     39082     39084     39086     39082     39084     39087
     39086     39084     39087     39095     39093     39099     39095     39093     39100
     39095     39093     39101     39099     39093     39100     39099     39093     39101
     39100     39093     39101     39093     39095     39097     39093     39095     39098
     39097     39095     39098     39106     39104     39110     39106     39104     39111
     39106     39104     39112     39110     39104     39111     39110     39104     39112
     39111     39104     39112     39104     39106     39108     39104     39106     39109
     39108     39106     39109     39117     39115     39121     39117     39115     39122
     39117     39115     39123     39121     39115     39122     39121     39115     39123
     39122     39115     39123     39115     39117     39119     39115     39117     39120
     39119     39117     39120     39128     39126     39132     39128     39126     39133
     39128     39126     39134     39132     39126     39133     39132     39126     39134
     39133     39126     39134     39126     39128     39130     39126     39128     39131
     39130     39128     39131     39139     39137     39143     39139     39137     39144
     39139     39137     39145     39143     39137     39144     39143     39137     39145
     39144     39137     39145     39137     39139     39141     39137     39139     39142
     39141     39139     39142     39150     39148     39154     39150     39148     39155
     39150     39148     39156     39154     39148     39155     39154     39148     39156
     39155     39148     39156     39148     39150     39152     39148     39150     39153
     39152     39150     39153     39161     39159     39165     39161     39159     39166
     39161     39159     39167     39165     39159     39166     39165     39159     39167
     39166     39159     39167     39159     39161     39163     39159     39161     39164
     39163     39161     39164     39172     39170     39176     39172     39170     39177
     39172     39170     39178     39176     39170     39177     39176     39170     39178
     39177     39170     39178     39170     39172     39174     39170     39172     39175
     39174     39172     39175     39183     39181     39187     39183     39181     39188
     39183     39181     39189     39187     39181     39188     39187     39181     39189
     39188     39181     39189     39181     39183     39185     39181     39183     39186
     39185     39183     39186     39194     39192     39198     39194     39192     39199
     39194     39192     39200     39198     39192     39199     39198     39192     39200
     39199     39192     39200     39192     39194     39196     39192     39194     39197
     39196     39194     39197     39205     39203     39209     39205     39203     39210
     39205     39203     39211     39209     39203     39210     39209     39203     39211
     39210     39203     39211     39203     39205     39207     39203     39205     39208
     39207     39205     39208     39216     39214     39220     39216     39214     39221
     39216     39214     39222     39220     39214     39221     39220     39214     39222
     39221     39214     39222     39214     39216     39218     39214     39216     39219
     39218     39216     39219     39227     39225     39231     39227     39225     39232
     39227     39225     39233     39231     39225     39232     39231     39225     39233
     39232     39225     39233     39225     39227     39229     39225     39227     39230
     39229     39227     39230     39238     39236     39242     39238     39236     39243
     39238     39236     39244     39242     39236     39243     39242     39236     39244
     39243     39236     39244     39236     39238     39240     39236     39238     39241
     39240     39238     39241     39249     39247     39253     39249     39247     39254
     39249     39247     39255     39253     39247     39254     39253     39247     39255
     39254     39247     39255     39247     39249     39251     39247     39249     39252
     39251     39249     39252     39260     39258     39264     39260     39258     39265
     39260     39258     39266     39264     39258     39265     39264     39258     39266
     39265     39258     39266     39258     39260     39262     39258     39260     39263
     39262     39260     39263     39271     39269     39275     39271     39269     39276
     39271     39269     39277     39275     39269     39276     39275     39269     39277
     39276     39269     39277     39269     39271     39273     39269     39271     39274
     39273     39271     39274     39282     39280     39286     39282     39280     39287
     39282     39280     39288     39286     39280     39287     39286     39280     39288
     39287     39280     39288     39280     39282     39284     39280     39282     39285
     39284     39282     39285     39293     39291     39297     39293     39291     39298
     39293     39291     39299     39297     39291     39298     39297     39291     39299
     39298     39291     39299     39291     39293     39295     39291     39293     39296
     39295     39293     39296     39304     39302     39308     39304     39302     39309
     39304     39302     39310     39308     39302     39309     39308     39302     39310
     39309     39302     39310     39302     39304     39306     39302     39304     39307
     39306     39304     39307     39315     39313     39319     39315     39313     39320
     39315     39313     39321     39319     39313     39320     39319     39313     39321
     39320     39313     39321     39313     39315     39317     39313     39315     39318
     39317     39315     39318     39326     39324     39330     39326     39324     39331
     39326     39324     39332     39330     39324     39331     39330     39324     39332
     39331     39324     39332     39324     39326     39328     39324     39326     39329
     39328     39326     39329     39337     39335     39341     39337     39335     39342
     39337     39335     39343     39341     39335     39342     39341     39335     39343
     39342     39335     39343     39335     39337     39339     39335     39337     39340
     39339     39337     39340     39348     39346     39352     39348     39346     39353
     39348     39346     39354     39352     39346     39353     39352     39346     39354
     39353     39346     39354     39346     39348     39350     39346     39348     39351
     39350     39348     39351     39359     39357     39363     39359     39357     39364
     39359     39357     39365     39363     39357     39364     39363     39357     39365
     39364     39357     39365     39357     39359     39361     39357     39359     39362
     39361     39359     39362     39370     39368     39374     39370     39368     39375
     39370     39368     39376     39374     39368     39375     39374     39368     39376
     39375     39368     39376     39368     39370     39372     39368     39370     39373
     39372     39370     39373     39381     39379     39385     39381     39379     39386
     39381     39379     39387     39385     39379     39386     39385     39379     39387
     39386     39379     39387     39379     39381     39383     39379     39381     39384
     39383     39381     39384     39392     39390     39396     39392     39390     39397
     39392     39390     39398     39396     39390     39397     39396     39390     39398
     39397     39390     39398     39390     39392     39394     39390     39392     39395
     39394     39392     39395     39403     39401     39407     39403     39401     39408
     39403     39401     39409     39407     39401     39408     39407     39401     39409
     39408     39401     39409     39401     39403     39405     39401     39403     39406
     39405     39403     39406     39414     39412     39418     39414     39412     39419
     39414     39412     39420     39418     39412     39419     39418     39412     39420
     39419     39412     39420     39412     39414     39416     39412     39414     39417
     39416     39414     39417     39425     39423     39429     39425     39423     39430
     39425     39423     39431     39429     39423     39430     39429     39423     39431
     39430     39423     39431     39423     39425     39427     39423     39425     39428
     39427     39425     39428     39436     39434     39440     39436     39434     39441
     39436     39434     39442     39440     39434     39441     39440     39434     39442
     39441     39434     39442     39434     39436     39438     39434     39436     39439
     39438     39436     39439     39447     39445     39451     39447     39445     39452
     39447     39445     39453     39451     39445     39452     39451     39445     39453
     39452     39445     39453     39445     39447     39449     39445     39447     39450
     39449     39447     39450     39458     39456     39462     39458     39456     39463
     39458     39456     39464     39462     39456     39463     39462     39456     39464
     39463     39456     39464     39456     39458     39460     39456     39458     39461
     39460     39458     39461     39469     39467     39473     39469     39467     39474
     39469     39467     39475     39473     39467     39474     39473     39467     39475
     39474     39467     39475     39467     39469     39471     39467     39469     39472
     39471     39469     39472     39480     39478     39484     39480     39478     39485
     39480     39478     39486     39484     39478     39485     39484     39478     39486
     39485     39478     39486     39478     39480     39482     39478     39480     39483
     39482     39480     39483     39491     39489     39495     39491     39489     39496
     39491     39489     39497     39495     39489     39496     39495     39489     39497
     39496     39489     39497     39489     39491     39493     39489     39491     39494
     39493     39491     39494     39502     39500     39506     39502     39500     39507
     39502     39500     39508     39506     39500     39507     39506     39500     39508
     39507     39500     39508     39500     39502     39504     39500     39502     39505
     39504     39502     39505     39513     39511     39517     39513     39511     39518
     39513     39511     39519     39517     39511     39518     39517     39511     39519
     39518     39511     39519     39511     39513     39515     39511     39513     39516
     39515     39513     39516     39524     39522     39528     39524     39522     39529
     39524     39522     39530     39528     39522     39529     39528     39522     39530
     39529     39522     39530     39522     39524     39526     39522     39524     39527
     39526     39524     39527     39535     39533     39539     39535     39533     39540
     39535     39533     39541     39539     39533     39540     39539     39533     39541
     39540     39533     39541     39533     39535     39537     39533     39535     39538
     39537     39535     39538     39546     39544     39550     39546     39544     39551
     39546     39544     39552     39550     39544     39551     39550     39544     39552
     39551     39544     39552     39544     39546     39548     39544     39546     39549
     39548     39546     39549     39557     39555     39561     39557     39555     39562
     39557     39555     39563     39561     39555     39562     39561     39555     39563
     39562     39555     39563     39555     39557     39559     39555     39557     39560
     39559     39557     39560     39568     39566     39572     39568     39566     39573
     39568     39566     39574     39572     39566     39573     39572     39566     39574
     39573     39566     39574     39566     39568     39570     39566     39568     39571
     39570     39568     39571     39579     39577     39583     39579     39577     39584
     39579     39577     39585     39583     39577     39584     39583     39577     39585
     39584     39577     39585     39577     39579     39581     39577     39579     39582
     39581     39579     39582     39590     39588     39594     39590     39588     39595
     39590     39588     39596     39594     39588     39595     39594     39588     39596
     39595     39588     39596     39588     39590     39592     39588     39590     39593
     39592     39590     39593     39601     39599     39605     39601     39599     39606
     39601     39599     39607     39605     39599     39606     39605     39599     39607
     39606     39599     39607     39599     39601     39603     39599     39601     39604
     39603     39601     39604     39612     39610     39616     39612     39610     39617
     39612     39610     39618     39616     39610     39617     39616     39610     39618
     39617     39610     39618     39610     39612     39614     39610     39612     39615
     39614     39612     39615     39623     39621     39627     39623     39621     39628
     39623     39621     39629     39627     39621     39628     39627     39621     39629
     39628     39621     39629     39621     39623     39625     39621     39623     39626
     39625     39623     39626     39634     39632     39638     39634     39632     39639
     39634     39632     39640     39638     39632     39639     39638     39632     39640
     39639     39632     39640     39632     39634     39636     39632     39634     39637
     39636     39634     39637     39645     39643     39649     39645     39643     39650
     39645     39643     39651     39649     39643     39650     39649     39643     39651
     39650     39643     39651     39643     39645     39647     39643     39645     39648
     39647     39645     39648     39656     39654     39660     39656     39654     39661
     39656     39654     39662     39660     39654     39661     39660     39654     39662
     39661     39654     39662     39654     39656     39658     39654     39656     39659
     39658     39656     39659     39667     39665     39671     39667     39665     39672
     39667     39665     39673     39671     39665     39672     39671     39665     39673
     39672     39665     39673     39665     39667     39669     39665     39667     39670
     39669     39667     39670     39678     39676     39682     39678     39676     39683
     39678     39676     39684     39682     39676     39683     39682     39676     39684
     39683     39676     39684     39676     39678     39680     39676     39678     39681
     39680     39678     39681     39689     39687     39693     39689     39687     39694
     39689     39687     39695     39693     39687     39694     39693     39687     39695
     39694     39687     39695     39687     39689     39691     39687     39689     39692
     39691     39689     39692     39700     39698     39704     39700     39698     39705
     39700     39698     39706     39704     39698     39705     39704     39698     39706
     39705     39698     39706     39698     39700     39702     39698     39700     39703
     39702     39700     39703     39711     39709     39715     39711     39709     39716
     39711     39709     39717     39715     39709     39716     39715     39709     39717
     39716     39709     39717     39709     39711     39713     39709     39711     39714
     39713     39711     39714     39722     39720     39726     39722     39720     39727
     39722     39720     39728     39726     39720     39727     39726     39720     39728
     39727     39720     39728     39720     39722     39724     39720     39722     39725
     39724     39722     39725     39733     39731     39737     39733     39731     39738
     39733     39731     39739     39737     39731     39738     39737     39731     39739
     39738     39731     39739     39731     39733     39735     39731     39733     39736
     39735     39733     39736     39744     39742     39748     39744     39742     39749
     39744     39742     39750     39748     39742     39749     39748     39742     39750
     39749     39742     39750     39742     39744     39746     39742     39744     39747
     39746     39744     39747     39755     39753     39759     39755     39753     39760
     39755     39753     39761     39759     39753     39760     39759     39753     39761
     39760     39753     39761     39753     39755     39757     39753     39755     39758
     39757     39755     39758     39766     39764     39770     39766     39764     39771
     39766     39764     39772     39770     39764     39771     39770     39764     39772
     39771     39764     39772     39764     39766     39768     39764     39766     39769
     39768     39766     39769     39777     39775     39781     39777     39775     39782
     39777     39775     39783     39781     39775     39782     39781     39775     39783
     39782     39775     39783     39775     39777     39779     39775     39777     39780
     39779     39777     39780     39788     39786     39792     39788     39786     39793
     39788     39786     39794     39792     39786     39793     39792     39786     39794
     39793     39786     39794     39786     39788     39790     39786     39788     39791
     39790     39788     39791     39799     39797     39803     39799     39797     39804
     39799     39797     39805     39803     39797     39804     39803     39797     39805
     39804     39797     39805     39797     39799     39801     39797     39799     39802
     39801     39799     39802     39810     39808     39814     39810     39808     39815
     39810     39808     39816     39814     39808     39815     39814     39808     39816
     39815     39808     39816     39808     39810     39812     39808     39810     39813
     39812     39810     39813     39821     39819     39825     39821     39819     39826
     39821     39819     39827     39825     39819     39826     39825     39819     39827
     39826     39819     39827     39819     39821     39823     39819     39821     39824
     39823     39821     39824     39832     39830     39836     39832     39830     39837
     39832     39830     39838     39836     39830     39837     39836     39830     39838
     39837     39830     39838     39830     39832     39834     39830     39832     39835
     39834     39832     39835     39843     39841     39847     39843     39841     39848
     39843     39841     39849     39847     39841     39848     39847     39841     39849
     39848     39841     39849     39841     39843     39845     39841     39843     39846
     39845     39843     39846     39854     39852     39858     39854     39852     39859
     39854     39852     39860     39858     39852     39859     39858     39852     39860
     39859     39852     39860     39852     39854     39856     39852     39854     39857
     39856     39854     39857     39865     39863     39869     39865     39863     39870
     39865     39863     39871     39869     39863     39870     39869     39863     39871
     39870     39863     39871     39863     39865     39867     39863     39865     39868
     39867     39865     39868     39876     39874     39880     39876     39874     39881
     39876     39874     39882     39880     39874     39881     39880     39874     39882
     39881     39874     39882     39874     39876     39878     39874     39876     39879
     39878     39876     39879     39887     39885     39891     39887     39885     39892
     39887     39885     39893     39891     39885     39892     39891     39885     39893
     39892     39885     39893     39885     39887     39889     39885     39887     39890
     39889     39887     39890     39898     39896     39902     39898     39896     39903
     39898     39896     39904     39902     39896     39903     39902     39896     39904
     39903     39896     39904     39896     39898     39900     39896     39898     39901
     39900     39898     39901     39909     39907     39913     39909     39907     39914
     39909     39907     39915     39913     39907     39914     39913     39907     39915
     39914     39907     39915     39907     39909     39911     39907     39909     39912
     39911     39909     39912     39920     39918     39924     39920     39918     39925
     39920     39918     39926     39924     39918     39925     39924     39918     39926
     39925     39918     39926     39918     39920     39922     39918     39920     39923
     39922     39920     39923     39931     39929     39935     39931     39929     39936
     39931     39929     39937     39935     39929     39936     39935     39929     39937
     39936     39929     39937     39929     39931     39933     39929     39931     39934
     39933     39931     39934     39942     39940     39946     39942     39940     39947
     39942     39940     39948     39946     39940     39947     39946     39940     39948
     39947     39940     39948     39940     39942     39944     39940     39942     39945
     39944     39942     39945     39953     39951     39957     39953     39951     39958
     39953     39951     39959     39957     39951     39958     39957     39951     39959
     39958     39951     39959     39951     39953     39955     39951     39953     39956
     39955     39953     39956     39964     39962     39968     39964     39962     39969
     39964     39962     39970     39968     39962     39969     39968     39962     39970
     39969     39962     39970     39962     39964     39966     39962     39964     39967
     39966     39964     39967     39975     39973     39979     39975     39973     39980
     39975     39973     39981     39979     39973     39980     39979     39973     39981
     39980     39973     39981     39973     39975     39977     39973     39975     39978
     39977     39975     39978     39986     39984     39990     39986     39984     39991
     39986     39984     39992     39990     39984     39991     39990     39984     39992
     39991     39984     39992     39984     39986     39988     39984     39986     39989
     39988     39986     39989     39997     39995     40001     39997     39995     40002
     39997     39995     40003     40001     39995     40002     40001     39995     40003
     40002     39995     40003     39995     39997     39999     39995     39997     40000
     39999     39997     40000     40008     40006     40012     40008     40006     40013
     40008     40006     40014     40012     40006     40013     40012     40006     40014
     40013     40006     40014     40006     40008     40010     40006     40008     40011
     40010     40008     40011     40019     40017     40023     40019     40017     40024
     40019     40017     40025     40023     40017     40024     40023     40017     40025
     40024     40017     40025     40017     40019     40021     40017     40019     40022
     40021     40019     40022     40030     40028     40034     40030     40028     40035
     40030     40028     40036     40034     40028     40035     40034     40028     40036
     40035     40028     40036     40028     40030     40032     40028     40030     40033
     40032     40030     40033     40041     40039     40045     40041     40039     40046
     40041     40039     40047     40045     40039     40046     40045     40039     40047
     40046     40039     40047     40039     40041     40043     40039     40041     40044
     40043     40041     40044     40052     40050     40056     40052     40050     40057
     40052     40050     40058     40056     40050     40057     40056     40050     40058
     40057     40050     40058     40050     40052     40054     40050     40052     40055
     40054     40052     40055     40063     40061     40067     40063     40061     40068
     40063     40061     40069     40067     40061     40068     40067     40061     40069
     40068     40061     40069     40061     40063     40065     40061     40063     40066
     40065     40063     40066     40074     40072     40078     40074     40072     40079
     40074     40072     40080     40078     40072     40079     40078     40072     40080
     40079     40072     40080     40072     40074     40076     40072     40074     40077
     40076     40074     40077     40085     40083     40089     40085     40083     40090
     40085     40083     40091     40089     40083     40090     40089     40083     40091
     40090     40083     40091     40083     40085     40087     40083     40085     40088
     40087     40085     40088     40096     40094     40100     40096     40094     40101
     40096     40094     40102     40100     40094     40101     40100     40094     40102
     40101     40094     40102     40094     40096     40098     40094     40096     40099
     40098     40096     40099     40107     40105     40111     40107     40105     40112
     40107     40105     40113     40111     40105     40112     40111     40105     40113
     40112     40105     40113     40105     40107     40109     40105     40107     40110
     40109     40107     40110     40118     40116     40122     40118     40116     40123
     40118     40116     40124     40122     40116     40123     40122     40116     40124
     40123     40116     40124     40116     40118     40120     40116     40118     40121
     40120     40118     40121     40129     40127     40133     40129     40127     40134
     40129     40127     40135     40133     40127     40134     40133     40127     40135
     40134     40127     40135     40127     40129     40131     40127     40129     40132
     40131     40129     40132     40140     40138     40144     40140     40138     40145
     40140     40138     40146     40144     40138     40145     40144     40138     40146
     40145     40138     40146     40138     40140     40142     40138     40140     40143
     40142     40140     40143     40151     40149     40155     40151     40149     40156
     40151     40149     40157     40155     40149     40156     40155     40149     40157
     40156     40149     40157     40149     40151     40153     40149     40151     40154
     40153     40151     40154     40162     40160     40166     40162     40160     40167
     40162     40160     40168     40166     40160     40167     40166     40160     40168
     40167     40160     40168     40160     40162     40164     40160     40162     40165
     40164     40162     40165     40173     40171     40177     40173     40171     40178
     40173     40171     40179     40177     40171     40178     40177     40171     40179
     40178     40171     40179     40171     40173     40175     40171     40173     40176
     40175     40173     40176     40184     40182     40188     40184     40182     40189
     40184     40182     40190     40188     40182     40189     40188     40182     40190
     40189     40182     40190     40182     40184     40186     40182     40184     40187
     40186     40184     40187     40195     40193     40199     40195     40193     40200
     40195     40193     40201     40199     40193     40200     40199     40193     40201
     40200     40193     40201     40193     40195     40197     40193     40195     40198
     40197     40195     40198     40206     40204     40210     40206     40204     40211
     40206     40204     40212     40210     40204     40211     40210     40204     40212
     40211     40204     40212     40204     40206     40208     40204     40206     40209
     40208     40206     40209     40217     40215     40221     40217     40215     40222
     40217     40215     40223     40221     40215     40222     40221     40215     40223
     40222     40215     40223     40215     40217     40219     40215     40217     40220
     40219     40217     40220     40228     40226     40232     40228     40226     40233
     40228     40226     40234     40232     40226     40233     40232     40226     40234
     40233     40226     40234     40226     40228     40230     40226     40228     40231
     40230     40228     40231     40239     40237     40243     40239     40237     40244
     40239     40237     40245     40243     40237     40244     40243     40237     40245
     40244     40237     40245     40237     40239     40241     40237     40239     40242
     40241     40239     40242     40250     40248     40254     40250     40248     40255
     40250     40248     40256     40254     40248     40255     40254     40248     40256
     40255     40248     40256     40248     40250     40252     40248     40250     40253
     40252     40250     40253     40261     40259     40265     40261     40259     40266
     40261     40259     40267     40265     40259     40266     40265     40259     40267
     40266     40259     40267     40259     40261     40263     40259     40261     40264
     40263     40261     40264     40272     40270     40276     40272     40270     40277
     40272     40270     40278     40276     40270     40277     40276     40270     40278
     40277     40270     40278     40270     40272     40274     40270     40272     40275
     40274     40272     40275     40283     40281     40287     40283     40281     40288
     40283     40281     40289     40287     40281     40288     40287     40281     40289
     40288     40281     40289     40281     40283     40285     40281     40283     40286
     40285     40283     40286     40294     40292     40298     40294     40292     40299
     40294     40292     40300     40298     40292     40299     40298     40292     40300
     40299     40292     40300     40292     40294     40296     40292     40294     40297
     40296     40294     40297     40305     40303     40309     40305     40303     40310
     40305     40303     40311     40309     40303     40310     40309     40303     40311
     40310     40303     40311     40303     40305     40307     40303     40305     40308
     40307     40305     40308     40316     40314     40320     40316     40314     40321
     40316     40314     40322     40320     40314     40321     40320     40314     40322
     40321     40314     40322     40314     40316     40318     40314     40316     40319
     40318     40316     40319     40327     40325     40331     40327     40325     40332
     40327     40325     40333     40331     40325     40332     40331     40325     40333
     40332     40325     40333     40325     40327     40329     40325     40327     40330
     40329     40327     40330     40338     40336     40342     40338     40336     40343
     40338     40336     40344     40342     40336     40343     40342     40336     40344
     40343     40336     40344     40336     40338     40340     40336     40338     40341
     40340     40338     40341     40349     40347     40353     40349     40347     40354
     40349     40347     40355     40353     40347     40354     40353     40347     40355
     40354     40347     40355     40347     40349     40351     40347     40349     40352
     40351     40349     40352     40360     40358     40364     40360     40358     40365
     40360     40358     40366     40364     40358     40365     40364     40358     40366
     40365     40358     40366     40358     40360     40362     40358     40360     40363
     40362     40360     40363     40371     40369     40375     40371     40369     40376
     40371     40369     40377     40375     40369     40376     40375     40369     40377
     40376     40369     40377     40369     40371     40373     40369     40371     40374
     40373     40371     40374     40382     40380     40386     40382     40380     40387
     40382     40380     40388     40386     40380     40387     40386     40380     40388
     40387     40380     40388     40380     40382     40384     40380     40382     40385
     40384     40382     40385     40393     40391     40397     40393     40391     40398
     40393     40391     40399     40397     40391     40398     40397     40391     40399
     40398     40391     40399     40391     40393     40395     40391     40393     40396
     40395     40393     40396     40404     40402     40408     40404     40402     40409
     40404     40402     40410     40408     40402     40409     40408     40402     40410
     40409     40402     40410     40402     40404     40406     40402     40404     40407
     40406     40404     40407     40415     40413     40419     40415     40413     40420
     40415     40413     40421     40419     40413     40420     40419     40413     40421
     40420     40413     40421     40413     40415     40417     40413     40415     40418
     40417     40415     40418     40426     40424     40430     40426     40424     40431
     40426     40424     40432     40430     40424     40431     40430     40424     40432
     40431     40424     40432     40424     40426     40428     40424     40426     40429
     40428     40426     40429     40437     40435     40441     40437     40435     40442
     40437     40435     40443     40441     40435     40442     40441     40435     40443
     40442     40435     40443     40435     40437     40439     40435     40437     40440
     40439     40437     40440     40448     40446     40452     40448     40446     40453
     40448     40446     40454     40452     40446     40453     40452     40446     40454
     40453     40446     40454     40446     40448     40450     40446     40448     40451
     40450     40448     40451     40459     40457     40463     40459     40457     40464
     40459     40457     40465     40463     40457     40464     40463     40457     40465
     40464     40457     40465     40457     40459     40461     40457     40459     40462
     40461     40459     40462     40470     40468     40474     40470     40468     40475
     40470     40468     40476     40474     40468     40475     40474     40468     40476
     40475     40468     40476     40468     40470     40472     40468     40470     40473
     40472     40470     40473     40481     40479     40485     40481     40479     40486
     40481     40479     40487     40485     40479     40486     40485     40479     40487
     40486     40479     40487     40479     40481     40483     40479     40481     40484
     40483     40481     40484     40492     40490     40496     40492     40490     40497
     40492     40490     40498     40496     40490     40497     40496     40490     40498
     40497     40490     40498     40490     40492     40494     40490     40492     40495
     40494     40492     40495     40503     40501     40507     40503     40501     40508
     40503     40501     40509     40507     40501     40508     40507     40501     40509
     40508     40501     40509     40501     40503     40505     40501     40503     40506
     40505     40503     40506     40514     40512     40518     40514     40512     40519
     40514     40512     40520     40518     40512     40519     40518     40512     40520
     40519     40512     40520     40512     40514     40516     40512     40514     40517
     40516     40514     40517     40525     40523     40529     40525     40523     40530
     40525     40523     40531     40529     40523     40530     40529     40523     40531
     40530     40523     40531     40523     40525     40527     40523     40525     40528
     40527     40525     40528     40536     40534     40540     40536     40534     40541
     40536     40534     40542     40540     40534     40541     40540     40534     40542
     40541     40534     40542     40534     40536     40538     40534     40536     40539
     40538     40536     40539     40547     40545     40551     40547     40545     40552
     40547     40545     40553     40551     40545     40552     40551     40545     40553
     40552     40545     40553     40545     40547     40549     40545     40547     40550
     40549     40547     40550     40558     40556     40562     40558     40556     40563
     40558     40556     40564     40562     40556     40563     40562     40556     40564
     40563     40556     40564     40556     40558     40560     40556     40558     40561
     40560     40558     40561     40569     40567     40573     40569     40567     40574
     40569     40567     40575     40573     40567     40574     40573     40567     40575
     40574     40567     40575     40567     40569     40571     40567     40569     40572
     40571     40569     40572     40580     40578     40584     40580     40578     40585
     40580     40578     40586     40584     40578     40585     40584     40578     40586
     40585     40578     40586     40578     40580     40582     40578     40580     40583
     40582     40580     40583     40591     40589     40595     40591     40589     40596
     40591     40589     40597     40595     40589     40596     40595     40589     40597
     40596     40589     40597     40589     40591     40593     40589     40591     40594
     40593     40591     40594     40602     40600     40606     40602     40600     40607
     40602     40600     40608     40606     40600     40607     40606     40600     40608
     40607     40600     40608     40600     40602     40604     40600     40602     40605
     40604     40602     40605     40613     40611     40617     40613     40611     40618
     40613     40611     40619     40617     40611     40618     40617     40611     40619
     40618     40611     40619     40611     40613     40615     40611     40613     40616
     40615     40613     40616     40624     40622     40628     40624     40622     40629
     40624     40622     40630     40628     40622     40629     40628     40622     40630
     40629     40622     40630     40622     40624     40626     40622     40624     40627
     40626     40624     40627     40635     40633     40639     40635     40633     40640
     40635     40633     40641     40639     40633     40640     40639     40633     40641
     40640     40633     40641     40633     40635     40637     40633     40635     40638
     40637     40635     40638     40646     40644     40650     40646     40644     40651
     40646     40644     40652     40650     40644     40651     40650     40644     40652
     40651     40644     40652     40644     40646     40648     40644     40646     40649
     40648     40646     40649     40657     40655     40661     40657     40655     40662
     40657     40655     40663     40661     40655     40662     40661     40655     40663
     40662     40655     40663     40655     40657     40659     40655     40657     40660
     40659     40657     40660     40668     40666     40672     40668     40666     40673
     40668     40666     40674     40672     40666     40673     40672     40666     40674
     40673     40666     40674     40666     40668     40670     40666     40668     40671
     40670     40668     40671     40679     40677     40683     40679     40677     40684
     40679     40677     40685     40683     40677     40684     40683     40677     40685
     40684     40677     40685     40677     40679     40681     40677     40679     40682
     40681     40679     40682     40690     40688     40694     40690     40688     40695
     40690     40688     40696     40694     40688     40695     40694     40688     40696
     40695     40688     40696     40688     40690     40692     40688     40690     40693
     40692     40690     40693     40701     40699     40705     40701     40699     40706
     40701     40699     40707     40705     40699     40706     40705     40699     40707
     40706     40699     40707     40699     40701     40703     40699     40701     40704
     40703     40701     40704     40712     40710     40716     40712     40710     40717
     40712     40710     40718     40716     40710     40717     40716     40710     40718
     40717     40710     40718     40710     40712     40714     40710     40712     40715
     40714     40712     40715     40723     40721     40727     40723     40721     40728
     40723     40721     40729     40727     40721     40728     40727     40721     40729
     40728     40721     40729     40721     40723     40725     40721     40723     40726
     40725     40723     40726     40734     40732     40738     40734     40732     40739
     40734     40732     40740     40738     40732     40739     40738     40732     40740
     40739     40732     40740     40732     40734     40736     40732     40734     40737
     40736     40734     40737     40745     40743     40749     40745     40743     40750
     40745     40743     40751     40749     40743     40750     40749     40743     40751
     40750     40743     40751     40743     40745     40747     40743     40745     40748
     40747     40745     40748     40756     40754     40760     40756     40754     40761
     40756     40754     40762     40760     40754     40761     40760     40754     40762
     40761     40754     40762     40754     40756     40758     40754     40756     40759
     40758     40756     40759     40767     40765     40771     40767     40765     40772
     40767     40765     40773     40771     40765     40772     40771     40765     40773
     40772     40765     40773     40765     40767     40769     40765     40767     40770
     40769     40767     40770     40778     40776     40782     40778     40776     40783
     40778     40776     40784     40782     40776     40783     40782     40776     40784
     40783     40776     40784     40776     40778     40780     40776     40778     40781
     40780     40778     40781     40789     40787     40793     40789     40787     40794
     40789     40787     40795     40793     40787     40794     40793     40787     40795
     40794     40787     40795     40787     40789     40791     40787     40789     40792
     40791     40789     40792     40800     40798     40804     40800     40798     40805
     40800     40798     40806     40804     40798     40805     40804     40798     40806
     40805     40798     40806     40798     40800     40802     40798     40800     40803
     40802     40800     40803     40811     40809     40815     40811     40809     40816
     40811     40809     40817     40815     40809     40816     40815     40809     40817
     40816     40809     40817     40809     40811     40813     40809     40811     40814
     40813     40811     40814     40822     40820     40826     40822     40820     40827
     40822     40820     40828     40826     40820     40827     40826     40820     40828
     40827     40820     40828     40820     40822     40824     40820     40822     40825
     40824     40822     40825     40833     40831     40837     40833     40831     40838
     40833     40831     40839     40837     40831     40838     40837     40831     40839
     40838     40831     40839     40831     40833     40835     40831     40833     40836
     40835     40833     40836     40844     40842     40848     40844     40842     40849
     40844     40842     40850     40848     40842     40849     40848     40842     40850
     40849     40842     40850     40842     40844     40846     40842     40844     40847
     40846     40844     40847     40855     40853     40859     40855     40853     40860
     40855     40853     40861     40859     40853     40860     40859     40853     40861
     40860     40853     40861     40853     40855     40857     40853     40855     40858
     40857     40855     40858     40866     40864     40870     40866     40864     40871
     40866     40864     40872     40870     40864     40871     40870     40864     40872
     40871     40864     40872     40864     40866     40868     40864     40866     40869
     40868     40866     40869     40877     40875     40881     40877     40875     40882
     40877     40875     40883     40881     40875     40882     40881     40875     40883
     40882     40875     40883     40875     40877     40879     40875     40877     40880
     40879     40877     40880     40888     40886     40892     40888     40886     40893
     40888     40886     40894     40892     40886     40893     40892     40886     40894
     40893     40886     40894     40886     40888     40890     40886     40888     40891
     40890     40888     40891     40899     40897     40903     40899     40897     40904
     40899     40897     40905     40903     40897     40904     40903     40897     40905
     40904     40897     40905     40897     40899     40901     40897     40899     40902
     40901     40899     40902     40910     40908     40914     40910     40908     40915
     40910     40908     40916     40914     40908     40915     40914     40908     40916
     40915     40908     40916     40908     40910     40912     40908     40910     40913
     40912     40910     40913     40921     40919     40925     40921     40919     40926
     40921     40919     40927     40925     40919     40926     40925     40919     40927
     40926     40919     40927     40919     40921     40923     40919     40921     40924
     40923     40921     40924     40932     40930     40936     40932     40930     40937
     40932     40930     40938     40936     40930     40937     40936     40930     40938
     40937     40930     40938     40930     40932     40934     40930     40932     40935
     40934     40932     40935     40943     40941     40947     40943     40941     40948
     40943     40941     40949     40947     40941     40948     40947     40941     40949
     40948     40941     40949     40941     40943     40945     40941     40943     40946
     40945     40943     40946     40954     40952     40958     40954     40952     40959
     40954     40952     40960     40958     40952     40959     40958     40952     40960
     40959     40952     40960     40952     40954     40956     40952     40954     40957
     40956     40954     40957     40965     40963     40969     40965     40963     40970
     40965     40963     40971     40969     40963     40970     40969     40963     40971
     40970     40963     40971     40963     40965     40967     40963     40965     40968
     40967     40965     40968     40976     40974     40980     40976     40974     40981
     40976     40974     40982     40980     40974     40981     40980     40974     40982
     40981     40974     40982     40974     40976     40978     40974     40976     40979
     40978     40976     40979     40987     40985     40991     40987     40985     40992
     40987     40985     40993     40991     40985     40992     40991     40985     40993
     40992     40985     40993     40985     40987     40989     40985     40987     40990
     40989     40987     40990     40998     40996     41002     40998     40996     41003
     40998     40996     41004     41002     40996     41003     41002     40996     41004
     41003     40996     41004     40996     40998     41000     40996     40998     41001
     41000     40998     41001     41009     41007     41013     41009     41007     41014
     41009     41007     41015     41013     41007     41014     41013     41007     41015
     41014     41007     41015     41007     41009     41011     41007     41009     41012
     41011     41009     41012     41020     41018     41024     41020     41018     41025
     41020     41018     41026     41024     41018     41025     41024     41018     41026
     41025     41018     41026     41018     41020     41022     41018     41020     41023
     41022     41020     41023     41031     41029     41035     41031     41029     41036
     41031     41029     41037     41035     41029     41036     41035     41029     41037
     41036     41029     41037     41029     41031     41033     41029     41031     41034
     41033     41031     41034     41042     41040     41046     41042     41040     41047
     41042     41040     41048     41046     41040     41047     41046     41040     41048
     41047     41040     41048     41040     41042     41044     41040     41042     41045
     41044     41042     41045     41053     41051     41057     41053     41051     41058
     41053     41051     41059     41057     41051     41058     41057     41051     41059
     41058     41051     41059     41051     41053     41055     41051     41053     41056
     41055     41053     41056     41064     41062     41068     41064     41062     41069
     41064     41062     41070     41068     41062     41069     41068     41062     41070
     41069     41062     41070     41062     41064     41066     41062     41064     41067
     41066     41064     41067     41075     41073     41079     41075     41073     41080
     41075     41073     41081     41079     41073     41080     41079     41073     41081
     41080     41073     41081     41073     41075     41077     41073     41075     41078
     41077     41075     41078     41086     41084     41090     41086     41084     41091
     41086     41084     41092     41090     41084     41091     41090     41084     41092
     41091     41084     41092     41084     41086     41088     41084     41086     41089
     41088     41086     41089     41097     41095     41101     41097     41095     41102
     41097     41095     41103     41101     41095     41102     41101     41095     41103
     41102     41095     41103     41095     41097     41099     41095     41097     41100
     41099     41097     41100     41108     41106     41112     41108     41106     41113
     41108     41106     41114     41112     41106     41113     41112     41106     41114
     41113     41106     41114     41106     41108     41110     41106     41108     41111
     41110     41108     41111     41119     41117     41123     41119     41117     41124
     41119     41117     41125     41123     41117     41124     41123     41117     41125
     41124     41117     41125     41117     41119     41121     41117     41119     41122
     41121     41119     41122     41130     41128     41134     41130     41128     41135
     41130     41128     41136     41134     41128     41135     41134     41128     41136
     41135     41128     41136     41128     41130     41132     41128     41130     41133
     41132     41130     41133     41141     41139     41145     41141     41139     41146
     41141     41139     41147     41145     41139     41146     41145     41139     41147
     41146     41139     41147     41139     41141     41143     41139     41141     41144
     41143     41141     41144     41152     41150     41156     41152     41150     41157
     41152     41150     41158     41156     41150     41157     41156     41150     41158
     41157     41150     41158     41150     41152     41154     41150     41152     41155
     41154     41152     41155     41163     41161     41167     41163     41161     41168
     41163     41161     41169     41167     41161     41168     41167     41161     41169
     41168     41161     41169     41161     41163     41165     41161     41163     41166
     41165     41163     41166     41174     41172     41178     41174     41172     41179
     41174     41172     41180     41178     41172     41179     41178     41172     41180
     41179     41172     41180     41172     41174     41176     41172     41174     41177
     41176     41174     41177     41185     41183     41189     41185     41183     41190
     41185     41183     41191     41189     41183     41190     41189     41183     41191
     41190     41183     41191     41183     41185     41187     41183     41185     41188
     41187     41185     41188     41196     41194     41200     41196     41194     41201
     41196     41194     41202     41200     41194     41201     41200     41194     41202
     41201     41194     41202     41194     41196     41198     41194     41196     41199
     41198     41196     41199     41207     41205     41211     41207     41205     41212
     41207     41205     41213     41211     41205     41212     41211     41205     41213
     41212     41205     41213     41205     41207     41209     41205     41207     41210
     41209     41207     41210     41218     41216     41222     41218     41216     41223
     41218     41216     41224     41222     41216     41223     41222     41216     41224
     41223     41216     41224     41216     41218     41220     41216     41218     41221
     41220     41218     41221     41229     41227     41233     41229     41227     41234
     41229     41227     41235     41233     41227     41234     41233     41227     41235
     41234     41227     41235     41227     41229     41231     41227     41229     41232
     41231     41229     41232     41240     41238     41244     41240     41238     41245
     41240     41238     41246     41244     41238     41245     41244     41238     41246
     41245     41238     41246     41238     41240     41242     41238     41240     41243
     41242     41240     41243     41251     41249     41255     41251     41249     41256
     41251     41249     41257     41255     41249     41256     41255     41249     41257
     41256     41249     41257     41249     41251     41253     41249     41251     41254
     41253     41251     41254     41262     41260     41266     41262     41260     41267
     41262     41260     41268     41266     41260     41267     41266     41260     41268
     41267     41260     41268     41260     41262     41264     41260     41262     41265
     41264     41262     41265     41273     41271     41277     41273     41271     41278
     41273     41271     41279     41277     41271     41278     41277     41271     41279
     41278     41271     41279     41271     41273     41275     41271     41273     41276
     41275     41273     41276     41284     41282     41288     41284     41282     41289
     41284     41282     41290     41288     41282     41289     41288     41282     41290
     41289     41282     41290     41282     41284     41286     41282     41284     41287
     41286     41284     41287     41295     41293     41299     41295     41293     41300
     41295     41293     41301     41299     41293     41300     41299     41293     41301
     41300     41293     41301     41293     41295     41297     41293     41295     41298
     41297     41295     41298     41306     41304     41310     41306     41304     41311
     41306     41304     41312     41310     41304     41311     41310     41304     41312
     41311     41304     41312     41304     41306     41308     41304     41306     41309
     41308     41306     41309     41317     41315     41321     41317     41315     41322
     41317     41315     41323     41321     41315     41322     41321     41315     41323
     41322     41315     41323     41315     41317     41319     41315     41317     41320
     41319     41317     41320     41328     41326     41332     41328     41326     41333
     41328     41326     41334     41332     41326     41333     41332     41326     41334
     41333     41326     41334     41326     41328     41330     41326     41328     41331
     41330     41328     41331     41339     41337     41343     41339     41337     41344
     41339     41337     41345     41343     41337     41344     41343     41337     41345
     41344     41337     41345     41337     41339     41341     41337     41339     41342
     41341     41339     41342     41350     41348     41354     41350     41348     41355
     41350     41348     41356     41354     41348     41355     41354     41348     41356
     41355     41348     41356     41348     41350     41352     41348     41350     41353
     41352     41350     41353     41361     41359     41365     41361     41359     41366
     41361     41359     41367     41365     41359     41366     41365     41359     41367
     41366     41359     41367     41359     41361     41363     41359     41361     41364
     41363     41361     41364     41372     41370     41376     41372     41370     41377
     41372     41370     41378     41376     41370     41377     41376     41370     41378
     41377     41370     41378     41370     41372     41374     41370     41372     41375
     41374     41372     41375     41383     41381     41387     41383     41381     41388
     41383     41381     41389     41387     41381     41388     41387     41381     41389
     41388     41381     41389     41381     41383     41385     41381     41383     41386
     41385     41383     41386     41394     41392     41398     41394     41392     41399
     41394     41392     41400     41398     41392     41399     41398     41392     41400
     41399     41392     41400     41392     41394     41396     41392     41394     41397
     41396     41394     41397     41405     41403     41409     41405     41403     41410
     41405     41403     41411     41409     41403     41410     41409     41403     41411
     41410     41403     41411     41403     41405     41407     41403     41405     41408
     41407     41405     41408     41416     41414     41420     41416     41414     41421
     41416     41414     41422     41420     41414     41421     41420     41414     41422
     41421     41414     41422     41414     41416     41418     41414     41416     41419
     41418     41416     41419     41427     41425     41431     41427     41425     41432
     41427     41425     41433     41431     41425     41432     41431     41425     41433
     41432     41425     41433     41425     41427     41429     41425     41427     41430
     41429     41427     41430     41438     41436     41442     41438     41436     41443
     41438     41436     41444     41442     41436     41443     41442     41436     41444
     41443     41436     41444     41436     41438     41440     41436     41438     41441
     41440     41438     41441     41449     41447     41453     41449     41447     41454
     41449     41447     41455     41453     41447     41454     41453     41447     41455
     41454     41447     41455     41447     41449     41451     41447     41449     41452
     41451     41449     41452     41460     41458     41464     41460     41458     41465
     41460     41458     41466     41464     41458     41465     41464     41458     41466
     41465     41458     41466     41458     41460     41462     41458     41460     41463
     41462     41460     41463     41471     41469     41475     41471     41469     41476
     41471     41469     41477     41475     41469     41476     41475     41469     41477
     41476     41469     41477     41469     41471     41473     41469     41471     41474
     41473     41471     41474     41482     41480     41486     41482     41480     41487
     41482     41480     41488     41486     41480     41487     41486     41480     41488
     41487     41480     41488     41480     41482     41484     41480     41482     41485
     41484     41482     41485     41493     41491     41497     41493     41491     41498
     41493     41491     41499     41497     41491     41498     41497     41491     41499
     41498     41491     41499     41491     41493     41495     41491     41493     41496
     41495     41493     41496     41504     41502     41508     41504     41502     41509
     41504     41502     41510     41508     41502     41509     41508     41502     41510
     41509     41502     41510     41502     41504     41506     41502     41504     41507
     41506     41504     41507     41515     41513     41519     41515     41513     41520
     41515     41513     41521     41519     41513     41520     41519     41513     41521
     41520     41513     41521     41513     41515     41517     41513     41515     41518
     41517     41515     41518     41526     41524     41530     41526     41524     41531
     41526     41524     41532     41530     41524     41531     41530     41524     41532
     41531     41524     41532     41524     41526     41528     41524     41526     41529
     41528     41526     41529     41537     41535     41541     41537     41535     41542
     41537     41535     41543     41541     41535     41542     41541     41535     41543
     41542     41535     41543     41535     41537     41539     41535     41537     41540
     41539     41537     41540     41548     41546     41552     41548     41546     41553
     41548     41546     41554     41552     41546     41553     41552     41546     41554
     41553     41546     41554     41546     41548     41550     41546     41548     41551
     41550     41548     41551     41559     41557     41563     41559     41557     41564
     41559     41557     41565     41563     41557     41564     41563     41557     41565
     41564     41557     41565     41557     41559     41561     41557     41559     41562
     41561     41559     41562     41570     41568     41574     41570     41568     41575
     41570     41568     41576     41574     41568     41575     41574     41568     41576
     41575     41568     41576     41568     41570     41572     41568     41570     41573
     41572     41570     41573     41581     41579     41585     41581     41579     41586
     41581     41579     41587     41585     41579     41586     41585     41579     41587
     41586     41579     41587     41579     41581     41583     41579     41581     41584
     41583     41581     41584     41592     41590     41596     41592     41590     41597
     41592     41590     41598     41596     41590     41597     41596     41590     41598
     41597     41590     41598     41590     41592     41594     41590     41592     41595
     41594     41592     41595     41603     41601     41607     41603     41601     41608
     41603     41601     41609     41607     41601     41608     41607     41601     41609
     41608     41601     41609     41601     41603     41605     41601     41603     41606
     41605     41603     41606     41614     41612     41618     41614     41612     41619
     41614     41612     41620     41618     41612     41619     41618     41612     41620
     41619     41612     41620     41612     41614     41616     41612     41614     41617
     41616     41614     41617     41625     41623     41629     41625     41623     41630
     41625     41623     41631     41629     41623     41630     41629     41623     41631
     41630     41623     41631     41623     41625     41627     41623     41625     41628
     41627     41625     41628     41636     41634     41640     41636     41634     41641
     41636     41634     41642     41640     41634     41641     41640     41634     41642
     41641     41634     41642     41634     41636     41638     41634     41636     41639
     41638     41636     41639     41647     41645     41651     41647     41645     41652
     41647     41645     41653     41651     41645     41652     41651     41645     41653
     41652     41645     41653     41645     41647     41649     41645     41647     41650
     41649     41647     41650     41658     41656     41662     41658     41656     41663
     41658     41656     41664     41662     41656     41663     41662     41656     41664
     41663     41656     41664     41656     41658     41660     41656     41658     41661
     41660     41658     41661     41669     41667     41673     41669     41667     41674
     41669     41667     41675     41673     41667     41674     41673     41667     41675
     41674     41667     41675     41667     41669     41671     41667     41669     41672
     41671     41669     41672     41680     41678     41684     41680     41678     41685
     41680     41678     41686     41684     41678     41685     41684     41678     41686
     41685     41678     41686     41678     41680     41682     41678     41680     41683
     41682     41680     41683     41691     41689     41695     41691     41689     41696
     41691     41689     41697     41695     41689     41696     41695     41689     41697
     41696     41689     41697     41689     41691     41693     41689     41691     41694
     41693     41691     41694     41702     41700     41706     41702     41700     41707
     41702     41700     41708     41706     41700     41707     41706     41700     41708
     41707     41700     41708     41700     41702     41704     41700     41702     41705
     41704     41702     41705     41713     41711     41717     41713     41711     41718
     41713     41711     41719     41717     41711     41718     41717     41711     41719
     41718     41711     41719     41711     41713     41715     41711     41713     41716
     41715     41713     41716     41724     41722     41728     41724     41722     41729
     41724     41722     41730     41728     41722     41729     41728     41722     41730
     41729     41722     41730     41722     41724     41726     41722     41724     41727
     41726     41724     41727     41735     41733     41739     41735     41733     41740
     41735     41733     41741     41739     41733     41740     41739     41733     41741
     41740     41733     41741     41733     41735     41737     41733     41735     41738
     41737     41735     41738     41746     41744     41750     41746     41744     41751
     41746     41744     41752     41750     41744     41751     41750     41744     41752
     41751     41744     41752     41744     41746     41748     41744     41746     41749
     41748     41746     41749     41757     41755     41761     41757     41755     41762
     41757     41755     41763     41761     41755     41762     41761     41755     41763
     41762     41755     41763     41755     41757     41759     41755     41757     41760
     41759     41757     41760     41768     41766     41772     41768     41766     41773
     41768     41766     41774     41772     41766     41773     41772     41766     41774
     41773     41766     41774     41766     41768     41770     41766     41768     41771
     41770     41768     41771     41779     41777     41783     41779     41777     41784
     41779     41777     41785     41783     41777     41784     41783     41777     41785
     41784     41777     41785     41777     41779     41781     41777     41779     41782
     41781     41779     41782     41790     41788     41794     41790     41788     41795
     41790     41788     41796     41794     41788     41795     41794     41788     41796
     41795     41788     41796     41788     41790     41792     41788     41790     41793
     41792     41790     41793     41801     41799     41805     41801     41799     41806
     41801     41799     41807     41805     41799     41806     41805     41799     41807
     41806     41799     41807     41799     41801     41803     41799     41801     41804
     41803     41801     41804     41812     41810     41816     41812     41810     41817
     41812     41810     41818     41816     41810     41817     41816     41810     41818
     41817     41810     41818     41810     41812     41814     41810     41812     41815
     41814     41812     41815     41823     41821     41827     41823     41821     41828
     41823     41821     41829     41827     41821     41828     41827     41821     41829
     41828     41821     41829     41821     41823     41825     41821     41823     41826
     41825     41823     41826     41834     41832     41838     41834     41832     41839
     41834     41832     41840     41838     41832     41839     41838     41832     41840
     41839     41832     41840     41832     41834     41836     41832     41834     41837
     41836     41834     41837     41845     41843     41849     41845     41843     41850
     41845     41843     41851     41849     41843     41850     41849     41843     41851
     41850     41843     41851     41843     41845     41847     41843     41845     41848
     41847     41845     41848     41856     41854     41860     41856     41854     41861
     41856     41854     41862     41860     41854     41861     41860     41854     41862
     41861     41854     41862     41854     41856     41858     41854     41856     41859
     41858     41856     41859     41867     41865     41871     41867     41865     41872
     41867     41865     41873     41871     41865     41872     41871     41865     41873
     41872     41865     41873     41865     41867     41869     41865     41867     41870
     41869     41867     41870     41878     41876     41882     41878     41876     41883
     41878     41876     41884     41882     41876     41883     41882     41876     41884
     41883     41876     41884     41876     41878     41880     41876     41878     41881
     41880     41878     41881     41889     41887     41893     41889     41887     41894
     41889     41887     41895     41893     41887     41894     41893     41887     41895
     41894     41887     41895     41887     41889     41891     41887     41889     41892
     41891     41889     41892     41900     41898     41904     41900     41898     41905
     41900     41898     41906     41904     41898     41905     41904     41898     41906
     41905     41898     41906     41898     41900     41902     41898     41900     41903
     41902     41900     41903     41911     41909     41915     41911     41909     41916
     41911     41909     41917     41915     41909     41916     41915     41909     41917
     41916     41909     41917     41909     41911     41913     41909     41911     41914
     41913     41911     41914     41922     41920     41926     41922     41920     41927
     41922     41920     41928     41926     41920     41927     41926     41920     41928
     41927     41920     41928     41920     41922     41924     41920     41922     41925
     41924     41922     41925     41933     41931     41937     41933     41931     41938
     41933     41931     41939     41937     41931     41938     41937     41931     41939
     41938     41931     41939     41931     41933     41935     41931     41933     41936
     41935     41933     41936     41944     41942     41948     41944     41942     41949
     41944     41942     41950     41948     41942     41949     41948     41942     41950
     41949     41942     41950     41942     41944     41946     41942     41944     41947
     41946     41944     41947     41955     41953     41959     41955     41953     41960
     41955     41953     41961     41959     41953     41960     41959     41953     41961
     41960     41953     41961     41953     41955     41957     41953     41955     41958
     41957     41955     41958     41966     41964     41970     41966     41964     41971
     41966     41964     41972     41970     41964     41971     41970     41964     41972
     41971     41964     41972     41964     41966     41968     41964     41966     41969
     41968     41966     41969     41977     41975     41981     41977     41975     41982
     41977     41975     41983     41981     41975     41982     41981     41975     41983
     41982     41975     41983     41975     41977     41979     41975     41977     41980
     41979     41977     41980     41988     41986     41992     41988     41986     41993
     41988     41986     41994     41992     41986     41993     41992     41986     41994
     41993     41986     41994     41986     41988     41990     41986     41988     41991
     41990     41988     41991     41999     41997     42003     41999     41997     42004
     41999     41997     42005     42003     41997     42004     42003     41997     42005
     42004     41997     42005     41997     41999     42001     41997     41999     42002
     42001     41999     42002     42010     42008     42014     42010     42008     42015
     42010     42008     42016     42014     42008     42015     42014     42008     42016
     42015     42008     42016     42008     42010     42012     42008     42010     42013
     42012     42010     42013     42021     42019     42025     42021     42019     42026
     42021     42019     42027     42025     42019     42026     42025     42019     42027
     42026     42019     42027     42019     42021     42023     42019     42021     42024
     42023     42021     42024     42032     42030     42036     42032     42030     42037
     42032     42030     42038     42036     42030     42037     42036     42030     42038
     42037     42030     42038     42030     42032     42034     42030     42032     42035
     42034     42032     42035     42043     42041     42047     42043     42041     42048
     42043     42041     42049     42047     42041     42048     42047     42041     42049
     42048     42041     42049     42041     42043     42045     42041     42043     42046
     42045     42043     42046     42054     42052     42058     42054     42052     42059
     42054     42052     42060     42058     42052     42059     42058     42052     42060
     42059     42052     42060     42052     42054     42056     42052     42054     42057
     42056     42054     42057     42065     42063     42069     42065     42063     42070
     42065     42063     42071     42069     42063     42070     42069     42063     42071
     42070     42063     42071     42063     42065     42067     42063     42065     42068
     42067     42065     42068     42076     42074     42080     42076     42074     42081
     42076     42074     42082     42080     42074     42081     42080     42074     42082
     42081     42074     42082     42074     42076     42078     42074     42076     42079
     42078     42076     42079     42087     42085     42091     42087     42085     42092
     42087     42085     42093     42091     42085     42092     42091     42085     42093
     42092     42085     42093     42085     42087     42089     42085     42087     42090
     42089     42087     42090     42098     42096     42102     42098     42096     42103
     42098     42096     42104     42102     42096     42103     42102     42096     42104
     42103     42096     42104     42096     42098     42100     42096     42098     42101
     42100     42098     42101     42109     42107     42113     42109     42107     42114
     42109     42107     42115     42113     42107     42114     42113     42107     42115
     42114     42107     42115     42107     42109     42111     42107     42109     42112
     42111     42109     42112     42120     42118     42124     42120     42118     42125
     42120     42118     42126     42124     42118     42125     42124     42118     42126
     42125     42118     42126     42118     42120     42122     42118     42120     42123
     42122     42120     42123     42131     42129     42135     42131     42129     42136
     42131     42129     42137     42135     42129     42136     42135     42129     42137
     42136     42129     42137     42129     42131     42133     42129     42131     42134
     42133     42131     42134     42142     42140     42146     42142     42140     42147
     42142     42140     42148     42146     42140     42147     42146     42140     42148
     42147     42140     42148     42140     42142     42144     42140     42142     42145
     42144     42142     42145     42153     42151     42157     42153     42151     42158
     42153     42151     42159     42157     42151     42158     42157     42151     42159
     42158     42151     42159     42151     42153     42155     42151     42153     42156
     42155     42153     42156     42164     42162     42168     42164     42162     42169
     42164     42162     42170     42168     42162     42169     42168     42162     42170
     42169     42162     42170     42162     42164     42166     42162     42164     42167
     42166     42164     42167     42175     42173     42179     42175     42173     42180
     42175     42173     42181     42179     42173     42180     42179     42173     42181
     42180     42173     42181     42173     42175     42177     42173     42175     42178
     42177     42175     42178     42186     42184     42190     42186     42184     42191
     42186     42184     42192     42190     42184     42191     42190     42184     42192
     42191     42184     42192     42184     42186     42188     42184     42186     42189
     42188     42186     42189     42197     42195     42201     42197     42195     42202
     42197     42195     42203     42201     42195     42202     42201     42195     42203
     42202     42195     42203     42195     42197     42199     42195     42197     42200
     42199     42197     42200     42208     42206     42212     42208     42206     42213
     42208     42206     42214     42212     42206     42213     42212     42206     42214
     42213     42206     42214     42206     42208     42210     42206     42208     42211
     42210     42208     42211     42219     42217     42223     42219     42217     42224
     42219     42217     42225     42223     42217     42224     42223     42217     42225
     42224     42217     42225     42217     42219     42221     42217     42219     42222
     42221     42219     42222     42230     42228     42234     42230     42228     42235
     42230     42228     42236     42234     42228     42235     42234     42228     42236
     42235     42228     42236     42228     42230     42232     42228     42230     42233
     42232     42230     42233     42241     42239     42245     42241     42239     42246
     42241     42239     42247     42245     42239     42246     42245     42239     42247
     42246     42239     42247     42239     42241     42243     42239     42241     42244
     42243     42241     42244     42252     42250     42256     42252     42250     42257
     42252     42250     42258     42256     42250     42257     42256     42250     42258
     42257     42250     42258     42250     42252     42254     42250     42252     42255
     42254     42252     42255     42263     42261     42267     42263     42261     42268
     42263     42261     42269     42267     42261     42268     42267     42261     42269
     42268     42261     42269     42261     42263     42265     42261     42263     42266
     42265     42263     42266     42274     42272     42278     42274     42272     42279
     42274     42272     42280     42278     42272     42279     42278     42272     42280
     42279     42272     42280     42272     42274     42276     42272     42274     42277
     42276     42274     42277     42285     42283     42289     42285     42283     42290
     42285     42283     42291     42289     42283     42290     42289     42283     42291
     42290     42283     42291     42283     42285     42287     42283     42285     42288
     42287     42285     42288     42296     42294     42300     42296     42294     42301
     42296     42294     42302     42300     42294     42301     42300     42294     42302
     42301     42294     42302     42294     42296     42298     42294     42296     42299
     42298     42296     42299     42307     42305     42311     42307     42305     42312
     42307     42305     42313     42311     42305     42312     42311     42305     42313
     42312     42305     42313     42305     42307     42309     42305     42307     42310
     42309     42307     42310     42318     42316     42322     42318     42316     42323
     42318     42316     42324     42322     42316     42323     42322     42316     42324
     42323     42316     42324     42316     42318     42320     42316     42318     42321
     42320     42318     42321     42329     42327     42333     42329     42327     42334
     42329     42327     42335     42333     42327     42334     42333     42327     42335
     42334     42327     42335     42327     42329     42331     42327     42329     42332
     42331     42329     42332     42340     42338     42344     42340     42338     42345
     42340     42338     42346     42344     42338     42345     42344     42338     42346
     42345     42338     42346     42338     42340     42342     42338     42340     42343
     42342     42340     42343     42351     42349     42355     42351     42349     42356
     42351     42349     42357     42355     42349     42356     42355     42349     42357
     42356     42349     42357     42349     42351     42353     42349     42351     42354
     42353     42351     42354     42362     42360     42366     42362     42360     42367
     42362     42360     42368     42366     42360     42367     42366     42360     42368
     42367     42360     42368     42360     42362     42364     42360     42362     42365
     42364     42362     42365     42373     42371     42377     42373     42371     42378
     42373     42371     42379     42377     42371     42378     42377     42371     42379
     42378     42371     42379     42371     42373     42375     42371     42373     42376
     42375     42373     42376     42384     42382     42388     42384     42382     42389
     42384     42382     42390     42388     42382     42389     42388     42382     42390
     42389     42382     42390     42382     42384     42386     42382     42384     42387
     42386     42384     42387     42395     42393     42399     42395     42393     42400
     42395     42393     42401     42399     42393     42400     42399     42393     42401
     42400     42393     42401     42393     42395     42397     42393     42395     42398
     42397     42395     42398     42406     42404     42410     42406     42404     42411
     42406     42404     42412     42410     42404     42411     42410     42404     42412
     42411     42404     42412     42404     42406     42408     42404     42406     42409
     42408     42406     42409     42417     42415     42421     42417     42415     42422
     42417     42415     42423     42421     42415     42422     42421     42415     42423
     42422     42415     42423     42415     42417     42419     42415     42417     42420
     42419     42417     42420     42428     42426     42432     42428     42426     42433
     42428     42426     42434     42432     42426     42433     42432     42426     42434
     42433     42426     42434     42426     42428     42430     42426     42428     42431
     42430     42428     42431     42439     42437     42443     42439     42437     42444
     42439     42437     42445     42443     42437     42444     42443     42437     42445
     42444     42437     42445     42437     42439     42441     42437     42439     42442
     42441     42439     42442     42450     42448     42454     42450     42448     42455
     42450     42448     42456     42454     42448     42455     42454     42448     42456
     42455     42448     42456     42448     42450     42452     42448     42450     42453
     42452     42450     42453     42461     42459     42465     42461     42459     42466
     42461     42459     42467     42465     42459     42466     42465     42459     42467
     42466     42459     42467     42459     42461     42463     42459     42461     42464
     42463     42461     42464     42472     42470     42476     42472     42470     42477
     42472     42470     42478     42476     42470     42477     42476     42470     42478
     42477     42470     42478     42470     42472     42474     42470     42472     42475
     42474     42472     42475     42483     42481     42487     42483     42481     42488
     42483     42481     42489     42487     42481     42488     42487     42481     42489
     42488     42481     42489     42481     42483     42485     42481     42483     42486
     42485     42483     42486     42494     42492     42498     42494     42492     42499
     42494     42492     42500     42498     42492     42499     42498     42492     42500
     42499     42492     42500     42492     42494     42496     42492     42494     42497
     42496     42494     42497     42505     42503     42509     42505     42503     42510
     42505     42503     42511     42509     42503     42510     42509     42503     42511
     42510     42503     42511     42503     42505     42507     42503     42505     42508
     42507     42505     42508     42516     42514     42520     42516     42514     42521
     42516     42514     42522     42520     42514     42521     42520     42514     42522
     42521     42514     42522     42514     42516     42518     42514     42516     42519
     42518     42516     42519     42527     42525     42531     42527     42525     42532
     42527     42525     42533     42531     42525     42532     42531     42525     42533
     42532     42525     42533     42525     42527     42529     42525     42527     42530
     42529     42527     42530     42538     42536     42542     42538     42536     42543
     42538     42536     42544     42542     42536     42543     42542     42536     42544
     42543     42536     42544     42536     42538     42540     42536     42538     42541
     42540     42538     42541     42549     42547     42553     42549     42547     42554
     42549     42547     42555     42553     42547     42554     42553     42547     42555
     42554     42547     42555     42547     42549     42551     42547     42549     42552
     42551     42549     42552     42560     42558     42564     42560     42558     42565
     42560     42558     42566     42564     42558     42565     42564     42558     42566
     42565     42558     42566     42558     42560     42562     42558     42560     42563
     42562     42560     42563     42571     42569     42575     42571     42569     42576
     42571     42569     42577     42575     42569     42576     42575     42569     42577
     42576     42569     42577     42569     42571     42573     42569     42571     42574
     42573     42571     42574     42582     42580     42586     42582     42580     42587
     42582     42580     42588     42586     42580     42587     42586     42580     42588
     42587     42580     42588     42580     42582     42584     42580     42582     42585
     42584     42582     42585     42593     42591     42597     42593     42591     42598
     42593     42591     42599     42597     42591     42598     42597     42591     42599
     42598     42591     42599     42591     42593     42595     42591     42593     42596
     42595     42593     42596     42604     42602     42608     42604     42602     42609
     42604     42602     42610     42608     42602     42609     42608     42602     42610
     42609     42602     42610     42602     42604     42606     42602     42604     42607
     42606     42604     42607     42615     42613     42619     42615     42613     42620
     42615     42613     42621     42619     42613     42620     42619     42613     42621
     42620     42613     42621     42613     42615     42617     42613     42615     42618
     42617     42615     42618     42626     42624     42630     42626     42624     42631
     42626     42624     42632     42630     42624     42631     42630     42624     42632
     42631     42624     42632     42624     42626     42628     42624     42626     42629
     42628     42626     42629     42637     42635     42641     42637     42635     42642
     42637     42635     42643     42641     42635     42642     42641     42635     42643
     42642     42635     42643     42635     42637     42639     42635     42637     42640
     42639     42637     42640     42648     42646     42652     42648     42646     42653
     42648     42646     42654     42652     42646     42653     42652     42646     42654
     42653     42646     42654     42646     42648     42650     42646     42648     42651
     42650     42648     42651     42659     42657     42663     42659     42657     42664
     42659     42657     42665     42663     42657     42664     42663     42657     42665
     42664     42657     42665     42657     42659     42661     42657     42659     42662
     42661     42659     42662     42670     42668     42674     42670     42668     42675
     42670     42668     42676     42674     42668     42675     42674     42668     42676
     42675     42668     42676     42668     42670     42672     42668     42670     42673
     42672     42670     42673     42681     42679     42685     42681     42679     42686
     42681     42679     42687     42685     42679     42686     42685     42679     42687
     42686     42679     42687     42679     42681     42683     42679     42681     42684
     42683     42681     42684     42692     42690     42696     42692     42690     42697
     42692     42690     42698     42696     42690     42697     42696     42690     42698
     42697     42690     42698     42690     42692     42694     42690     42692     42695
     42694     42692     42695     42703     42701     42707     42703     42701     42708
     42703     42701     42709     42707     42701     42708     42707     42701     42709
     42708     42701     42709     42701     42703     42705     42701     42703     42706
     42705     42703     42706     42714     42712     42718     42714     42712     42719
     42714     42712     42720     42718     42712     42719     42718     42712     42720
     42719     42712     42720     42712     42714     42716     42712     42714     42717
     42716     42714     42717     42725     42723     42729     42725     42723     42730
     42725     42723     42731     42729     42723     42730     42729     42723     42731
     42730     42723     42731     42723     42725     42727     42723     42725     42728
     42727     42725     42728     42736     42734     42740     42736     42734     42741
     42736     42734     42742     42740     42734     42741     42740     42734     42742
     42741     42734     42742     42734     42736     42738     42734     42736     42739
     42738     42736     42739     42747     42745     42751     42747     42745     42752
     42747     42745     42753     42751     42745     42752     42751     42745     42753
     42752     42745     42753     42745     42747     42749     42745     42747     42750
     42749     42747     42750     42758     42756     42762     42758     42756     42763
     42758     42756     42764     42762     42756     42763     42762     42756     42764
     42763     42756     42764     42756     42758     42760     42756     42758     42761
     42760     42758     42761     42769     42767     42773     42769     42767     42774
     42769     42767     42775     42773     42767     42774     42773     42767     42775
     42774     42767     42775     42767     42769     42771     42767     42769     42772
     42771     42769     42772     42780     42778     42784     42780     42778     42785
     42780     42778     42786     42784     42778     42785     42784     42778     42786
     42785     42778     42786     42778     42780     42782     42778     42780     42783
     42782     42780     42783     42791     42789     42795     42791     42789     42796
     42791     42789     42797     42795     42789     42796     42795     42789     42797
     42796     42789     42797     42789     42791     42793     42789     42791     42794
     42793     42791     42794     42802     42800     42806     42802     42800     42807
     42802     42800     42808     42806     42800     42807     42806     42800     42808
     42807     42800     42808     42800     42802     42804     42800     42802     42805
     42804     42802     42805     42813     42811     42817     42813     42811     42818
     42813     42811     42819     42817     42811     42818     42817     42811     42819
     42818     42811     42819     42811     42813     42815     42811     42813     42816
     42815     42813     42816     42824     42822     42828     42824     42822     42829
     42824     42822     42830     42828     42822     42829     42828     42822     42830
     42829     42822     42830     42822     42824     42826     42822     42824     42827
     42826     42824     42827     42835     42833     42839     42835     42833     42840
     42835     42833     42841     42839     42833     42840     42839     42833     42841
     42840     42833     42841     42833     42835     42837     42833     42835     42838
     42837     42835     42838     42846     42844     42850     42846     42844     42851
     42846     42844     42852     42850     42844     42851     42850     42844     42852
     42851     42844     42852     42844     42846     42848     42844     42846     42849
     42848     42846     42849     42857     42855     42861     42857     42855     42862
     42857     42855     42863     42861     42855     42862     42861     42855     42863
     42862     42855     42863     42855     42857     42859     42855     42857     42860
     42859     42857     42860     42868     42866     42872     42868     42866     42873
     42868     42866     42874     42872     42866     42873     42872     42866     42874
     42873     42866     42874     42866     42868     42870     42866     42868     42871
     42870     42868     42871     42879     42877     42883     42879     42877     42884
     42879     42877     42885     42883     42877     42884     42883     42877     42885
     42884     42877     42885     42877     42879     42881     42877     42879     42882
     42881     42879     42882     42890     42888     42894     42890     42888     42895
     42890     42888     42896     42894     42888     42895     42894     42888     42896
     42895     42888     42896     42888     42890     42892     42888     42890     42893
     42892     42890     42893     42901     42899     42905     42901     42899     42906
     42901     42899     42907     42905     42899     42906     42905     42899     42907
     42906     42899     42907     42899     42901     42903     42899     42901     42904
     42903     42901     42904     42912     42910     42916     42912     42910     42917
     42912     42910     42918     42916     42910     42917     42916     42910     42918
     42917     42910     42918     42910     42912     42914     42910     42912     42915
     42914     42912     42915     42923     42921     42927     42923     42921     42928
     42923     42921     42929     42927     42921     42928     42927     42921     42929
     42928     42921     42929     42921     42923     42925     42921     42923     42926
     42925     42923     42926     42934     42932     42938     42934     42932     42939
     42934     42932     42940     42938     42932     42939     42938     42932     42940
     42939     42932     42940     42932     42934     42936     42932     42934     42937
     42936     42934     42937     42945     42943     42949     42945     42943     42950
     42945     42943     42951     42949     42943     42950     42949     42943     42951
     42950     42943     42951     42943     42945     42947     42943     42945     42948
     42947     42945     42948     42956     42954     42960     42956     42954     42961
     42956     42954     42962     42960     42954     42961     42960     42954     42962
     42961     42954     42962     42954     42956     42958     42954     42956     42959
     42958     42956     42959     42967     42965     42971     42967     42965     42972
     42967     42965     42973     42971     42965     42972     42971     42965     42973
     42972     42965     42973     42965     42967     42969     42965     42967     42970
     42969     42967     42970     42978     42976     42982     42978     42976     42983
     42978     42976     42984     42982     42976     42983     42982     42976     42984
     42983     42976     42984     42976     42978     42980     42976     42978     42981
     42980     42978     42981     42989     42987     42993     42989     42987     42994
     42989     42987     42995     42993     42987     42994     42993     42987     42995
     42994     42987     42995     42987     42989     42991     42987     42989     42992
     42991     42989     42992     43000     42998     43004     43000     42998     43005
     43000     42998     43006     43004     42998     43005     43004     42998     43006
     43005     42998     43006     42998     43000     43002     42998     43000     43003
     43002     43000     43003     43011     43009     43015     43011     43009     43016
     43011     43009     43017     43015     43009     43016     43015     43009     43017
     43016     43009     43017     43009     43011     43013     43009     43011     43014
     43013     43011     43014     43022     43020     43026     43022     43020     43027
     43022     43020     43028     43026     43020     43027     43026     43020     43028
     43027     43020     43028     43020     43022     43024     43020     43022     43025
     43024     43022     43025     43033     43031     43037     43033     43031     43038
     43033     43031     43039     43037     43031     43038     43037     43031     43039
     43038     43031     43039     43031     43033     43035     43031     43033     43036
     43035     43033     43036     43044     43042     43048     43044     43042     43049
     43044     43042     43050     43048     43042     43049     43048     43042     43050
     43049     43042     43050     43042     43044     43046     43042     43044     43047
     43046     43044     43047     43055     43053     43059     43055     43053     43060
     43055     43053     43061     43059     43053     43060     43059     43053     43061
     43060     43053     43061     43053     43055     43057     43053     43055     43058
     43057     43055     43058     43066     43064     43070     43066     43064     43071
     43066     43064     43072     43070     43064     43071     43070     43064     43072
     43071     43064     43072     43064     43066     43068     43064     43066     43069
     43068     43066     43069     43077     43075     43081     43077     43075     43082
     43077     43075     43083     43081     43075     43082     43081     43075     43083
     43082     43075     43083     43075     43077     43079     43075     43077     43080
     43079     43077     43080     43088     43086     43092     43088     43086     43093
     43088     43086     43094     43092     43086     43093     43092     43086     43094
     43093     43086     43094     43086     43088     43090     43086     43088     43091
     43090     43088     43091     43099     43097     43103     43099     43097     43104
     43099     43097     43105     43103     43097     43104     43103     43097     43105
     43104     43097     43105     43097     43099     43101     43097     43099     43102
     43101     43099     43102     43110     43108     43114     43110     43108     43115
     43110     43108     43116     43114     43108     43115     43114     43108     43116
     43115     43108     43116     43108     43110     43112     43108     43110     43113
     43112     43110     43113     43121     43119     43125     43121     43119     43126
     43121     43119     43127     43125     43119     43126     43125     43119     43127
     43126     43119     43127     43119     43121     43123     43119     43121     43124
     43123     43121     43124     43132     43130     43136     43132     43130     43137
     43132     43130     43138     43136     43130     43137     43136     43130     43138
     43137     43130     43138     43130     43132     43134     43130     43132     43135
     43134     43132     43135     43143     43141     43147     43143     43141     43148
     43143     43141     43149     43147     43141     43148     43147     43141     43149
     43148     43141     43149     43141     43143     43145     43141     43143     43146
     43145     43143     43146     43154     43152     43158     43154     43152     43159
     43154     43152     43160     43158     43152     43159     43158     43152     43160
     43159     43152     43160     43152     43154     43156     43152     43154     43157
     43156     43154     43157     43165     43163     43169     43165     43163     43170
     43165     43163     43171     43169     43163     43170     43169     43163     43171
     43170     43163     43171     43163     43165     43167     43163     43165     43168
     43167     43165     43168     43176     43174     43180     43176     43174     43181
     43176     43174     43182     43180     43174     43181     43180     43174     43182
     43181     43174     43182     43174     43176     43178     43174     43176     43179
     43178     43176     43179     43187     43185     43191     43187     43185     43192
     43187     43185     43193     43191     43185     43192     43191     43185     43193
     43192     43185     43193     43185     43187     43189     43185     43187     43190
     43189     43187     43190     43198     43196     43202     43198     43196     43203
     43198     43196     43204     43202     43196     43203     43202     43196     43204
     43203     43196     43204     43196     43198     43200     43196     43198     43201
     43200     43198     43201     43209     43207     43213     43209     43207     43214
     43209     43207     43215     43213     43207     43214     43213     43207     43215
     43214     43207     43215     43207     43209     43211     43207     43209     43212
     43211     43209     43212     43220     43218     43224     43220     43218     43225
     43220     43218     43226     43224     43218     43225     43224     43218     43226
     43225     43218     43226     43218     43220     43222     43218     43220     43223
     43222     43220     43223     43231     43229     43235     43231     43229     43236
     43231     43229     43237     43235     43229     43236     43235     43229     43237
     43236     43229     43237     43229     43231     43233     43229     43231     43234
     43233     43231     43234     43242     43240     43246     43242     43240     43247
     43242     43240     43248     43246     43240     43247     43246     43240     43248
     43247     43240     43248     43240     43242     43244     43240     43242     43245
     43244     43242     43245     43253     43251     43257     43253     43251     43258
     43253     43251     43259     43257     43251     43258     43257     43251     43259
     43258     43251     43259     43251     43253     43255     43251     43253     43256
     43255     43253     43256     43264     43262     43268     43264     43262     43269
     43264     43262     43270     43268     43262     43269     43268     43262     43270
     43269     43262     43270     43262     43264     43266     43262     43264     43267
     43266     43264     43267     43275     43273     43279     43275     43273     43280
     43275     43273     43281     43279     43273     43280     43279     43273     43281
     43280     43273     43281     43273     43275     43277     43273     43275     43278
     43277     43275     43278     43286     43284     43290     43286     43284     43291
     43286     43284     43292     43290     43284     43291     43290     43284     43292
     43291     43284     43292     43284     43286     43288     43284     43286     43289
     43288     43286     43289     43297     43295     43301     43297     43295     43302
     43297     43295     43303     43301     43295     43302     43301     43295     43303
     43302     43295     43303     43295     43297     43299     43295     43297     43300
     43299     43297     43300     43308     43306     43312     43308     43306     43313
     43308     43306     43314     43312     43306     43313     43312     43306     43314
     43313     43306     43314     43306     43308     43310     43306     43308     43311
     43310     43308     43311     43319     43317     43323     43319     43317     43324
     43319     43317     43325     43323     43317     43324     43323     43317     43325
     43324     43317     43325     43317     43319     43321     43317     43319     43322
     43321     43319     43322     43330     43328     43334     43330     43328     43335
     43330     43328     43336     43334     43328     43335     43334     43328     43336
     43335     43328     43336     43328     43330     43332     43328     43330     43333
     43332     43330     43333     43341     43339     43345     43341     43339     43346
     43341     43339     43347     43345     43339     43346     43345     43339     43347
     43346     43339     43347     43339     43341     43343     43339     43341     43344
     43343     43341     43344     43352     43350     43356     43352     43350     43357
     43352     43350     43358     43356     43350     43357     43356     43350     43358
     43357     43350     43358     43350     43352     43354     43350     43352     43355
     43354     43352     43355     43363     43361     43367     43363     43361     43368
     43363     43361     43369     43367     43361     43368     43367     43361     43369
     43368     43361     43369     43361     43363     43365     43361     43363     43366
     43365     43363     43366     43374     43372     43378     43374     43372     43379
     43374     43372     43380     43378     43372     43379     43378     43372     43380
     43379     43372     43380     43372     43374     43376     43372     43374     43377
     43376     43374     43377     43385     43383     43389     43385     43383     43390
     43385     43383     43391     43389     43383     43390     43389     43383     43391
     43390     43383     43391     43383     43385     43387     43383     43385     43388
     43387     43385     43388     43396     43394     43400     43396     43394     43401
     43396     43394     43402     43400     43394     43401     43400     43394     43402
     43401     43394     43402     43394     43396     43398     43394     43396     43399
     43398     43396     43399     43407     43405     43411     43407     43405     43412
     43407     43405     43413     43411     43405     43412     43411     43405     43413
     43412     43405     43413     43405     43407     43409     43405     43407     43410
     43409     43407     43410     43418     43416     43422     43418     43416     43423
     43418     43416     43424     43422     43416     43423     43422     43416     43424
     43423     43416     43424     43416     43418     43420     43416     43418     43421
     43420     43418     43421     43429     43427     43433     43429     43427     43434
     43429     43427     43435     43433     43427     43434     43433     43427     43435
     43434     43427     43435     43427     43429     43431     43427     43429     43432
     43431     43429     43432     43440     43438     43444     43440     43438     43445
     43440     43438     43446     43444     43438     43445     43444     43438     43446
     43445     43438     43446     43438     43440     43442     43438     43440     43443
     43442     43440     43443     43451     43449     43455     43451     43449     43456
     43451     43449     43457     43455     43449     43456     43455     43449     43457
     43456     43449     43457     43449     43451     43453     43449     43451     43454
     43453     43451     43454     43462     43460     43466     43462     43460     43467
     43462     43460     43468     43466     43460     43467     43466     43460     43468
     43467     43460     43468     43460     43462     43464     43460     43462     43465
     43464     43462     43465     43473     43471     43477     43473     43471     43478
     43473     43471     43479     43477     43471     43478     43477     43471     43479
     43478     43471     43479     43471     43473     43475     43471     43473     43476
     43475     43473     43476     43484     43482     43488     43484     43482     43489
     43484     43482     43490     43488     43482     43489     43488     43482     43490
     43489     43482     43490     43482     43484     43486     43482     43484     43487
     43486     43484     43487     43495     43493     43499     43495     43493     43500
     43495     43493     43501     43499     43493     43500     43499     43493     43501
     43500     43493     43501     43493     43495     43497     43493     43495     43498
     43497     43495     43498     43506     43504     43510     43506     43504     43511
     43506     43504     43512     43510     43504     43511     43510     43504     43512
     43511     43504     43512     43504     43506     43508     43504     43506     43509
     43508     43506     43509     43517     43515     43521     43517     43515     43522
     43517     43515     43523     43521     43515     43522     43521     43515     43523
     43522     43515     43523     43515     43517     43519     43515     43517     43520
     43519     43517     43520     43528     43526     43532     43528     43526     43533
     43528     43526     43534     43532     43526     43533     43532     43526     43534
     43533     43526     43534     43526     43528     43530     43526     43528     43531
     43530     43528     43531     43539     43537     43543     43539     43537     43544
     43539     43537     43545     43543     43537     43544     43543     43537     43545
     43544     43537     43545     43537     43539     43541     43537     43539     43542
     43541     43539     43542     43550     43548     43554     43550     43548     43555
     43550     43548     43556     43554     43548     43555     43554     43548     43556
     43555     43548     43556     43548     43550     43552     43548     43550     43553
     43552     43550     43553     43561     43559     43565     43561     43559     43566
     43561     43559     43567     43565     43559     43566     43565     43559     43567
     43566     43559     43567     43559     43561     43563     43559     43561     43564
     43563     43561     43564     43572     43570     43576     43572     43570     43577
     43572     43570     43578     43576     43570     43577     43576     43570     43578
     43577     43570     43578     43570     43572     43574     43570     43572     43575
     43574     43572     43575     43583     43581     43587     43583     43581     43588
     43583     43581     43589     43587     43581     43588     43587     43581     43589
     43588     43581     43589     43581     43583     43585     43581     43583     43586
     43585     43583     43586     43594     43592     43598     43594     43592     43599
     43594     43592     43600     43598     43592     43599     43598     43592     43600
     43599     43592     43600     43592     43594     43596     43592     43594     43597
     43596     43594     43597     43605     43603     43609     43605     43603     43610
     43605     43603     43611     43609     43603     43610     43609     43603     43611
     43610     43603     43611     43603     43605     43607     43603     43605     43608
     43607     43605     43608     43616     43614     43620     43616     43614     43621
     43616     43614     43622     43620     43614     43621     43620     43614     43622
     43621     43614     43622     43614     43616     43618     43614     43616     43619
     43618     43616     43619     43627     43625     43631     43627     43625     43632
     43627     43625     43633     43631     43625     43632     43631     43625     43633
     43632     43625     43633     43625     43627     43629     43625     43627     43630
     43629     43627     43630     43638     43636     43642     43638     43636     43643
     43638     43636     43644     43642     43636     43643     43642     43636     43644
     43643     43636     43644     43636     43638     43640     43636     43638     43641
     43640     43638     43641     43649     43647     43653     43649     43647     43654
     43649     43647     43655     43653     43647     43654     43653     43647     43655
     43654     43647     43655     43647     43649     43651     43647     43649     43652
     43651     43649     43652     43660     43658     43664     43660     43658     43665
     43660     43658     43666     43664     43658     43665     43664     43658     43666
     43665     43658     43666     43658     43660     43662     43658     43660     43663
     43662     43660     43663     43671     43669     43675     43671     43669     43676
     43671     43669     43677     43675     43669     43676     43675     43669     43677
     43676     43669     43677     43669     43671     43673     43669     43671     43674
     43673     43671     43674     43682     43680     43686     43682     43680     43687
     43682     43680     43688     43686     43680     43687     43686     43680     43688
     43687     43680     43688     43680     43682     43684     43680     43682     43685
     43684     43682     43685     43693     43691     43697     43693     43691     43698
     43693     43691     43699     43697     43691     43698     43697     43691     43699
     43698     43691     43699     43691     43693     43695     43691     43693     43696
     43695     43693     43696     43704     43702     43708     43704     43702     43709
     43704     43702     43710     43708     43702     43709     43708     43702     43710
     43709     43702     43710     43702     43704     43706     43702     43704     43707
     43706     43704     43707     43715     43713     43719     43715     43713     43720
     43715     43713     43721     43719     43713     43720     43719     43713     43721
     43720     43713     43721     43713     43715     43717     43713     43715     43718
     43717     43715     43718     43726     43724     43730     43726     43724     43731
     43726     43724     43732     43730     43724     43731     43730     43724     43732
     43731     43724     43732     43724     43726     43728     43724     43726     43729
     43728     43726     43729     43737     43735     43741     43737     43735     43742
     43737     43735     43743     43741     43735     43742     43741     43735     43743
     43742     43735     43743     43735     43737     43739     43735     43737     43740
     43739     43737     43740     43748     43746     43752     43748     43746     43753
     43748     43746     43754     43752     43746     43753     43752     43746     43754
     43753     43746     43754     43746     43748     43750     43746     43748     43751
     43750     43748     43751     43759     43757     43763     43759     43757     43764
     43759     43757     43765     43763     43757     43764     43763     43757     43765
     43764     43757     43765     43757     43759     43761     43757     43759     43762
     43761     43759     43762     43770     43768     43774     43770     43768     43775
     43770     43768     43776     43774     43768     43775     43774     43768     43776
     43775     43768     43776     43768     43770     43772     43768     43770     43773
     43772     43770     43773     43781     43779     43785     43781     43779     43786
     43781     43779     43787     43785     43779     43786     43785     43779     43787
     43786     43779     43787     43779     43781     43783     43779     43781     43784
     43783     43781     43784     43792     43790     43796     43792     43790     43797
     43792     43790     43798     43796     43790     43797     43796     43790     43798
     43797     43790     43798     43790     43792     43794     43790     43792     43795
     43794     43792     43795     43803     43801     43807     43803     43801     43808
     43803     43801     43809     43807     43801     43808     43807     43801     43809
     43808     43801     43809     43801     43803     43805     43801     43803     43806
     43805     43803     43806     43814     43812     43818     43814     43812     43819
     43814     43812     43820     43818     43812     43819     43818     43812     43820
     43819     43812     43820     43812     43814     43816     43812     43814     43817
     43816     43814     43817     43825     43823     43829     43825     43823     43830
     43825     43823     43831     43829     43823     43830     43829     43823     43831
     43830     43823     43831     43823     43825     43827     43823     43825     43828
     43827     43825     43828     43836     43834     43840     43836     43834     43841
     43836     43834     43842     43840     43834     43841     43840     43834     43842
     43841     43834     43842     43834     43836     43838     43834     43836     43839
     43838     43836     43839     43847     43845     43851     43847     43845     43852
     43847     43845     43853     43851     43845     43852     43851     43845     43853
     43852     43845     43853     43845     43847     43849     43845     43847     43850
     43849     43847     43850     43858     43856     43862     43858     43856     43863
     43858     43856     43864     43862     43856     43863     43862     43856     43864
     43863     43856     43864     43856     43858     43860     43856     43858     43861
     43860     43858     43861     43869     43867     43873     43869     43867     43874
     43869     43867     43875     43873     43867     43874     43873     43867     43875
     43874     43867     43875     43867     43869     43871     43867     43869     43872
     43871     43869     43872     43880     43878     43884     43880     43878     43885
     43880     43878     43886     43884     43878     43885     43884     43878     43886
     43885     43878     43886     43878     43880     43882     43878     43880     43883
     43882     43880     43883     43891     43889     43895     43891     43889     43896
     43891     43889     43897     43895     43889     43896     43895     43889     43897
     43896     43889     43897     43889     43891     43893     43889     43891     43894
     43893     43891     43894     43902     43900     43906     43902     43900     43907
     43902     43900     43908     43906     43900     43907     43906     43900     43908
     43907     43900     43908     43900     43902     43904     43900     43902     43905
     43904     43902     43905     43913     43911     43917     43913     43911     43918
     43913     43911     43919     43917     43911     43918     43917     43911     43919
     43918     43911     43919     43911     43913     43915     43911     43913     43916
     43915     43913     43916     43924     43922     43928     43924     43922     43929
     43924     43922     43930     43928     43922     43929     43928     43922     43930
     43929     43922     43930     43922     43924     43926     43922     43924     43927
     43926     43924     43927     43935     43933     43939     43935     43933     43940
     43935     43933     43941     43939     43933     43940     43939     43933     43941
     43940     43933     43941     43933     43935     43937     43933     43935     43938
     43937     43935     43938     43946     43944     43950     43946     43944     43951
     43946     43944     43952     43950     43944     43951     43950     43944     43952
     43951     43944     43952     43944     43946     43948     43944     43946     43949
     43948     43946     43949     43957     43955     43961     43957     43955     43962
     43957     43955     43963     43961     43955     43962     43961     43955     43963
     43962     43955     43963     43955     43957     43959     43955     43957     43960
     43959     43957     43960     43968     43966     43972     43968     43966     43973
     43968     43966     43974     43972     43966     43973     43972     43966     43974
     43973     43966     43974     43966     43968     43970     43966     43968     43971
     43970     43968     43971     43979     43977     43983     43979     43977     43984
     43979     43977     43985     43983     43977     43984     43983     43977     43985
     43984     43977     43985     43977     43979     43981     43977     43979     43982
     43981     43979     43982     43990     43988     43994     43990     43988     43995
     43990     43988     43996     43994     43988     43995     43994     43988     43996
     43995     43988     43996     43988     43990     43992     43988     43990     43993
     43992     43990     43993     44001     43999     44005     44001     43999     44006
     44001     43999     44007     44005     43999     44006     44005     43999     44007
     44006     43999     44007     43999     44001     44003     43999     44001     44004
     44003     44001     44004     44012     44010     44016     44012     44010     44017
     44012     44010     44018     44016     44010     44017     44016     44010     44018
     44017     44010     44018     44010     44012     44014     44010     44012     44015
     44014     44012     44015     44023     44021     44027     44023     44021     44028
     44023     44021     44029     44027     44021     44028     44027     44021     44029
     44028     44021     44029     44021     44023     44025     44021     44023     44026
     44025     44023     44026     44034     44032     44038     44034     44032     44039
     44034     44032     44040     44038     44032     44039     44038     44032     44040
     44039     44032     44040     44032     44034     44036     44032     44034     44037
     44036     44034     44037     44045     44043     44049     44045     44043     44050
     44045     44043     44051     44049     44043     44050     44049     44043     44051
     44050     44043     44051     44043     44045     44047     44043     44045     44048
     44047     44045     44048     44056     44054     44060     44056     44054     44061
     44056     44054     44062     44060     44054     44061     44060     44054     44062
     44061     44054     44062     44054     44056     44058     44054     44056     44059
     44058     44056     44059     44067     44065     44071     44067     44065     44072
     44067     44065     44073     44071     44065     44072     44071     44065     44073
     44072     44065     44073     44065     44067     44069     44065     44067     44070
     44069     44067     44070     44078     44076     44082     44078     44076     44083
     44078     44076     44084     44082     44076     44083     44082     44076     44084
     44083     44076     44084     44076     44078     44080     44076     44078     44081
     44080     44078     44081     44089     44087     44093     44089     44087     44094
     44089     44087     44095     44093     44087     44094     44093     44087     44095
     44094     44087     44095     44087     44089     44091     44087     44089     44092
     44091     44089     44092     44100     44098     44104     44100     44098     44105
     44100     44098     44106     44104     44098     44105     44104     44098     44106
     44105     44098     44106     44098     44100     44102     44098     44100     44103
     44102     44100     44103     44111     44109     44115     44111     44109     44116
     44111     44109     44117     44115     44109     44116     44115     44109     44117
     44116     44109     44117     44109     44111     44113     44109     44111     44114
     44113     44111     44114     44122     44120     44126     44122     44120     44127
     44122     44120     44128     44126     44120     44127     44126     44120     44128
     44127     44120     44128     44120     44122     44124     44120     44122     44125
     44124     44122     44125     44133     44131     44137     44133     44131     44138
     44133     44131     44139     44137     44131     44138     44137     44131     44139
     44138     44131     44139     44131     44133     44135     44131     44133     44136
     44135     44133     44136     44144     44142     44148     44144     44142     44149
     44144     44142     44150     44148     44142     44149     44148     44142     44150
     44149     44142     44150     44142     44144     44146     44142     44144     44147
     44146     44144     44147     44155     44153     44159     44155     44153     44160
     44155     44153     44161     44159     44153     44160     44159     44153     44161
     44160     44153     44161     44153     44155     44157     44153     44155     44158
     44157     44155     44158     44166     44164     44170     44166     44164     44171
     44166     44164     44172     44170     44164     44171     44170     44164     44172
     44171     44164     44172     44164     44166     44168     44164     44166     44169
     44168     44166     44169     44177     44175     44181     44177     44175     44182
     44177     44175     44183     44181     44175     44182     44181     44175     44183
     44182     44175     44183     44175     44177     44179     44175     44177     44180
     44179     44177     44180     44188     44186     44192     44188     44186     44193
     44188     44186     44194     44192     44186     44193     44192     44186     44194
     44193     44186     44194     44186     44188     44190     44186     44188     44191
     44190     44188     44191     44199     44197     44203     44199     44197     44204
     44199     44197     44205     44203     44197     44204     44203     44197     44205
     44204     44197     44205     44197     44199     44201     44197     44199     44202
     44201     44199     44202     44210     44208     44214     44210     44208     44215
     44210     44208     44216     44214     44208     44215     44214     44208     44216
     44215     44208     44216     44208     44210     44212     44208     44210     44213
     44212     44210     44213     44221     44219     44225     44221     44219     44226
     44221     44219     44227     44225     44219     44226     44225     44219     44227
     44226     44219     44227     44219     44221     44223     44219     44221     44224
     44223     44221     44224     44232     44230     44236     44232     44230     44237
     44232     44230     44238     44236     44230     44237     44236     44230     44238
     44237     44230     44238     44230     44232     44234     44230     44232     44235
     44234     44232     44235     44243     44241     44247     44243     44241     44248
     44243     44241     44249     44247     44241     44248     44247     44241     44249
     44248     44241     44249     44241     44243     44245     44241     44243     44246
     44245     44243     44246     44254     44252     44258     44254     44252     44259
     44254     44252     44260     44258     44252     44259     44258     44252     44260
     44259     44252     44260     44252     44254     44256     44252     44254     44257
     44256     44254     44257     44265     44263     44269     44265     44263     44270
     44265     44263     44271     44269     44263     44270     44269     44263     44271
     44270     44263     44271     44263     44265     44267     44263     44265     44268
     44267     44265     44268     44276     44274     44280     44276     44274     44281
     44276     44274     44282     44280     44274     44281     44280     44274     44282
     44281     44274     44282     44274     44276     44278     44274     44276     44279
     44278     44276     44279     44287     44285     44291     44287     44285     44292
     44287     44285     44293     44291     44285     44292     44291     44285     44293
     44292     44285     44293     44285     44287     44289     44285     44287     44290
     44289     44287     44290     44298     44296     44302     44298     44296     44303
     44298     44296     44304     44302     44296     44303     44302     44296     44304
     44303     44296     44304     44296     44298     44300     44296     44298     44301
     44300     44298     44301     44309     44307     44313     44309     44307     44314
     44309     44307     44315     44313     44307     44314     44313     44307     44315
     44314     44307     44315     44307     44309     44311     44307     44309     44312
     44311     44309     44312     44320     44318     44324     44320     44318     44325
     44320     44318     44326     44324     44318     44325     44324     44318     44326
     44325     44318     44326     44318     44320     44322     44318     44320     44323
     44322     44320     44323     44331     44329     44335     44331     44329     44336
     44331     44329     44337     44335     44329     44336     44335     44329     44337
     44336     44329     44337     44329     44331     44333     44329     44331     44334
     44333     44331     44334     44342     44340     44346     44342     44340     44347
     44342     44340     44348     44346     44340     44347     44346     44340     44348
     44347     44340     44348     44340     44342     44344     44340     44342     44345
     44344     44342     44345     44353     44351     44357     44353     44351     44358
     44353     44351     44359     44357     44351     44358     44357     44351     44359
     44358     44351     44359     44351     44353     44355     44351     44353     44356
     44355     44353     44356     44364     44362     44368     44364     44362     44369
     44364     44362     44370     44368     44362     44369     44368     44362     44370
     44369     44362     44370     44362     44364     44366     44362     44364     44367
     44366     44364     44367     44375     44373     44379     44375     44373     44380
     44375     44373     44381     44379     44373     44380     44379     44373     44381
     44380     44373     44381     44373     44375     44377     44373     44375     44378
     44377     44375     44378     44386     44384     44390     44386     44384     44391
     44386     44384     44392     44390     44384     44391     44390     44384     44392
     44391     44384     44392     44384     44386     44388     44384     44386     44389
     44388     44386     44389     44397     44395     44401     44397     44395     44402
     44397     44395     44403     44401     44395     44402     44401     44395     44403
     44402     44395     44403     44395     44397     44399     44395     44397     44400
     44399     44397     44400     44408     44406     44412     44408     44406     44413
     44408     44406     44414     44412     44406     44413     44412     44406     44414
     44413     44406     44414     44406     44408     44410     44406     44408     44411
     44410     44408     44411     44419     44417     44423     44419     44417     44424
     44419     44417     44425     44423     44417     44424     44423     44417     44425
     44424     44417     44425     44417     44419     44421     44417     44419     44422
     44421     44419     44422     44430     44428     44434     44430     44428     44435
     44430     44428     44436     44434     44428     44435     44434     44428     44436
     44435     44428     44436     44428     44430     44432     44428     44430     44433
     44432     44430     44433     44441     44439     44445     44441     44439     44446
     44441     44439     44447     44445     44439     44446     44445     44439     44447
     44446     44439     44447     44439     44441     44443     44439     44441     44444
     44443     44441     44444     44452     44450     44456     44452     44450     44457
     44452     44450     44458     44456     44450     44457     44456     44450     44458
     44457     44450     44458     44450     44452     44454     44450     44452     44455
     44454     44452     44455     44463     44461     44467     44463     44461     44468
     44463     44461     44469     44467     44461     44468     44467     44461     44469
     44468     44461     44469     44461     44463     44465     44461     44463     44466
     44465     44463     44466     44474     44472     44478     44474     44472     44479
     44474     44472     44480     44478     44472     44479     44478     44472     44480
     44479     44472     44480     44472     44474     44476     44472     44474     44477
     44476     44474     44477     44485     44483     44489     44485     44483     44490
     44485     44483     44491     44489     44483     44490     44489     44483     44491
     44490     44483     44491     44483     44485     44487     44483     44485     44488
     44487     44485     44488     44496     44494     44500     44496     44494     44501
     44496     44494     44502     44500     44494     44501     44500     44494     44502
     44501     44494     44502     44494     44496     44498     44494     44496     44499
     44498     44496     44499     44507     44505     44511     44507     44505     44512
     44507     44505     44513     44511     44505     44512     44511     44505     44513
     44512     44505     44513     44505     44507     44509     44505     44507     44510
     44509     44507     44510     44518     44516     44522     44518     44516     44523
     44518     44516     44524     44522     44516     44523     44522     44516     44524
     44523     44516     44524     44516     44518     44520     44516     44518     44521
     44520     44518     44521     44529     44527     44533     44529     44527     44534
     44529     44527     44535     44533     44527     44534     44533     44527     44535
     44534     44527     44535     44527     44529     44531     44527     44529     44532
     44531     44529     44532     44540     44538     44544     44540     44538     44545
     44540     44538     44546     44544     44538     44545     44544     44538     44546
     44545     44538     44546     44538     44540     44542     44538     44540     44543
     44542     44540     44543     44551     44549     44555     44551     44549     44556
     44551     44549     44557     44555     44549     44556     44555     44549     44557
     44556     44549     44557     44549     44551     44553     44549     44551     44554
     44553     44551     44554     44562     44560     44566     44562     44560     44567
     44562     44560     44568     44566     44560     44567     44566     44560     44568
     44567     44560     44568     44560     44562     44564     44560     44562     44565
     44564     44562     44565     44573     44571     44577     44573     44571     44578
     44573     44571     44579     44577     44571     44578     44577     44571     44579
     44578     44571     44579     44571     44573     44575     44571     44573     44576
     44575     44573     44576     44584     44582     44588     44584     44582     44589
     44584     44582     44590     44588     44582     44589     44588     44582     44590
     44589     44582     44590     44582     44584     44586     44582     44584     44587
     44586     44584     44587     44595     44593     44599     44595     44593     44600
     44595     44593     44601     44599     44593     44600     44599     44593     44601
     44600     44593     44601     44593     44595     44597     44593     44595     44598
     44597     44595     44598     44606     44604     44610     44606     44604     44611
     44606     44604     44612     44610     44604     44611     44610     44604     44612
     44611     44604     44612     44604     44606     44608     44604     44606     44609
     44608     44606     44609     44617     44615     44621     44617     44615     44622
     44617     44615     44623     44621     44615     44622     44621     44615     44623
     44622     44615     44623     44615     44617     44619     44615     44617     44620
     44619     44617     44620     44628     44626     44632     44628     44626     44633
     44628     44626     44634     44632     44626     44633     44632     44626     44634
     44633     44626     44634     44626     44628     44630     44626     44628     44631
     44630     44628     44631     44639     44637     44643     44639     44637     44644
     44639     44637     44645     44643     44637     44644     44643     44637     44645
     44644     44637     44645     44637     44639     44641     44637     44639     44642
     44641     44639     44642     44650     44648     44654     44650     44648     44655
     44650     44648     44656     44654     44648     44655     44654     44648     44656
     44655     44648     44656     44648     44650     44652     44648     44650     44653
     44652     44650     44653     44661     44659     44665     44661     44659     44666
     44661     44659     44667     44665     44659     44666     44665     44659     44667
     44666     44659     44667     44659     44661     44663     44659     44661     44664
     44663     44661     44664     44672     44670     44676     44672     44670     44677
     44672     44670     44678     44676     44670     44677     44676     44670     44678
     44677     44670     44678     44670     44672     44674     44670     44672     44675
     44674     44672     44675     44683     44681     44687     44683     44681     44688
     44683     44681     44689     44687     44681     44688     44687     44681     44689
     44688     44681     44689     44681     44683     44685     44681     44683     44686
     44685     44683     44686     44694     44692     44698     44694     44692     44699
     44694     44692     44700     44698     44692     44699     44698     44692     44700
     44699     44692     44700     44692     44694     44696     44692     44694     44697
     44696     44694     44697     44705     44703     44709     44705     44703     44710
     44705     44703     44711     44709     44703     44710     44709     44703     44711
     44710     44703     44711     44703     44705     44707     44703     44705     44708
     44707     44705     44708     44716     44714     44720     44716     44714     44721
     44716     44714     44722     44720     44714     44721     44720     44714     44722
     44721     44714     44722     44714     44716     44718     44714     44716     44719
     44718     44716     44719     44727     44725     44731     44727     44725     44732
     44727     44725     44733     44731     44725     44732     44731     44725     44733
     44732     44725     44733     44725     44727     44729     44725     44727     44730
     44729     44727     44730     44738     44736     44742     44738     44736     44743
     44738     44736     44744     44742     44736     44743     44742     44736     44744
     44743     44736     44744     44736     44738     44740     44736     44738     44741
     44740     44738     44741     44749     44747     44753     44749     44747     44754
     44749     44747     44755     44753     44747     44754     44753     44747     44755
     44754     44747     44755     44747     44749     44751     44747     44749     44752
     44751     44749     44752     44760     44758     44764     44760     44758     44765
     44760     44758     44766     44764     44758     44765     44764     44758     44766
     44765     44758     44766     44758     44760     44762     44758     44760     44763
     44762     44760     44763     44771     44769     44775     44771     44769     44776
     44771     44769     44777     44775     44769     44776     44775     44769     44777
     44776     44769     44777     44769     44771     44773     44769     44771     44774
     44773     44771     44774     44782     44780     44786     44782     44780     44787
     44782     44780     44788     44786     44780     44787     44786     44780     44788
     44787     44780     44788     44780     44782     44784     44780     44782     44785
     44784     44782     44785     44793     44791     44797     44793     44791     44798
     44793     44791     44799     44797     44791     44798     44797     44791     44799
     44798     44791     44799     44791     44793     44795     44791     44793     44796
     44795     44793     44796     44804     44802     44808     44804     44802     44809
     44804     44802     44810     44808     44802     44809     44808     44802     44810
     44809     44802     44810     44802     44804     44806     44802     44804     44807
     44806     44804     44807     44815     44813     44819     44815     44813     44820
     44815     44813     44821     44819     44813     44820     44819     44813     44821
     44820     44813     44821     44813     44815     44817     44813     44815     44818
     44817     44815     44818     44826     44824     44830     44826     44824     44831
     44826     44824     44832     44830     44824     44831     44830     44824     44832
     44831     44824     44832     44824     44826     44828     44824     44826     44829
     44828     44826     44829     44837     44835     44841     44837     44835     44842
     44837     44835     44843     44841     44835     44842     44841     44835     44843
     44842     44835     44843     44835     44837     44839     44835     44837     44840
     44839     44837     44840     44848     44846     44852     44848     44846     44853
     44848     44846     44854     44852     44846     44853     44852     44846     44854
     44853     44846     44854     44846     44848     44850     44846     44848     44851
     44850     44848     44851     44859     44857     44863     44859     44857     44864
     44859     44857     44865     44863     44857     44864     44863     44857     44865
     44864     44857     44865     44857     44859     44861     44857     44859     44862
     44861     44859     44862     44870     44868     44874     44870     44868     44875
     44870     44868     44876     44874     44868     44875     44874     44868     44876
     44875     44868     44876     44868     44870     44872     44868     44870     44873
     44872     44870     44873     44881     44879     44885     44881     44879     44886
     44881     44879     44887     44885     44879     44886     44885     44879     44887
     44886     44879     44887     44879     44881     44883     44879     44881     44884
     44883     44881     44884     44892     44890     44896     44892     44890     44897
     44892     44890     44898     44896     44890     44897     44896     44890     44898
     44897     44890     44898     44890     44892     44894     44890     44892     44895
     44894     44892     44895     44903     44901     44907     44903     44901     44908
     44903     44901     44909     44907     44901     44908     44907     44901     44909
     44908     44901     44909     44901     44903     44905     44901     44903     44906
     44905     44903     44906     44914     44912     44918     44914     44912     44919
     44914     44912     44920     44918     44912     44919     44918     44912     44920
     44919     44912     44920     44912     44914     44916     44912     44914     44917
     44916     44914     44917     44925     44923     44929     44925     44923     44930
     44925     44923     44931     44929     44923     44930     44929     44923     44931
     44930     44923     44931     44923     44925     44927     44923     44925     44928
     44927     44925     44928     44936     44934     44940     44936     44934     44941
     44936     44934     44942     44940     44934     44941     44940     44934     44942
     44941     44934     44942     44934     44936     44938     44934     44936     44939
     44938     44936     44939     44947     44945     44951     44947     44945     44952
     44947     44945     44953     44951     44945     44952     44951     44945     44953
     44952     44945     44953     44945     44947     44949     44945     44947     44950
     44949     44947     44950     44958     44956     44962     44958     44956     44963
     44958     44956     44964     44962     44956     44963     44962     44956     44964
     44963     44956     44964     44956     44958     44960     44956     44958     44961
     44960     44958     44961     44969     44967     44973     44969     44967     44974
     44969     44967     44975     44973     44967     44974     44973     44967     44975
     44974     44967     44975     44967     44969     44971     44967     44969     44972
     44971     44969     44972     44980     44978     44984     44980     44978     44985
     44980     44978     44986     44984     44978     44985     44984     44978     44986
     44985     44978     44986     44978     44980     44982     44978     44980     44983
     44982     44980     44983     44991     44989     44995     44991     44989     44996
     44991     44989     44997     44995     44989     44996     44995     44989     44997
     44996     44989     44997     44989     44991     44993     44989     44991     44994
     44993     44991     44994     45002     45000     45006     45002     45000     45007
     45002     45000     45008     45006     45000     45007     45006     45000     45008
     45007     45000     45008     45000     45002     45004     45000     45002     45005
     45004     45002     45005     45013     45011     45017     45013     45011     45018
     45013     45011     45019     45017     45011     45018     45017     45011     45019
     45018     45011     45019     45011     45013     45015     45011     45013     45016
     45015     45013     45016     45024     45022     45028     45024     45022     45029
     45024     45022     45030     45028     45022     45029     45028     45022     45030
     45029     45022     45030     45022     45024     45026     45022     45024     45027
     45026     45024     45027     45035     45033     45039     45035     45033     45040
     45035     45033     45041     45039     45033     45040     45039     45033     45041
     45040     45033     45041     45033     45035     45037     45033     45035     45038
     45037     45035     45038     45046     45044     45050     45046     45044     45051
     45046     45044     45052     45050     45044     45051     45050     45044     45052
     45051     45044     45052     45044     45046     45048     45044     45046     45049
     45048     45046     45049     45057     45055     45061     45057     45055     45062
     45057     45055     45063     45061     45055     45062     45061     45055     45063
     45062     45055     45063     45055     45057     45059     45055     45057     45060
     45059     45057     45060     45068     45066     45072     45068     45066     45073
     45068     45066     45074     45072     45066     45073     45072     45066     45074
     45073     45066     45074     45066     45068     45070     45066     45068     45071
     45070     45068     45071     45079     45077     45083     45079     45077     45084
     45079     45077     45085     45083     45077     45084     45083     45077     45085
     45084     45077     45085     45077     45079     45081     45077     45079     45082
     45081     45079     45082     45090     45088     45094     45090     45088     45095
     45090     45088     45096     45094     45088     45095     45094     45088     45096
     45095     45088     45096     45088     45090     45092     45088     45090     45093
     45092     45090     45093     45101     45099     45105     45101     45099     45106
     45101     45099     45107     45105     45099     45106     45105     45099     45107
     45106     45099     45107     45099     45101     45103     45099     45101     45104
     45103     45101     45104     45112     45110     45116     45112     45110     45117
     45112     45110     45118     45116     45110     45117     45116     45110     45118
     45117     45110     45118     45110     45112     45114     45110     45112     45115
     45114     45112     45115     45123     45121     45127     45123     45121     45128
     45123     45121     45129     45127     45121     45128     45127     45121     45129
     45128     45121     45129     45121     45123     45125     45121     45123     45126
     45125     45123     45126     45134     45132     45138     45134     45132     45139
     45134     45132     45140     45138     45132     45139     45138     45132     45140
     45139     45132     45140     45132     45134     45136     45132     45134     45137
     45136     45134     45137     45145     45143     45149     45145     45143     45150
     45145     45143     45151     45149     45143     45150     45149     45143     45151
     45150     45143     45151     45143     45145     45147     45143     45145     45148
     45147     45145     45148     45156     45154     45160     45156     45154     45161
     45156     45154     45162     45160     45154     45161     45160     45154     45162
     45161     45154     45162     45154     45156     45158     45154     45156     45159
     45158     45156     45159     45167     45165     45171     45167     45165     45172
     45167     45165     45173     45171     45165     45172     45171     45165     45173
     45172     45165     45173     45165     45167     45169     45165     45167     45170
     45169     45167     45170     45178     45176     45182     45178     45176     45183
     45178     45176     45184     45182     45176     45183     45182     45176     45184
     45183     45176     45184     45176     45178     45180     45176     45178     45181
     45180     45178     45181     45189     45187     45193     45189     45187     45194
     45189     45187     45195     45193     45187     45194     45193     45187     45195
     45194     45187     45195     45187     45189     45191     45187     45189     45192
     45191     45189     45192     45200     45198     45204     45200     45198     45205
     45200     45198     45206     45204     45198     45205     45204     45198     45206
     45205     45198     45206     45198     45200     45202     45198     45200     45203
     45202     45200     45203     45211     45209     45215     45211     45209     45216
     45211     45209     45217     45215     45209     45216     45215     45209     45217
     45216     45209     45217     45209     45211     45213     45209     45211     45214
     45213     45211     45214     45222     45220     45226     45222     45220     45227
     45222     45220     45228     45226     45220     45227     45226     45220     45228
     45227     45220     45228     45220     45222     45224     45220     45222     45225
     45224     45222     45225     45233     45231     45237     45233     45231     45238
     45233     45231     45239     45237     45231     45238     45237     45231     45239
     45238     45231     45239     45231     45233     45235     45231     45233     45236
     45235     45233     45236     45244     45242     45248     45244     45242     45249
     45244     45242     45250     45248     45242     45249     45248     45242     45250
     45249     45242     45250     45242     45244     45246     45242     45244     45247
     45246     45244     45247     45255     45253     45259     45255     45253     45260
     45255     45253     45261     45259     45253     45260     45259     45253     45261
     45260     45253     45261     45253     45255     45257     45253     45255     45258
     45257     45255     45258     45266     45264     45270     45266     45264     45271
     45266     45264     45272     45270     45264     45271     45270     45264     45272
     45271     45264     45272     45264     45266     45268     45264     45266     45269
     45268     45266     45269     45277     45275     45281     45277     45275     45282
     45277     45275     45283     45281     45275     45282     45281     45275     45283
     45282     45275     45283     45275     45277     45279     45275     45277     45280
     45279     45277     45280     45288     45286     45292     45288     45286     45293
     45288     45286     45294     45292     45286     45293     45292     45286     45294
     45293     45286     45294     45286     45288     45290     45286     45288     45291
     45290     45288     45291     45299     45297     45303     45299     45297     45304
     45299     45297     45305     45303     45297     45304     45303     45297     45305
     45304     45297     45305     45297     45299     45301     45297     45299     45302
     45301     45299     45302     45310     45308     45314     45310     45308     45315
     45310     45308     45316     45314     45308     45315     45314     45308     45316
     45315     45308     45316     45308     45310     45312     45308     45310     45313
     45312     45310     45313     45321     45319     45325     45321     45319     45326
     45321     45319     45327     45325     45319     45326     45325     45319     45327
     45326     45319     45327     45319     45321     45323     45319     45321     45324
     45323     45321     45324     45332     45330     45336     45332     45330     45337
     45332     45330     45338     45336     45330     45337     45336     45330     45338
     45337     45330     45338     45330     45332     45334     45330     45332     45335
     45334     45332     45335     45343     45341     45347     45343     45341     45348
     45343     45341     45349     45347     45341     45348     45347     45341     45349
     45348     45341     45349     45341     45343     45345     45341     45343     45346
     45345     45343     45346     45354     45352     45358     45354     45352     45359
     45354     45352     45360     45358     45352     45359     45358     45352     45360
     45359     45352     45360     45352     45354     45356     45352     45354     45357
     45356     45354     45357     45365     45363     45369     45365     45363     45370
     45365     45363     45371     45369     45363     45370     45369     45363     45371
     45370     45363     45371     45363     45365     45367     45363     45365     45368
     45367     45365     45368     45376     45374     45380     45376     45374     45381
     45376     45374     45382     45380     45374     45381     45380     45374     45382
     45381     45374     45382     45374     45376     45378     45374     45376     45379
     45378     45376     45379     45387     45385     45391     45387     45385     45392
     45387     45385     45393     45391     45385     45392     45391     45385     45393
     45392     45385     45393     45385     45387     45389     45385     45387     45390
     45389     45387     45390     45398     45396     45402     45398     45396     45403
     45398     45396     45404     45402     45396     45403     45402     45396     45404
     45403     45396     45404     45396     45398     45400     45396     45398     45401
     45400     45398     45401     45409     45407     45413     45409     45407     45414
     45409     45407     45415     45413     45407     45414     45413     45407     45415
     45414     45407     45415     45407     45409     45411     45407     45409     45412
     45411     45409     45412     45420     45418     45424     45420     45418     45425
     45420     45418     45426     45424     45418     45425     45424     45418     45426
     45425     45418     45426     45418     45420     45422     45418     45420     45423
     45422     45420     45423     45431     45429     45435     45431     45429     45436
     45431     45429     45437     45435     45429     45436     45435     45429     45437
     45436     45429     45437     45429     45431     45433     45429     45431     45434
     45433     45431     45434     45442     45440     45446     45442     45440     45447
     45442     45440     45448     45446     45440     45447     45446     45440     45448
     45447     45440     45448     45440     45442     45444     45440     45442     45445
     45444     45442     45445     45453     45451     45457     45453     45451     45458
     45453     45451     45459     45457     45451     45458     45457     45451     45459
     45458     45451     45459     45451     45453     45455     45451     45453     45456
     45455     45453     45456     45464     45462     45468     45464     45462     45469
     45464     45462     45470     45468     45462     45469     45468     45462     45470
     45469     45462     45470     45462     45464     45466     45462     45464     45467
     45466     45464     45467     45475     45473     45479     45475     45473     45480
     45475     45473     45481     45479     45473     45480     45479     45473     45481
     45480     45473     45481     45473     45475     45477     45473     45475     45478
     45477     45475     45478     45486     45484     45490     45486     45484     45491
     45486     45484     45492     45490     45484     45491     45490     45484     45492
     45491     45484     45492     45484     45486     45488     45484     45486     45489
     45488     45486     45489     45497     45495     45501     45497     45495     45502
     45497     45495     45503     45501     45495     45502     45501     45495     45503
     45502     45495     45503     45495     45497     45499     45495     45497     45500
     45499     45497     45500     45508     45506     45512     45508     45506     45513
     45508     45506     45514     45512     45506     45513     45512     45506     45514
     45513     45506     45514     45506     45508     45510     45506     45508     45511
     45510     45508     45511     45519     45517     45523     45519     45517     45524
     45519     45517     45525     45523     45517     45524     45523     45517     45525
     45524     45517     45525     45517     45519     45521     45517     45519     45522
     45521     45519     45522     45530     45528     45534     45530     45528     45535
     45530     45528     45536     45534     45528     45535     45534     45528     45536
     45535     45528     45536     45528     45530     45532     45528     45530     45533
     45532     45530     45533     45541     45539     45545     45541     45539     45546
     45541     45539     45547     45545     45539     45546     45545     45539     45547
     45546     45539     45547     45539     45541     45543     45539     45541     45544
     45543     45541     45544     45552     45550     45556     45552     45550     45557
     45552     45550     45558     45556     45550     45557     45556     45550     45558
     45557     45550     45558     45550     45552     45554     45550     45552     45555
     45554     45552     45555     45563     45561     45567     45563     45561     45568
     45563     45561     45569     45567     45561     45568     45567     45561     45569
     45568     45561     45569     45561     45563     45565     45561     45563     45566
     45565     45563     45566     45574     45572     45578     45574     45572     45579
     45574     45572     45580     45578     45572     45579     45578     45572     45580
     45579     45572     45580     45572     45574     45576     45572     45574     45577
     45576     45574     45577     45585     45583     45589     45585     45583     45590
     45585     45583     45591     45589     45583     45590     45589     45583     45591
     45590     45583     45591     45583     45585     45587     45583     45585     45588
     45587     45585     45588     45596     45594     45600     45596     45594     45601
     45596     45594     45602     45600     45594     45601     45600     45594     45602
     45601     45594     45602     45594     45596     45598     45594     45596     45599
     45598     45596     45599     45607     45605     45611     45607     45605     45612
     45607     45605     45613     45611     45605     45612     45611     45605     45613
     45612     45605     45613     45605     45607     45609     45605     45607     45610
     45609     45607     45610     45618     45616     45622     45618     45616     45623
     45618     45616     45624     45622     45616     45623     45622     45616     45624
     45623     45616     45624     45616     45618     45620     45616     45618     45621
     45620     45618     45621     45629     45627     45633     45629     45627     45634
     45629     45627     45635     45633     45627     45634     45633     45627     45635
     45634     45627     45635     45627     45629     45631     45627     45629     45632
     45631     45629     45632     45640     45638     45644     45640     45638     45645
     45640     45638     45646     45644     45638     45645     45644     45638     45646
     45645     45638     45646     45638     45640     45642     45638     45640     45643
     45642     45640     45643     45651     45649     45655     45651     45649     45656
     45651     45649     45657     45655     45649     45656     45655     45649     45657
     45656     45649     45657     45649     45651     45653     45649     45651     45654
     45653     45651     45654     45662     45660     45666     45662     45660     45667
     45662     45660     45668     45666     45660     45667     45666     45660     45668
     45667     45660     45668     45660     45662     45664     45660     45662     45665
     45664     45662     45665     45673     45671     45677     45673     45671     45678
     45673     45671     45679     45677     45671     45678     45677     45671     45679
     45678     45671     45679     45671     45673     45675     45671     45673     45676
     45675     45673     45676     45684     45682     45688     45684     45682     45689
     45684     45682     45690     45688     45682     45689     45688     45682     45690
     45689     45682     45690     45682     45684     45686     45682     45684     45687
     45686     45684     45687     45695     45693     45699     45695     45693     45700
     45695     45693     45701     45699     45693     45700     45699     45693     45701
     45700     45693     45701     45693     45695     45697     45693     45695     45698
     45697     45695     45698     45706     45704     45710     45706     45704     45711
     45706     45704     45712     45710     45704     45711     45710     45704     45712
     45711     45704     45712     45704     45706     45708     45704     45706     45709
     45708     45706     45709     45717     45715     45721     45717     45715     45722
     45717     45715     45723     45721     45715     45722     45721     45715     45723
     45722     45715     45723     45715     45717     45719     45715     45717     45720
     45719     45717     45720     45728     45726     45732     45728     45726     45733
     45728     45726     45734     45732     45726     45733     45732     45726     45734
     45733     45726     45734     45726     45728     45730     45726     45728     45731
     45730     45728     45731     45739     45737     45743     45739     45737     45744
     45739     45737     45745     45743     45737     45744     45743     45737     45745
     45744     45737     45745     45737     45739     45741     45737     45739     45742
     45741     45739     45742     45750     45748     45754     45750     45748     45755
     45750     45748     45756     45754     45748     45755     45754     45748     45756
     45755     45748     45756     45748     45750     45752     45748     45750     45753
     45752     45750     45753     45761     45759     45765     45761     45759     45766
     45761     45759     45767     45765     45759     45766     45765     45759     45767
     45766     45759     45767     45759     45761     45763     45759     45761     45764
     45763     45761     45764     45772     45770     45776     45772     45770     45777
     45772     45770     45778     45776     45770     45777     45776     45770     45778
     45777     45770     45778     45770     45772     45774     45770     45772     45775
     45774     45772     45775     45783     45781     45787     45783     45781     45788
     45783     45781     45789     45787     45781     45788     45787     45781     45789
     45788     45781     45789     45781     45783     45785     45781     45783     45786
     45785     45783     45786     45794     45792     45798     45794     45792     45799
     45794     45792     45800     45798     45792     45799     45798     45792     45800
     45799     45792     45800     45792     45794     45796     45792     45794     45797
     45796     45794     45797     45805     45803     45809     45805     45803     45810
     45805     45803     45811     45809     45803     45810     45809     45803     45811
     45810     45803     45811     45803     45805     45807     45803     45805     45808
     45807     45805     45808     45816     45814     45820     45816     45814     45821
     45816     45814     45822     45820     45814     45821     45820     45814     45822
     45821     45814     45822     45814     45816     45818     45814     45816     45819
     45818     45816     45819     45827     45825     45831     45827     45825     45832
     45827     45825     45833     45831     45825     45832     45831     45825     45833
     45832     45825     45833     45825     45827     45829     45825     45827     45830
     45829     45827     45830     45838     45836     45842     45838     45836     45843
     45838     45836     45844     45842     45836     45843     45842     45836     45844
     45843     45836     45844     45836     45838     45840     45836     45838     45841
     45840     45838     45841     45849     45847     45853     45849     45847     45854
     45849     45847     45855     45853     45847     45854     45853     45847     45855
     45854     45847     45855     45847     45849     45851     45847     45849     45852
     45851     45849     45852     45860     45858     45864     45860     45858     45865
     45860     45858     45866     45864     45858     45865     45864     45858     45866
     45865     45858     45866     45858     45860     45862     45858     45860     45863
     45862     45860     45863     45871     45869     45875     45871     45869     45876
     45871     45869     45877     45875     45869     45876     45875     45869     45877
     45876     45869     45877     45869     45871     45873     45869     45871     45874
     45873     45871     45874     45882     45880     45886     45882     45880     45887
     45882     45880     45888     45886     45880     45887     45886     45880     45888
     45887     45880     45888     45880     45882     45884     45880     45882     45885
     45884     45882     45885     45893     45891     45897     45893     45891     45898
     45893     45891     45899     45897     45891     45898     45897     45891     45899
     45898     45891     45899     45891     45893     45895     45891     45893     45896
     45895     45893     45896     45904     45902     45908     45904     45902     45909
     45904     45902     45910     45908     45902     45909     45908     45902     45910
     45909     45902     45910     45902     45904     45906     45902     45904     45907
     45906     45904     45907     45915     45913     45919     45915     45913     45920
     45915     45913     45921     45919     45913     45920     45919     45913     45921
     45920     45913     45921     45913     45915     45917     45913     45915     45918
     45917     45915     45918     45926     45924     45930     45926     45924     45931
     45926     45924     45932     45930     45924     45931     45930     45924     45932
     45931     45924     45932     45924     45926     45928     45924     45926     45929
     45928     45926     45929     45937     45935     45941     45937     45935     45942
     45937     45935     45943     45941     45935     45942     45941     45935     45943
     45942     45935     45943     45935     45937     45939     45935     45937     45940
     45939     45937     45940     45948     45946     45952     45948     45946     45953
     45948     45946     45954     45952     45946     45953     45952     45946     45954
     45953     45946     45954     45946     45948     45950     45946     45948     45951
     45950     45948     45951     45959     45957     45963     45959     45957     45964
     45959     45957     45965     45963     45957     45964     45963     45957     45965
     45964     45957     45965     45957     45959     45961     45957     45959     45962
     45961     45959     45962     45970     45968     45974     45970     45968     45975
     45970     45968     45976     45974     45968     45975     45974     45968     45976
     45975     45968     45976     45968     45970     45972     45968     45970     45973
     45972     45970     45973     45981     45979     45985     45981     45979     45986
     45981     45979     45987     45985     45979     45986     45985     45979     45987
     45986     45979     45987     45979     45981     45983     45979     45981     45984
     45983     45981     45984     45992     45990     45996     45992     45990     45997
     45992     45990     45998     45996     45990     45997     45996     45990     45998
     45997     45990     45998     45990     45992     45994     45990     45992     45995
     45994     45992     45995     46003     46001     46007     46003     46001     46008
     46003     46001     46009     46007     46001     46008     46007     46001     46009
     46008     46001     46009     46001     46003     46005     46001     46003     46006
     46005     46003     46006     46014     46012     46018     46014     46012     46019
     46014     46012     46020     46018     46012     46019     46018     46012     46020
     46019     46012     46020     46012     46014     46016     46012     46014     46017
     46016     46014     46017     46025     46023     46029     46025     46023     46030
     46025     46023     46031     46029     46023     46030     46029     46023     46031
     46030     46023     46031     46023     46025     46027     46023     46025     46028
     46027     46025     46028     46036     46034     46040     46036     46034     46041
     46036     46034     46042     46040     46034     46041     46040     46034     46042
     46041     46034     46042     46034     46036     46038     46034     46036     46039
     46038     46036     46039     46047     46045     46051     46047     46045     46052
     46047     46045     46053     46051     46045     46052     46051     46045     46053
     46052     46045     46053     46045     46047     46049     46045     46047     46050
     46049     46047     46050     46058     46056     46062     46058     46056     46063
     46058     46056     46064     46062     46056     46063     46062     46056     46064
     46063     46056     46064     46056     46058     46060     46056     46058     46061
     46060     46058     46061     46069     46067     46073     46069     46067     46074
     46069     46067     46075     46073     46067     46074     46073     46067     46075
     46074     46067     46075     46067     46069     46071     46067     46069     46072
     46071     46069     46072     46080     46078     46084     46080     46078     46085
     46080     46078     46086     46084     46078     46085     46084     46078     46086
     46085     46078     46086     46078     46080     46082     46078     46080     46083
     46082     46080     46083     46091     46089     46095     46091     46089     46096
     46091     46089     46097     46095     46089     46096     46095     46089     46097
     46096     46089     46097     46089     46091     46093     46089     46091     46094
     46093     46091     46094     46102     46100     46106     46102     46100     46107
     46102     46100     46108     46106     46100     46107     46106     46100     46108
     46107     46100     46108     46100     46102     46104     46100     46102     46105
     46104     46102     46105     46113     46111     46117     46113     46111     46118
     46113     46111     46119     46117     46111     46118     46117     46111     46119
     46118     46111     46119     46111     46113     46115     46111     46113     46116
     46115     46113     46116     46124     46122     46128     46124     46122     46129
     46124     46122     46130     46128     46122     46129     46128     46122     46130
     46129     46122     46130     46122     46124     46126     46122     46124     46127
     46126     46124     46127     46135     46133     46139     46135     46133     46140
     46135     46133     46141     46139     46133     46140     46139     46133     46141
     46140     46133     46141     46133     46135     46137     46133     46135     46138
     46137     46135     46138     46146     46144     46150     46146     46144     46151
     46146     46144     46152     46150     46144     46151     46150     46144     46152
     46151     46144     46152     46144     46146     46148     46144     46146     46149
     46148     46146     46149     46157     46155     46161     46157     46155     46162
     46157     46155     46163     46161     46155     46162     46161     46155     46163
     46162     46155     46163     46155     46157     46159     46155     46157     46160
     46159     46157     46160     46168     46166     46172     46168     46166     46173
     46168     46166     46174     46172     46166     46173     46172     46166     46174
     46173     46166     46174     46166     46168     46170     46166     46168     46171
     46170     46168     46171     46179     46177     46183     46179     46177     46184
     46179     46177     46185     46183     46177     46184     46183     46177     46185
     46184     46177     46185     46177     46179     46181     46177     46179     46182
     46181     46179     46182     46190     46188     46194     46190     46188     46195
     46190     46188     46196     46194     46188     46195     46194     46188     46196
     46195     46188     46196     46188     46190     46192     46188     46190     46193
     46192     46190     46193     46201     46199     46205     46201     46199     46206
     46201     46199     46207     46205     46199     46206     46205     46199     46207
     46206     46199     46207     46199     46201     46203     46199     46201     46204
     46203     46201     46204     46212     46210     46216     46212     46210     46217
     46212     46210     46218     46216     46210     46217     46216     46210     46218
     46217     46210     46218     46210     46212     46214     46210     46212     46215
     46214     46212     46215     46223     46221     46227     46223     46221     46228
     46223     46221     46229     46227     46221     46228     46227     46221     46229
     46228     46221     46229     46221     46223     46225     46221     46223     46226
     46225     46223     46226     46234     46232     46238     46234     46232     46239
     46234     46232     46240     46238     46232     46239     46238     46232     46240
     46239     46232     46240     46232     46234     46236     46232     46234     46237
     46236     46234     46237     46245     46243     46249     46245     46243     46250
     46245     46243     46251     46249     46243     46250     46249     46243     46251
     46250     46243     46251     46243     46245     46247     46243     46245     46248
     46247     46245     46248     46256     46254     46260     46256     46254     46261
     46256     46254     46262     46260     46254     46261     46260     46254     46262
     46261     46254     46262     46254     46256     46258     46254     46256     46259
     46258     46256     46259     46267     46265     46271     46267     46265     46272
     46267     46265     46273     46271     46265     46272     46271     46265     46273
     46272     46265     46273     46265     46267     46269     46265     46267     46270
     46269     46267     46270     46278     46276     46282     46278     46276     46283
     46278     46276     46284     46282     46276     46283     46282     46276     46284
     46283     46276     46284     46276     46278     46280     46276     46278     46281
     46280     46278     46281     46289     46287     46293     46289     46287     46294
     46289     46287     46295     46293     46287     46294     46293     46287     46295
     46294     46287     46295     46287     46289     46291     46287     46289     46292
     46291     46289     46292     46300     46298     46304     46300     46298     46305
     46300     46298     46306     46304     46298     46305     46304     46298     46306
     46305     46298     46306     46298     46300     46302     46298     46300     46303
     46302     46300     46303     46311     46309     46315     46311     46309     46316
     46311     46309     46317     46315     46309     46316     46315     46309     46317
     46316     46309     46317     46309     46311     46313     46309     46311     46314
     46313     46311     46314     46322     46320     46326     46322     46320     46327
     46322     46320     46328     46326     46320     46327     46326     46320     46328
     46327     46320     46328     46320     46322     46324     46320     46322     46325
     46324     46322     46325     46333     46331     46337     46333     46331     46338
     46333     46331     46339     46337     46331     46338     46337     46331     46339
     46338     46331     46339     46331     46333     46335     46331     46333     46336
     46335     46333     46336     46344     46342     46348     46344     46342     46349
     46344     46342     46350     46348     46342     46349     46348     46342     46350
     46349     46342     46350     46342     46344     46346     46342     46344     46347
     46346     46344     46347     46355     46353     46359     46355     46353     46360
     46355     46353     46361     46359     46353     46360     46359     46353     46361
     46360     46353     46361     46353     46355     46357     46353     46355     46358
     46357     46355     46358     46366     46364     46370     46366     46364     46371
     46366     46364     46372     46370     46364     46371     46370     46364     46372
     46371     46364     46372     46364     46366     46368     46364     46366     46369
     46368     46366     46369     46377     46375     46381     46377     46375     46382
     46377     46375     46383     46381     46375     46382     46381     46375     46383
     46382     46375     46383     46375     46377     46379     46375     46377     46380
     46379     46377     46380     46388     46386     46392     46388     46386     46393
     46388     46386     46394     46392     46386     46393     46392     46386     46394
     46393     46386     46394     46386     46388     46390     46386     46388     46391
     46390     46388     46391     46399     46397     46403     46399     46397     46404
     46399     46397     46405     46403     46397     46404     46403     46397     46405
     46404     46397     46405     46397     46399     46401     46397     46399     46402
     46401     46399     46402     46410     46408     46414     46410     46408     46415
     46410     46408     46416     46414     46408     46415     46414     46408     46416
     46415     46408     46416     46408     46410     46412     46408     46410     46413
     46412     46410     46413     46421     46419     46425     46421     46419     46426
     46421     46419     46427     46425     46419     46426     46425     46419     46427
     46426     46419     46427     46419     46421     46423     46419     46421     46424
     46423     46421     46424     46432     46430     46436     46432     46430     46437
     46432     46430     46438     46436     46430     46437     46436     46430     46438
     46437     46430     46438     46430     46432     46434     46430     46432     46435
     46434     46432     46435     46443     46441     46447     46443     46441     46448
     46443     46441     46449     46447     46441     46448     46447     46441     46449
     46448     46441     46449     46441     46443     46445     46441     46443     46446
     46445     46443     46446     46454     46452     46458     46454     46452     46459
     46454     46452     46460     46458     46452     46459     46458     46452     46460
     46459     46452     46460     46452     46454     46456     46452     46454     46457
     46456     46454     46457     46465     46463     46469     46465     46463     46470
     46465     46463     46471     46469     46463     46470     46469     46463     46471
     46470     46463     46471     46463     46465     46467     46463     46465     46468
     46467     46465     46468     46476     46474     46480     46476     46474     46481
     46476     46474     46482     46480     46474     46481     46480     46474     46482
     46481     46474     46482     46474     46476     46478     46474     46476     46479
     46478     46476     46479     46487     46485     46491     46487     46485     46492
     46487     46485     46493     46491     46485     46492     46491     46485     46493
     46492     46485     46493     46485     46487     46489     46485     46487     46490
     46489     46487     46490     46498     46496     46502     46498     46496     46503
     46498     46496     46504     46502     46496     46503     46502     46496     46504
     46503     46496     46504     46496     46498     46500     46496     46498     46501
     46500     46498     46501     46509     46507     46513     46509     46507     46514
     46509     46507     46515     46513     46507     46514     46513     46507     46515
     46514     46507     46515     46507     46509     46511     46507     46509     46512
     46511     46509     46512     46520     46518     46524     46520     46518     46525
     46520     46518     46526     46524     46518     46525     46524     46518     46526
     46525     46518     46526     46518     46520     46522     46518     46520     46523
     46522     46520     46523     46531     46529     46535     46531     46529     46536
     46531     46529     46537     46535     46529     46536     46535     46529     46537
     46536     46529     46537     46529     46531     46533     46529     46531     46534
     46533     46531     46534     46542     46540     46546     46542     46540     46547
     46542     46540     46548     46546     46540     46547     46546     46540     46548
     46547     46540     46548     46540     46542     46544     46540     46542     46545
     46544     46542     46545     46553     46551     46557     46553     46551     46558
     46553     46551     46559     46557     46551     46558     46557     46551     46559
     46558     46551     46559     46551     46553     46555     46551     46553     46556
     46555     46553     46556     46564     46562     46568     46564     46562     46569
     46564     46562     46570     46568     46562     46569     46568     46562     46570
     46569     46562     46570     46562     46564     46566     46562     46564     46567
     46566     46564     46567     46575     46573     46579     46575     46573     46580
     46575     46573     46581     46579     46573     46580     46579     46573     46581
     46580     46573     46581     46573     46575     46577     46573     46575     46578
     46577     46575     46578     46586     46584     46590     46586     46584     46591
     46586     46584     46592     46590     46584     46591     46590     46584     46592
     46591     46584     46592     46584     46586     46588     46584     46586     46589
     46588     46586     46589     46597     46595     46601     46597     46595     46602
     46597     46595     46603     46601     46595     46602     46601     46595     46603
     46602     46595     46603     46595     46597     46599     46595     46597     46600
     46599     46597     46600     46608     46606     46612     46608     46606     46613
     46608     46606     46614     46612     46606     46613     46612     46606     46614
     46613     46606     46614     46606     46608     46610     46606     46608     46611
     46610     46608     46611     46619     46617     46623     46619     46617     46624
     46619     46617     46625     46623     46617     46624     46623     46617     46625
     46624     46617     46625     46617     46619     46621     46617     46619     46622
     46621     46619     46622     46630     46628     46634     46630     46628     46635
     46630     46628     46636     46634     46628     46635     46634     46628     46636
     46635     46628     46636     46628     46630     46632     46628     46630     46633
     46632     46630     46633     46641     46639     46645     46641     46639     46646
     46641     46639     46647     46645     46639     46646     46645     46639     46647
     46646     46639     46647     46639     46641     46643     46639     46641     46644
     46643     46641     46644     46652     46650     46656     46652     46650     46657
     46652     46650     46658     46656     46650     46657     46656     46650     46658
     46657     46650     46658     46650     46652     46654     46650     46652     46655
     46654     46652     46655     46663     46661     46667     46663     46661     46668
     46663     46661     46669     46667     46661     46668     46667     46661     46669
     46668     46661     46669     46661     46663     46665     46661     46663     46666
     46665     46663     46666     46674     46672     46678     46674     46672     46679
     46674     46672     46680     46678     46672     46679     46678     46672     46680
     46679     46672     46680     46672     46674     46676     46672     46674     46677
     46676     46674     46677     46685     46683     46689     46685     46683     46690
     46685     46683     46691     46689     46683     46690     46689     46683     46691
     46690     46683     46691     46683     46685     46687     46683     46685     46688
     46687     46685     46688     46696     46694     46700     46696     46694     46701
     46696     46694     46702     46700     46694     46701     46700     46694     46702
     46701     46694     46702     46694     46696     46698     46694     46696     46699
     46698     46696     46699     46707     46705     46711     46707     46705     46712
     46707     46705     46713     46711     46705     46712     46711     46705     46713
     46712     46705     46713     46705     46707     46709     46705     46707     46710
     46709     46707     46710     46718     46716     46722     46718     46716     46723
     46718     46716     46724     46722     46716     46723     46722     46716     46724
     46723     46716     46724     46716     46718     46720     46716     46718     46721
     46720     46718     46721     46729     46727     46733     46729     46727     46734
     46729     46727     46735     46733     46727     46734     46733     46727     46735
     46734     46727     46735     46727     46729     46731     46727     46729     46732
     46731     46729     46732     46740     46738     46744     46740     46738     46745
     46740     46738     46746     46744     46738     46745     46744     46738     46746
     46745     46738     46746     46738     46740     46742     46738     46740     46743
     46742     46740     46743     46751     46749     46755     46751     46749     46756
     46751     46749     46757     46755     46749     46756     46755     46749     46757
     46756     46749     46757     46749     46751     46753     46749     46751     46754
     46753     46751     46754     46762     46760     46766     46762     46760     46767
     46762     46760     46768     46766     46760     46767     46766     46760     46768
     46767     46760     46768     46760     46762     46764     46760     46762     46765
     46764     46762     46765     46773     46771     46777     46773     46771     46778
     46773     46771     46779     46777     46771     46778     46777     46771     46779
     46778     46771     46779     46771     46773     46775     46771     46773     46776
     46775     46773     46776     46784     46782     46788     46784     46782     46789
     46784     46782     46790     46788     46782     46789     46788     46782     46790
     46789     46782     46790     46782     46784     46786     46782     46784     46787
     46786     46784     46787     46795     46793     46799     46795     46793     46800
     46795     46793     46801     46799     46793     46800     46799     46793     46801
     46800     46793     46801     46793     46795     46797     46793     46795     46798
     46797     46795     46798     46806     46804     46810     46806     46804     46811
     46806     46804     46812     46810     46804     46811     46810     46804     46812
     46811     46804     46812     46804     46806     46808     46804     46806     46809
     46808     46806     46809     46817     46815     46821     46817     46815     46822
     46817     46815     46823     46821     46815     46822     46821     46815     46823
     46822     46815     46823     46815     46817     46819     46815     46817     46820
     46819     46817     46820     46828     46826     46832     46828     46826     46833
     46828     46826     46834     46832     46826     46833     46832     46826     46834
     46833     46826     46834     46826     46828     46830     46826     46828     46831
     46830     46828     46831     46839     46837     46843     46839     46837     46844
     46839     46837     46845     46843     46837     46844     46843     46837     46845
     46844     46837     46845     46837     46839     46841     46837     46839     46842
     46841     46839     46842     46850     46848     46854     46850     46848     46855
     46850     46848     46856     46854     46848     46855     46854     46848     46856
     46855     46848     46856     46848     46850     46852     46848     46850     46853
     46852     46850     46853     46861     46859     46865     46861     46859     46866
     46861     46859     46867     46865     46859     46866     46865     46859     46867
     46866     46859     46867     46859     46861     46863     46859     46861     46864
     46863     46861     46864     46872     46870     46876     46872     46870     46877
     46872     46870     46878     46876     46870     46877     46876     46870     46878
     46877     46870     46878     46870     46872     46874     46870     46872     46875
     46874     46872     46875     46883     46881     46887     46883     46881     46888
     46883     46881     46889     46887     46881     46888     46887     46881     46889
     46888     46881     46889     46881     46883     46885     46881     46883     46886
     46885     46883     46886     46894     46892     46898     46894     46892     46899
     46894     46892     46900     46898     46892     46899     46898     46892     46900
     46899     46892     46900     46892     46894     46896     46892     46894     46897
     46896     46894     46897     46905     46903     46909     46905     46903     46910
     46905     46903     46911     46909     46903     46910     46909     46903     46911
     46910     46903     46911     46903     46905     46907     46903     46905     46908
     46907     46905     46908     46916     46914     46920     46916     46914     46921
     46916     46914     46922     46920     46914     46921     46920     46914     46922
     46921     46914     46922     46914     46916     46918     46914     46916     46919
     46918     46916     46919     46927     46925     46931     46927     46925     46932
     46927     46925     46933     46931     46925     46932     46931     46925     46933
     46932     46925     46933     46925     46927     46929     46925     46927     46930
     46929     46927     46930     46938     46936     46942     46938     46936     46943
     46938     46936     46944     46942     46936     46943     46942     46936     46944
     46943     46936     46944     46936     46938     46940     46936     46938     46941
     46940     46938     46941     46949     46947     46953     46949     46947     46954
     46949     46947     46955     46953     46947     46954     46953     46947     46955
     46954     46947     46955     46947     46949     46951     46947     46949     46952
     46951     46949     46952     46960     46958     46964     46960     46958     46965
     46960     46958     46966     46964     46958     46965     46964     46958     46966
     46965     46958     46966     46958     46960     46962     46958     46960     46963
     46962     46960     46963     46971     46969     46975     46971     46969     46976
     46971     46969     46977     46975     46969     46976     46975     46969     46977
     46976     46969     46977     46969     46971     46973     46969     46971     46974
     46973     46971     46974     46982     46980     46986     46982     46980     46987
     46982     46980     46988     46986     46980     46987     46986     46980     46988
     46987     46980     46988     46980     46982     46984     46980     46982     46985
     46984     46982     46985     46993     46991     46997     46993     46991     46998
     46993     46991     46999     46997     46991     46998     46997     46991     46999
     46998     46991     46999     46991     46993     46995     46991     46993     46996
     46995     46993     46996     47004     47002     47008     47004     47002     47009
     47004     47002     47010     47008     47002     47009     47008     47002     47010
     47009     47002     47010     47002     47004     47006     47002     47004     47007
     47006     47004     47007     47015     47013     47019     47015     47013     47020
     47015     47013     47021     47019     47013     47020     47019     47013     47021
     47020     47013     47021     47013     47015     47017     47013     47015     47018
     47017     47015     47018     47026     47024     47030     47026     47024     47031
     47026     47024     47032     47030     47024     47031     47030     47024     47032
     47031     47024     47032     47024     47026     47028     47024     47026     47029
     47028     47026     47029     47037     47035     47041     47037     47035     47042
     47037     47035     47043     47041     47035     47042     47041     47035     47043
     47042     47035     47043     47035     47037     47039     47035     47037     47040
     47039     47037     47040     47048     47046     47052     47048     47046     47053
     47048     47046     47054     47052     47046     47053     47052     47046     47054
     47053     47046     47054     47046     47048     47050     47046     47048     47051
     47050     47048     47051     47059     47057     47063     47059     47057     47064
     47059     47057     47065     47063     47057     47064     47063     47057     47065
     47064     47057     47065     47057     47059     47061     47057     47059     47062
     47061     47059     47062     47070     47068     47074     47070     47068     47075
     47070     47068     47076     47074     47068     47075     47074     47068     47076
     47075     47068     47076     47068     47070     47072     47068     47070     47073
     47072     47070     47073     47081     47079     47085     47081     47079     47086
     47081     47079     47087     47085     47079     47086     47085     47079     47087
     47086     47079     47087     47079     47081     47083     47079     47081     47084
     47083     47081     47084     47092     47090     47096     47092     47090     47097
     47092     47090     47098     47096     47090     47097     47096     47090     47098
     47097     47090     47098     47090     47092     47094     47090     47092     47095
     47094     47092     47095     47103     47101     47107     47103     47101     47108
     47103     47101     47109     47107     47101     47108     47107     47101     47109
     47108     47101     47109     47101     47103     47105     47101     47103     47106
     47105     47103     47106     47114     47112     47118     47114     47112     47119
     47114     47112     47120     47118     47112     47119     47118     47112     47120
     47119     47112     47120     47112     47114     47116     47112     47114     47117
     47116     47114     47117     47125     47123     47129     47125     47123     47130
     47125     47123     47131     47129     47123     47130     47129     47123     47131
     47130     47123     47131     47123     47125     47127     47123     47125     47128
     47127     47125     47128     47136     47134     47140     47136     47134     47141
     47136     47134     47142     47140     47134     47141     47140     47134     47142
     47141     47134     47142     47134     47136     47138     47134     47136     47139
     47138     47136     47139     47147     47145     47151     47147     47145     47152
     47147     47145     47153     47151     47145     47152     47151     47145     47153
     47152     47145     47153     47145     47147     47149     47145     47147     47150
     47149     47147     47150     47158     47156     47162     47158     47156     47163
     47158     47156     47164     47162     47156     47163     47162     47156     47164
     47163     47156     47164     47156     47158     47160     47156     47158     47161
     47160     47158     47161     47169     47167     47173     47169     47167     47174
     47169     47167     47175     47173     47167     47174     47173     47167     47175
     47174     47167     47175     47167     47169     47171     47167     47169     47172
     47171     47169     47172     47180     47178     47184     47180     47178     47185
     47180     47178     47186     47184     47178     47185     47184     47178     47186
     47185     47178     47186     47178     47180     47182     47178     47180     47183
     47182     47180     47183     47191     47189     47195     47191     47189     47196
     47191     47189     47197     47195     47189     47196     47195     47189     47197
     47196     47189     47197     47189     47191     47193     47189     47191     47194
     47193     47191     47194     47202     47200     47206     47202     47200     47207
     47202     47200     47208     47206     47200     47207     47206     47200     47208
     47207     47200     47208     47200     47202     47204     47200     47202     47205
     47204     47202     47205     47213     47211     47217     47213     47211     47218
     47213     47211     47219     47217     47211     47218     47217     47211     47219
     47218     47211     47219     47211     47213     47215     47211     47213     47216
     47215     47213     47216     47224     47222     47228     47224     47222     47229
     47224     47222     47230     47228     47222     47229     47228     47222     47230
     47229     47222     47230     47222     47224     47226     47222     47224     47227
     47226     47224     47227     47235     47233     47239     47235     47233     47240
     47235     47233     47241     47239     47233     47240     47239     47233     47241
     47240     47233     47241     47233     47235     47237     47233     47235     47238
     47237     47235     47238     47246     47244     47250     47246     47244     47251
     47246     47244     47252     47250     47244     47251     47250     47244     47252
     47251     47244     47252     47244     47246     47248     47244     47246     47249
     47248     47246     47249     47257     47255     47261     47257     47255     47262
     47257     47255     47263     47261     47255     47262     47261     47255     47263
     47262     47255     47263     47255     47257     47259     47255     47257     47260
     47259     47257     47260     47268     47266     47272     47268     47266     47273
     47268     47266     47274     47272     47266     47273     47272     47266     47274
     47273     47266     47274     47266     47268     47270     47266     47268     47271
     47270     47268     47271     47279     47277     47283     47279     47277     47284
     47279     47277     47285     47283     47277     47284     47283     47277     47285
     47284     47277     47285     47277     47279     47281     47277     47279     47282
     47281     47279     47282     47290     47288     47294     47290     47288     47295
     47290     47288     47296     47294     47288     47295     47294     47288     47296
     47295     47288     47296     47288     47290     47292     47288     47290     47293
     47292     47290     47293     47301     47299     47305     47301     47299     47306
     47301     47299     47307     47305     47299     47306     47305     47299     47307
     47306     47299     47307     47299     47301     47303     47299     47301     47304
     47303     47301     47304     47312     47310     47316     47312     47310     47317
     47312     47310     47318     47316     47310     47317     47316     47310     47318
     47317     47310     47318     47310     47312     47314     47310     47312     47315
     47314     47312     47315     47323     47321     47327     47323     47321     47328
     47323     47321     47329     47327     47321     47328     47327     47321     47329
     47328     47321     47329     47321     47323     47325     47321     47323     47326
     47325     47323     47326     47334     47332     47338     47334     47332     47339
     47334     47332     47340     47338     47332     47339     47338     47332     47340
     47339     47332     47340     47332     47334     47336     47332     47334     47337
     47336     47334     47337     47345     47343     47349     47345     47343     47350
     47345     47343     47351     47349     47343     47350     47349     47343     47351
     47350     47343     47351     47343     47345     47347     47343     47345     47348
     47347     47345     47348     47356     47354     47360     47356     47354     47361
     47356     47354     47362     47360     47354     47361     47360     47354     47362
     47361     47354     47362     47354     47356     47358     47354     47356     47359
     47358     47356     47359     47367     47365     47371     47367     47365     47372
     47367     47365     47373     47371     47365     47372     47371     47365     47373
     47372     47365     47373     47365     47367     47369     47365     47367     47370
     47369     47367     47370     47378     47376     47382     47378     47376     47383
     47378     47376     47384     47382     47376     47383     47382     47376     47384
     47383     47376     47384     47376     47378     47380     47376     47378     47381
     47380     47378     47381     47389     47387     47393     47389     47387     47394
     47389     47387     47395     47393     47387     47394     47393     47387     47395
     47394     47387     47395     47387     47389     47391     47387     47389     47392
     47391     47389     47392     47400     47398     47404     47400     47398     47405
     47400     47398     47406     47404     47398     47405     47404     47398     47406
     47405     47398     47406     47398     47400     47402     47398     47400     47403
     47402     47400     47403     47411     47409     47415     47411     47409     47416
     47411     47409     47417     47415     47409     47416     47415     47409     47417
     47416     47409     47417     47409     47411     47413     47409     47411     47414
     47413     47411     47414     47422     47420     47426     47422     47420     47427
     47422     47420     47428     47426     47420     47427     47426     47420     47428
     47427     47420     47428     47420     47422     47424     47420     47422     47425
     47424     47422     47425     47433     47431     47437     47433     47431     47438
     47433     47431     47439     47437     47431     47438     47437     47431     47439
     47438     47431     47439     47431     47433     47435     47431     47433     47436
     47435     47433     47436     47444     47442     47448     47444     47442     47449
     47444     47442     47450     47448     47442     47449     47448     47442     47450
     47449     47442     47450     47442     47444     47446     47442     47444     47447
     47446     47444     47447     47455     47453     47459     47455     47453     47460
     47455     47453     47461     47459     47453     47460     47459     47453     47461
     47460     47453     47461     47453     47455     47457     47453     47455     47458
     47457     47455     47458     47466     47464     47470     47466     47464     47471
     47466     47464     47472     47470     47464     47471     47470     47464     47472
     47471     47464     47472     47464     47466     47468     47464     47466     47469
     47468     47466     47469     47477     47475     47481     47477     47475     47482
     47477     47475     47483     47481     47475     47482     47481     47475     47483
     47482     47475     47483     47475     47477     47479     47475     47477     47480
     47479     47477     47480     47488     47486     47492     47488     47486     47493
     47488     47486     47494     47492     47486     47493     47492     47486     47494
     47493     47486     47494     47486     47488     47490     47486     47488     47491
     47490     47488     47491     47499     47497     47503     47499     47497     47504
     47499     47497     47505     47503     47497     47504     47503     47497     47505
     47504     47497     47505     47497     47499     47501     47497     47499     47502
     47501     47499     47502     47510     47508     47514     47510     47508     47515
     47510     47508     47516     47514     47508     47515     47514     47508     47516
     47515     47508     47516     47508     47510     47512     47508     47510     47513
     47512     47510     47513     47521     47519     47525     47521     47519     47526
     47521     47519     47527     47525     47519     47526     47525     47519     47527
     47526     47519     47527     47519     47521     47523     47519     47521     47524
     47523     47521     47524     47532     47530     47536     47532     47530     47537
     47532     47530     47538     47536     47530     47537     47536     47530     47538
     47537     47530     47538     47530     47532     47534     47530     47532     47535
     47534     47532     47535     47543     47541     47547     47543     47541     47548
     47543     47541     47549     47547     47541     47548     47547     47541     47549
     47548     47541     47549     47541     47543     47545     47541     47543     47546
     47545     47543     47546     47554     47552     47558     47554     47552     47559
     47554     47552     47560     47558     47552     47559     47558     47552     47560
     47559     47552     47560     47552     47554     47556     47552     47554     47557
     47556     47554     47557     47565     47563     47569     47565     47563     47570
     47565     47563     47571     47569     47563     47570     47569     47563     47571
     47570     47563     47571     47563     47565     47567     47563     47565     47568
     47567     47565     47568     47576     47574     47580     47576     47574     47581
     47576     47574     47582     47580     47574     47581     47580     47574     47582
     47581     47574     47582     47574     47576     47578     47574     47576     47579
     47578     47576     47579     47587     47585     47591     47587     47585     47592
     47587     47585     47593     47591     47585     47592     47591     47585     47593
     47592     47585     47593     47585     47587     47589     47585     47587     47590
     47589     47587     47590     47598     47596     47602     47598     47596     47603
     47598     47596     47604     47602     47596     47603     47602     47596     47604
     47603     47596     47604     47596     47598     47600     47596     47598     47601
     47600     47598     47601     47609     47607     47613     47609     47607     47614
     47609     47607     47615     47613     47607     47614     47613     47607     47615
     47614     47607     47615     47607     47609     47611     47607     47609     47612
     47611     47609     47612     47620     47618     47624     47620     47618     47625
     47620     47618     47626     47624     47618     47625     47624     47618     47626
     47625     47618     47626     47618     47620     47622     47618     47620     47623
     47622     47620     47623     47631     47629     47635     47631     47629     47636
     47631     47629     47637     47635     47629     47636     47635     47629     47637
     47636     47629     47637     47629     47631     47633     47629     47631     47634
     47633     47631     47634     47642     47640     47646     47642     47640     47647
     47642     47640     47648     47646     47640     47647     47646     47640     47648
     47647     47640     47648     47640     47642     47644     47640     47642     47645
     47644     47642     47645     47653     47651     47657     47653     47651     47658
     47653     47651     47659     47657     47651     47658     47657     47651     47659
     47658     47651     47659     47651     47653     47655     47651     47653     47656
     47655     47653     47656     47664     47662     47668     47664     47662     47669
     47664     47662     47670     47668     47662     47669     47668     47662     47670
     47669     47662     47670     47662     47664     47666     47662     47664     47667
     47666     47664     47667     47675     47673     47679     47675     47673     47680
     47675     47673     47681     47679     47673     47680     47679     47673     47681
     47680     47673     47681     47673     47675     47677     47673     47675     47678
     47677     47675     47678     47686     47684     47690     47686     47684     47691
     47686     47684     47692     47690     47684     47691     47690     47684     47692
     47691     47684     47692     47684     47686     47688     47684     47686     47689
     47688     47686     47689     47697     47695     47701     47697     47695     47702
     47697     47695     47703     47701     47695     47702     47701     47695     47703
     47702     47695     47703     47695     47697     47699     47695     47697     47700
     47699     47697     47700     47708     47706     47712     47708     47706     47713
     47708     47706     47714     47712     47706     47713     47712     47706     47714
     47713     47706     47714     47706     47708     47710     47706     47708     47711
     47710     47708     47711     47719     47717     47723     47719     47717     47724
     47719     47717     47725     47723     47717     47724     47723     47717     47725
     47724     47717     47725     47717     47719     47721     47717     47719     47722
     47721     47719     47722     47730     47728     47734     47730     47728     47735
     47730     47728     47736     47734     47728     47735     47734     47728     47736
     47735     47728     47736     47728     47730     47732     47728     47730     47733
     47732     47730     47733     47741     47739     47745     47741     47739     47746
     47741     47739     47747     47745     47739     47746     47745     47739     47747
     47746     47739     47747     47739     47741     47743     47739     47741     47744
     47743     47741     47744     47752     47750     47756     47752     47750     47757
     47752     47750     47758     47756     47750     47757     47756     47750     47758
     47757     47750     47758     47750     47752     47754     47750     47752     47755
     47754     47752     47755     47763     47761     47767     47763     47761     47768
     47763     47761     47769     47767     47761     47768     47767     47761     47769
     47768     47761     47769     47761     47763     47765     47761     47763     47766
     47765     47763     47766     47774     47772     47778     47774     47772     47779
     47774     47772     47780     47778     47772     47779     47778     47772     47780
     47779     47772     47780     47772     47774     47776     47772     47774     47777
     47776     47774     47777     47785     47783     47789     47785     47783     47790
     47785     47783     47791     47789     47783     47790     47789     47783     47791
     47790     47783     47791     47783     47785     47787     47783     47785     47788
     47787     47785     47788     47796     47794     47800     47796     47794     47801
     47796     47794     47802     47800     47794     47801     47800     47794     47802
     47801     47794     47802     47794     47796     47798     47794     47796     47799
     47798     47796     47799     47807     47805     47811     47807     47805     47812
     47807     47805     47813     47811     47805     47812     47811     47805     47813
     47812     47805     47813     47805     47807     47809     47805     47807     47810
     47809     47807     47810     47818     47816     47822     47818     47816     47823
     47818     47816     47824     47822     47816     47823     47822     47816     47824
     47823     47816     47824     47816     47818     47820     47816     47818     47821
     47820     47818     47821     47829     47827     47833     47829     47827     47834
     47829     47827     47835     47833     47827     47834     47833     47827     47835
     47834     47827     47835     47827     47829     47831     47827     47829     47832
     47831     47829     47832     47840     47838     47844     47840     47838     47845
     47840     47838     47846     47844     47838     47845     47844     47838     47846
     47845     47838     47846     47838     47840     47842     47838     47840     47843
     47842     47840     47843     47851     47849     47855     47851     47849     47856
     47851     47849     47857     47855     47849     47856     47855     47849     47857
     47856     47849     47857     47849     47851     47853     47849     47851     47854
     47853     47851     47854     47862     47860     47866     47862     47860     47867
     47862     47860     47868     47866     47860     47867     47866     47860     47868
     47867     47860     47868     47860     47862     47864     47860     47862     47865
     47864     47862     47865     47873     47871     47877     47873     47871     47878
     47873     47871     47879     47877     47871     47878     47877     47871     47879
     47878     47871     47879     47871     47873     47875     47871     47873     47876
     47875     47873     47876     47884     47882     47888     47884     47882     47889
     47884     47882     47890     47888     47882     47889     47888     47882     47890
     47889     47882     47890     47882     47884     47886     47882     47884     47887
     47886     47884     47887     47895     47893     47899     47895     47893     47900
     47895     47893     47901     47899     47893     47900     47899     47893     47901
     47900     47893     47901     47893     47895     47897     47893     47895     47898
     47897     47895     47898     47906     47904     47910     47906     47904     47911
     47906     47904     47912     47910     47904     47911     47910     47904     47912
     47911     47904     47912     47904     47906     47908     47904     47906     47909
     47908     47906     47909     47917     47915     47921     47917     47915     47922
     47917     47915     47923     47921     47915     47922     47921     47915     47923
     47922     47915     47923     47915     47917     47919     47915     47917     47920
     47919     47917     47920     47928     47926     47932     47928     47926     47933
     47928     47926     47934     47932     47926     47933     47932     47926     47934
     47933     47926     47934     47926     47928     47930     47926     47928     47931
     47930     47928     47931     47939     47937     47943     47939     47937     47944
     47939     47937     47945     47943     47937     47944     47943     47937     47945
     47944     47937     47945     47937     47939     47941     47937     47939     47942
     47941     47939     47942     47950     47948     47954     47950     47948     47955
     47950     47948     47956     47954     47948     47955     47954     47948     47956
     47955     47948     47956     47948     47950     47952     47948     47950     47953
     47952     47950     47953     47961     47959     47965     47961     47959     47966
     47961     47959     47967     47965     47959     47966     47965     47959     47967
     47966     47959     47967     47959     47961     47963     47959     47961     47964
     47963     47961     47964     47972     47970     47976     47972     47970     47977
     47972     47970     47978     47976     47970     47977     47976     47970     47978
     47977     47970     47978     47970     47972     47974     47970     47972     47975
     47974     47972     47975     47983     47981     47987     47983     47981     47988
     47983     47981     47989     47987     47981     47988     47987     47981     47989
     47988     47981     47989     47981     47983     47985     47981     47983     47986
     47985     47983     47986     47994     47992     47998     47994     47992     47999
     47994     47992     48000     47998     47992     47999     47998     47992     48000
     47999     47992     48000     47992     47994     47996     47992     47994     47997
     47996     47994     47997     48005     48003     48009     48005     48003     48010
     48005     48003     48011     48009     48003     48010     48009     48003     48011
     48010     48003     48011     48003     48005     48007     48003     48005     48008
     48007     48005     48008     48016     48014     48020     48016     48014     48021
     48016     48014     48022     48020     48014     48021     48020     48014     48022
     48021     48014     48022     48014     48016     48018     48014     48016     48019
     48018     48016     48019     48027     48025     48031     48027     48025     48032
     48027     48025     48033     48031     48025     48032     48031     48025     48033
     48032     48025     48033     48025     48027     48029     48025     48027     48030
     48029     48027     48030     48038     48036     48042     48038     48036     48043
     48038     48036     48044     48042     48036     48043     48042     48036     48044
     48043     48036     48044     48036     48038     48040     48036     48038     48041
     48040     48038     48041     48049     48047     48053     48049     48047     48054
     48049     48047     48055     48053     48047     48054     48053     48047     48055
     48054     48047     48055     48047     48049     48051     48047     48049     48052
     48051     48049     48052     48060     48058     48064     48060     48058     48065
     48060     48058     48066     48064     48058     48065     48064     48058     48066
     48065     48058     48066     48058     48060     48062     48058     48060     48063
     48062     48060     48063     48071     48069     48075     48071     48069     48076
     48071     48069     48077     48075     48069     48076     48075     48069     48077
     48076     48069     48077     48069     48071     48073     48069     48071     48074
     48073     48071     48074     48082     48080     48086     48082     48080     48087
     48082     48080     48088     48086     48080     48087     48086     48080     48088
     48087     48080     48088     48080     48082     48084     48080     48082     48085
     48084     48082     48085     48093     48091     48097     48093     48091     48098
     48093     48091     48099     48097     48091     48098     48097     48091     48099
     48098     48091     48099     48091     48093     48095     48091     48093     48096
     48095     48093     48096     48104     48102     48108     48104     48102     48109
     48104     48102     48110     48108     48102     48109     48108     48102     48110
     48109     48102     48110     48102     48104     48106     48102     48104     48107
     48106     48104     48107     48115     48113     48119     48115     48113     48120
     48115     48113     48121     48119     48113     48120     48119     48113     48121
     48120     48113     48121     48113     48115     48117     48113     48115     48118
     48117     48115     48118     48126     48124     48130     48126     48124     48131
     48126     48124     48132     48130     48124     48131     48130     48124     48132
     48131     48124     48132     48124     48126     48128     48124     48126     48129
     48128     48126     48129     48137     48135     48141     48137     48135     48142
     48137     48135     48143     48141     48135     48142     48141     48135     48143
     48142     48135     48143     48135     48137     48139     48135     48137     48140
     48139     48137     48140     48148     48146     48152     48148     48146     48153
     48148     48146     48154     48152     48146     48153     48152     48146     48154
     48153     48146     48154     48146     48148     48150     48146     48148     48151
     48150     48148     48151     48159     48157     48163     48159     48157     48164
     48159     48157     48165     48163     48157     48164     48163     48157     48165
     48164     48157     48165     48157     48159     48161     48157     48159     48162
     48161     48159     48162     48170     48168     48174     48170     48168     48175
     48170     48168     48176     48174     48168     48175     48174     48168     48176
     48175     48168     48176     48168     48170     48172     48168     48170     48173
     48172     48170     48173     48181     48179     48185     48181     48179     48186
     48181     48179     48187     48185     48179     48186     48185     48179     48187
     48186     48179     48187     48179     48181     48183     48179     48181     48184
     48183     48181     48184     48192     48190     48196     48192     48190     48197
     48192     48190     48198     48196     48190     48197     48196     48190     48198
     48197     48190     48198     48190     48192     48194     48190     48192     48195
     48194     48192     48195     48203     48201     48207     48203     48201     48208
     48203     48201     48209     48207     48201     48208     48207     48201     48209
     48208     48201     48209     48201     48203     48205     48201     48203     48206
     48205     48203     48206     48214     48212     48218     48214     48212     48219
     48214     48212     48220     48218     48212     48219     48218     48212     48220
     48219     48212     48220     48212     48214     48216     48212     48214     48217
     48216     48214     48217     48225     48223     48229     48225     48223     48230
     48225     48223     48231     48229     48223     48230     48229     48223     48231
     48230     48223     48231     48223     48225     48227     48223     48225     48228
     48227     48225     48228     48236     48234     48240     48236     48234     48241
     48236     48234     48242     48240     48234     48241     48240     48234     48242
     48241     48234     48242     48234     48236     48238     48234     48236     48239
     48238     48236     48239     48247     48245     48251     48247     48245     48252
     48247     48245     48253     48251     48245     48252     48251     48245     48253
     48252     48245     48253     48245     48247     48249     48245     48247     48250
     48249     48247     48250     48258     48256     48262     48258     48256     48263
     48258     48256     48264     48262     48256     48263     48262     48256     48264
     48263     48256     48264     48256     48258     48260     48256     48258     48261
     48260     48258     48261     48269     48267     48273     48269     48267     48274
     48269     48267     48275     48273     48267     48274     48273     48267     48275
     48274     48267     48275     48267     48269     48271     48267     48269     48272
     48271     48269     48272     48280     48278     48284     48280     48278     48285
     48280     48278     48286     48284     48278     48285     48284     48278     48286
     48285     48278     48286     48278     48280     48282     48278     48280     48283
     48282     48280     48283     48291     48289     48295     48291     48289     48296
     48291     48289     48297     48295     48289     48296     48295     48289     48297
     48296     48289     48297     48289     48291     48293     48289     48291     48294
     48293     48291     48294     48302     48300     48306     48302     48300     48307
     48302     48300     48308     48306     48300     48307     48306     48300     48308
     48307     48300     48308     48300     48302     48304     48300     48302     48305
     48304     48302     48305     48313     48311     48317     48313     48311     48318
     48313     48311     48319     48317     48311     48318     48317     48311     48319
     48318     48311     48319     48311     48313     48315     48311     48313     48316
     48315     48313     48316     48324     48322     48328     48324     48322     48329
     48324     48322     48330     48328     48322     48329     48328     48322     48330
     48329     48322     48330     48322     48324     48326     48322     48324     48327
     48326     48324     48327     48335     48333     48339     48335     48333     48340
     48335     48333     48341     48339     48333     48340     48339     48333     48341
     48340     48333     48341     48333     48335     48337     48333     48335     48338
     48337     48335     48338     48346     48344     48350     48346     48344     48351
     48346     48344     48352     48350     48344     48351     48350     48344     48352
     48351     48344     48352     48344     48346     48348     48344     48346     48349
     48348     48346     48349     48357     48355     48361     48357     48355     48362
     48357     48355     48363     48361     48355     48362     48361     48355     48363
     48362     48355     48363     48355     48357     48359     48355     48357     48360
     48359     48357     48360     48368     48366     48372     48368     48366     48373
     48368     48366     48374     48372     48366     48373     48372     48366     48374
     48373     48366     48374     48366     48368     48370     48366     48368     48371
     48370     48368     48371     48379     48377     48383     48379     48377     48384
     48379     48377     48385     48383     48377     48384     48383     48377     48385
     48384     48377     48385     48377     48379     48381     48377     48379     48382
     48381     48379     48382     48390     48388     48394     48390     48388     48395
     48390     48388     48396     48394     48388     48395     48394     48388     48396
     48395     48388     48396     48388     48390     48392     48388     48390     48393
     48392     48390     48393     48401     48399     48405     48401     48399     48406
     48401     48399     48407     48405     48399     48406     48405     48399     48407
     48406     48399     48407     48399     48401     48403     48399     48401     48404
     48403     48401     48404     48412     48410     48416     48412     48410     48417
     48412     48410     48418     48416     48410     48417     48416     48410     48418
     48417     48410     48418     48410     48412     48414     48410     48412     48415
     48414     48412     48415     48423     48421     48427     48423     48421     48428
     48423     48421     48429     48427     48421     48428     48427     48421     48429
     48428     48421     48429     48421     48423     48425     48421     48423     48426
     48425     48423     48426     48434     48432     48438     48434     48432     48439
     48434     48432     48440     48438     48432     48439     48438     48432     48440
     48439     48432     48440     48432     48434     48436     48432     48434     48437
     48436     48434     48437     48445     48443     48449     48445     48443     48450
     48445     48443     48451     48449     48443     48450     48449     48443     48451
     48450     48443     48451     48443     48445     48447     48443     48445     48448
     48447     48445     48448     48456     48454     48460     48456     48454     48461
     48456     48454     48462     48460     48454     48461     48460     48454     48462
     48461     48454     48462     48454     48456     48458     48454     48456     48459
     48458     48456     48459     48467     48465     48471     48467     48465     48472
     48467     48465     48473     48471     48465     48472     48471     48465     48473
     48472     48465     48473     48465     48467     48469     48465     48467     48470
     48469     48467     48470     48478     48476     48482     48478     48476     48483
     48478     48476     48484     48482     48476     48483     48482     48476     48484
     48483     48476     48484     48476     48478     48480     48476     48478     48481
     48480     48478     48481     48489     48487     48493     48489     48487     48494
     48489     48487     48495     48493     48487     48494     48493     48487     48495
     48494     48487     48495     48487     48489     48491     48487     48489     48492
     48491     48489     48492     48500     48498     48504     48500     48498     48505
     48500     48498     48506     48504     48498     48505     48504     48498     48506
     48505     48498     48506     48498     48500     48502     48498     48500     48503
     48502     48500     48503     48511     48509     48515     48511     48509     48516
     48511     48509     48517     48515     48509     48516     48515     48509     48517
     48516     48509     48517     48509     48511     48513     48509     48511     48514
     48513     48511     48514     48522     48520     48526     48522     48520     48527
     48522     48520     48528     48526     48520     48527     48526     48520     48528
     48527     48520     48528     48520     48522     48524     48520     48522     48525
     48524     48522     48525     48533     48531     48537     48533     48531     48538
     48533     48531     48539     48537     48531     48538     48537     48531     48539
     48538     48531     48539     48531     48533     48535     48531     48533     48536
     48535     48533     48536     48544     48542     48548     48544     48542     48549
     48544     48542     48550     48548     48542     48549     48548     48542     48550
     48549     48542     48550     48542     48544     48546     48542     48544     48547
     48546     48544     48547     48555     48553     48559     48555     48553     48560
     48555     48553     48561     48559     48553     48560     48559     48553     48561
     48560     48553     48561     48553     48555     48557     48553     48555     48558
     48557     48555     48558     48566     48564     48570     48566     48564     48571
     48566     48564     48572     48570     48564     48571     48570     48564     48572
     48571     48564     48572     48564     48566     48568     48564     48566     48569
     48568     48566     48569     48577     48575     48581     48577     48575     48582
     48577     48575     48583     48581     48575     48582     48581     48575     48583
     48582     48575     48583     48575     48577     48579     48575     48577     48580
     48579     48577     48580     48588     48586     48592     48588     48586     48593
     48588     48586     48594     48592     48586     48593     48592     48586     48594
     48593     48586     48594     48586     48588     48590     48586     48588     48591
     48590     48588     48591     48599     48597     48603     48599     48597     48604
     48599     48597     48605     48603     48597     48604     48603     48597     48605
     48604     48597     48605     48597     48599     48601     48597     48599     48602
     48601     48599     48602     48610     48608     48614     48610     48608     48615
     48610     48608     48616     48614     48608     48615     48614     48608     48616
     48615     48608     48616     48608     48610     48612     48608     48610     48613
     48612     48610     48613     48621     48619     48625     48621     48619     48626
     48621     48619     48627     48625     48619     48626     48625     48619     48627
     48626     48619     48627     48619     48621     48623     48619     48621     48624
     48623     48621     48624     48632     48630     48636     48632     48630     48637
     48632     48630     48638     48636     48630     48637     48636     48630     48638
     48637     48630     48638     48630     48632     48634     48630     48632     48635
     48634     48632     48635     48643     48641     48647     48643     48641     48648
     48643     48641     48649     48647     48641     48648     48647     48641     48649
     48648     48641     48649     48641     48643     48645     48641     48643     48646
     48645     48643     48646     48654     48652     48658     48654     48652     48659
     48654     48652     48660     48658     48652     48659     48658     48652     48660
     48659     48652     48660     48652     48654     48656     48652     48654     48657
     48656     48654     48657     48665     48663     48669     48665     48663     48670
     48665     48663     48671     48669     48663     48670     48669     48663     48671
     48670     48663     48671     48663     48665     48667     48663     48665     48668
     48667     48665     48668     48676     48674     48680     48676     48674     48681
     48676     48674     48682     48680     48674     48681     48680     48674     48682
     48681     48674     48682     48674     48676     48678     48674     48676     48679
     48678     48676     48679     48687     48685     48691     48687     48685     48692
     48687     48685     48693     48691     48685     48692     48691     48685     48693
     48692     48685     48693     48685     48687     48689     48685     48687     48690
     48689     48687     48690     48698     48696     48702     48698     48696     48703
     48698     48696     48704     48702     48696     48703     48702     48696     48704
     48703     48696     48704     48696     48698     48700     48696     48698     48701
     48700     48698     48701     48709     48707     48713     48709     48707     48714
     48709     48707     48715     48713     48707     48714     48713     48707     48715
     48714     48707     48715     48707     48709     48711     48707     48709     48712
     48711     48709     48712     48720     48718     48724     48720     48718     48725
     48720     48718     48726     48724     48718     48725     48724     48718     48726
     48725     48718     48726     48718     48720     48722     48718     48720     48723
     48722     48720     48723     48731     48729     48735     48731     48729     48736
     48731     48729     48737     48735     48729     48736     48735     48729     48737
     48736     48729     48737     48729     48731     48733     48729     48731     48734
     48733     48731     48734     48742     48740     48746     48742     48740     48747
     48742     48740     48748     48746     48740     48747     48746     48740     48748
     48747     48740     48748     48740     48742     48744     48740     48742     48745
     48744     48742     48745     48753     48751     48757     48753     48751     48758
     48753     48751     48759     48757     48751     48758     48757     48751     48759
     48758     48751     48759     48751     48753     48755     48751     48753     48756
     48755     48753     48756     48764     48762     48768     48764     48762     48769
     48764     48762     48770     48768     48762     48769     48768     48762     48770
     48769     48762     48770     48762     48764     48766     48762     48764     48767
     48766     48764     48767     48775     48773     48779     48775     48773     48780
     48775     48773     48781     48779     48773     48780     48779     48773     48781
     48780     48773     48781     48773     48775     48777     48773     48775     48778
     48777     48775     48778     48786     48784     48790     48786     48784     48791
     48786     48784     48792     48790     48784     48791     48790     48784     48792
     48791     48784     48792     48784     48786     48788     48784     48786     48789
     48788     48786     48789     48797     48795     48801     48797     48795     48802
     48797     48795     48803     48801     48795     48802     48801     48795     48803
     48802     48795     48803     48795     48797     48799     48795     48797     48800
     48799     48797     48800     48808     48806     48812     48808     48806     48813
     48808     48806     48814     48812     48806     48813     48812     48806     48814
     48813     48806     48814     48806     48808     48810     48806     48808     48811
     48810     48808     48811     48819     48817     48823     48819     48817     48824
     48819     48817     48825     48823     48817     48824     48823     48817     48825
     48824     48817     48825     48817     48819     48821     48817     48819     48822
     48821     48819     48822     48830     48828     48834     48830     48828     48835
     48830     48828     48836     48834     48828     48835     48834     48828     48836
     48835     48828     48836     48828     48830     48832     48828     48830     48833
     48832     48830     48833     48841     48839     48845     48841     48839     48846
     48841     48839     48847     48845     48839     48846     48845     48839     48847
     48846     48839     48847     48839     48841     48843     48839     48841     48844
     48843     48841     48844     48852     48850     48856     48852     48850     48857
     48852     48850     48858     48856     48850     48857     48856     48850     48858
     48857     48850     48858     48850     48852     48854     48850     48852     48855
     48854     48852     48855     48863     48861     48867     48863     48861     48868
     48863     48861     48869     48867     48861     48868     48867     48861     48869
     48868     48861     48869     48861     48863     48865     48861     48863     48866
     48865     48863     48866     48874     48872     48878     48874     48872     48879
     48874     48872     48880     48878     48872     48879     48878     48872     48880
     48879     48872     48880     48872     48874     48876     48872     48874     48877
     48876     48874     48877     48885     48883     48889     48885     48883     48890
     48885     48883     48891     48889     48883     48890     48889     48883     48891
     48890     48883     48891     48883     48885     48887     48883     48885     48888
     48887     48885     48888     48896     48894     48900     48896     48894     48901
     48896     48894     48902     48900     48894     48901     48900     48894     48902
     48901     48894     48902     48894     48896     48898     48894     48896     48899
     48898     48896     48899     48907     48905     48911     48907     48905     48912
     48907     48905     48913     48911     48905     48912     48911     48905     48913
     48912     48905     48913     48905     48907     48909     48905     48907     48910
     48909     48907     48910     48918     48916     48922     48918     48916     48923
     48918     48916     48924     48922     48916     48923     48922     48916     48924
     48923     48916     48924     48916     48918     48920     48916     48918     48921
     48920     48918     48921     48929     48927     48933     48929     48927     48934
     48929     48927     48935     48933     48927     48934     48933     48927     48935
     48934     48927     48935     48927     48929     48931     48927     48929     48932
     48931     48929     48932     48940     48938     48944     48940     48938     48945
     48940     48938     48946     48944     48938     48945     48944     48938     48946
     48945     48938     48946     48938     48940     48942     48938     48940     48943
     48942     48940     48943     48951     48949     48955     48951     48949     48956
     48951     48949     48957     48955     48949     48956     48955     48949     48957
     48956     48949     48957     48949     48951     48953     48949     48951     48954
     48953     48951     48954     48962     48960     48966     48962     48960     48967
     48962     48960     48968     48966     48960     48967     48966     48960     48968
     48967     48960     48968     48960     48962     48964     48960     48962     48965
     48964     48962     48965     48973     48971     48977     48973     48971     48978
     48973     48971     48979     48977     48971     48978     48977     48971     48979
     48978     48971     48979     48971     48973     48975     48971     48973     48976
     48975     48973     48976     48984     48982     48988     48984     48982     48989
     48984     48982     48990     48988     48982     48989     48988     48982     48990
     48989     48982     48990     48982     48984     48986     48982     48984     48987
     48986     48984     48987     48995     48993     48999     48995     48993     49000
     48995     48993     49001     48999     48993     49000     48999     48993     49001
     49000     48993     49001     48993     48995     48997     48993     48995     48998
     48997     48995     48998     49006     49004     49010     49006     49004     49011
     49006     49004     49012     49010     49004     49011     49010     49004     49012
     49011     49004     49012     49004     49006     49008     49004     49006     49009
     49008     49006     49009     49017     49015     49021     49017     49015     49022
     49017     49015     49023     49021     49015     49022     49021     49015     49023
     49022     49015     49023     49015     49017     49019     49015     49017     49020
     49019     49017     49020     49028     49026     49032     49028     49026     49033
     49028     49026     49034     49032     49026     49033     49032     49026     49034
     49033     49026     49034     49026     49028     49030     49026     49028     49031
     49030     49028     49031     49039     49037     49043     49039     49037     49044
     49039     49037     49045     49043     49037     49044     49043     49037     49045
     49044     49037     49045     49037     49039     49041     49037     49039     49042
     49041     49039     49042     49050     49048     49054     49050     49048     49055
     49050     49048     49056     49054     49048     49055     49054     49048     49056
     49055     49048     49056     49048     49050     49052     49048     49050     49053
     49052     49050     49053     49061     49059     49065     49061     49059     49066
     49061     49059     49067     49065     49059     49066     49065     49059     49067
     49066     49059     49067     49059     49061     49063     49059     49061     49064
     49063     49061     49064     49072     49070     49076     49072     49070     49077
     49072     49070     49078     49076     49070     49077     49076     49070     49078
     49077     49070     49078     49070     49072     49074     49070     49072     49075
     49074     49072     49075     49083     49081     49087     49083     49081     49088
     49083     49081     49089     49087     49081     49088     49087     49081     49089
     49088     49081     49089     49081     49083     49085     49081     49083     49086
     49085     49083     49086     49094     49092     49098     49094     49092     49099
     49094     49092     49100     49098     49092     49099     49098     49092     49100
     49099     49092     49100     49092     49094     49096     49092     49094     49097
     49096     49094     49097     49105     49103     49109     49105     49103     49110
     49105     49103     49111     49109     49103     49110     49109     49103     49111
     49110     49103     49111     49103     49105     49107     49103     49105     49108
     49107     49105     49108     49116     49114     49120     49116     49114     49121
     49116     49114     49122     49120     49114     49121     49120     49114     49122
     49121     49114     49122     49114     49116     49118     49114     49116     49119
     49118     49116     49119     49127     49125     49131     49127     49125     49132
     49127     49125     49133     49131     49125     49132     49131     49125     49133
     49132     49125     49133     49125     49127     49129     49125     49127     49130
     49129     49127     49130     49138     49136     49142     49138     49136     49143
     49138     49136     49144     49142     49136     49143     49142     49136     49144
     49143     49136     49144     49136     49138     49140     49136     49138     49141
     49140     49138     49141     49149     49147     49153     49149     49147     49154
     49149     49147     49155     49153     49147     49154     49153     49147     49155
     49154     49147     49155     49147     49149     49151     49147     49149     49152
     49151     49149     49152     49160     49158     49164     49160     49158     49165
     49160     49158     49166     49164     49158     49165     49164     49158     49166
     49165     49158     49166     49158     49160     49162     49158     49160     49163
     49162     49160     49163     49171     49169     49175     49171     49169     49176
     49171     49169     49177     49175     49169     49176     49175     49169     49177
     49176     49169     49177     49169     49171     49173     49169     49171     49174
     49173     49171     49174     49182     49180     49186     49182     49180     49187
     49182     49180     49188     49186     49180     49187     49186     49180     49188
     49187     49180     49188     49180     49182     49184     49180     49182     49185
     49184     49182     49185     49193     49191     49197     49193     49191     49198
     49193     49191     49199     49197     49191     49198     49197     49191     49199
     49198     49191     49199     49191     49193     49195     49191     49193     49196
     49195     49193     49196     49204     49202     49208     49204     49202     49209
     49204     49202     49210     49208     49202     49209     49208     49202     49210
     49209     49202     49210     49202     49204     49206     49202     49204     49207
     49206     49204     49207     49215     49213     49219     49215     49213     49220
     49215     49213     49221     49219     49213     49220     49219     49213     49221
     49220     49213     49221     49213     49215     49217     49213     49215     49218
     49217     49215     49218     49226     49224     49230     49226     49224     49231
     49226     49224     49232     49230     49224     49231     49230     49224     49232
     49231     49224     49232     49224     49226     49228     49224     49226     49229
     49228     49226     49229     49237     49235     49241     49237     49235     49242
     49237     49235     49243     49241     49235     49242     49241     49235     49243
     49242     49235     49243     49235     49237     49239     49235     49237     49240
     49239     49237     49240     49248     49246     49252     49248     49246     49253
     49248     49246     49254     49252     49246     49253     49252     49246     49254
     49253     49246     49254     49246     49248     49250     49246     49248     49251
     49250     49248     49251     49259     49257     49263     49259     49257     49264
     49259     49257     49265     49263     49257     49264     49263     49257     49265
     49264     49257     49265     49257     49259     49261     49257     49259     49262
     49261     49259     49262     49270     49268     49274     49270     49268     49275
     49270     49268     49276     49274     49268     49275     49274     49268     49276
     49275     49268     49276     49268     49270     49272     49268     49270     49273
     49272     49270     49273     49281     49279     49285     49281     49279     49286
     49281     49279     49287     49285     49279     49286     49285     49279     49287
     49286     49279     49287     49279     49281     49283     49279     49281     49284
     49283     49281     49284     49292     49290     49296     49292     49290     49297
     49292     49290     49298     49296     49290     49297     49296     49290     49298
     49297     49290     49298     49290     49292     49294     49290     49292     49295
     49294     49292     49295     49303     49301     49307     49303     49301     49308
     49303     49301     49309     49307     49301     49308     49307     49301     49309
     49308     49301     49309     49301     49303     49305     49301     49303     49306
     49305     49303     49306     49314     49312     49318     49314     49312     49319
     49314     49312     49320     49318     49312     49319     49318     49312     49320
     49319     49312     49320     49312     49314     49316     49312     49314     49317
     49316     49314     49317     49325     49323     49329     49325     49323     49330
     49325     49323     49331     49329     49323     49330     49329     49323     49331
     49330     49323     49331     49323     49325     49327     49323     49325     49328
     49327     49325     49328     49336     49334     49340     49336     49334     49341
     49336     49334     49342     49340     49334     49341     49340     49334     49342
     49341     49334     49342     49334     49336     49338     49334     49336     49339
     49338     49336     49339     49347     49345     49351     49347     49345     49352
     49347     49345     49353     49351     49345     49352     49351     49345     49353
     49352     49345     49353     49345     49347     49349     49345     49347     49350
     49349     49347     49350     49358     49356     49362     49358     49356     49363
     49358     49356     49364     49362     49356     49363     49362     49356     49364
     49363     49356     49364     49356     49358     49360     49356     49358     49361
     49360     49358     49361     49369     49367     49373     49369     49367     49374
     49369     49367     49375     49373     49367     49374     49373     49367     49375
     49374     49367     49375     49367     49369     49371     49367     49369     49372
     49371     49369     49372     49380     49378     49384     49380     49378     49385
     49380     49378     49386     49384     49378     49385     49384     49378     49386
     49385     49378     49386     49378     49380     49382     49378     49380     49383
     49382     49380     49383     49391     49389     49395     49391     49389     49396
     49391     49389     49397     49395     49389     49396     49395     49389     49397
     49396     49389     49397     49389     49391     49393     49389     49391     49394
     49393     49391     49394     49402     49400     49406     49402     49400     49407
     49402     49400     49408     49406     49400     49407     49406     49400     49408
     49407     49400     49408     49400     49402     49404     49400     49402     49405
     49404     49402     49405     49413     49411     49417     49413     49411     49418
     49413     49411     49419     49417     49411     49418     49417     49411     49419
     49418     49411     49419     49411     49413     49415     49411     49413     49416
     49415     49413     49416     49424     49422     49428     49424     49422     49429
     49424     49422     49430     49428     49422     49429     49428     49422     49430
     49429     49422     49430     49422     49424     49426     49422     49424     49427
     49426     49424     49427     49435     49433     49439     49435     49433     49440
     49435     49433     49441     49439     49433     49440     49439     49433     49441
     49440     49433     49441     49433     49435     49437     49433     49435     49438
     49437     49435     49438     49446     49444     49450     49446     49444     49451
     49446     49444     49452     49450     49444     49451     49450     49444     49452
     49451     49444     49452     49444     49446     49448     49444     49446     49449
     49448     49446     49449     49457     49455     49461     49457     49455     49462
     49457     49455     49463     49461     49455     49462     49461     49455     49463
     49462     49455     49463     49455     49457     49459     49455     49457     49460
     49459     49457     49460     49468     49466     49472     49468     49466     49473
     49468     49466     49474     49472     49466     49473     49472     49466     49474
     49473     49466     49474     49466     49468     49470     49466     49468     49471
     49470     49468     49471     49479     49477     49483     49479     49477     49484
     49479     49477     49485     49483     49477     49484     49483     49477     49485
     49484     49477     49485     49477     49479     49481     49477     49479     49482
     49481     49479     49482     49490     49488     49494     49490     49488     49495
     49490     49488     49496     49494     49488     49495     49494     49488     49496
     49495     49488     49496     49488     49490     49492     49488     49490     49493
     49492     49490     49493     49501     49499     49505     49501     49499     49506
     49501     49499     49507     49505     49499     49506     49505     49499     49507
     49506     49499     49507     49499     49501     49503     49499     49501     49504
     49503     49501     49504     49512     49510     49516     49512     49510     49517
     49512     49510     49518     49516     49510     49517     49516     49510     49518
     49517     49510     49518     49510     49512     49514     49510     49512     49515
     49514     49512     49515     49523     49521     49527     49523     49521     49528
     49523     49521     49529     49527     49521     49528     49527     49521     49529
     49528     49521     49529     49521     49523     49525     49521     49523     49526
     49525     49523     49526     49534     49532     49538     49534     49532     49539
     49534     49532     49540     49538     49532     49539     49538     49532     49540
     49539     49532     49540     49532     49534     49536     49532     49534     49537
     49536     49534     49537     49545     49543     49549     49545     49543     49550
     49545     49543     49551     49549     49543     49550     49549     49543     49551
     49550     49543     49551     49543     49545     49547     49543     49545     49548
     49547     49545     49548     49556     49554     49560     49556     49554     49561
     49556     49554     49562     49560     49554     49561     49560     49554     49562
     49561     49554     49562     49554     49556     49558     49554     49556     49559
     49558     49556     49559     49567     49565     49571     49567     49565     49572
     49567     49565     49573     49571     49565     49572     49571     49565     49573
     49572     49565     49573     49565     49567     49569     49565     49567     49570
     49569     49567     49570     49578     49576     49582     49578     49576     49583
     49578     49576     49584     49582     49576     49583     49582     49576     49584
     49583     49576     49584     49576     49578     49580     49576     49578     49581
     49580     49578     49581     49589     49587     49593     49589     49587     49594
     49589     49587     49595     49593     49587     49594     49593     49587     49595
     49594     49587     49595     49587     49589     49591     49587     49589     49592
     49591     49589     49592     49600     49598     49604     49600     49598     49605
     49600     49598     49606     49604     49598     49605     49604     49598     49606
     49605     49598     49606     49598     49600     49602     49598     49600     49603
     49602     49600     49603     49611     49609     49615     49611     49609     49616
     49611     49609     49617     49615     49609     49616     49615     49609     49617
     49616     49609     49617     49609     49611     49613     49609     49611     49614
     49613     49611     49614     49622     49620     49626     49622     49620     49627
     49622     49620     49628     49626     49620     49627     49626     49620     49628
     49627     49620     49628     49620     49622     49624     49620     49622     49625
     49624     49622     49625     49633     49631     49637     49633     49631     49638
     49633     49631     49639     49637     49631     49638     49637     49631     49639
     49638     49631     49639     49631     49633     49635     49631     49633     49636
     49635     49633     49636     49644     49642     49648     49644     49642     49649
     49644     49642     49650     49648     49642     49649     49648     49642     49650
     49649     49642     49650     49642     49644     49646     49642     49644     49647
     49646     49644     49647     49655     49653     49659     49655     49653     49660
     49655     49653     49661     49659     49653     49660     49659     49653     49661
     49660     49653     49661     49653     49655     49657     49653     49655     49658
     49657     49655     49658     49666     49664     49670     49666     49664     49671
     49666     49664     49672     49670     49664     49671     49670     49664     49672
     49671     49664     49672     49664     49666     49668     49664     49666     49669
     49668     49666     49669     49677     49675     49681     49677     49675     49682
     49677     49675     49683     49681     49675     49682     49681     49675     49683
     49682     49675     49683     49675     49677     49679     49675     49677     49680
     49679     49677     49680     49688     49686     49692     49688     49686     49693
     49688     49686     49694     49692     49686     49693     49692     49686     49694
     49693     49686     49694     49686     49688     49690     49686     49688     49691
     49690     49688     49691     49699     49697     49703     49699     49697     49704
     49699     49697     49705     49703     49697     49704     49703     49697     49705
     49704     49697     49705     49697     49699     49701     49697     49699     49702
     49701     49699     49702     49710     49708     49714     49710     49708     49715
     49710     49708     49716     49714     49708     49715     49714     49708     49716
     49715     49708     49716     49708     49710     49712     49708     49710     49713
     49712     49710     49713     49721     49719     49725     49721     49719     49726
     49721     49719     49727     49725     49719     49726     49725     49719     49727
     49726     49719     49727     49719     49721     49723     49719     49721     49724
     49723     49721     49724     49732     49730     49736     49732     49730     49737
     49732     49730     49738     49736     49730     49737     49736     49730     49738
     49737     49730     49738     49730     49732     49734     49730     49732     49735
     49734     49732     49735     49743     49741     49747     49743     49741     49748
     49743     49741     49749     49747     49741     49748     49747     49741     49749
     49748     49741     49749     49741     49743     49745     49741     49743     49746
     49745     49743     49746     49754     49752     49758     49754     49752     49759
     49754     49752     49760     49758     49752     49759     49758     49752     49760
     49759     49752     49760     49752     49754     49756     49752     49754     49757
     49756     49754     49757     49765     49763     49769     49765     49763     49770
     49765     49763     49771     49769     49763     49770     49769     49763     49771
     49770     49763     49771     49763     49765     49767     49763     49765     49768
     49767     49765     49768     49776     49774     49780     49776     49774     49781
     49776     49774     49782     49780     49774     49781     49780     49774     49782
     49781     49774     49782     49774     49776     49778     49774     49776     49779
     49778     49776     49779     49787     49785     49791     49787     49785     49792
     49787     49785     49793     49791     49785     49792     49791     49785     49793
     49792     49785     49793     49785     49787     49789     49785     49787     49790
     49789     49787     49790     49798     49796     49802     49798     49796     49803
     49798     49796     49804     49802     49796     49803     49802     49796     49804
     49803     49796     49804     49796     49798     49800     49796     49798     49801
     49800     49798     49801     49809     49807     49813     49809     49807     49814
     49809     49807     49815     49813     49807     49814     49813     49807     49815
     49814     49807     49815     49807     49809     49811     49807     49809     49812
     49811     49809     49812     49820     49818     49824     49820     49818     49825
     49820     49818     49826     49824     49818     49825     49824     49818     49826
     49825     49818     49826     49818     49820     49822     49818     49820     49823
     49822     49820     49823     49831     49829     49835     49831     49829     49836
     49831     49829     49837     49835     49829     49836     49835     49829     49837
     49836     49829     49837     49829     49831     49833     49829     49831     49834
     49833     49831     49834     49842     49840     49846     49842     49840     49847
     49842     49840     49848     49846     49840     49847     49846     49840     49848
     49847     49840     49848     49840     49842     49844     49840     49842     49845
     49844     49842     49845     49853     49851     49857     49853     49851     49858
     49853     49851     49859     49857     49851     49858     49857     49851     49859
     49858     49851     49859     49851     49853     49855     49851     49853     49856
     49855     49853     49856     49864     49862     49868     49864     49862     49869
     49864     49862     49870     49868     49862     49869     49868     49862     49870
     49869     49862     49870     49862     49864     49866     49862     49864     49867
     49866     49864     49867     49875     49873     49879     49875     49873     49880
     49875     49873     49881     49879     49873     49880     49879     49873     49881
     49880     49873     49881     49873     49875     49877     49873     49875     49878
     49877     49875     49878     49886     49884     49890     49886     49884     49891
     49886     49884     49892     49890     49884     49891     49890     49884     49892
     49891     49884     49892     49884     49886     49888     49884     49886     49889
     49888     49886     49889     49897     49895     49901     49897     49895     49902
     49897     49895     49903     49901     49895     49902     49901     49895     49903
     49902     49895     49903     49895     49897     49899     49895     49897     49900
     49899     49897     49900     49908     49906     49912     49908     49906     49913
     49908     49906     49914     49912     49906     49913     49912     49906     49914
     49913     49906     49914     49906     49908     49910     49906     49908     49911
     49910     49908     49911     49919     49917     49923     49919     49917     49924
     49919     49917     49925     49923     49917     49924     49923     49917     49925
     49924     49917     49925     49917     49919     49921     49917     49919     49922
     49921     49919     49922     49930     49928     49934     49930     49928     49935
     49930     49928     49936     49934     49928     49935     49934     49928     49936
     49935     49928     49936     49928     49930     49932     49928     49930     49933
     49932     49930     49933     49941     49939     49945     49941     49939     49946
     49941     49939     49947     49945     49939     49946     49945     49939     49947
     49946     49939     49947     49939     49941     49943     49939     49941     49944
     49943     49941     49944     49952     49950     49956     49952     49950     49957
     49952     49950     49958     49956     49950     49957     49956     49950     49958
     49957     49950     49958     49950     49952     49954     49950     49952     49955
     49954     49952     49955     49963     49961     49967     49963     49961     49968
     49963     49961     49969     49967     49961     49968     49967     49961     49969
     49968     49961     49969     49961     49963     49965     49961     49963     49966
     49965     49963     49966     49974     49972     49978     49974     49972     49979
     49974     49972     49980     49978     49972     49979     49978     49972     49980
     49979     49972     49980     49972     49974     49976     49972     49974     49977
     49976     49974     49977     49985     49983     49989     49985     49983     49990
     49985     49983     49991     49989     49983     49990     49989     49983     49991
     49990     49983     49991     49983     49985     49987     49983     49985     49988
     49987     49985     49988     49996     49994     50000     49996     49994     50001
     49996     49994     50002     50000     49994     50001     50000     49994     50002
     50001     49994     50002     49994     49996     49998     49994     49996     49999
     49998     49996     49999     50007     50005     50011     50007     50005     50012
     50007     50005     50013     50011     50005     50012     50011     50005     50013
     50012     50005     50013     50005     50007     50009     50005     50007     50010
     50009     50007     50010     50018     50016     50022     50018     50016     50023
     50018     50016     50024     50022     50016     50023     50022     50016     50024
     50023     50016     50024     50016     50018     50020     50016     50018     50021
     50020     50018     50021     50029     50027     50033     50029     50027     50034
     50029     50027     50035     50033     50027     50034     50033     50027     50035
     50034     50027     50035     50027     50029     50031     50027     50029     50032
     50031     50029     50032     50040     50038     50044     50040     50038     50045
     50040     50038     50046     50044     50038     50045     50044     50038     50046
     50045     50038     50046     50038     50040     50042     50038     50040     50043
     50042     50040     50043     50051     50049     50055     50051     50049     50056
     50051     50049     50057     50055     50049     50056     50055     50049     50057
     50056     50049     50057     50049     50051     50053     50049     50051     50054
     50053     50051     50054     50062     50060     50066     50062     50060     50067
     50062     50060     50068     50066     50060     50067     50066     50060     50068
     50067     50060     50068     50060     50062     50064     50060     50062     50065
     50064     50062     50065     50073     50071     50077     50073     50071     50078
     50073     50071     50079     50077     50071     50078     50077     50071     50079
     50078     50071     50079     50071     50073     50075     50071     50073     50076
     50075     50073     50076     50084     50082     50088     50084     50082     50089
     50084     50082     50090     50088     50082     50089     50088     50082     50090
     50089     50082     50090     50082     50084     50086     50082     50084     50087
     50086     50084     50087     50095     50093     50099     50095     50093     50100
     50095     50093     50101     50099     50093     50100     50099     50093     50101
     50100     50093     50101     50093     50095     50097     50093     50095     50098
     50097     50095     50098     50106     50104     50110     50106     50104     50111
     50106     50104     50112     50110     50104     50111     50110     50104     50112
     50111     50104     50112     50104     50106     50108     50104     50106     50109
     50108     50106     50109     50117     50115     50121     50117     50115     50122
     50117     50115     50123     50121     50115     50122     50121     50115     50123
     50122     50115     50123     50115     50117     50119     50115     50117     50120
     50119     50117     50120     50128     50126     50132     50128     50126     50133
     50128     50126     50134     50132     50126     50133     50132     50126     50134
     50133     50126     50134     50126     50128     50130     50126     50128     50131
     50130     50128     50131     50139     50137     50143     50139     50137     50144
     50139     50137     50145     50143     50137     50144     50143     50137     50145
     50144     50137     50145     50137     50139     50141     50137     50139     50142
     50141     50139     50142     50150     50148     50154     50150     50148     50155
     50150     50148     50156     50154     50148     50155     50154     50148     50156
     50155     50148     50156     50148     50150     50152     50148     50150     50153
     50152     50150     50153     50161     50159     50165     50161     50159     50166
     50161     50159     50167     50165     50159     50166     50165     50159     50167
     50166     50159     50167     50159     50161     50163     50159     50161     50164
     50163     50161     50164     50172     50170     50176     50172     50170     50177
     50172     50170     50178     50176     50170     50177     50176     50170     50178
     50177     50170     50178     50170     50172     50174     50170     50172     50175
     50174     50172     50175     50183     50181     50187     50183     50181     50188
     50183     50181     50189     50187     50181     50188     50187     50181     50189
     50188     50181     50189     50181     50183     50185     50181     50183     50186
     50185     50183     50186     50194     50192     50198     50194     50192     50199
     50194     50192     50200     50198     50192     50199     50198     50192     50200
     50199     50192     50200     50192     50194     50196     50192     50194     50197
     50196     50194     50197     50205     50203     50209     50205     50203     50210
     50205     50203     50211     50209     50203     50210     50209     50203     50211
     50210     50203     50211     50203     50205     50207     50203     50205     50208
     50207     50205     50208     50216     50214     50220     50216     50214     50221
     50216     50214     50222     50220     50214     50221     50220     50214     50222
     50221     50214     50222     50214     50216     50218     50214     50216     50219
     50218     50216     50219     50227     50225     50231     50227     50225     50232
     50227     50225     50233     50231     50225     50232     50231     50225     50233
     50232     50225     50233     50225     50227     50229     50225     50227     50230
     50229     50227     50230     50238     50236     50242     50238     50236     50243
     50238     50236     50244     50242     50236     50243     50242     50236     50244
     50243     50236     50244     50236     50238     50240     50236     50238     50241
     50240     50238     50241     50249     50247     50253     50249     50247     50254
     50249     50247     50255     50253     50247     50254     50253     50247     50255
     50254     50247     50255     50247     50249     50251     50247     50249     50252
     50251     50249     50252     50260     50258     50264     50260     50258     50265
     50260     50258     50266     50264     50258     50265     50264     50258     50266
     50265     50258     50266     50258     50260     50262     50258     50260     50263
     50262     50260     50263     50271     50269     50275     50271     50269     50276
     50271     50269     50277     50275     50269     50276     50275     50269     50277
     50276     50269     50277     50269     50271     50273     50269     50271     50274
     50273     50271     50274     50282     50280     50286     50282     50280     50287
     50282     50280     50288     50286     50280     50287     50286     50280     50288
     50287     50280     50288     50280     50282     50284     50280     50282     50285
     50284     50282     50285     50293     50291     50297     50293     50291     50298
     50293     50291     50299     50297     50291     50298     50297     50291     50299
     50298     50291     50299     50291     50293     50295     50291     50293     50296
     50295     50293     50296     50304     50302     50308     50304     50302     50309
     50304     50302     50310     50308     50302     50309     50308     50302     50310
     50309     50302     50310     50302     50304     50306     50302     50304     50307
     50306     50304     50307     50315     50313     50319     50315     50313     50320
     50315     50313     50321     50319     50313     50320     50319     50313     50321
     50320     50313     50321     50313     50315     50317     50313     50315     50318
     50317     50315     50318     50326     50324     50330     50326     50324     50331
     50326     50324     50332     50330     50324     50331     50330     50324     50332
     50331     50324     50332     50324     50326     50328     50324     50326     50329
     50328     50326     50329     50337     50335     50341     50337     50335     50342
     50337     50335     50343     50341     50335     50342     50341     50335     50343
     50342     50335     50343     50335     50337     50339     50335     50337     50340
     50339     50337     50340     50348     50346     50352     50348     50346     50353
     50348     50346     50354     50352     50346     50353     50352     50346     50354
     50353     50346     50354     50346     50348     50350     50346     50348     50351
     50350     50348     50351     50359     50357     50363     50359     50357     50364
     50359     50357     50365     50363     50357     50364     50363     50357     50365
     50364     50357     50365     50357     50359     50361     50357     50359     50362
     50361     50359     50362     50370     50368     50374     50370     50368     50375
     50370     50368     50376     50374     50368     50375     50374     50368     50376
     50375     50368     50376     50368     50370     50372     50368     50370     50373
     50372     50370     50373     50381     50379     50385     50381     50379     50386
     50381     50379     50387     50385     50379     50386     50385     50379     50387
     50386     50379     50387     50379     50381     50383     50379     50381     50384
     50383     50381     50384     50392     50390     50396     50392     50390     50397
     50392     50390     50398     50396     50390     50397     50396     50390     50398
     50397     50390     50398     50390     50392     50394     50390     50392     50395
     50394     50392     50395     50403     50401     50407     50403     50401     50408
     50403     50401     50409     50407     50401     50408     50407     50401     50409
     50408     50401     50409     50401     50403     50405     50401     50403     50406
     50405     50403     50406     50414     50412     50418     50414     50412     50419
     50414     50412     50420     50418     50412     50419     50418     50412     50420
     50419     50412     50420     50412     50414     50416     50412     50414     50417
     50416     50414     50417     50425     50423     50429     50425     50423     50430
     50425     50423     50431     50429     50423     50430     50429     50423     50431
     50430     50423     50431     50423     50425     50427     50423     50425     50428
     50427     50425     50428     50436     50434     50440     50436     50434     50441
     50436     50434     50442     50440     50434     50441     50440     50434     50442
     50441     50434     50442     50434     50436     50438     50434     50436     50439
     50438     50436     50439     50447     50445     50451     50447     50445     50452
     50447     50445     50453     50451     50445     50452     50451     50445     50453
     50452     50445     50453     50445     50447     50449     50445     50447     50450
     50449     50447     50450     50458     50456     50462     50458     50456     50463
     50458     50456     50464     50462     50456     50463     50462     50456     50464
     50463     50456     50464     50456     50458     50460     50456     50458     50461
     50460     50458     50461     50469     50467     50473     50469     50467     50474
     50469     50467     50475     50473     50467     50474     50473     50467     50475
     50474     50467     50475     50467     50469     50471     50467     50469     50472
     50471     50469     50472     50480     50478     50484     50480     50478     50485
     50480     50478     50486     50484     50478     50485     50484     50478     50486
     50485     50478     50486     50478     50480     50482     50478     50480     50483
     50482     50480     50483     50491     50489     50495     50491     50489     50496
     50491     50489     50497     50495     50489     50496     50495     50489     50497
     50496     50489     50497     50489     50491     50493     50489     50491     50494
     50493     50491     50494     50502     50500     50506     50502     50500     50507
     50502     50500     50508     50506     50500     50507     50506     50500     50508
     50507     50500     50508     50500     50502     50504     50500     50502     50505
     50504     50502     50505     50513     50511     50517     50513     50511     50518
     50513     50511     50519     50517     50511     50518     50517     50511     50519
     50518     50511     50519     50511     50513     50515     50511     50513     50516
     50515     50513     50516     50524     50522     50528     50524     50522     50529
     50524     50522     50530     50528     50522     50529     50528     50522     50530
     50529     50522     50530     50522     50524     50526     50522     50524     50527
     50526     50524     50527     50535     50533     50539     50535     50533     50540
     50535     50533     50541     50539     50533     50540     50539     50533     50541
     50540     50533     50541     50533     50535     50537     50533     50535     50538
     50537     50535     50538     50546     50544     50550     50546     50544     50551
     50546     50544     50552     50550     50544     50551     50550     50544     50552
     50551     50544     50552     50544     50546     50548     50544     50546     50549
     50548     50546     50549     50557     50555     50561     50557     50555     50562
     50557     50555     50563     50561     50555     50562     50561     50555     50563
     50562     50555     50563     50555     50557     50559     50555     50557     50560
     50559     50557     50560     50568     50566     50572     50568     50566     50573
     50568     50566     50574     50572     50566     50573     50572     50566     50574
     50573     50566     50574     50566     50568     50570     50566     50568     50571
     50570     50568     50571     50579     50577     50583     50579     50577     50584
     50579     50577     50585     50583     50577     50584     50583     50577     50585
     50584     50577     50585     50577     50579     50581     50577     50579     50582
     50581     50579     50582     50590     50588     50594     50590     50588     50595
     50590     50588     50596     50594     50588     50595     50594     50588     50596
     50595     50588     50596     50588     50590     50592     50588     50590     50593
     50592     50590     50593     50601     50599     50605     50601     50599     50606
     50601     50599     50607     50605     50599     50606     50605     50599     50607
     50606     50599     50607     50599     50601     50603     50599     50601     50604
     50603     50601     50604     50612     50610     50616     50612     50610     50617
     50612     50610     50618     50616     50610     50617     50616     50610     50618
     50617     50610     50618     50610     50612     50614     50610     50612     50615
     50614     50612     50615     50623     50621     50627     50623     50621     50628
     50623     50621     50629     50627     50621     50628     50627     50621     50629
     50628     50621     50629     50621     50623     50625     50621     50623     50626
     50625     50623     50626     50634     50632     50638     50634     50632     50639
     50634     50632     50640     50638     50632     50639     50638     50632     50640
     50639     50632     50640     50632     50634     50636     50632     50634     50637
     50636     50634     50637     50645     50643     50649     50645     50643     50650
     50645     50643     50651     50649     50643     50650     50649     50643     50651
     50650     50643     50651     50643     50645     50647     50643     50645     50648
     50647     50645     50648     50656     50654     50660     50656     50654     50661
     50656     50654     50662     50660     50654     50661     50660     50654     50662
     50661     50654     50662     50654     50656     50658     50654     50656     50659
     50658     50656     50659     50667     50665     50671     50667     50665     50672
     50667     50665     50673     50671     50665     50672     50671     50665     50673
     50672     50665     50673     50665     50667     50669     50665     50667     50670
     50669     50667     50670     50678     50676     50682     50678     50676     50683
     50678     50676     50684     50682     50676     50683     50682     50676     50684
     50683     50676     50684     50676     50678     50680     50676     50678     50681
     50680     50678     50681     50689     50687     50693     50689     50687     50694
     50689     50687     50695     50693     50687     50694     50693     50687     50695
     50694     50687     50695     50687     50689     50691     50687     50689     50692
     50691     50689     50692     50700     50698     50704     50700     50698     50705
     50700     50698     50706     50704     50698     50705     50704     50698     50706
     50705     50698     50706     50698     50700     50702     50698     50700     50703
     50702     50700     50703     50711     50709     50715     50711     50709     50716
     50711     50709     50717     50715     50709     50716     50715     50709     50717
     50716     50709     50717     50709     50711     50713     50709     50711     50714
     50713     50711     50714     50722     50720     50726     50722     50720     50727
     50722     50720     50728     50726     50720     50727     50726     50720     50728
     50727     50720     50728     50720     50722     50724     50720     50722     50725
     50724     50722     50725     50733     50731     50737     50733     50731     50738
     50733     50731     50739     50737     50731     50738     50737     50731     50739
     50738     50731     50739     50731     50733     50735     50731     50733     50736
     50735     50733     50736     50744     50742     50748     50744     50742     50749
     50744     50742     50750     50748     50742     50749     50748     50742     50750
     50749     50742     50750     50742     50744     50746     50742     50744     50747
     50746     50744     50747     50755     50753     50759     50755     50753     50760
     50755     50753     50761     50759     50753     50760     50759     50753     50761
     50760     50753     50761     50753     50755     50757     50753     50755     50758
     50757     50755     50758     50766     50764     50770     50766     50764     50771
     50766     50764     50772     50770     50764     50771     50770     50764     50772
     50771     50764     50772     50764     50766     50768     50764     50766     50769
     50768     50766     50769     50777     50775     50781     50777     50775     50782
     50777     50775     50783     50781     50775     50782     50781     50775     50783
     50782     50775     50783     50775     50777     50779     50775     50777     50780
     50779     50777     50780     50788     50786     50792     50788     50786     50793
     50788     50786     50794     50792     50786     50793     50792     50786     50794
     50793     50786     50794     50786     50788     50790     50786     50788     50791
     50790     50788     50791     50799     50797     50803     50799     50797     50804
     50799     50797     50805     50803     50797     50804     50803     50797     50805
     50804     50797     50805     50797     50799     50801     50797     50799     50802
     50801     50799     50802     50810     50808     50814     50810     50808     50815
     50810     50808     50816     50814     50808     50815     50814     50808     50816
     50815     50808     50816     50808     50810     50812     50808     50810     50813
     50812     50810     50813     50821     50819     50825     50821     50819     50826
     50821     50819     50827     50825     50819     50826     50825     50819     50827
     50826     50819     50827     50819     50821     50823     50819     50821     50824
     50823     50821     50824     50832     50830     50836     50832     50830     50837
     50832     50830     50838     50836     50830     50837     50836     50830     50838
     50837     50830     50838     50830     50832     50834     50830     50832     50835
     50834     50832     50835     50843     50841     50847     50843     50841     50848
     50843     50841     50849     50847     50841     50848     50847     50841     50849
     50848     50841     50849     50841     50843     50845     50841     50843     50846
     50845     50843     50846     50854     50852     50858     50854     50852     50859
     50854     50852     50860     50858     50852     50859     50858     50852     50860
     50859     50852     50860     50852     50854     50856     50852     50854     50857
     50856     50854     50857     50865     50863     50869     50865     50863     50870
     50865     50863     50871     50869     50863     50870     50869     50863     50871
     50870     50863     50871     50863     50865     50867     50863     50865     50868
     50867     50865     50868     50876     50874     50880     50876     50874     50881
     50876     50874     50882     50880     50874     50881     50880     50874     50882
     50881     50874     50882     50874     50876     50878     50874     50876     50879
     50878     50876     50879     50887     50885     50891     50887     50885     50892
     50887     50885     50893     50891     50885     50892     50891     50885     50893
     50892     50885     50893     50885     50887     50889     50885     50887     50890
     50889     50887     50890     50898     50896     50902     50898     50896     50903
     50898     50896     50904     50902     50896     50903     50902     50896     50904
     50903     50896     50904     50896     50898     50900     50896     50898     50901
     50900     50898     50901     50909     50907     50913     50909     50907     50914
     50909     50907     50915     50913     50907     50914     50913     50907     50915
     50914     50907     50915     50907     50909     50911     50907     50909     50912
     50911     50909     50912     50920     50918     50924     50920     50918     50925
     50920     50918     50926     50924     50918     50925     50924     50918     50926
     50925     50918     50926     50918     50920     50922     50918     50920     50923
     50922     50920     50923     50931     50929     50935     50931     50929     50936
     50931     50929     50937     50935     50929     50936     50935     50929     50937
     50936     50929     50937     50929     50931     50933     50929     50931     50934
     50933     50931     50934     50942     50940     50946     50942     50940     50947
     50942     50940     50948     50946     50940     50947     50946     50940     50948
     50947     50940     50948     50940     50942     50944     50940     50942     50945
     50944     50942     50945     50953     50951     50957     50953     50951     50958
     50953     50951     50959     50957     50951     50958     50957     50951     50959
     50958     50951     50959     50951     50953     50955     50951     50953     50956
     50955     50953     50956     50964     50962     50968     50964     50962     50969
     50964     50962     50970     50968     50962     50969     50968     50962     50970
     50969     50962     50970     50962     50964     50966     50962     50964     50967
     50966     50964     50967     50975     50973     50979     50975     50973     50980
     50975     50973     50981     50979     50973     50980     50979     50973     50981
     50980     50973     50981     50973     50975     50977     50973     50975     50978
     50977     50975     50978     50986     50984     50990     50986     50984     50991
     50986     50984     50992     50990     50984     50991     50990     50984     50992
     50991     50984     50992     50984     50986     50988     50984     50986     50989
     50988     50986     50989     50997     50995     51001     50997     50995     51002
     50997     50995     51003     51001     50995     51002     51001     50995     51003
     51002     50995     51003     50995     50997     50999     50995     50997     51000
     50999     50997     51000     51008     51006     51012     51008     51006     51013
     51008     51006     51014     51012     51006     51013     51012     51006     51014
     51013     51006     51014     51006     51008     51010     51006     51008     51011
     51010     51008     51011     51019     51017     51023     51019     51017     51024
     51019     51017     51025     51023     51017     51024     51023     51017     51025
     51024     51017     51025     51017     51019     51021     51017     51019     51022
     51021     51019     51022     51030     51028     51034     51030     51028     51035
     51030     51028     51036     51034     51028     51035     51034     51028     51036
     51035     51028     51036     51028     51030     51032     51028     51030     51033
     51032     51030     51033     51041     51039     51045     51041     51039     51046
     51041     51039     51047     51045     51039     51046     51045     51039     51047
     51046     51039     51047     51039     51041     51043     51039     51041     51044
     51043     51041     51044     51052     51050     51056     51052     51050     51057
     51052     51050     51058     51056     51050     51057     51056     51050     51058
     51057     51050     51058     51050     51052     51054     51050     51052     51055
     51054     51052     51055     51063     51061     51067     51063     51061     51068
     51063     51061     51069     51067     51061     51068     51067     51061     51069
     51068     51061     51069     51061     51063     51065     51061     51063     51066
     51065     51063     51066     51074     51072     51078     51074     51072     51079
     51074     51072     51080     51078     51072     51079     51078     51072     51080
     51079     51072     51080     51072     51074     51076     51072     51074     51077
     51076     51074     51077     51085     51083     51089     51085     51083     51090
     51085     51083     51091     51089     51083     51090     51089     51083     51091
     51090     51083     51091     51083     51085     51087     51083     51085     51088
     51087     51085     51088     51096     51094     51100     51096     51094     51101
     51096     51094     51102     51100     51094     51101     51100     51094     51102
     51101     51094     51102     51094     51096     51098     51094     51096     51099
     51098     51096     51099     51107     51105     51111     51107     51105     51112
     51107     51105     51113     51111     51105     51112     51111     51105     51113
     51112     51105     51113     51105     51107     51109     51105     51107     51110
     51109     51107     51110     51118     51116     51122     51118     51116     51123
     51118     51116     51124     51122     51116     51123     51122     51116     51124
     51123     51116     51124     51116     51118     51120     51116     51118     51121
     51120     51118     51121     51129     51127     51133     51129     51127     51134
     51129     51127     51135     51133     51127     51134     51133     51127     51135
     51134     51127     51135     51127     51129     51131     51127     51129     51132
     51131     51129     51132     51140     51138     51144     51140     51138     51145
     51140     51138     51146     51144     51138     51145     51144     51138     51146
     51145     51138     51146     51138     51140     51142     51138     51140     51143
     51142     51140     51143     51151     51149     51155     51151     51149     51156
     51151     51149     51157     51155     51149     51156     51155     51149     51157
     51156     51149     51157     51149     51151     51153     51149     51151     51154
     51153     51151     51154     51162     51160     51166     51162     51160     51167
     51162     51160     51168     51166     51160     51167     51166     51160     51168
     51167     51160     51168     51160     51162     51164     51160     51162     51165
     51164     51162     51165     51173     51171     51177     51173     51171     51178
     51173     51171     51179     51177     51171     51178     51177     51171     51179
     51178     51171     51179     51171     51173     51175     51171     51173     51176
     51175     51173     51176     51184     51182     51188     51184     51182     51189
     51184     51182     51190     51188     51182     51189     51188     51182     51190
     51189     51182     51190     51182     51184     51186     51182     51184     51187
     51186     51184     51187     51195     51193     51199     51195     51193     51200
     51195     51193     51201     51199     51193     51200     51199     51193     51201
     51200     51193     51201     51193     51195     51197     51193     51195     51198
     51197     51195     51198     51206     51204     51210     51206     51204     51211
     51206     51204     51212     51210     51204     51211     51210     51204     51212
     51211     51204     51212     51204     51206     51208     51204     51206     51209
     51208     51206     51209     51217     51215     51221     51217     51215     51222
     51217     51215     51223     51221     51215     51222     51221     51215     51223
     51222     51215     51223     51215     51217     51219     51215     51217     51220
     51219     51217     51220     51228     51226     51232     51228     51226     51233
     51228     51226     51234     51232     51226     51233     51232     51226     51234
     51233     51226     51234     51226     51228     51230     51226     51228     51231
     51230     51228     51231     51239     51237     51243     51239     51237     51244
     51239     51237     51245     51243     51237     51244     51243     51237     51245
     51244     51237     51245     51237     51239     51241     51237     51239     51242
     51241     51239     51242     51250     51248     51254     51250     51248     51255
     51250     51248     51256     51254     51248     51255     51254     51248     51256
     51255     51248     51256     51248     51250     51252     51248     51250     51253
     51252     51250     51253     51261     51259     51265     51261     51259     51266
     51261     51259     51267     51265     51259     51266     51265     51259     51267
     51266     51259     51267     51259     51261     51263     51259     51261     51264
     51263     51261     51264     51272     51270     51276     51272     51270     51277
     51272     51270     51278     51276     51270     51277     51276     51270     51278
     51277     51270     51278     51270     51272     51274     51270     51272     51275
     51274     51272     51275     51283     51281     51287     51283     51281     51288
     51283     51281     51289     51287     51281     51288     51287     51281     51289
     51288     51281     51289     51281     51283     51285     51281     51283     51286
     51285     51283     51286     51294     51292     51298     51294     51292     51299
     51294     51292     51300     51298     51292     51299     51298     51292     51300
     51299     51292     51300     51292     51294     51296     51292     51294     51297
     51296     51294     51297     51305     51303     51309     51305     51303     51310
     51305     51303     51311     51309     51303     51310     51309     51303     51311
     51310     51303     51311     51303     51305     51307     51303     51305     51308
     51307     51305     51308     51316     51314     51320     51316     51314     51321
     51316     51314     51322     51320     51314     51321     51320     51314     51322
     51321     51314     51322     51314     51316     51318     51314     51316     51319
     51318     51316     51319     51327     51325     51331     51327     51325     51332
     51327     51325     51333     51331     51325     51332     51331     51325     51333
     51332     51325     51333     51325     51327     51329     51325     51327     51330
     51329     51327     51330     51338     51336     51342     51338     51336     51343
     51338     51336     51344     51342     51336     51343     51342     51336     51344
     51343     51336     51344     51336     51338     51340     51336     51338     51341
     51340     51338     51341     51349     51347     51353     51349     51347     51354
     51349     51347     51355     51353     51347     51354     51353     51347     51355
     51354     51347     51355     51347     51349     51351     51347     51349     51352
     51351     51349     51352     51360     51358     51364     51360     51358     51365
     51360     51358     51366     51364     51358     51365     51364     51358     51366
     51365     51358     51366     51358     51360     51362     51358     51360     51363
     51362     51360     51363     51371     51369     51375     51371     51369     51376
     51371     51369     51377     51375     51369     51376     51375     51369     51377
     51376     51369     51377     51369     51371     51373     51369     51371     51374
     51373     51371     51374     51382     51380     51386     51382     51380     51387
     51382     51380     51388     51386     51380     51387     51386     51380     51388
     51387     51380     51388     51380     51382     51384     51380     51382     51385
     51384     51382     51385     51393     51391     51397     51393     51391     51398
     51393     51391     51399     51397     51391     51398     51397     51391     51399
     51398     51391     51399     51391     51393     51395     51391     51393     51396
     51395     51393     51396     51404     51402     51408     51404     51402     51409
     51404     51402     51410     51408     51402     51409     51408     51402     51410
     51409     51402     51410     51402     51404     51406     51402     51404     51407
     51406     51404     51407     51415     51413     51419     51415     51413     51420
     51415     51413     51421     51419     51413     51420     51419     51413     51421
     51420     51413     51421     51413     51415     51417     51413     51415     51418
     51417     51415     51418     51426     51424     51430     51426     51424     51431
     51426     51424     51432     51430     51424     51431     51430     51424     51432
     51431     51424     51432     51424     51426     51428     51424     51426     51429
     51428     51426     51429     51437     51435     51441     51437     51435     51442
     51437     51435     51443     51441     51435     51442     51441     51435     51443
     51442     51435     51443     51435     51437     51439     51435     51437     51440
     51439     51437     51440     51448     51446     51452     51448     51446     51453
     51448     51446     51454     51452     51446     51453     51452     51446     51454
     51453     51446     51454     51446     51448     51450     51446     51448     51451
     51450     51448     51451     51459     51457     51463     51459     51457     51464
     51459     51457     51465     51463     51457     51464     51463     51457     51465
     51464     51457     51465     51457     51459     51461     51457     51459     51462
     51461     51459     51462     51470     51468     51474     51470     51468     51475
     51470     51468     51476     51474     51468     51475     51474     51468     51476
     51475     51468     51476     51468     51470     51472     51468     51470     51473
     51472     51470     51473     51481     51479     51485     51481     51479     51486
     51481     51479     51487     51485     51479     51486     51485     51479     51487
     51486     51479     51487     51479     51481     51483     51479     51481     51484
     51483     51481     51484     51492     51490     51496     51492     51490     51497
     51492     51490     51498     51496     51490     51497     51496     51490     51498
     51497     51490     51498     51490     51492     51494     51490     51492     51495
     51494     51492     51495     51503     51501     51507     51503     51501     51508
     51503     51501     51509     51507     51501     51508     51507     51501     51509
     51508     51501     51509     51501     51503     51505     51501     51503     51506
     51505     51503     51506     51514     51512     51518     51514     51512     51519
     51514     51512     51520     51518     51512     51519     51518     51512     51520
     51519     51512     51520     51512     51514     51516     51512     51514     51517
     51516     51514     51517     51525     51523     51529     51525     51523     51530
     51525     51523     51531     51529     51523     51530     51529     51523     51531
     51530     51523     51531     51523     51525     51527     51523     51525     51528
     51527     51525     51528     51536     51534     51540     51536     51534     51541
     51536     51534     51542     51540     51534     51541     51540     51534     51542
     51541     51534     51542     51534     51536     51538     51534     51536     51539
     51538     51536     51539     51547     51545     51551     51547     51545     51552
     51547     51545     51553     51551     51545     51552     51551     51545     51553
     51552     51545     51553     51545     51547     51549     51545     51547     51550
     51549     51547     51550     51558     51556     51562     51558     51556     51563
     51558     51556     51564     51562     51556     51563     51562     51556     51564
     51563     51556     51564     51556     51558     51560     51556     51558     51561
     51560     51558     51561     51569     51567     51573     51569     51567     51574
     51569     51567     51575     51573     51567     51574     51573     51567     51575
     51574     51567     51575     51567     51569     51571     51567     51569     51572
     51571     51569     51572     51580     51578     51584     51580     51578     51585
     51580     51578     51586     51584     51578     51585     51584     51578     51586
     51585     51578     51586     51578     51580     51582     51578     51580     51583
     51582     51580     51583     51591     51589     51595     51591     51589     51596
     51591     51589     51597     51595     51589     51596     51595     51589     51597
     51596     51589     51597     51589     51591     51593     51589     51591     51594
     51593     51591     51594     51602     51600     51606     51602     51600     51607
     51602     51600     51608     51606     51600     51607     51606     51600     51608
     51607     51600     51608     51600     51602     51604     51600     51602     51605
     51604     51602     51605     51613     51611     51617     51613     51611     51618
     51613     51611     51619     51617     51611     51618     51617     51611     51619
     51618     51611     51619     51611     51613     51615     51611     51613     51616
     51615     51613     51616     51624     51622     51628     51624     51622     51629
     51624     51622     51630     51628     51622     51629     51628     51622     51630
     51629     51622     51630     51622     51624     51626     51622     51624     51627
     51626     51624     51627     51635     51633     51639     51635     51633     51640
     51635     51633     51641     51639     51633     51640     51639     51633     51641
     51640     51633     51641     51633     51635     51637     51633     51635     51638
     51637     51635     51638     51646     51644     51650     51646     51644     51651
     51646     51644     51652     51650     51644     51651     51650     51644     51652
     51651     51644     51652     51644     51646     51648     51644     51646     51649
     51648     51646     51649     51657     51655     51661     51657     51655     51662
     51657     51655     51663     51661     51655     51662     51661     51655     51663
     51662     51655     51663     51655     51657     51659     51655     51657     51660
     51659     51657     51660     51668     51666     51672     51668     51666     51673
     51668     51666     51674     51672     51666     51673     51672     51666     51674
     51673     51666     51674     51666     51668     51670     51666     51668     51671
     51670     51668     51671     51679     51677     51683     51679     51677     51684
     51679     51677     51685     51683     51677     51684     51683     51677     51685
     51684     51677     51685     51677     51679     51681     51677     51679     51682
     51681     51679     51682     51690     51688     51694     51690     51688     51695
     51690     51688     51696     51694     51688     51695     51694     51688     51696
     51695     51688     51696     51688     51690     51692     51688     51690     51693
     51692     51690     51693     51701     51699     51705     51701     51699     51706
     51701     51699     51707     51705     51699     51706     51705     51699     51707
     51706     51699     51707     51699     51701     51703     51699     51701     51704
     51703     51701     51704     51712     51710     51716     51712     51710     51717
     51712     51710     51718     51716     51710     51717     51716     51710     51718
     51717     51710     51718     51710     51712     51714     51710     51712     51715
     51714     51712     51715     51723     51721     51727     51723     51721     51728
     51723     51721     51729     51727     51721     51728     51727     51721     51729
     51728     51721     51729     51721     51723     51725     51721     51723     51726
     51725     51723     51726     51734     51732     51738     51734     51732     51739
     51734     51732     51740     51738     51732     51739     51738     51732     51740
     51739     51732     51740     51732     51734     51736     51732     51734     51737
     51736     51734     51737     51745     51743     51749     51745     51743     51750
     51745     51743     51751     51749     51743     51750     51749     51743     51751
     51750     51743     51751     51743     51745     51747     51743     51745     51748
     51747     51745     51748     51756     51754     51760     51756     51754     51761
     51756     51754     51762     51760     51754     51761     51760     51754     51762
     51761     51754     51762     51754     51756     51758     51754     51756     51759
     51758     51756     51759     51767     51765     51771     51767     51765     51772
     51767     51765     51773     51771     51765     51772     51771     51765     51773
     51772     51765     51773     51765     51767     51769     51765     51767     51770
     51769     51767     51770     51778     51776     51782     51778     51776     51783
     51778     51776     51784     51782     51776     51783     51782     51776     51784
     51783     51776     51784     51776     51778     51780     51776     51778     51781
     51780     51778     51781     51789     51787     51793     51789     51787     51794
     51789     51787     51795     51793     51787     51794     51793     51787     51795
     51794     51787     51795     51787     51789     51791     51787     51789     51792
     51791     51789     51792     51800     51798     51804     51800     51798     51805
     51800     51798     51806     51804     51798     51805     51804     51798     51806
     51805     51798     51806     51798     51800     51802     51798     51800     51803
     51802     51800     51803     51811     51809     51815     51811     51809     51816
     51811     51809     51817     51815     51809     51816     51815     51809     51817
     51816     51809     51817     51809     51811     51813     51809     51811     51814
     51813     51811     51814     51822     51820     51826     51822     51820     51827
     51822     51820     51828     51826     51820     51827     51826     51820     51828
     51827     51820     51828     51820     51822     51824     51820     51822     51825
     51824     51822     51825     51833     51831     51837     51833     51831     51838
     51833     51831     51839     51837     51831     51838     51837     51831     51839
     51838     51831     51839     51831     51833     51835     51831     51833     51836
     51835     51833     51836     51844     51842     51848     51844     51842     51849
     51844     51842     51850     51848     51842     51849     51848     51842     51850
     51849     51842     51850     51842     51844     51846     51842     51844     51847
     51846     51844     51847     51855     51853     51859     51855     51853     51860
     51855     51853     51861     51859     51853     51860     51859     51853     51861
     51860     51853     51861     51853     51855     51857     51853     51855     51858
     51857     51855     51858     51866     51864     51870     51866     51864     51871
     51866     51864     51872     51870     51864     51871     51870     51864     51872
     51871     51864     51872     51864     51866     51868     51864     51866     51869
     51868     51866     51869     51877     51875     51881     51877     51875     51882
     51877     51875     51883     51881     51875     51882     51881     51875     51883
     51882     51875     51883     51875     51877     51879     51875     51877     51880
     51879     51877     51880     51888     51886     51892     51888     51886     51893
     51888     51886     51894     51892     51886     51893     51892     51886     51894
     51893     51886     51894     51886     51888     51890     51886     51888     51891
     51890     51888     51891     51899     51897     51903     51899     51897     51904
     51899     51897     51905     51903     51897     51904     51903     51897     51905
     51904     51897     51905     51897     51899     51901     51897     51899     51902
     51901     51899     51902     51910     51908     51914     51910     51908     51915
     51910     51908     51916     51914     51908     51915     51914     51908     51916
     51915     51908     51916     51908     51910     51912     51908     51910     51913
     51912     51910     51913     51921     51919     51925     51921     51919     51926
     51921     51919     51927     51925     51919     51926     51925     51919     51927
     51926     51919     51927     51919     51921     51923     51919     51921     51924
     51923     51921     51924     51932     51930     51936     51932     51930     51937
     51932     51930     51938     51936     51930     51937     51936     51930     51938
     51937     51930     51938     51930     51932     51934     51930     51932     51935
     51934     51932     51935     51943     51941     51947     51943     51941     51948
     51943     51941     51949     51947     51941     51948     51947     51941     51949
     51948     51941     51949     51941     51943     51945     51941     51943     51946
     51945     51943     51946     51954     51952     51958     51954     51952     51959
     51954     51952     51960     51958     51952     51959     51958     51952     51960
     51959     51952     51960     51952     51954     51956     51952     51954     51957
     51956     51954     51957     51965     51963     51969     51965     51963     51970
     51965     51963     51971     51969     51963     51970     51969     51963     51971
     51970     51963     51971     51963     51965     51967     51963     51965     51968
     51967     51965     51968     51976     51974     51980     51976     51974     51981
     51976     51974     51982     51980     51974     51981     51980     51974     51982
     51981     51974     51982     51974     51976     51978     51974     51976     51979
     51978     51976     51979     51987     51985     51991     51987     51985     51992
     51987     51985     51993     51991     51985     51992     51991     51985     51993
     51992     51985     51993     51985     51987     51989     51985     51987     51990
     51989     51987     51990     51998     51996     52002     51998     51996     52003
     51998     51996     52004     52002     51996     52003     52002     51996     52004
     52003     51996     52004     51996     51998     52000     51996     51998     52001
     52000     51998     52001     52009     52007     52013     52009     52007     52014
     52009     52007     52015     52013     52007     52014     52013     52007     52015
     52014     52007     52015     52007     52009     52011     52007     52009     52012
     52011     52009     52012     52020     52018     52024     52020     52018     52025
     52020     52018     52026     52024     52018     52025     52024     52018     52026
     52025     52018     52026     52018     52020     52022     52018     52020     52023
     52022     52020     52023     52031     52029     52035     52031     52029     52036
     52031     52029     52037     52035     52029     52036     52035     52029     52037
     52036     52029     52037     52029     52031     52033     52029     52031     52034
     52033     52031     52034     52042     52040     52046     52042     52040     52047
     52042     52040     52048     52046     52040     52047     52046     52040     52048
     52047     52040     52048     52040     52042     52044     52040     52042     52045
     52044     52042     52045     52053     52051     52057     52053     52051     52058
     52053     52051     52059     52057     52051     52058     52057     52051     52059
     52058     52051     52059     52051     52053     52055     52051     52053     52056
     52055     52053     52056     52064     52062     52068     52064     52062     52069
     52064     52062     52070     52068     52062     52069     52068     52062     52070
     52069     52062     52070     52062     52064     52066     52062     52064     52067
     52066     52064     52067     52075     52073     52079     52075     52073     52080
     52075     52073     52081     52079     52073     52080     52079     52073     52081
     52080     52073     52081     52073     52075     52077     52073     52075     52078
     52077     52075     52078     52086     52084     52090     52086     52084     52091
     52086     52084     52092     52090     52084     52091     52090     52084     52092
     52091     52084     52092     52084     52086     52088     52084     52086     52089
     52088     52086     52089     52097     52095     52101     52097     52095     52102
     52097     52095     52103     52101     52095     52102     52101     52095     52103
     52102     52095     52103     52095     52097     52099     52095     52097     52100
     52099     52097     52100     52108     52106     52112     52108     52106     52113
     52108     52106     52114     52112     52106     52113     52112     52106     52114
     52113     52106     52114     52106     52108     52110     52106     52108     52111
     52110     52108     52111     52119     52117     52123     52119     52117     52124
     52119     52117     52125     52123     52117     52124     52123     52117     52125
     52124     52117     52125     52117     52119     52121     52117     52119     52122
     52121     52119     52122     52130     52128     52134     52130     52128     52135
     52130     52128     52136     52134     52128     52135     52134     52128     52136
     52135     52128     52136     52128     52130     52132     52128     52130     52133
     52132     52130     52133     52141     52139     52145     52141     52139     52146
     52141     52139     52147     52145     52139     52146     52145     52139     52147
     52146     52139     52147     52139     52141     52143     52139     52141     52144
     52143     52141     52144     52152     52150     52156     52152     52150     52157
     52152     52150     52158     52156     52150     52157     52156     52150     52158
     52157     52150     52158     52150     52152     52154     52150     52152     52155
     52154     52152     52155     52163     52161     52167     52163     52161     52168
     52163     52161     52169     52167     52161     52168     52167     52161     52169
     52168     52161     52169     52161     52163     52165     52161     52163     52166
     52165     52163     52166     52174     52172     52178     52174     52172     52179
     52174     52172     52180     52178     52172     52179     52178     52172     52180
     52179     52172     52180     52172     52174     52176     52172     52174     52177
     52176     52174     52177     52185     52183     52189     52185     52183     52190
     52185     52183     52191     52189     52183     52190     52189     52183     52191
     52190     52183     52191     52183     52185     52187     52183     52185     52188
     52187     52185     52188     52196     52194     52200     52196     52194     52201
     52196     52194     52202     52200     52194     52201     52200     52194     52202
     52201     52194     52202     52194     52196     52198     52194     52196     52199
     52198     52196     52199     52207     52205     52211     52207     52205     52212
     52207     52205     52213     52211     52205     52212     52211     52205     52213
     52212     52205     52213     52205     52207     52209     52205     52207     52210
     52209     52207     52210     52218     52216     52222     52218     52216     52223
     52218     52216     52224     52222     52216     52223     52222     52216     52224
     52223     52216     52224     52216     52218     52220     52216     52218     52221
     52220     52218     52221     52229     52227     52233     52229     52227     52234
     52229     52227     52235     52233     52227     52234     52233     52227     52235
     52234     52227     52235     52227     52229     52231     52227     52229     52232
     52231     52229     52232     52240     52238     52244     52240     52238     52245
     52240     52238     52246     52244     52238     52245     52244     52238     52246
     52245     52238     52246     52238     52240     52242     52238     52240     52243
     52242     52240     52243     52251     52249     52255     52251     52249     52256
     52251     52249     52257     52255     52249     52256     52255     52249     52257
     52256     52249     52257     52249     52251     52253     52249     52251     52254
     52253     52251     52254     52262     52260     52266     52262     52260     52267
     52262     52260     52268     52266     52260     52267     52266     52260     52268
     52267     52260     52268     52260     52262     52264     52260     52262     52265
     52264     52262     52265     52273     52271     52277     52273     52271     52278
     52273     52271     52279     52277     52271     52278     52277     52271     52279
     52278     52271     52279     52271     52273     52275     52271     52273     52276
     52275     52273     52276     52284     52282     52288     52284     52282     52289
     52284     52282     52290     52288     52282     52289     52288     52282     52290
     52289     52282     52290     52282     52284     52286     52282     52284     52287
     52286     52284     52287     52295     52293     52299     52295     52293     52300
     52295     52293     52301     52299     52293     52300     52299     52293     52301
     52300     52293     52301     52293     52295     52297     52293     52295     52298
     52297     52295     52298     52306     52304     52310     52306     52304     52311
     52306     52304     52312     52310     52304     52311     52310     52304     52312
     52311     52304     52312     52304     52306     52308     52304     52306     52309
     52308     52306     52309     52317     52315     52321     52317     52315     52322
     52317     52315     52323     52321     52315     52322     52321     52315     52323
     52322     52315     52323     52315     52317     52319     52315     52317     52320
     52319     52317     52320     52328     52326     52332     52328     52326     52333
     52328     52326     52334     52332     52326     52333     52332     52326     52334
     52333     52326     52334     52326     52328     52330     52326     52328     52331
     52330     52328     52331     52339     52337     52343     52339     52337     52344
     52339     52337     52345     52343     52337     52344     52343     52337     52345
     52344     52337     52345     52337     52339     52341     52337     52339     52342
     52341     52339     52342     52350     52348     52354     52350     52348     52355
     52350     52348     52356     52354     52348     52355     52354     52348     52356
     52355     52348     52356     52348     52350     52352     52348     52350     52353
     52352     52350     52353     52361     52359     52365     52361     52359     52366
     52361     52359     52367     52365     52359     52366     52365     52359     52367
     52366     52359     52367     52359     52361     52363     52359     52361     52364
     52363     52361     52364     52372     52370     52376     52372     52370     52377
     52372     52370     52378     52376     52370     52377     52376     52370     52378
     52377     52370     52378     52370     52372     52374     52370     52372     52375
     52374     52372     52375     52383     52381     52387     52383     52381     52388
     52383     52381     52389     52387     52381     52388     52387     52381     52389
     52388     52381     52389     52381     52383     52385     52381     52383     52386
     52385     52383     52386     52394     52392     52398     52394     52392     52399
     52394     52392     52400     52398     52392     52399     52398     52392     52400
     52399     52392     52400     52392     52394     52396     52392     52394     52397
     52396     52394     52397     52405     52403     52409     52405     52403     52410
     52405     52403     52411     52409     52403     52410     52409     52403     52411
     52410     52403     52411     52403     52405     52407     52403     52405     52408
     52407     52405     52408     52416     52414     52420     52416     52414     52421
     52416     52414     52422     52420     52414     52421     52420     52414     52422
     52421     52414     52422     52414     52416     52418     52414     52416     52419
     52418     52416     52419     52427     52425     52431     52427     52425     52432
     52427     52425     52433     52431     52425     52432     52431     52425     52433
     52432     52425     52433     52425     52427     52429     52425     52427     52430
     52429     52427     52430     52438     52436     52442     52438     52436     52443
     52438     52436     52444     52442     52436     52443     52442     52436     52444
     52443     52436     52444     52436     52438     52440     52436     52438     52441
     52440     52438     52441     52449     52447     52453     52449     52447     52454
     52449     52447     52455     52453     52447     52454     52453     52447     52455
     52454     52447     52455     52447     52449     52451     52447     52449     52452
     52451     52449     52452     52460     52458     52464     52460     52458     52465
     52460     52458     52466     52464     52458     52465     52464     52458     52466
     52465     52458     52466     52458     52460     52462     52458     52460     52463
     52462     52460     52463     52471     52469     52475     52471     52469     52476
     52471     52469     52477     52475     52469     52476     52475     52469     52477
     52476     52469     52477     52469     52471     52473     52469     52471     52474
     52473     52471     52474     52482     52480     52486     52482     52480     52487
     52482     52480     52488     52486     52480     52487     52486     52480     52488
     52487     52480     52488     52480     52482     52484     52480     52482     52485
     52484     52482     52485     52493     52491     52497     52493     52491     52498
     52493     52491     52499     52497     52491     52498     52497     52491     52499
     52498     52491     52499     52491     52493     52495     52491     52493     52496
     52495     52493     52496     52504     52502     52508     52504     52502     52509
     52504     52502     52510     52508     52502     52509     52508     52502     52510
     52509     52502     52510     52502     52504     52506     52502     52504     52507
     52506     52504     52507     52515     52513     52519     52515     52513     52520
     52515     52513     52521     52519     52513     52520     52519     52513     52521
     52520     52513     52521     52513     52515     52517     52513     52515     52518
     52517     52515     52518     52526     52524     52530     52526     52524     52531
     52526     52524     52532     52530     52524     52531     52530     52524     52532
     52531     52524     52532     52524     52526     52528     52524     52526     52529
     52528     52526     52529     52537     52535     52541     52537     52535     52542
     52537     52535     52543     52541     52535     52542     52541     52535     52543
     52542     52535     52543     52535     52537     52539     52535     52537     52540
     52539     52537     52540     52548     52546     52552     52548     52546     52553
     52548     52546     52554     52552     52546     52553     52552     52546     52554
     52553     52546     52554     52546     52548     52550     52546     52548     52551
     52550     52548     52551     52559     52557     52563     52559     52557     52564
     52559     52557     52565     52563     52557     52564     52563     52557     52565
     52564     52557     52565     52557     52559     52561     52557     52559     52562
     52561     52559     52562     52570     52568     52574     52570     52568     52575
     52570     52568     52576     52574     52568     52575     52574     52568     52576
     52575     52568     52576     52568     52570     52572     52568     52570     52573
     52572     52570     52573     52581     52579     52585     52581     52579     52586
     52581     52579     52587     52585     52579     52586     52585     52579     52587
     52586     52579     52587     52579     52581     52583     52579     52581     52584
     52583     52581     52584     52592     52590     52596     52592     52590     52597
     52592     52590     52598     52596     52590     52597     52596     52590     52598
     52597     52590     52598     52590     52592     52594     52590     52592     52595
     52594     52592     52595     52603     52601     52607     52603     52601     52608
     52603     52601     52609     52607     52601     52608     52607     52601     52609
     52608     52601     52609     52601     52603     52605     52601     52603     52606
     52605     52603     52606     52614     52612     52618     52614     52612     52619
     52614     52612     52620     52618     52612     52619     52618     52612     52620
     52619     52612     52620     52612     52614     52616     52612     52614     52617
     52616     52614     52617     52625     52623     52629     52625     52623     52630
     52625     52623     52631     52629     52623     52630     52629     52623     52631
     52630     52623     52631     52623     52625     52627     52623     52625     52628
     52627     52625     52628     52636     52634     52640     52636     52634     52641
     52636     52634     52642     52640     52634     52641     52640     52634     52642
     52641     52634     52642     52634     52636     52638     52634     52636     52639
     52638     52636     52639     52647     52645     52651     52647     52645     52652
     52647     52645     52653     52651     52645     52652     52651     52645     52653
     52652     52645     52653     52645     52647     52649     52645     52647     52650
     52649     52647     52650     52658     52656     52662     52658     52656     52663
     52658     52656     52664     52662     52656     52663     52662     52656     52664
     52663     52656     52664     52656     52658     52660     52656     52658     52661
     52660     52658     52661     52669     52667     52673     52669     52667     52674
     52669     52667     52675     52673     52667     52674     52673     52667     52675
     52674     52667     52675     52667     52669     52671     52667     52669     52672
     52671     52669     52672     52680     52678     52684     52680     52678     52685
     52680     52678     52686     52684     52678     52685     52684     52678     52686
     52685     52678     52686     52678     52680     52682     52678     52680     52683
     52682     52680     52683     52691     52689     52695     52691     52689     52696
     52691     52689     52697     52695     52689     52696     52695     52689     52697
     52696     52689     52697     52689     52691     52693     52689     52691     52694
     52693     52691     52694     52702     52700     52706     52702     52700     52707
     52702     52700     52708     52706     52700     52707     52706     52700     52708
     52707     52700     52708     52700     52702     52704     52700     52702     52705
     52704     52702     52705     52713     52711     52717     52713     52711     52718
     52713     52711     52719     52717     52711     52718     52717     52711     52719
     52718     52711     52719     52711     52713     52715     52711     52713     52716
     52715     52713     52716     52724     52722     52728     52724     52722     52729
     52724     52722     52730     52728     52722     52729     52728     52722     52730
     52729     52722     52730     52722     52724     52726     52722     52724     52727
     52726     52724     52727     52735     52733     52739     52735     52733     52740
     52735     52733     52741     52739     52733     52740     52739     52733     52741
     52740     52733     52741     52733     52735     52737     52733     52735     52738
     52737     52735     52738     52746     52744     52750     52746     52744     52751
     52746     52744     52752     52750     52744     52751     52750     52744     52752
     52751     52744     52752     52744     52746     52748     52744     52746     52749
     52748     52746     52749     52757     52755     52761     52757     52755     52762
     52757     52755     52763     52761     52755     52762     52761     52755     52763
     52762     52755     52763     52755     52757     52759     52755     52757     52760
     52759     52757     52760     52768     52766     52772     52768     52766     52773
     52768     52766     52774     52772     52766     52773     52772     52766     52774
     52773     52766     52774     52766     52768     52770     52766     52768     52771
     52770     52768     52771     52779     52777     52783     52779     52777     52784
     52779     52777     52785     52783     52777     52784     52783     52777     52785
     52784     52777     52785     52777     52779     52781     52777     52779     52782
     52781     52779     52782     52790     52788     52794     52790     52788     52795
     52790     52788     52796     52794     52788     52795     52794     52788     52796
     52795     52788     52796     52788     52790     52792     52788     52790     52793
     52792     52790     52793     52801     52799     52805     52801     52799     52806
     52801     52799     52807     52805     52799     52806     52805     52799     52807
     52806     52799     52807     52799     52801     52803     52799     52801     52804
     52803     52801     52804     52812     52810     52816     52812     52810     52817
     52812     52810     52818     52816     52810     52817     52816     52810     52818
     52817     52810     52818     52810     52812     52814     52810     52812     52815
     52814     52812     52815     52823     52821     52827     52823     52821     52828
     52823     52821     52829     52827     52821     52828     52827     52821     52829
     52828     52821     52829     52821     52823     52825     52821     52823     52826
     52825     52823     52826     52834     52832     52838     52834     52832     52839
     52834     52832     52840     52838     52832     52839     52838     52832     52840
     52839     52832     52840     52832     52834     52836     52832     52834     52837
     52836     52834     52837     52845     52843     52849     52845     52843     52850
     52845     52843     52851     52849     52843     52850     52849     52843     52851
     52850     52843     52851     52843     52845     52847     52843     52845     52848
     52847     52845     52848     52856     52854     52860     52856     52854     52861
     52856     52854     52862     52860     52854     52861     52860     52854     52862
     52861     52854     52862     52854     52856     52858     52854     52856     52859
     52858     52856     52859     52867     52865     52871     52867     52865     52872
     52867     52865     52873     52871     52865     52872     52871     52865     52873
     52872     52865     52873     52865     52867     52869     52865     52867     52870
     52869     52867     52870     52878     52876     52882     52878     52876     52883
     52878     52876     52884     52882     52876     52883     52882     52876     52884
     52883     52876     52884     52876     52878     52880     52876     52878     52881
     52880     52878     52881     52889     52887     52893     52889     52887     52894
     52889     52887     52895     52893     52887     52894     52893     52887     52895
     52894     52887     52895     52887     52889     52891     52887     52889     52892
     52891     52889     52892     52900     52898     52904     52900     52898     52905
     52900     52898     52906     52904     52898     52905     52904     52898     52906
     52905     52898     52906     52898     52900     52902     52898     52900     52903
     52902     52900     52903     52911     52909     52915     52911     52909     52916
     52911     52909     52917     52915     52909     52916     52915     52909     52917
     52916     52909     52917     52909     52911     52913     52909     52911     52914
     52913     52911     52914     52922     52920     52926     52922     52920     52927
     52922     52920     52928     52926     52920     52927     52926     52920     52928
     52927     52920     52928     52920     52922     52924     52920     52922     52925
     52924     52922     52925     52933     52931     52937     52933     52931     52938
     52933     52931     52939     52937     52931     52938     52937     52931     52939
     52938     52931     52939     52931     52933     52935     52931     52933     52936
     52935     52933     52936     52944     52942     52948     52944     52942     52949
     52944     52942     52950     52948     52942     52949     52948     52942     52950
     52949     52942     52950     52942     52944     52946     52942     52944     52947
     52946     52944     52947     52955     52953     52959     52955     52953     52960
     52955     52953     52961     52959     52953     52960     52959     52953     52961
     52960     52953     52961     52953     52955     52957     52953     52955     52958
     52957     52955     52958     52966     52964     52970     52966     52964     52971
     52966     52964     52972     52970     52964     52971     52970     52964     52972
     52971     52964     52972     52964     52966     52968     52964     52966     52969
     52968     52966     52969     52977     52975     52981     52977     52975     52982
     52977     52975     52983     52981     52975     52982     52981     52975     52983
     52982     52975     52983     52975     52977     52979     52975     52977     52980
     52979     52977     52980     52988     52986     52992     52988     52986     52993
     52988     52986     52994     52992     52986     52993     52992     52986     52994
     52993     52986     52994     52986     52988     52990     52986     52988     52991
     52990     52988     52991     52999     52997     53003     52999     52997     53004
     52999     52997     53005     53003     52997     53004     53003     52997     53005
     53004     52997     53005     52997     52999     53001     52997     52999     53002
     53001     52999     53002     53010     53008     53014     53010     53008     53015
     53010     53008     53016     53014     53008     53015     53014     53008     53016
     53015     53008     53016     53008     53010     53012     53008     53010     53013
     53012     53010     53013     53021     53019     53025     53021     53019     53026
     53021     53019     53027     53025     53019     53026     53025     53019     53027
     53026     53019     53027     53019     53021     53023     53019     53021     53024
     53023     53021     53024     53032     53030     53036     53032     53030     53037
     53032     53030     53038     53036     53030     53037     53036     53030     53038
     53037     53030     53038     53030     53032     53034     53030     53032     53035
     53034     53032     53035     53043     53041     53047     53043     53041     53048
     53043     53041     53049     53047     53041     53048     53047     53041     53049
     53048     53041     53049     53041     53043     53045     53041     53043     53046
     53045     53043     53046     53054     53052     53058     53054     53052     53059
     53054     53052     53060     53058     53052     53059     53058     53052     53060
     53059     53052     53060     53052     53054     53056     53052     53054     53057
     53056     53054     53057     53065     53063     53069     53065     53063     53070
     53065     53063     53071     53069     53063     53070     53069     53063     53071
     53070     53063     53071     53063     53065     53067     53063     53065     53068
     53067     53065     53068     53076     53074     53080     53076     53074     53081
     53076     53074     53082     53080     53074     53081     53080     53074     53082
     53081     53074     53082     53074     53076     53078     53074     53076     53079
     53078     53076     53079     53087     53085     53091     53087     53085     53092
     53087     53085     53093     53091     53085     53092     53091     53085     53093
     53092     53085     53093     53085     53087     53089     53085     53087     53090
     53089     53087     53090     53098     53096     53102     53098     53096     53103
     53098     53096     53104     53102     53096     53103     53102     53096     53104
     53103     53096     53104     53096     53098     53100     53096     53098     53101
     53100     53098     53101     53109     53107     53113     53109     53107     53114
     53109     53107     53115     53113     53107     53114     53113     53107     53115
     53114     53107     53115     53107     53109     53111     53107     53109     53112
     53111     53109     53112     53120     53118     53124     53120     53118     53125
     53120     53118     53126     53124     53118     53125     53124     53118     53126
     53125     53118     53126     53118     53120     53122     53118     53120     53123
     53122     53120     53123     53131     53129     53135     53131     53129     53136
     53131     53129     53137     53135     53129     53136     53135     53129     53137
     53136     53129     53137     53129     53131     53133     53129     53131     53134
     53133     53131     53134     53142     53140     53146     53142     53140     53147
     53142     53140     53148     53146     53140     53147     53146     53140     53148
     53147     53140     53148     53140     53142     53144     53140     53142     53145
     53144     53142     53145     53153     53151     53157     53153     53151     53158
     53153     53151     53159     53157     53151     53158     53157     53151     53159
     53158     53151     53159     53151     53153     53155     53151     53153     53156
     53155     53153     53156     53164     53162     53168     53164     53162     53169
     53164     53162     53170     53168     53162     53169     53168     53162     53170
     53169     53162     53170     53162     53164     53166     53162     53164     53167
     53166     53164     53167     53175     53173     53179     53175     53173     53180
     53175     53173     53181     53179     53173     53180     53179     53173     53181
     53180     53173     53181     53173     53175     53177     53173     53175     53178
     53177     53175     53178     53186     53184     53190     53186     53184     53191
     53186     53184     53192     53190     53184     53191     53190     53184     53192
     53191     53184     53192     53184     53186     53188     53184     53186     53189
     53188     53186     53189     53197     53195     53201     53197     53195     53202
     53197     53195     53203     53201     53195     53202     53201     53195     53203
     53202     53195     53203     53195     53197     53199     53195     53197     53200
     53199     53197     53200     53208     53206     53212     53208     53206     53213
     53208     53206     53214     53212     53206     53213     53212     53206     53214
     53213     53206     53214     53206     53208     53210     53206     53208     53211
     53210     53208     53211     53219     53217     53223     53219     53217     53224
     53219     53217     53225     53223     53217     53224     53223     53217     53225
     53224     53217     53225     53217     53219     53221     53217     53219     53222
     53221     53219     53222     53230     53228     53234     53230     53228     53235
     53230     53228     53236     53234     53228     53235     53234     53228     53236
     53235     53228     53236     53228     53230     53232     53228     53230     53233
     53232     53230     53233     53241     53239     53245     53241     53239     53246
     53241     53239     53247     53245     53239     53246     53245     53239     53247
     53246     53239     53247     53239     53241     53243     53239     53241     53244
     53243     53241     53244     53252     53250     53256     53252     53250     53257
     53252     53250     53258     53256     53250     53257     53256     53250     53258
     53257     53250     53258     53250     53252     53254     53250     53252     53255
     53254     53252     53255     53263     53261     53267     53263     53261     53268
     53263     53261     53269     53267     53261     53268     53267     53261     53269
     53268     53261     53269     53261     53263     53265     53261     53263     53266
     53265     53263     53266     53274     53272     53278     53274     53272     53279
     53274     53272     53280     53278     53272     53279     53278     53272     53280
     53279     53272     53280     53272     53274     53276     53272     53274     53277
     53276     53274     53277     53285     53283     53289     53285     53283     53290
     53285     53283     53291     53289     53283     53290     53289     53283     53291
     53290     53283     53291     53283     53285     53287     53283     53285     53288
     53287     53285     53288     53296     53294     53300     53296     53294     53301
     53296     53294     53302     53300     53294     53301     53300     53294     53302
     53301     53294     53302     53294     53296     53298     53294     53296     53299
     53298     53296     53299     53307     53305     53311     53307     53305     53312
     53307     53305     53313     53311     53305     53312     53311     53305     53313
     53312     53305     53313     53305     53307     53309     53305     53307     53310
     53309     53307     53310     53318     53316     53322     53318     53316     53323
     53318     53316     53324     53322     53316     53323     53322     53316     53324
     53323     53316     53324     53316     53318     53320     53316     53318     53321
     53320     53318     53321     53329     53327     53333     53329     53327     53334
     53329     53327     53335     53333     53327     53334     53333     53327     53335
     53334     53327     53335     53327     53329     53331     53327     53329     53332
     53331     53329     53332     53340     53338     53344     53340     53338     53345
     53340     53338     53346     53344     53338     53345     53344     53338     53346
     53345     53338     53346     53338     53340     53342     53338     53340     53343
     53342     53340     53343     53351     53349     53355     53351     53349     53356
     53351     53349     53357     53355     53349     53356     53355     53349     53357
     53356     53349     53357     53349     53351     53353     53349     53351     53354
     53353     53351     53354     53362     53360     53366     53362     53360     53367
     53362     53360     53368     53366     53360     53367     53366     53360     53368
     53367     53360     53368     53360     53362     53364     53360     53362     53365
     53364     53362     53365     53373     53371     53377     53373     53371     53378
     53373     53371     53379     53377     53371     53378     53377     53371     53379
     53378     53371     53379     53371     53373     53375     53371     53373     53376
     53375     53373     53376     53384     53382     53388     53384     53382     53389
     53384     53382     53390     53388     53382     53389     53388     53382     53390
     53389     53382     53390     53382     53384     53386     53382     53384     53387
     53386     53384     53387     53395     53393     53399     53395     53393     53400
     53395     53393     53401     53399     53393     53400     53399     53393     53401
     53400     53393     53401     53393     53395     53397     53393     53395     53398
     53397     53395     53398     53406     53404     53410     53406     53404     53411
     53406     53404     53412     53410     53404     53411     53410     53404     53412
     53411     53404     53412     53404     53406     53408     53404     53406     53409
     53408     53406     53409     53417     53415     53421     53417     53415     53422
     53417     53415     53423     53421     53415     53422     53421     53415     53423
     53422     53415     53423     53415     53417     53419     53415     53417     53420
     53419     53417     53420     53428     53426     53432     53428     53426     53433
     53428     53426     53434     53432     53426     53433     53432     53426     53434
     53433     53426     53434     53426     53428     53430     53426     53428     53431
     53430     53428     53431     53439     53437     53443     53439     53437     53444
     53439     53437     53445     53443     53437     53444     53443     53437     53445
     53444     53437     53445     53437     53439     53441     53437     53439     53442
     53441     53439     53442     53450     53448     53454     53450     53448     53455
     53450     53448     53456     53454     53448     53455     53454     53448     53456
     53455     53448     53456     53448     53450     53452     53448     53450     53453
     53452     53450     53453     53461     53459     53465     53461     53459     53466
     53461     53459     53467     53465     53459     53466     53465     53459     53467
     53466     53459     53467     53459     53461     53463     53459     53461     53464
     53463     53461     53464     53472     53470     53476     53472     53470     53477
     53472     53470     53478     53476     53470     53477     53476     53470     53478
     53477     53470     53478     53470     53472     53474     53470     53472     53475
     53474     53472     53475     53483     53481     53487     53483     53481     53488
     53483     53481     53489     53487     53481     53488     53487     53481     53489
     53488     53481     53489     53481     53483     53485     53481     53483     53486
     53485     53483     53486     53494     53492     53498     53494     53492     53499
     53494     53492     53500     53498     53492     53499     53498     53492     53500
     53499     53492     53500     53492     53494     53496     53492     53494     53497
     53496     53494     53497     53505     53503     53509     53505     53503     53510
     53505     53503     53511     53509     53503     53510     53509     53503     53511
     53510     53503     53511     53503     53505     53507     53503     53505     53508
     53507     53505     53508     53516     53514     53520     53516     53514     53521
     53516     53514     53522     53520     53514     53521     53520     53514     53522
     53521     53514     53522     53514     53516     53518     53514     53516     53519
     53518     53516     53519     53527     53525     53531     53527     53525     53532
     53527     53525     53533     53531     53525     53532     53531     53525     53533
     53532     53525     53533     53525     53527     53529     53525     53527     53530
     53529     53527     53530     53538     53536     53542     53538     53536     53543
     53538     53536     53544     53542     53536     53543     53542     53536     53544
     53543     53536     53544     53536     53538     53540     53536     53538     53541
     53540     53538     53541     53549     53547     53553     53549     53547     53554
     53549     53547     53555     53553     53547     53554     53553     53547     53555
     53554     53547     53555     53547     53549     53551     53547     53549     53552
     53551     53549     53552     53560     53558     53564     53560     53558     53565
     53560     53558     53566     53564     53558     53565     53564     53558     53566
     53565     53558     53566     53558     53560     53562     53558     53560     53563
     53562     53560     53563     53571     53569     53575     53571     53569     53576
     53571     53569     53577     53575     53569     53576     53575     53569     53577
     53576     53569     53577     53569     53571     53573     53569     53571     53574
     53573     53571     53574     53582     53580     53586     53582     53580     53587
     53582     53580     53588     53586     53580     53587     53586     53580     53588
     53587     53580     53588     53580     53582     53584     53580     53582     53585
     53584     53582     53585     53593     53591     53597     53593     53591     53598
     53593     53591     53599     53597     53591     53598     53597     53591     53599
     53598     53591     53599     53591     53593     53595     53591     53593     53596
     53595     53593     53596     53604     53602     53608     53604     53602     53609
     53604     53602     53610     53608     53602     53609     53608     53602     53610
     53609     53602     53610     53602     53604     53606     53602     53604     53607
     53606     53604     53607     53615     53613     53619     53615     53613     53620
     53615     53613     53621     53619     53613     53620     53619     53613     53621
     53620     53613     53621     53613     53615     53617     53613     53615     53618
     53617     53615     53618     53626     53624     53630     53626     53624     53631
     53626     53624     53632     53630     53624     53631     53630     53624     53632
     53631     53624     53632     53624     53626     53628     53624     53626     53629
     53628     53626     53629     53637     53635     53641     53637     53635     53642
     53637     53635     53643     53641     53635     53642     53641     53635     53643
     53642     53635     53643     53635     53637     53639     53635     53637     53640
     53639     53637     53640     53648     53646     53652     53648     53646     53653
     53648     53646     53654     53652     53646     53653     53652     53646     53654
     53653     53646     53654     53646     53648     53650     53646     53648     53651
     53650     53648     53651     53659     53657     53663     53659     53657     53664
     53659     53657     53665     53663     53657     53664     53663     53657     53665
     53664     53657     53665     53657     53659     53661     53657     53659     53662
     53661     53659     53662     53670     53668     53674     53670     53668     53675
     53670     53668     53676     53674     53668     53675     53674     53668     53676
     53675     53668     53676     53668     53670     53672     53668     53670     53673
     53672     53670     53673     53681     53679     53685     53681     53679     53686
     53681     53679     53687     53685     53679     53686     53685     53679     53687
     53686     53679     53687     53679     53681     53683     53679     53681     53684
     53683     53681     53684     53692     53690     53696     53692     53690     53697
     53692     53690     53698     53696     53690     53697     53696     53690     53698
     53697     53690     53698     53690     53692     53694     53690     53692     53695
     53694     53692     53695     53703     53701     53707     53703     53701     53708
     53703     53701     53709     53707     53701     53708     53707     53701     53709
     53708     53701     53709     53701     53703     53705     53701     53703     53706
     53705     53703     53706     53714     53712     53718     53714     53712     53719
     53714     53712     53720     53718     53712     53719     53718     53712     53720
     53719     53712     53720     53712     53714     53716     53712     53714     53717
     53716     53714     53717     53725     53723     53729     53725     53723     53730
     53725     53723     53731     53729     53723     53730     53729     53723     53731
     53730     53723     53731     53723     53725     53727     53723     53725     53728
     53727     53725     53728     53736     53734     53740     53736     53734     53741
     53736     53734     53742     53740     53734     53741     53740     53734     53742
     53741     53734     53742     53734     53736     53738     53734     53736     53739
     53738     53736     53739     53747     53745     53751     53747     53745     53752
     53747     53745     53753     53751     53745     53752     53751     53745     53753
     53752     53745     53753     53745     53747     53749     53745     53747     53750
     53749     53747     53750     53758     53756     53762     53758     53756     53763
     53758     53756     53764     53762     53756     53763     53762     53756     53764
     53763     53756     53764     53756     53758     53760     53756     53758     53761
     53760     53758     53761     53769     53767     53773     53769     53767     53774
     53769     53767     53775     53773     53767     53774     53773     53767     53775
     53774     53767     53775     53767     53769     53771     53767     53769     53772
     53771     53769     53772     53780     53778     53784     53780     53778     53785
     53780     53778     53786     53784     53778     53785     53784     53778     53786
     53785     53778     53786     53778     53780     53782     53778     53780     53783
     53782     53780     53783     53791     53789     53795     53791     53789     53796
     53791     53789     53797     53795     53789     53796     53795     53789     53797
     53796     53789     53797     53789     53791     53793     53789     53791     53794
     53793     53791     53794     53802     53800     53806     53802     53800     53807
     53802     53800     53808     53806     53800     53807     53806     53800     53808
     53807     53800     53808     53800     53802     53804     53800     53802     53805
     53804     53802     53805     53813     53811     53817     53813     53811     53818
     53813     53811     53819     53817     53811     53818     53817     53811     53819
     53818     53811     53819     53811     53813     53815     53811     53813     53816
     53815     53813     53816     53824     53822     53828     53824     53822     53829
     53824     53822     53830     53828     53822     53829     53828     53822     53830
     53829     53822     53830     53822     53824     53826     53822     53824     53827
     53826     53824     53827     53835     53833     53839     53835     53833     53840
     53835     53833     53841     53839     53833     53840     53839     53833     53841
     53840     53833     53841     53833     53835     53837     53833     53835     53838
     53837     53835     53838     53846     53844     53850     53846     53844     53851
     53846     53844     53852     53850     53844     53851     53850     53844     53852
     53851     53844     53852     53844     53846     53848     53844     53846     53849
     53848     53846     53849     53857     53855     53861     53857     53855     53862
     53857     53855     53863     53861     53855     53862     53861     53855     53863
     53862     53855     53863     53855     53857     53859     53855     53857     53860
     53859     53857     53860     53868     53866     53872     53868     53866     53873
     53868     53866     53874     53872     53866     53873     53872     53866     53874
     53873     53866     53874     53866     53868     53870     53866     53868     53871
     53870     53868     53871     53879     53877     53883     53879     53877     53884
     53879     53877     53885     53883     53877     53884     53883     53877     53885
     53884     53877     53885     53877     53879     53881     53877     53879     53882
     53881     53879     53882     53890     53888     53894     53890     53888     53895
     53890     53888     53896     53894     53888     53895     53894     53888     53896
     53895     53888     53896     53888     53890     53892     53888     53890     53893
     53892     53890     53893     53901     53899     53905     53901     53899     53906
     53901     53899     53907     53905     53899     53906     53905     53899     53907
     53906     53899     53907     53899     53901     53903     53899     53901     53904
     53903     53901     53904     53912     53910     53916     53912     53910     53917
     53912     53910     53918     53916     53910     53917     53916     53910     53918
     53917     53910     53918     53910     53912     53914     53910     53912     53915
     53914     53912     53915     53923     53921     53927     53923     53921     53928
     53923     53921     53929     53927     53921     53928     53927     53921     53929
     53928     53921     53929     53921     53923     53925     53921     53923     53926
     53925     53923     53926     53934     53932     53938     53934     53932     53939
     53934     53932     53940     53938     53932     53939     53938     53932     53940
     53939     53932     53940     53932     53934     53936     53932     53934     53937
     53936     53934     53937     53945     53943     53949     53945     53943     53950
     53945     53943     53951     53949     53943     53950     53949     53943     53951
     53950     53943     53951     53943     53945     53947     53943     53945     53948
     53947     53945     53948     53956     53954     53960     53956     53954     53961
     53956     53954     53962     53960     53954     53961     53960     53954     53962
     53961     53954     53962     53954     53956     53958     53954     53956     53959
     53958     53956     53959     53967     53965     53971     53967     53965     53972
     53967     53965     53973     53971     53965     53972     53971     53965     53973
     53972     53965     53973     53965     53967     53969     53965     53967     53970
     53969     53967     53970     53978     53976     53982     53978     53976     53983
     53978     53976     53984     53982     53976     53983     53982     53976     53984
     53983     53976     53984     53976     53978     53980     53976     53978     53981
     53980     53978     53981     53989     53987     53993     53989     53987     53994
     53989     53987     53995     53993     53987     53994     53993     53987     53995
     53994     53987     53995     53987     53989     53991     53987     53989     53992
     53991     53989     53992     54000     53998     54004     54000     53998     54005
     54000     53998     54006     54004     53998     54005     54004     53998     54006
     54005     53998     54006     53998     54000     54002     53998     54000     54003
     54002     54000     54003     54011     54009     54015     54011     54009     54016
     54011     54009     54017     54015     54009     54016     54015     54009     54017
     54016     54009     54017     54009     54011     54013     54009     54011     54014
     54013     54011     54014     54022     54020     54026     54022     54020     54027
     54022     54020     54028     54026     54020     54027     54026     54020     54028
     54027     54020     54028     54020     54022     54024     54020     54022     54025
     54024     54022     54025     54033     54031     54037     54033     54031     54038
     54033     54031     54039     54037     54031     54038     54037     54031     54039
     54038     54031     54039     54031     54033     54035     54031     54033     54036
     54035     54033     54036     54044     54042     54048     54044     54042     54049
     54044     54042     54050     54048     54042     54049     54048     54042     54050
     54049     54042     54050     54042     54044     54046     54042     54044     54047
     54046     54044     54047     54055     54053     54059     54055     54053     54060
     54055     54053     54061     54059     54053     54060     54059     54053     54061
     54060     54053     54061     54053     54055     54057     54053     54055     54058
     54057     54055     54058     54066     54064     54070     54066     54064     54071
     54066     54064     54072     54070     54064     54071     54070     54064     54072
     54071     54064     54072     54064     54066     54068     54064     54066     54069
     54068     54066     54069     54077     54075     54081     54077     54075     54082
     54077     54075     54083     54081     54075     54082     54081     54075     54083
     54082     54075     54083     54075     54077     54079     54075     54077     54080
     54079     54077     54080     54088     54086     54092     54088     54086     54093
     54088     54086     54094     54092     54086     54093     54092     54086     54094
     54093     54086     54094     54086     54088     54090     54086     54088     54091
     54090     54088     54091     54099     54097     54103     54099     54097     54104
     54099     54097     54105     54103     54097     54104     54103     54097     54105
     54104     54097     54105     54097     54099     54101     54097     54099     54102
     54101     54099     54102     54110     54108     54114     54110     54108     54115
     54110     54108     54116     54114     54108     54115     54114     54108     54116
     54115     54108     54116     54108     54110     54112     54108     54110     54113
     54112     54110     54113     54121     54119     54125     54121     54119     54126
     54121     54119     54127     54125     54119     54126     54125     54119     54127
     54126     54119     54127     54119     54121     54123     54119     54121     54124
     54123     54121     54124     54132     54130     54136     54132     54130     54137
     54132     54130     54138     54136     54130     54137     54136     54130     54138
     54137     54130     54138     54130     54132     54134     54130     54132     54135
     54134     54132     54135     54143     54141     54147     54143     54141     54148
     54143     54141     54149     54147     54141     54148     54147     54141     54149
     54148     54141     54149     54141     54143     54145     54141     54143     54146
     54145     54143     54146     54154     54152     54158     54154     54152     54159
     54154     54152     54160     54158     54152     54159     54158     54152     54160
     54159     54152     54160     54152     54154     54156     54152     54154     54157
     54156     54154     54157     54165     54163     54169     54165     54163     54170
     54165     54163     54171     54169     54163     54170     54169     54163     54171
     54170     54163     54171     54163     54165     54167     54163     54165     54168
     54167     54165     54168     54176     54174     54180     54176     54174     54181
     54176     54174     54182     54180     54174     54181     54180     54174     54182
     54181     54174     54182     54174     54176     54178     54174     54176     54179
     54178     54176     54179     54187     54185     54191     54187     54185     54192
     54187     54185     54193     54191     54185     54192     54191     54185     54193
     54192     54185     54193     54185     54187     54189     54185     54187     54190
     54189     54187     54190     54198     54196     54202     54198     54196     54203
     54198     54196     54204     54202     54196     54203     54202     54196     54204
     54203     54196     54204     54196     54198     54200     54196     54198     54201
     54200     54198     54201     54209     54207     54213     54209     54207     54214
     54209     54207     54215     54213     54207     54214     54213     54207     54215
     54214     54207     54215     54207     54209     54211     54207     54209     54212
     54211     54209     54212     54220     54218     54224     54220     54218     54225
     54220     54218     54226     54224     54218     54225     54224     54218     54226
     54225     54218     54226     54218     54220     54222     54218     54220     54223
     54222     54220     54223     54231     54229     54235     54231     54229     54236
     54231     54229     54237     54235     54229     54236     54235     54229     54237
     54236     54229     54237     54229     54231     54233     54229     54231     54234
     54233     54231     54234     54242     54240     54246     54242     54240     54247
     54242     54240     54248     54246     54240     54247     54246     54240     54248
     54247     54240     54248     54240     54242     54244     54240     54242     54245
     54244     54242     54245     54253     54251     54257     54253     54251     54258
     54253     54251     54259     54257     54251     54258     54257     54251     54259
     54258     54251     54259     54251     54253     54255     54251     54253     54256
     54255     54253     54256     54264     54262     54268     54264     54262     54269
     54264     54262     54270     54268     54262     54269     54268     54262     54270
     54269     54262     54270     54262     54264     54266     54262     54264     54267
     54266     54264     54267     54275     54273     54279     54275     54273     54280
     54275     54273     54281     54279     54273     54280     54279     54273     54281
     54280     54273     54281     54273     54275     54277     54273     54275     54278
     54277     54275     54278     54286     54284     54290     54286     54284     54291
     54286     54284     54292     54290     54284     54291     54290     54284     54292
     54291     54284     54292     54284     54286     54288     54284     54286     54289
     54288     54286     54289     54297     54295     54301     54297     54295     54302
     54297     54295     54303     54301     54295     54302     54301     54295     54303
     54302     54295     54303     54295     54297     54299     54295     54297     54300
     54299     54297     54300     54308     54306     54312     54308     54306     54313
     54308     54306     54314     54312     54306     54313     54312     54306     54314
     54313     54306     54314     54306     54308     54310     54306     54308     54311
     54310     54308     54311     54319     54317     54323     54319     54317     54324
     54319     54317     54325     54323     54317     54324     54323     54317     54325
     54324     54317     54325     54317     54319     54321     54317     54319     54322
     54321     54319     54322     54330     54328     54334     54330     54328     54335
     54330     54328     54336     54334     54328     54335     54334     54328     54336
     54335     54328     54336     54328     54330     54332     54328     54330     54333
     54332     54330     54333     54341     54339     54345     54341     54339     54346
     54341     54339     54347     54345     54339     54346     54345     54339     54347
     54346     54339     54347     54339     54341     54343     54339     54341     54344
     54343     54341     54344     54352     54350     54356     54352     54350     54357
     54352     54350     54358     54356     54350     54357     54356     54350     54358
     54357     54350     54358     54350     54352     54354     54350     54352     54355
     54354     54352     54355     54363     54361     54367     54363     54361     54368
     54363     54361     54369     54367     54361     54368     54367     54361     54369
     54368     54361     54369     54361     54363     54365     54361     54363     54366
     54365     54363     54366     54374     54372     54378     54374     54372     54379
     54374     54372     54380     54378     54372     54379     54378     54372     54380
     54379     54372     54380     54372     54374     54376     54372     54374     54377
     54376     54374     54377     54385     54383     54389     54385     54383     54390
     54385     54383     54391     54389     54383     54390     54389     54383     54391
     54390     54383     54391     54383     54385     54387     54383     54385     54388
     54387     54385     54388     54396     54394     54400     54396     54394     54401
     54396     54394     54402     54400     54394     54401     54400     54394     54402
     54401     54394     54402     54394     54396     54398     54394     54396     54399
     54398     54396     54399     54407     54405     54411     54407     54405     54412
     54407     54405     54413     54411     54405     54412     54411     54405     54413
     54412     54405     54413     54405     54407     54409     54405     54407     54410
     54409     54407     54410     54418     54416     54422     54418     54416     54423
     54418     54416     54424     54422     54416     54423     54422     54416     54424
     54423     54416     54424     54416     54418     54420     54416     54418     54421
     54420     54418     54421     54429     54427     54433     54429     54427     54434
     54429     54427     54435     54433     54427     54434     54433     54427     54435
     54434     54427     54435     54427     54429     54431     54427     54429     54432
     54431     54429     54432     54440     54438     54444     54440     54438     54445
     54440     54438     54446     54444     54438     54445     54444     54438     54446
     54445     54438     54446     54438     54440     54442     54438     54440     54443
     54442     54440     54443     54451     54449     54455     54451     54449     54456
     54451     54449     54457     54455     54449     54456     54455     54449     54457
     54456     54449     54457     54449     54451     54453     54449     54451     54454
     54453     54451     54454     54462     54460     54466     54462     54460     54467
     54462     54460     54468     54466     54460     54467     54466     54460     54468
     54467     54460     54468     54460     54462     54464     54460     54462     54465
     54464     54462     54465     54473     54471     54477     54473     54471     54478
     54473     54471     54479     54477     54471     54478     54477     54471     54479
     54478     54471     54479     54471     54473     54475     54471     54473     54476
     54475     54473     54476     54484     54482     54488     54484     54482     54489
     54484     54482     54490     54488     54482     54489     54488     54482     54490
     54489     54482     54490     54482     54484     54486     54482     54484     54487
     54486     54484     54487     54495     54493     54499     54495     54493     54500
     54495     54493     54501     54499     54493     54500     54499     54493     54501
     54500     54493     54501     54493     54495     54497     54493     54495     54498
     54497     54495     54498     54506     54504     54510     54506     54504     54511
     54506     54504     54512     54510     54504     54511     54510     54504     54512
     54511     54504     54512     54504     54506     54508     54504     54506     54509
     54508     54506     54509     54517     54515     54521     54517     54515     54522
     54517     54515     54523     54521     54515     54522     54521     54515     54523
     54522     54515     54523     54515     54517     54519     54515     54517     54520
     54519     54517     54520     54528     54526     54532     54528     54526     54533
     54528     54526     54534     54532     54526     54533     54532     54526     54534
     54533     54526     54534     54526     54528     54530     54526     54528     54531
     54530     54528     54531     54539     54537     54543     54539     54537     54544
     54539     54537     54545     54543     54537     54544     54543     54537     54545
     54544     54537     54545     54537     54539     54541     54537     54539     54542
     54541     54539     54542     54550     54548     54554     54550     54548     54555
     54550     54548     54556     54554     54548     54555     54554     54548     54556
     54555     54548     54556     54548     54550     54552     54548     54550     54553
     54552     54550     54553     54561     54559     54565     54561     54559     54566
     54561     54559     54567     54565     54559     54566     54565     54559     54567
     54566     54559     54567     54559     54561     54563     54559     54561     54564
     54563     54561     54564     54572     54570     54576     54572     54570     54577
     54572     54570     54578     54576     54570     54577     54576     54570     54578
     54577     54570     54578     54570     54572     54574     54570     54572     54575
     54574     54572     54575     54583     54581     54587     54583     54581     54588
     54583     54581     54589     54587     54581     54588     54587     54581     54589
     54588     54581     54589     54581     54583     54585     54581     54583     54586
     54585     54583     54586     54594     54592     54598     54594     54592     54599
     54594     54592     54600     54598     54592     54599     54598     54592     54600
     54599     54592     54600     54592     54594     54596     54592     54594     54597
     54596     54594     54597     54605     54603     54609     54605     54603     54610
     54605     54603     54611     54609     54603     54610     54609     54603     54611
     54610     54603     54611     54603     54605     54607     54603     54605     54608
     54607     54605     54608     54616     54614     54620     54616     54614     54621
     54616     54614     54622     54620     54614     54621     54620     54614     54622
     54621     54614     54622     54614     54616     54618     54614     54616     54619
     54618     54616     54619     54627     54625     54631     54627     54625     54632
     54627     54625     54633     54631     54625     54632     54631     54625     54633
     54632     54625     54633     54625     54627     54629     54625     54627     54630
     54629     54627     54630     54638     54636     54642     54638     54636     54643
     54638     54636     54644     54642     54636     54643     54642     54636     54644
     54643     54636     54644     54636     54638     54640     54636     54638     54641
     54640     54638     54641     54649     54647     54653     54649     54647     54654
     54649     54647     54655     54653     54647     54654     54653     54647     54655
     54654     54647     54655     54647     54649     54651     54647     54649     54652
     54651     54649     54652     54660     54658     54664     54660     54658     54665
     54660     54658     54666     54664     54658     54665     54664     54658     54666
     54665     54658     54666     54658     54660     54662     54658     54660     54663
     54662     54660     54663     54671     54669     54675     54671     54669     54676
     54671     54669     54677     54675     54669     54676     54675     54669     54677
     54676     54669     54677     54669     54671     54673     54669     54671     54674
     54673     54671     54674     54682     54680     54686     54682     54680     54687
     54682     54680     54688     54686     54680     54687     54686     54680     54688
     54687     54680     54688     54680     54682     54684     54680     54682     54685
     54684     54682     54685     54693     54691     54697     54693     54691     54698
     54693     54691     54699     54697     54691     54698     54697     54691     54699
     54698     54691     54699     54691     54693     54695     54691     54693     54696
     54695     54693     54696     54704     54702     54708     54704     54702     54709
     54704     54702     54710     54708     54702     54709     54708     54702     54710
     54709     54702     54710     54702     54704     54706     54702     54704     54707
     54706     54704     54707     54715     54713     54719     54715     54713     54720
     54715     54713     54721     54719     54713     54720     54719     54713     54721
     54720     54713     54721     54713     54715     54717     54713     54715     54718
     54717     54715     54718     54726     54724     54730     54726     54724     54731
     54726     54724     54732     54730     54724     54731     54730     54724     54732
     54731     54724     54732     54724     54726     54728     54724     54726     54729
     54728     54726     54729     54737     54735     54741     54737     54735     54742
     54737     54735     54743     54741     54735     54742     54741     54735     54743
     54742     54735     54743     54735     54737     54739     54735     54737     54740
     54739     54737     54740     54748     54746     54752     54748     54746     54753
     54748     54746     54754     54752     54746     54753     54752     54746     54754
     54753     54746     54754     54746     54748     54750     54746     54748     54751
     54750     54748     54751     54759     54757     54763     54759     54757     54764
     54759     54757     54765     54763     54757     54764     54763     54757     54765
     54764     54757     54765     54757     54759     54761     54757     54759     54762
     54761     54759     54762     54770     54768     54774     54770     54768     54775
     54770     54768     54776     54774     54768     54775     54774     54768     54776
     54775     54768     54776     54768     54770     54772     54768     54770     54773
     54772     54770     54773     54781     54779     54785     54781     54779     54786
     54781     54779     54787     54785     54779     54786     54785     54779     54787
     54786     54779     54787     54779     54781     54783     54779     54781     54784
     54783     54781     54784     54792     54790     54796     54792     54790     54797
     54792     54790     54798     54796     54790     54797     54796     54790     54798
     54797     54790     54798     54790     54792     54794     54790     54792     54795
     54794     54792     54795     54803     54801     54807     54803     54801     54808
     54803     54801     54809     54807     54801     54808     54807     54801     54809
     54808     54801     54809     54801     54803     54805     54801     54803     54806
     54805     54803     54806     54814     54812     54818     54814     54812     54819
     54814     54812     54820     54818     54812     54819     54818     54812     54820
     54819     54812     54820     54812     54814     54816     54812     54814     54817
     54816     54814     54817     54825     54823     54829     54825     54823     54830
     54825     54823     54831     54829     54823     54830     54829     54823     54831
     54830     54823     54831     54823     54825     54827     54823     54825     54828
     54827     54825     54828     54836     54834     54840     54836     54834     54841
     54836     54834     54842     54840     54834     54841     54840     54834     54842
     54841     54834     54842     54834     54836     54838     54834     54836     54839
     54838     54836     54839     54847     54845     54851     54847     54845     54852
     54847     54845     54853     54851     54845     54852     54851     54845     54853
     54852     54845     54853     54845     54847     54849     54845     54847     54850
     54849     54847     54850     54858     54856     54862     54858     54856     54863
     54858     54856     54864     54862     54856     54863     54862     54856     54864
     54863     54856     54864     54856     54858     54860     54856     54858     54861
     54860     54858     54861     54869     54867     54873     54869     54867     54874
     54869     54867     54875     54873     54867     54874     54873     54867     54875
     54874     54867     54875     54867     54869     54871     54867     54869     54872
     54871     54869     54872     54880     54878     54884     54880     54878     54885
     54880     54878     54886     54884     54878     54885     54884     54878     54886
     54885     54878     54886     54878     54880     54882     54878     54880     54883
     54882     54880     54883     54891     54889     54895     54891     54889     54896
     54891     54889     54897     54895     54889     54896     54895     54889     54897
     54896     54889     54897     54889     54891     54893     54889     54891     54894
     54893     54891     54894     54902     54900     54906     54902     54900     54907
     54902     54900     54908     54906     54900     54907     54906     54900     54908
     54907     54900     54908     54900     54902     54904     54900     54902     54905
     54904     54902     54905     54913     54911     54917     54913     54911     54918
     54913     54911     54919     54917     54911     54918     54917     54911     54919
     54918     54911     54919     54911     54913     54915     54911     54913     54916
     54915     54913     54916     54924     54922     54928     54924     54922     54929
     54924     54922     54930     54928     54922     54929     54928     54922     54930
     54929     54922     54930     54922     54924     54926     54922     54924     54927
     54926     54924     54927     54935     54933     54939     54935     54933     54940
     54935     54933     54941     54939     54933     54940     54939     54933     54941
     54940     54933     54941     54933     54935     54937     54933     54935     54938
     54937     54935     54938     54946     54944     54950     54946     54944     54951
     54946     54944     54952     54950     54944     54951     54950     54944     54952
     54951     54944     54952     54944     54946     54948     54944     54946     54949
     54948     54946     54949     54957     54955     54961     54957     54955     54962
     54957     54955     54963     54961     54955     54962     54961     54955     54963
     54962     54955     54963     54955     54957     54959     54955     54957     54960
     54959     54957     54960     54968     54966     54972     54968     54966     54973
     54968     54966     54974     54972     54966     54973     54972     54966     54974
     54973     54966     54974     54966     54968     54970     54966     54968     54971
     54970     54968     54971     54979     54977     54983     54979     54977     54984
     54979     54977     54985     54983     54977     54984     54983     54977     54985
     54984     54977     54985     54977     54979     54981     54977     54979     54982
     54981     54979     54982     54990     54988     54994     54990     54988     54995
     54990     54988     54996     54994     54988     54995     54994     54988     54996
     54995     54988     54996     54988     54990     54992     54988     54990     54993
     54992     54990     54993     55001     54999     55005     55001     54999     55006
     55001     54999     55007     55005     54999     55006     55005     54999     55007
     55006     54999     55007     54999     55001     55003     54999     55001     55004
     55003     55001     55004     55012     55010     55016     55012     55010     55017
     55012     55010     55018     55016     55010     55017     55016     55010     55018
     55017     55010     55018     55010     55012     55014     55010     55012     55015
     55014     55012     55015     55023     55021     55027     55023     55021     55028
     55023     55021     55029     55027     55021     55028     55027     55021     55029
     55028     55021     55029     55021     55023     55025     55021     55023     55026
     55025     55023     55026     55034     55032     55038     55034     55032     55039
     55034     55032     55040     55038     55032     55039     55038     55032     55040
     55039     55032     55040     55032     55034     55036     55032     55034     55037
     55036     55034     55037     55045     55043     55049     55045     55043     55050
     55045     55043     55051     55049     55043     55050     55049     55043     55051
     55050     55043     55051     55043     55045     55047     55043     55045     55048
     55047     55045     55048     55056     55054     55060     55056     55054     55061
     55056     55054     55062     55060     55054     55061     55060     55054     55062
     55061     55054     55062     55054     55056     55058     55054     55056     55059
     55058     55056     55059     55067     55065     55071     55067     55065     55072
     55067     55065     55073     55071     55065     55072     55071     55065     55073
     55072     55065     55073     55065     55067     55069     55065     55067     55070
     55069     55067     55070     55078     55076     55082     55078     55076     55083
     55078     55076     55084     55082     55076     55083     55082     55076     55084
     55083     55076     55084     55076     55078     55080     55076     55078     55081
     55080     55078     55081     55089     55087     55093     55089     55087     55094
     55089     55087     55095     55093     55087     55094     55093     55087     55095
     55094     55087     55095     55087     55089     55091     55087     55089     55092
     55091     55089     55092     55100     55098     55104     55100     55098     55105
     55100     55098     55106     55104     55098     55105     55104     55098     55106
     55105     55098     55106     55098     55100     55102     55098     55100     55103
     55102     55100     55103     55111     55109     55115     55111     55109     55116
     55111     55109     55117     55115     55109     55116     55115     55109     55117
     55116     55109     55117     55109     55111     55113     55109     55111     55114
     55113     55111     55114     55122     55120     55126     55122     55120     55127
     55122     55120     55128     55126     55120     55127     55126     55120     55128
     55127     55120     55128     55120     55122     55124     55120     55122     55125
     55124     55122     55125     55133     55131     55137     55133     55131     55138
     55133     55131     55139     55137     55131     55138     55137     55131     55139
     55138     55131     55139     55131     55133     55135     55131     55133     55136
     55135     55133     55136     55144     55142     55148     55144     55142     55149
     55144     55142     55150     55148     55142     55149     55148     55142     55150
     55149     55142     55150     55142     55144     55146     55142     55144     55147
     55146     55144     55147     55155     55153     55159     55155     55153     55160
     55155     55153     55161     55159     55153     55160     55159     55153     55161
     55160     55153     55161     55153     55155     55157     55153     55155     55158
     55157     55155     55158     55166     55164     55170     55166     55164     55171
     55166     55164     55172     55170     55164     55171     55170     55164     55172
     55171     55164     55172     55164     55166     55168     55164     55166     55169
     55168     55166     55169     55177     55175     55181     55177     55175     55182
     55177     55175     55183     55181     55175     55182     55181     55175     55183
     55182     55175     55183     55175     55177     55179     55175     55177     55180
     55179     55177     55180

     36262 !NPHI: dihedrals
         1         6         8        10         1         6         8        11
         1         6        14        16         1         6        14        17
         3         1         6         8         3         1         6        14
         4         1         6         8         4         1         6        14
         5         1         6         8         5         1         6        14
         6         8        11        13         6         8        11        17
         6        14        17        11         6        14        17        19
         8         6        14        16         8         6        14        17
         8        11        17        14         8        11        17        19
        10         8         6        14        10         8        11        13
        10         8        11        17        11         8         6        14
        11        17        14        16        13        11        17        14
        13        11        17        19        16        14        17        19
        21        26        28        30        21        26        28        31
        21        26        34        36        21        26        34        37
        23        21        26        28        23        21        26        34
        24        21        26        28        24        21        26        34
        25        21        26        28        25        21        26        34
        26        28        31        33        26        28        31        37
        26        34        37        31        26        34        37        39
        28        26        34        36        28        26        34        37
        28        31        37        34        28        31        37        39
        30        28        26        34        30        28        31        33
        30        28        31        37        31        28        26        34
        31        37        34        36        33        31        37        34
        33        31        37        39        36        34        37        39
        41        46        48        50        41        46        48        51
        41        46        54        56        41        46        54        57
        43        41        46        48        43        41        46        54
        44        41        46        48        44        41        46        54
        45        41        46        48        45        41        46        54
        46        48        51        53        46        48        51        57
        46        54        57        51        46        54        57        59
        48        46        54        56        48        46        54        57
        48        51        57        54        48        51        57        59
        50        48        46        54        50        48        51        53
        50        48        51        57        51        48        46        54
        51        57        54        56        53        51        57        54
        53        51        57        59        56        54        57        59
        61        66        68        70        61        66        68        71
        61        66        74        76        61        66        74        77
        63        61        66        68        63        61        66        74
        64        61        66        68        64        61        66        74
        65        61        66        68        65        61        66        74
        66        68        71        73        66        68        71        77
        66        74        77        71        66        74        77        79
        68        66        74        76        68        66        74        77
        68        71        77        74        68        71        77        79
        70        68        66        74        70        68        71        73
        70        68        71        77        71        68        66        74
        71        77        74        76        73        71        77        74
        73        71        77        79        76        74        77        79
        81        86        88        90        81        86        88        91
        81        86        94        96        81        86        94        97
        83        81        86        88        83        81        86        94
        84        81        86        88        84        81        86        94
        85        81        86        88        85        81        86        94
        86        88        91        93        86        88        91        97
        86        94        97        91        86        94        97        99
        88        86        94        96        88        86        94        97
        88        91        97        94        88        91        97        99
        90        88        86        94        90        88        91        93
        90        88        91        97        91        88        86        94
        91        97        94        96        93        91        97        94
        93        91        97        99        96        94        97        99
       101       106       108       110       101       106       108       111
       101       106       114       116       101       106       114       117
       103       101       106       108       103       101       106       114
       104       101       106       108       104       101       106       114
       105       101       106       108       105       101       106       114
       106       108       111       113       106       108       111       117
       106       114       117       111       106       114       117       119
       108       106       114       116       108       106       114       117
       108       111       117       114       108       111       117       119
       110       108       106       114       110       108       111       113
       110       108       111       117       111       108       106       114
       111       117       114       116       113       111       117       114
       113       111       117       119       116       114       117       119
       121       126       128       130       121       126       128       131
       121       126       134       136       121       126       134       137
       123       121       126       128       123       121       126       134
       124       121       126       128       124       121       126       134
       125       121       126       128       125       121       126       134
       126       128       131       133       126       128       131       137
       126       134       137       131       126       134       137       139
       128       126       134       136       128       126       134       137
       128       131       137       134       128       131       137       139
       130       128       126       134       130       128       131       133
       130       128       131       137       131       128       126       134
       131       137       134       136       133       131       137       134
       133       131       137       139       136       134       137       139
       141       146       148       150       141       146       148       151
       141       146       154       156       141       146       154       157
       143       141       146       148       143       141       146       154
       144       141       146       148       144       141       146       154
       145       141       146       148       145       141       146       154
       146       148       151       153       146       148       151       157
       146       154       157       151       146       154       157       159
       148       146       154       156       148       146       154       157
       148       151       157       154       148       151       157       159
       150       148       146       154       150       148       151       153
       150       148       151       157       151       148       146       154
       151       157       154       156       153       151       157       154
       153       151       157       159       156       154       157       159
       161       166       168       170       161       166       168       171
       161       166       174       176       161       166       174       177
       163       161       166       168       163       161       166       174
       164       161       166       168       164       161       166       174
       165       161       166       168       165       161       166       174
       166       168       171       173       166       168       171       177
       166       174       177       171       166       174       177       179
       168       166       174       176       168       166       174       177
       168       171       177       174       168       171       177       179
       170       168       166       174       170       168       171       173
       170       168       171       177       171       168       166       174
       171       177       174       176       173       171       177       174
       173       171       177       179       176       174       177       179
       181       186       188       190       181       186       188       191
       181       186       194       196       181       186       194       197
       183       181       186       188       183       181       186       194
       184       181       186       188       184       181       186       194
       185       181       186       188       185       181       186       194
       186       188       191       193       186       188       191       197
       186       194       197       191       186       194       197       199
       188       186       194       196       188       186       194       197
       188       191       197       194       188       191       197       199
       190       188       186       194       190       188       191       193
       190       188       191       197       191       188       186       194
       191       197       194       196       193       191       197       194
       193       191       197       199       196       194       197       199
       201       206       208       210       201       206       208       211
       201       206       214       216       201       206       214       217
       203       201       206       208       203       201       206       214
       204       201       206       208       204       201       206       214
       205       201       206       208       205       201       206       214
       206       208       211       213       206       208       211       217
       206       214       217       211       206       214       217       219
       208       206       214       216       208       206       214       217
       208       211       217       214       208       211       217       219
       210       208       206       214       210       208       211       213
       210       208       211       217       211       208       206       214
       211       217       214       216       213       211       217       214
       213       211       217       219       216       214       217       219
       221       226       228       230       221       226       228       231
       221       226       234       236       221       226       234       237
       223       221       226       228       223       221       226       234
       224       221       226       228       224       221       226       234
       225       221       226       228       225       221       226       234
       226       228       231       233       226       228       231       237
       226       234       237       231       226       234       237       239
       228       226       234       236       228       226       234       237
       228       231       237       234       228       231       237       239
       230       228       226       234       230       228       231       233
       230       228       231       237       231       228       226       234
       231       237       234       236       233       231       237       234
       233       231       237       239       236       234       237       239
       241       246       248       250       241       246       248       251
       241       246       254       256       241       246       254       257
       243       241       246       248       243       241       246       254
       244       241       246       248       244       241       246       254
       245       241       246       248       245       241       246       254
       246       248       251       253       246       248       251       257
       246       254       257       251       246       254       257       259
       248       246       254       256       248       246       254       257
       248       251       257       254       248       251       257       259
       250       248       246       254       250       248       251       253
       250       248       251       257       251       248       246       254
       251       257       254       256       253       251       257       254
       253       251       257       259       256       254       257       259
       261       266       268       270       261       266       268       271
       261       266       274       276       261       266       274       277
       263       261       266       268       263       261       266       274
       264       261       266       268       264       261       266       274
       265       261       266       268       265       261       266       274
       266       268       271       273       266       268       271       277
       266       274       277       271       266       274       277       279
       268       266       274       276       268       266       274       277
       268       271       277       274       268       271       277       279
       270       268       266       274       270       268       271       273
       270       268       271       277       271       268       266       274
       271       277       274       276       273       271       277       274
       273       271       277       279       276       274       277       279
       281       286       288       290       281       286       288       291
       281       286       294       296       281       286       294       297
       283       281       286       288       283       281       286       294
       284       281       286       288       284       281       286       294
       285       281       286       288       285       281       286       294
       286       288       291       293       286       288       291       297
       286       294       297       291       286       294       297       299
       288       286       294       296       288       286       294       297
       288       291       297       294       288       291       297       299
       290       288       286       294       290       288       291       293
       290       288       291       297       291       288       286       294
       291       297       294       296       293       291       297       294
       293       291       297       299       296       294       297       299
       301       306       308       310       301       306       308       311
       301       306       314       316       301       306       314       317
       303       301       306       308       303       301       306       314
       304       301       306       308       304       301       306       314
       305       301       306       308       305       301       306       314
       306       308       311       313       306       308       311       317
       306       314       317       311       306       314       317       319
       308       306       314       316       308       306       314       317
       308       311       317       314       308       311       317       319
       310       308       306       314       310       308       311       313
       310       308       311       317       311       308       306       314
       311       317       314       316       313       311       317       314
       313       311       317       319       316       314       317       319
       321       326       328       330       321       326       328       331
       321       326       334       336       321       326       334       337
       323       321       326       328       323       321       326       334
       324       321       326       328       324       321       326       334
       325       321       326       328       325       321       326       334
       326       328       331       333       326       328       331       337
       326       334       337       331       326       334       337       339
       328       326       334       336       328       326       334       337
       328       331       337       334       328       331       337       339
       330       328       326       334       330       328       331       333
       330       328       331       337       331       328       326       334
       331       337       334       336       333       331       337       334
       333       331       337       339       336       334       337       339
       341       346       348       350       341       346       348       351
       341       346       354       356       341       346       354       357
       343       341       346       348       343       341       346       354
       344       341       346       348       344       341       346       354
       345       341       346       348       345       341       346       354
       346       348       351       353       346       348       351       357
       346       354       357       351       346       354       357       359
       348       346       354       356       348       346       354       357
       348       351       357       354       348       351       357       359
       350       348       346       354       350       348       351       353
       350       348       351       357       351       348       346       354
       351       357       354       356       353       351       357       354
       353       351       357       359       356       354       357       359
       361       366       368       370       361       366       368       371
       361       366       374       376       361       366       374       377
       363       361       366       368       363       361       366       374
       364       361       366       368       364       361       366       374
       365       361       366       368       365       361       366       374
       366       368       371       373       366       368       371       377
       366       374       377       371       366       374       377       379
       368       366       374       376       368       366       374       377
       368       371       377       374       368       371       377       379
       370       368       366       374       370       368       371       373
       370       368       371       377       371       368       366       374
       371       377       374       376       373       371       377       374
       373       371       377       379       376       374       377       379
       381       386       388       390       381       386       388       391
       381       386       394       396       381       386       394       397
       383       381       386       388       383       381       386       394
       384       381       386       388       384       381       386       394
       385       381       386       388       385       381       386       394
       386       388       391       393       386       388       391       397
       386       394       397       391       386       394       397       399
       388       386       394       396       388       386       394       397
       388       391       397       394       388       391       397       399
       390       388       386       394       390       388       391       393
       390       388       391       397       391       388       386       394
       391       397       394       396       393       391       397       394
       393       391       397       399       396       394       397       399
       401       406       408       410       401       406       408       411
       401       406       414       416       401       406       414       417
       403       401       406       408       403       401       406       414
       404       401       406       408       404       401       406       414
       405       401       406       408       405       401       406       414
       406       408       411       413       406       408       411       417
       406       414       417       411       406       414       417       419
       408       406       414       416       408       406       414       417
       408       411       417       414       408       411       417       419
       410       408       406       414       410       408       411       413
       410       408       411       417       411       408       406       414
       411       417       414       416       413       411       417       414
       413       411       417       419       416       414       417       419
       421       426       428       430       421       426       428       431
       421       426       434       436       421       426       434       437
       423       421       426       428       423       421       426       434
       424       421       426       428       424       421       426       434
       425       421       426       428       425       421       426       434
       426       428       431       433       426       428       431       437
       426       434       437       431       426       434       437       439
       428       426       434       436       428       426       434       437
       428       431       437       434       428       431       437       439
       430       428       426       434       430       428       431       433
       430       428       431       437       431       428       426       434
       431       437       434       436       433       431       437       434
       433       431       437       439       436       434       437       439
       441       446       448       450       441       446       448       451
       441       446       454       456       441       446       454       457
       443       441       446       448       443       441       446       454
       444       441       446       448       444       441       446       454
       445       441       446       448       445       441       446       454
       446       448       451       453       446       448       451       457
       446       454       457       451       446       454       457       459
       448       446       454       456       448       446       454       457
       448       451       457       454       448       451       457       459
       450       448       446       454       450       448       451       453
       450       448       451       457       451       448       446       454
       451       457       454       456       453       451       457       454
       453       451       457       459       456       454       457       459
       461       466       468       470       461       466       468       471
       461       466       474       476       461       466       474       477
       463       461       466       468       463       461       466       474
       464       461       466       468       464       461       466       474
       465       461       466       468       465       461       466       474
       466       468       471       473       466       468       471       477
       466       474       477       471       466       474       477       479
       468       466       474       476       468       466       474       477
       468       471       477       474       468       471       477       479
       470       468       466       474       470       468       471       473
       470       468       471       477       471       468       466       474
       471       477       474       476       473       471       477       474
       473       471       477       479       476       474       477       479
       481       486       488       490       481       486       488       491
       481       486       494       496       481       486       494       497
       483       481       486       488       483       481       486       494
       484       481       486       488       484       481       486       494
       485       481       486       488       485       481       486       494
       486       488       491       493       486       488       491       497
       486       494       497       491       486       494       497       499
       488       486       494       496       488       486       494       497
       488       491       497       494       488       491       497       499
       490       488       486       494       490       488       491       493
       490       488       491       497       491       488       486       494
       491       497       494       496       493       491       497       494
       493       491       497       499       496       494       497       499
       501       506       508       510       501       506       508       511
       501       506       514       516       501       506       514       517
       503       501       506       508       503       501       506       514
       504       501       506       508       504       501       506       514
       505       501       506       508       505       501       506       514
       506       508       511       513       506       508       511       517
       506       514       517       511       506       514       517       519
       508       506       514       516       508       506       514       517
       508       511       517       514       508       511       517       519
       510       508       506       514       510       508       511       513
       510       508       511       517       511       508       506       514
       511       517       514       516       513       511       517       514
       513       511       517       519       516       514       517       519
       521       526       528       530       521       526       528       531
       521       526       534       536       521       526       534       537
       523       521       526       528       523       521       526       534
       524       521       526       528       524       521       526       534
       525       521       526       528       525       521       526       534
       526       528       531       533       526       528       531       537
       526       534       537       531       526       534       537       539
       528       526       534       536       528       526       534       537
       528       531       537       534       528       531       537       539
       530       528       526       534       530       528       531       533
       530       528       531       537       531       528       526       534
       531       537       534       536       533       531       537       534
       533       531       537       539       536       534       537       539
       541       546       548       550       541       546       548       551
       541       546       554       556       541       546       554       557
       543       541       546       548       543       541       546       554
       544       541       546       548       544       541       546       554
       545       541       546       548       545       541       546       554
       546       548       551       553       546       548       551       557
       546       554       557       551       546       554       557       559
       548       546       554       556       548       546       554       557
       548       551       557       554       548       551       557       559
       550       548       546       554       550       548       551       553
       550       548       551       557       551       548       546       554
       551       557       554       556       553       551       557       554
       553       551       557       559       556       554       557       559
       561       566       568       570       561       566       568       571
       561       566       574       576       561       566       574       577
       563       561       566       568       563       561       566       574
       564       561       566       568       564       561       566       574
       565       561       566       568       565       561       566       574
       566       568       571       573       566       568       571       577
       566       574       577       571       566       574       577       579
       568       566       574       576       568       566       574       577
       568       571       577       574       568       571       577       579
       570       568       566       574       570       568       571       573
       570       568       571       577       571       568       566       574
       571       577       574       576       573       571       577       574
       573       571       577       579       576       574       577       579
       581       586       588       590       581       586       588       591
       581       586       594       596       581       586       594       597
       583       581       586       588       583       581       586       594
       584       581       586       588       584       581       586       594
       585       581       586       588       585       581       586       594
       586       588       591       593       586       588       591       597
       586       594       597       591       586       594       597       599
       588       586       594       596       588       586       594       597
       588       591       597       594       588       591       597       599
       590       588       586       594       590       588       591       593
       590       588       591       597       591       588       586       594
       591       597       594       596       593       591       597       594
       593       591       597       599       596       594       597       599
       601       606       608       610       601       606       608       611
       601       606       614       616       601       606       614       617
       603       601       606       608       603       601       606       614
       604       601       606       608       604       601       606       614
       605       601       606       608       605       601       606       614
       606       608       611       613       606       608       611       617
       606       614       617       611       606       614       617       619
       608       606       614       616       608       606       614       617
       608       611       617       614       608       611       617       619
       610       608       606       614       610       608       611       613
       610       608       611       617       611       608       606       614
       611       617       614       616       613       611       617       614
       613       611       617       619       616       614       617       619
       621       626       628       630       621       626       628       631
       621       626       634       636       621       626       634       637
       623       621       626       628       623       621       626       634
       624       621       626       628       624       621       626       634
       625       621       626       628       625       621       626       634
       626       628       631       633       626       628       631       637
       626       634       637       631       626       634       637       639
       628       626       634       636       628       626       634       637
       628       631       637       634       628       631       637       639
       630       628       626       634       630       628       631       633
       630       628       631       637       631       628       626       634
       631       637       634       636       633       631       637       634
       633       631       637       639       636       634       637       639
       641       646       648       650       641       646       648       651
       641       646       654       656       641       646       654       657
       643       641       646       648       643       641       646       654
       644       641       646       648       644       641       646       654
       645       641       646       648       645       641       646       654
       646       648       651       653       646       648       651       657
       646       654       657       651       646       654       657       659
       648       646       654       656       648       646       654       657
       648       651       657       654       648       651       657       659
       650       648       646       654       650       648       651       653
       650       648       651       657       651       648       646       654
       651       657       654       656       653       651       657       654
       653       651       657       659       656       654       657       659
       661       666       668       670       661       666       668       671
       661       666       674       676       661       666       674       677
       663       661       666       668       663       661       666       674
       664       661       666       668       664       661       666       674
       665       661       666       668       665       661       666       674
       666       668       671       673       666       668       671       677
       666       674       677       671       666       674       677       679
       668       666       674       676       668       666       674       677
       668       671       677       674       668       671       677       679
       670       668       666       674       670       668       671       673
       670       668       671       677       671       668       666       674
       671       677       674       676       673       671       677       674
       673       671       677       679       676       674       677       679
       681       686       688       690       681       686       688       691
       681       686       694       696       681       686       694       697
       683       681       686       688       683       681       686       694
       684       681       686       688       684       681       686       694
       685       681       686       688       685       681       686       694
       686       688       691       693       686       688       691       697
       686       694       697       691       686       694       697       699
       688       686       694       696       688       686       694       697
       688       691       697       694       688       691       697       699
       690       688       686       694       690       688       691       693
       690       688       691       697       691       688       686       694
       691       697       694       696       693       691       697       694
       693       691       697       699       696       694       697       699
       701       706       708       710       701       706       708       711
       701       706       714       716       701       706       714       717
       703       701       706       708       703       701       706       714
       704       701       706       708       704       701       706       714
       705       701       706       708       705       701       706       714
       706       708       711       713       706       708       711       717
       706       714       717       711       706       714       717       719
       708       706       714       716       708       706       714       717
       708       711       717       714       708       711       717       719
       710       708       706       714       710       708       711       713
       710       708       711       717       711       708       706       714
       711       717       714       716       713       711       717       714
       713       711       717       719       716       714       717       719
       721       726       728       730       721       726       728       731
       721       726       734       736       721       726       734       737
       723       721       726       728       723       721       726       734
       724       721       726       728       724       721       726       734
       725       721       726       728       725       721       726       734
       726       728       731       733       726       728       731       737
       726       734       737       731       726       734       737       739
       728       726       734       736       728       726       734       737
       728       731       737       734       728       731       737       739
       730       728       726       734       730       728       731       733
       730       728       731       737       731       728       726       734
       731       737       734       736       733       731       737       734
       733       731       737       739       736       734       737       739
       741       746       748       750       741       746       748       751
       741       746       754       756       741       746       754       757
       743       741       746       748       743       741       746       754
       744       741       746       748       744       741       746       754
       745       741       746       748       745       741       746       754
       746       748       751       753       746       748       751       757
       746       754       757       751       746       754       757       759
       748       746       754       756       748       746       754       757
       748       751       757       754       748       751       757       759
       750       748       746       754       750       748       751       753
       750       748       751       757       751       748       746       754
       751       757       754       756       753       751       757       754
       753       751       757       759       756       754       757       759
       761       766       768       770       761       766       768       771
       761       766       774       776       761       766       774       777
       763       761       766       768       763       761       766       774
       764       761       766       768       764       761       766       774
       765       761       766       768       765       761       766       774
       766       768       771       773       766       768       771       777
       766       774       777       771       766       774       777       779
       768       766       774       776       768       766       774       777
       768       771       777       774       768       771       777       779
       770       768       766       774       770       768       771       773
       770       768       771       777       771       768       766       774
       771       777       774       776       773       771       777       774
       773       771       777       779       776       774       777       779
       781       786       788       790       781       786       788       791
       781       786       794       796       781       786       794       797
       783       781       786       788       783       781       786       794
       784       781       786       788       784       781       786       794
       785       781       786       788       785       781       786       794
       786       788       791       793       786       788       791       797
       786       794       797       791       786       794       797       799
       788       786       794       796       788       786       794       797
       788       791       797       794       788       791       797       799
       790       788       786       794       790       788       791       793
       790       788       791       797       791       788       786       794
       791       797       794       796       793       791       797       794
       793       791       797       799       796       794       797       799
       801       806       808       810       801       806       808       811
       801       806       814       816       801       806       814       817
       803       801       806       808       803       801       806       814
       804       801       806       808       804       801       806       814
       805       801       806       808       805       801       806       814
       806       808       811       813       806       808       811       817
       806       814       817       811       806       814       817       819
       808       806       814       816       808       806       814       817
       808       811       817       814       808       811       817       819
       810       808       806       814       810       808       811       813
       810       808       811       817       811       808       806       814
       811       817       814       816       813       811       817       814
       813       811       817       819       816       814       817       819
       821       826       828       830       821       826       828       831
       821       826       834       836       821       826       834       837
       823       821       826       828       823       821       826       834
       824       821       826       828       824       821       826       834
       825       821       826       828       825       821       826       834
       826       828       831       833       826       828       831       837
       826       834       837       831       826       834       837       839
       828       826       834       836       828       826       834       837
       828       831       837       834       828       831       837       839
       830       828       826       834       830       828       831       833
       830       828       831       837       831       828       826       834
       831       837       834       836       833       831       837       834
       833       831       837       839       836       834       837       839
       841       846       848       850       841       846       848       851
       841       846       854       856       841       846       854       857
       843       841       846       848       843       841       846       854
       844       841       846       848       844       841       846       854
       845       841       846       848       845       841       846       854
       846       848       851       853       846       848       851       857
       846       854       857       851       846       854       857       859
       848       846       854       856       848       846       854       857
       848       851       857       854       848       851       857       859
       850       848       846       854       850       848       851       853
       850       848       851       857       851       848       846       854
       851       857       854       856       853       851       857       854
       853       851       857       859       856       854       857       859
       861       866       868       870       861       866       868       871
       861       866       874       876       861       866       874       877
       863       861       866       868       863       861       866       874
       864       861       866       868       864       861       866       874
       865       861       866       868       865       861       866       874
       866       868       871       873       866       868       871       877
       866       874       877       871       866       874       877       879
       868       866       874       876       868       866       874       877
       868       871       877       874       868       871       877       879
       870       868       866       874       870       868       871       873
       870       868       871       877       871       868       866       874
       871       877       874       876       873       871       877       874
       873       871       877       879       876       874       877       879
       881       886       888       890       881       886       888       891
       881       886       894       896       881       886       894       897
       883       881       886       888       883       881       886       894
       884       881       886       888       884       881       886       894
       885       881       886       888       885       881       886       894
       886       888       891       893       886       888       891       897
       886       894       897       891       886       894       897       899
       888       886       894       896       888       886       894       897
       888       891       897       894       888       891       897       899
       890       888       886       894       890       888       891       893
       890       888       891       897       891       888       886       894
       891       897       894       896       893       891       897       894
       893       891       897       899       896       894       897       899
       901       906       908       910       901       906       908       911
       901       906       914       916       901       906       914       917
       903       901       906       908       903       901       906       914
       904       901       906       908       904       901       906       914
       905       901       906       908       905       901       906       914
       906       908       911       913       906       908       911       917
       906       914       917       911       906       914       917       919
       908       906       914       916       908       906       914       917
       908       911       917       914       908       911       917       919
       910       908       906       914       910       908       911       913
       910       908       911       917       911       908       906       914
       911       917       914       916       913       911       917       914
       913       911       917       919       916       914       917       919
       921       926       928       930       921       926       928       931
       921       926       934       936       921       926       934       937
       923       921       926       928       923       921       926       934
       924       921       926       928       924       921       926       934
       925       921       926       928       925       921       926       934
       926       928       931       933       926       928       931       937
       926       934       937       931       926       934       937       939
       928       926       934       936       928       926       934       937
       928       931       937       934       928       931       937       939
       930       928       926       934       930       928       931       933
       930       928       931       937       931       928       926       934
       931       937       934       936       933       931       937       934
       933       931       937       939       936       934       937       939
       941       946       948       950       941       946       948       951
       941       946       954       956       941       946       954       957
       943       941       946       948       943       941       946       954
       944       941       946       948       944       941       946       954
       945       941       946       948       945       941       946       954
       946       948       951       953       946       948       951       957
       946       954       957       951       946       954       957       959
       948       946       954       956       948       946       954       957
       948       951       957       954       948       951       957       959
       950       948       946       954       950       948       951       953
       950       948       951       957       951       948       946       954
       951       957       954       956       953       951       957       954
       953       951       957       959       956       954       957       959
       961       966       968       970       961       966       968       971
       961       966       974       976       961       966       974       977
       963       961       966       968       963       961       966       974
       964       961       966       968       964       961       966       974
       965       961       966       968       965       961       966       974
       966       968       971       973       966       968       971       977
       966       974       977       971       966       974       977       979
       968       966       974       976       968       966       974       977
       968       971       977       974       968       971       977       979
       970       968       966       974       970       968       971       973
       970       968       971       977       971       968       966       974
       971       977       974       976       973       971       977       974
       973       971       977       979       976       974       977       979
       981       986       988       990       981       986       988       991
       981       986       994       996       981       986       994       997
       983       981       986       988       983       981       986       994
       984       981       986       988       984       981       986       994
       985       981       986       988       985       981       986       994
       986       988       991       993       986       988       991       997
       986       994       997       991       986       994       997       999
       988       986       994       996       988       986       994       997
       988       991       997       994       988       991       997       999
       990       988       986       994       990       988       991       993
       990       988       991       997       991       988       986       994
       991       997       994       996       993       991       997       994
       993       991       997       999       996       994       997       999
      1001      1006      1008      1010      1001      1006      1008      1011
      1001      1006      1014      1016      1001      1006      1014      1017
      1003      1001      1006      1008      1003      1001      1006      1014
      1004      1001      1006      1008      1004      1001      1006      1014
      1005      1001      1006      1008      1005      1001      1006      1014
      1006      1008      1011      1013      1006      1008      1011      1017
      1006      1014      1017      1011      1006      1014      1017      1019
      1008      1006      1014      1016      1008      1006      1014      1017
      1008      1011      1017      1014      1008      1011      1017      1019
      1010      1008      1006      1014      1010      1008      1011      1013
      1010      1008      1011      1017      1011      1008      1006      1014
      1011      1017      1014      1016      1013      1011      1017      1014
      1013      1011      1017      1019      1016      1014      1017      1019
      1021      1026      1028      1030      1021      1026      1028      1031
      1021      1026      1034      1036      1021      1026      1034      1037
      1023      1021      1026      1028      1023      1021      1026      1034
      1024      1021      1026      1028      1024      1021      1026      1034
      1025      1021      1026      1028      1025      1021      1026      1034
      1026      1028      1031      1033      1026      1028      1031      1037
      1026      1034      1037      1031      1026      1034      1037      1039
      1028      1026      1034      1036      1028      1026      1034      1037
      1028      1031      1037      1034      1028      1031      1037      1039
      1030      1028      1026      1034      1030      1028      1031      1033
      1030      1028      1031      1037      1031      1028      1026      1034
      1031      1037      1034      1036      1033      1031      1037      1034
      1033      1031      1037      1039      1036      1034      1037      1039
      1041      1046      1048      1050      1041      1046      1048      1051
      1041      1046      1054      1056      1041      1046      1054      1057
      1043      1041      1046      1048      1043      1041      1046      1054
      1044      1041      1046      1048      1044      1041      1046      1054
      1045      1041      1046      1048      1045      1041      1046      1054
      1046      1048      1051      1053      1046      1048      1051      1057
      1046      1054      1057      1051      1046      1054      1057      1059
      1048      1046      1054      1056      1048      1046      1054      1057
      1048      1051      1057      1054      1048      1051      1057      1059
      1050      1048      1046      1054      1050      1048      1051      1053
      1050      1048      1051      1057      1051      1048      1046      1054
      1051      1057      1054      1056      1053      1051      1057      1054
      1053      1051      1057      1059      1056      1054      1057      1059
      1061      1066      1068      1070      1061      1066      1068      1071
      1061      1066      1074      1076      1061      1066      1074      1077
      1063      1061      1066      1068      1063      1061      1066      1074
      1064      1061      1066      1068      1064      1061      1066      1074
      1065      1061      1066      1068      1065      1061      1066      1074
      1066      1068      1071      1073      1066      1068      1071      1077
      1066      1074      1077      1071      1066      1074      1077      1079
      1068      1066      1074      1076      1068      1066      1074      1077
      1068      1071      1077      1074      1068      1071      1077      1079
      1070      1068      1066      1074      1070      1068      1071      1073
      1070      1068      1071      1077      1071      1068      1066      1074
      1071      1077      1074      1076      1073      1071      1077      1074
      1073      1071      1077      1079      1076      1074      1077      1079
      1081      1086      1088      1090      1081      1086      1088      1091
      1081      1086      1094      1096      1081      1086      1094      1097
      1083      1081      1086      1088      1083      1081      1086      1094
      1084      1081      1086      1088      1084      1081      1086      1094
      1085      1081      1086      1088      1085      1081      1086      1094
      1086      1088      1091      1093      1086      1088      1091      1097
      1086      1094      1097      1091      1086      1094      1097      1099
      1088      1086      1094      1096      1088      1086      1094      1097
      1088      1091      1097      1094      1088      1091      1097      1099
      1090      1088      1086      1094      1090      1088      1091      1093
      1090      1088      1091      1097      1091      1088      1086      1094
      1091      1097      1094      1096      1093      1091      1097      1094
      1093      1091      1097      1099      1096      1094      1097      1099
      1101      1106      1108      1110      1101      1106      1108      1111
      1101      1106      1114      1116      1101      1106      1114      1117
      1103      1101      1106      1108      1103      1101      1106      1114
      1104      1101      1106      1108      1104      1101      1106      1114
      1105      1101      1106      1108      1105      1101      1106      1114
      1106      1108      1111      1113      1106      1108      1111      1117
      1106      1114      1117      1111      1106      1114      1117      1119
      1108      1106      1114      1116      1108      1106      1114      1117
      1108      1111      1117      1114      1108      1111      1117      1119
      1110      1108      1106      1114      1110      1108      1111      1113
      1110      1108      1111      1117      1111      1108      1106      1114
      1111      1117      1114      1116      1113      1111      1117      1114
      1113      1111      1117      1119      1116      1114      1117      1119
      1121      1126      1128      1130      1121      1126      1128      1131
      1121      1126      1134      1136      1121      1126      1134      1137
      1123      1121      1126      1128      1123      1121      1126      1134
      1124      1121      1126      1128      1124      1121      1126      1134
      1125      1121      1126      1128      1125      1121      1126      1134
      1126      1128      1131      1133      1126      1128      1131      1137
      1126      1134      1137      1131      1126      1134      1137      1139
      1128      1126      1134      1136      1128      1126      1134      1137
      1128      1131      1137      1134      1128      1131      1137      1139
      1130      1128      1126      1134      1130      1128      1131      1133
      1130      1128      1131      1137      1131      1128      1126      1134
      1131      1137      1134      1136      1133      1131      1137      1134
      1133      1131      1137      1139      1136      1134      1137      1139
      1141      1146      1148      1150      1141      1146      1148      1151
      1141      1146      1154      1156      1141      1146      1154      1157
      1143      1141      1146      1148      1143      1141      1146      1154
      1144      1141      1146      1148      1144      1141      1146      1154
      1145      1141      1146      1148      1145      1141      1146      1154
      1146      1148      1151      1153      1146      1148      1151      1157
      1146      1154      1157      1151      1146      1154      1157      1159
      1148      1146      1154      1156      1148      1146      1154      1157
      1148      1151      1157      1154      1148      1151      1157      1159
      1150      1148      1146      1154      1150      1148      1151      1153
      1150      1148      1151      1157      1151      1148      1146      1154
      1151      1157      1154      1156      1153      1151      1157      1154
      1153      1151      1157      1159      1156      1154      1157      1159
      1161      1166      1168      1170      1161      1166      1168      1171
      1161      1166      1174      1176      1161      1166      1174      1177
      1163      1161      1166      1168      1163      1161      1166      1174
      1164      1161      1166      1168      1164      1161      1166      1174
      1165      1161      1166      1168      1165      1161      1166      1174
      1166      1168      1171      1173      1166      1168      1171      1177
      1166      1174      1177      1171      1166      1174      1177      1179
      1168      1166      1174      1176      1168      1166      1174      1177
      1168      1171      1177      1174      1168      1171      1177      1179
      1170      1168      1166      1174      1170      1168      1171      1173
      1170      1168      1171      1177      1171      1168      1166      1174
      1171      1177      1174      1176      1173      1171      1177      1174
      1173      1171      1177      1179      1176      1174      1177      1179
      1181      1186      1188      1190      1181      1186      1188      1191
      1181      1186      1194      1196      1181      1186      1194      1197
      1183      1181      1186      1188      1183      1181      1186      1194
      1184      1181      1186      1188      1184      1181      1186      1194
      1185      1181      1186      1188      1185      1181      1186      1194
      1186      1188      1191      1193      1186      1188      1191      1197
      1186      1194      1197      1191      1186      1194      1197      1199
      1188      1186      1194      1196      1188      1186      1194      1197
      1188      1191      1197      1194      1188      1191      1197      1199
      1190      1188      1186      1194      1190      1188      1191      1193
      1190      1188      1191      1197      1191      1188      1186      1194
      1191      1197      1194      1196      1193      1191      1197      1194
      1193      1191      1197      1199      1196      1194      1197      1199
      1201      1206      1208      1210      1201      1206      1208      1211
      1201      1206      1214      1216      1201      1206      1214      1217
      1203      1201      1206      1208      1203      1201      1206      1214
      1204      1201      1206      1208      1204      1201      1206      1214
      1205      1201      1206      1208      1205      1201      1206      1214
      1206      1208      1211      1213      1206      1208      1211      1217
      1206      1214      1217      1211      1206      1214      1217      1219
      1208      1206      1214      1216      1208      1206      1214      1217
      1208      1211      1217      1214      1208      1211      1217      1219
      1210      1208      1206      1214      1210      1208      1211      1213
      1210      1208      1211      1217      1211      1208      1206      1214
      1211      1217      1214      1216      1213      1211      1217      1214
      1213      1211      1217      1219      1216      1214      1217      1219
      1221      1226      1228      1230      1221      1226      1228      1231
      1221      1226      1234      1236      1221      1226      1234      1237
      1223      1221      1226      1228      1223      1221      1226      1234
      1224      1221      1226      1228      1224      1221      1226      1234
      1225      1221      1226      1228      1225      1221      1226      1234
      1226      1228      1231      1233      1226      1228      1231      1237
      1226      1234      1237      1231      1226      1234      1237      1239
      1228      1226      1234      1236      1228      1226      1234      1237
      1228      1231      1237      1234      1228      1231      1237      1239
      1230      1228      1226      1234      1230      1228      1231      1233
      1230      1228      1231      1237      1231      1228      1226      1234
      1231      1237      1234      1236      1233      1231      1237      1234
      1233      1231      1237      1239      1236      1234      1237      1239
      1241      1246      1248      1250      1241      1246      1248      1251
      1241      1246      1254      1256      1241      1246      1254      1257
      1243      1241      1246      1248      1243      1241      1246      1254
      1244      1241      1246      1248      1244      1241      1246      1254
      1245      1241      1246      1248      1245      1241      1246      1254
      1246      1248      1251      1253      1246      1248      1251      1257
      1246      1254      1257      1251      1246      1254      1257      1259
      1248      1246      1254      1256      1248      1246      1254      1257
      1248      1251      1257      1254      1248      1251      1257      1259
      1250      1248      1246      1254      1250      1248      1251      1253
      1250      1248      1251      1257      1251      1248      1246      1254
      1251      1257      1254      1256      1253      1251      1257      1254
      1253      1251      1257      1259      1256      1254      1257      1259
      1261      1266      1268      1270      1261      1266      1268      1271
      1261      1266      1274      1276      1261      1266      1274      1277
      1263      1261      1266      1268      1263      1261      1266      1274
      1264      1261      1266      1268      1264      1261      1266      1274
      1265      1261      1266      1268      1265      1261      1266      1274
      1266      1268      1271      1273      1266      1268      1271      1277
      1266      1274      1277      1271      1266      1274      1277      1279
      1268      1266      1274      1276      1268      1266      1274      1277
      1268      1271      1277      1274      1268      1271      1277      1279
      1270      1268      1266      1274      1270      1268      1271      1273
      1270      1268      1271      1277      1271      1268      1266      1274
      1271      1277      1274      1276      1273      1271      1277      1274
      1273      1271      1277      1279      1276      1274      1277      1279
      1281      1286      1288      1290      1281      1286      1288      1291
      1281      1286      1294      1296      1281      1286      1294      1297
      1283      1281      1286      1288      1283      1281      1286      1294
      1284      1281      1286      1288      1284      1281      1286      1294
      1285      1281      1286      1288      1285      1281      1286      1294
      1286      1288      1291      1293      1286      1288      1291      1297
      1286      1294      1297      1291      1286      1294      1297      1299
      1288      1286      1294      1296      1288      1286      1294      1297
      1288      1291      1297      1294      1288      1291      1297      1299
      1290      1288      1286      1294      1290      1288      1291      1293
      1290      1288      1291      1297      1291      1288      1286      1294
      1291      1297      1294      1296      1293      1291      1297      1294
      1293      1291      1297      1299      1296      1294      1297      1299
      1301      1306      1308      1310      1301      1306      1308      1311
      1301      1306      1314      1316      1301      1306      1314      1317
      1303      1301      1306      1308      1303      1301      1306      1314
      1304      1301      1306      1308      1304      1301      1306      1314
      1305      1301      1306      1308      1305      1301      1306      1314
      1306      1308      1311      1313      1306      1308      1311      1317
      1306      1314      1317      1311      1306      1314      1317      1319
      1308      1306      1314      1316      1308      1306      1314      1317
      1308      1311      1317      1314      1308      1311      1317      1319
      1310      1308      1306      1314      1310      1308      1311      1313
      1310      1308      1311      1317      1311      1308      1306      1314
      1311      1317      1314      1316      1313      1311      1317      1314
      1313      1311      1317      1319      1316      1314      1317      1319
      1321      1326      1328      1330      1321      1326      1328      1331
      1321      1326      1334      1336      1321      1326      1334      1337
      1323      1321      1326      1328      1323      1321      1326      1334
      1324      1321      1326      1328      1324      1321      1326      1334
      1325      1321      1326      1328      1325      1321      1326      1334
      1326      1328      1331      1333      1326      1328      1331      1337
      1326      1334      1337      1331      1326      1334      1337      1339
      1328      1326      1334      1336      1328      1326      1334      1337
      1328      1331      1337      1334      1328      1331      1337      1339
      1330      1328      1326      1334      1330      1328      1331      1333
      1330      1328      1331      1337      1331      1328      1326      1334
      1331      1337      1334      1336      1333      1331      1337      1334
      1333      1331      1337      1339      1336      1334      1337      1339
      1341      1346      1348      1350      1341      1346      1348      1351
      1341      1346      1354      1356      1341      1346      1354      1357
      1343      1341      1346      1348      1343      1341      1346      1354
      1344      1341      1346      1348      1344      1341      1346      1354
      1345      1341      1346      1348      1345      1341      1346      1354
      1346      1348      1351      1353      1346      1348      1351      1357
      1346      1354      1357      1351      1346      1354      1357      1359
      1348      1346      1354      1356      1348      1346      1354      1357
      1348      1351      1357      1354      1348      1351      1357      1359
      1350      1348      1346      1354      1350      1348      1351      1353
      1350      1348      1351      1357      1351      1348      1346      1354
      1351      1357      1354      1356      1353      1351      1357      1354
      1353      1351      1357      1359      1356      1354      1357      1359
      1361      1366      1368      1370      1361      1366      1368      1371
      1361      1366      1374      1376      1361      1366      1374      1377
      1363      1361      1366      1368      1363      1361      1366      1374
      1364      1361      1366      1368      1364      1361      1366      1374
      1365      1361      1366      1368      1365      1361      1366      1374
      1366      1368      1371      1373      1366      1368      1371      1377
      1366      1374      1377      1371      1366      1374      1377      1379
      1368      1366      1374      1376      1368      1366      1374      1377
      1368      1371      1377      1374      1368      1371      1377      1379
      1370      1368      1366      1374      1370      1368      1371      1373
      1370      1368      1371      1377      1371      1368      1366      1374
      1371      1377      1374      1376      1373      1371      1377      1374
      1373      1371      1377      1379      1376      1374      1377      1379
      1381      1386      1388      1390      1381      1386      1388      1391
      1381      1386      1394      1396      1381      1386      1394      1397
      1383      1381      1386      1388      1383      1381      1386      1394
      1384      1381      1386      1388      1384      1381      1386      1394
      1385      1381      1386      1388      1385      1381      1386      1394
      1386      1388      1391      1393      1386      1388      1391      1397
      1386      1394      1397      1391      1386      1394      1397      1399
      1388      1386      1394      1396      1388      1386      1394      1397
      1388      1391      1397      1394      1388      1391      1397      1399
      1390      1388      1386      1394      1390      1388      1391      1393
      1390      1388      1391      1397      1391      1388      1386      1394
      1391      1397      1394      1396      1393      1391      1397      1394
      1393      1391      1397      1399      1396      1394      1397      1399
      1401      1406      1408      1410      1401      1406      1408      1411
      1401      1406      1414      1416      1401      1406      1414      1417
      1403      1401      1406      1408      1403      1401      1406      1414
      1404      1401      1406      1408      1404      1401      1406      1414
      1405      1401      1406      1408      1405      1401      1406      1414
      1406      1408      1411      1413      1406      1408      1411      1417
      1406      1414      1417      1411      1406      1414      1417      1419
      1408      1406      1414      1416      1408      1406      1414      1417
      1408      1411      1417      1414      1408      1411      1417      1419
      1410      1408      1406      1414      1410      1408      1411      1413
      1410      1408      1411      1417      1411      1408      1406      1414
      1411      1417      1414      1416      1413      1411      1417      1414
      1413      1411      1417      1419      1416      1414      1417      1419
      1421      1426      1428      1430      1421      1426      1428      1431
      1421      1426      1434      1436      1421      1426      1434      1437
      1423      1421      1426      1428      1423      1421      1426      1434
      1424      1421      1426      1428      1424      1421      1426      1434
      1425      1421      1426      1428      1425      1421      1426      1434
      1426      1428      1431      1433      1426      1428      1431      1437
      1426      1434      1437      1431      1426      1434      1437      1439
      1428      1426      1434      1436      1428      1426      1434      1437
      1428      1431      1437      1434      1428      1431      1437      1439
      1430      1428      1426      1434      1430      1428      1431      1433
      1430      1428      1431      1437      1431      1428      1426      1434
      1431      1437      1434      1436      1433      1431      1437      1434
      1433      1431      1437      1439      1436      1434      1437      1439
      1441      1446      1448      1450      1441      1446      1448      1451
      1441      1446      1454      1456      1441      1446      1454      1457
      1443      1441      1446      1448      1443      1441      1446      1454
      1444      1441      1446      1448      1444      1441      1446      1454
      1445      1441      1446      1448      1445      1441      1446      1454
      1446      1448      1451      1453      1446      1448      1451      1457
      1446      1454      1457      1451      1446      1454      1457      1459
      1448      1446      1454      1456      1448      1446      1454      1457
      1448      1451      1457      1454      1448      1451      1457      1459
      1450      1448      1446      1454      1450      1448      1451      1453
      1450      1448      1451      1457      1451      1448      1446      1454
      1451      1457      1454      1456      1453      1451      1457      1454
      1453      1451      1457      1459      1456      1454      1457      1459
      1461      1466      1468      1470      1461      1466      1468      1471
      1461      1466      1474      1476      1461      1466      1474      1477
      1463      1461      1466      1468      1463      1461      1466      1474
      1464      1461      1466      1468      1464      1461      1466      1474
      1465      1461      1466      1468      1465      1461      1466      1474
      1466      1468      1471      1473      1466      1468      1471      1477
      1466      1474      1477      1471      1466      1474      1477      1479
      1468      1466      1474      1476      1468      1466      1474      1477
      1468      1471      1477      1474      1468      1471      1477      1479
      1470      1468      1466      1474      1470      1468      1471      1473
      1470      1468      1471      1477      1471      1468      1466      1474
      1471      1477      1474      1476      1473      1471      1477      1474
      1473      1471      1477      1479      1476      1474      1477      1479
      1481      1486      1488      1490      1481      1486      1488      1491
      1481      1486      1494      1496      1481      1486      1494      1497
      1483      1481      1486      1488      1483      1481      1486      1494
      1484      1481      1486      1488      1484      1481      1486      1494
      1485      1481      1486      1488      1485      1481      1486      1494
      1486      1488      1491      1493      1486      1488      1491      1497
      1486      1494      1497      1491      1486      1494      1497      1499
      1488      1486      1494      1496      1488      1486      1494      1497
      1488      1491      1497      1494      1488      1491      1497      1499
      1490      1488      1486      1494      1490      1488      1491      1493
      1490      1488      1491      1497      1491      1488      1486      1494
      1491      1497      1494      1496      1493      1491      1497      1494
      1493      1491      1497      1499      1496      1494      1497      1499
      1501      1506      1508      1510      1501      1506      1508      1511
      1501      1506      1514      1516      1501      1506      1514      1517
      1503      1501      1506      1508      1503      1501      1506      1514
      1504      1501      1506      1508      1504      1501      1506      1514
      1505      1501      1506      1508      1505      1501      1506      1514
      1506      1508      1511      1513      1506      1508      1511      1517
      1506      1514      1517      1511      1506      1514      1517      1519
      1508      1506      1514      1516      1508      1506      1514      1517
      1508      1511      1517      1514      1508      1511      1517      1519
      1510      1508      1506      1514      1510      1508      1511      1513
      1510      1508      1511      1517      1511      1508      1506      1514
      1511      1517      1514      1516      1513      1511      1517      1514
      1513      1511      1517      1519      1516      1514      1517      1519
      1521      1526      1528      1530      1521      1526      1528      1531
      1521      1526      1534      1536      1521      1526      1534      1537
      1523      1521      1526      1528      1523      1521      1526      1534
      1524      1521      1526      1528      1524      1521      1526      1534
      1525      1521      1526      1528      1525      1521      1526      1534
      1526      1528      1531      1533      1526      1528      1531      1537
      1526      1534      1537      1531      1526      1534      1537      1539
      1528      1526      1534      1536      1528      1526      1534      1537
      1528      1531      1537      1534      1528      1531      1537      1539
      1530      1528      1526      1534      1530      1528      1531      1533
      1530      1528      1531      1537      1531      1528      1526      1534
      1531      1537      1534      1536      1533      1531      1537      1534
      1533      1531      1537      1539      1536      1534      1537      1539
      1541      1546      1548      1550      1541      1546      1548      1551
      1541      1546      1554      1556      1541      1546      1554      1557
      1543      1541      1546      1548      1543      1541      1546      1554
      1544      1541      1546      1548      1544      1541      1546      1554
      1545      1541      1546      1548      1545      1541      1546      1554
      1546      1548      1551      1553      1546      1548      1551      1557
      1546      1554      1557      1551      1546      1554      1557      1559
      1548      1546      1554      1556      1548      1546      1554      1557
      1548      1551      1557      1554      1548      1551      1557      1559
      1550      1548      1546      1554      1550      1548      1551      1553
      1550      1548      1551      1557      1551      1548      1546      1554
      1551      1557      1554      1556      1553      1551      1557      1554
      1553      1551      1557      1559      1556      1554      1557      1559
      1561      1566      1568      1570      1561      1566      1568      1571
      1561      1566      1574      1576      1561      1566      1574      1577
      1563      1561      1566      1568      1563      1561      1566      1574
      1564      1561      1566      1568      1564      1561      1566      1574
      1565      1561      1566      1568      1565      1561      1566      1574
      1566      1568      1571      1573      1566      1568      1571      1577
      1566      1574      1577      1571      1566      1574      1577      1579
      1568      1566      1574      1576      1568      1566      1574      1577
      1568      1571      1577      1574      1568      1571      1577      1579
      1570      1568      1566      1574      1570      1568      1571      1573
      1570      1568      1571      1577      1571      1568      1566      1574
      1571      1577      1574      1576      1573      1571      1577      1574
      1573      1571      1577      1579      1576      1574      1577      1579
      1581      1586      1588      1590      1581      1586      1588      1591
      1581      1586      1594      1596      1581      1586      1594      1597
      1583      1581      1586      1588      1583      1581      1586      1594
      1584      1581      1586      1588      1584      1581      1586      1594
      1585      1581      1586      1588      1585      1581      1586      1594
      1586      1588      1591      1593      1586      1588      1591      1597
      1586      1594      1597      1591      1586      1594      1597      1599
      1588      1586      1594      1596      1588      1586      1594      1597
      1588      1591      1597      1594      1588      1591      1597      1599
      1590      1588      1586      1594      1590      1588      1591      1593
      1590      1588      1591      1597      1591      1588      1586      1594
      1591      1597      1594      1596      1593      1591      1597      1594
      1593      1591      1597      1599      1596      1594      1597      1599
      1601      1606      1608      1610      1601      1606      1608      1611
      1601      1606      1614      1616      1601      1606      1614      1617
      1603      1601      1606      1608      1603      1601      1606      1614
      1604      1601      1606      1608      1604      1601      1606      1614
      1605      1601      1606      1608      1605      1601      1606      1614
      1606      1608      1611      1613      1606      1608      1611      1617
      1606      1614      1617      1611      1606      1614      1617      1619
      1608      1606      1614      1616      1608      1606      1614      1617
      1608      1611      1617      1614      1608      1611      1617      1619
      1610      1608      1606      1614      1610      1608      1611      1613
      1610      1608      1611      1617      1611      1608      1606      1614
      1611      1617      1614      1616      1613      1611      1617      1614
      1613      1611      1617      1619      1616      1614      1617      1619
      1621      1626      1628      1630      1621      1626      1628      1631
      1621      1626      1634      1636      1621      1626      1634      1637
      1623      1621      1626      1628      1623      1621      1626      1634
      1624      1621      1626      1628      1624      1621      1626      1634
      1625      1621      1626      1628      1625      1621      1626      1634
      1626      1628      1631      1633      1626      1628      1631      1637
      1626      1634      1637      1631      1626      1634      1637      1639
      1628      1626      1634      1636      1628      1626      1634      1637
      1628      1631      1637      1634      1628      1631      1637      1639
      1630      1628      1626      1634      1630      1628      1631      1633
      1630      1628      1631      1637      1631      1628      1626      1634
      1631      1637      1634      1636      1633      1631      1637      1634
      1633      1631      1637      1639      1636      1634      1637      1639
      1641      1646      1648      1650      1641      1646      1648      1651
      1641      1646      1654      1656      1641      1646      1654      1657
      1643      1641      1646      1648      1643      1641      1646      1654
      1644      1641      1646      1648      1644      1641      1646      1654
      1645      1641      1646      1648      1645      1641      1646      1654
      1646      1648      1651      1653      1646      1648      1651      1657
      1646      1654      1657      1651      1646      1654      1657      1659
      1648      1646      1654      1656      1648      1646      1654      1657
      1648      1651      1657      1654      1648      1651      1657      1659
      1650      1648      1646      1654      1650      1648      1651      1653
      1650      1648      1651      1657      1651      1648      1646      1654
      1651      1657      1654      1656      1653      1651      1657      1654
      1653      1651      1657      1659      1656      1654      1657      1659
      1661      1666      1668      1670      1661      1666      1668      1671
      1661      1666      1674      1676      1661      1666      1674      1677
      1663      1661      1666      1668      1663      1661      1666      1674
      1664      1661      1666      1668      1664      1661      1666      1674
      1665      1661      1666      1668      1665      1661      1666      1674
      1666      1668      1671      1673      1666      1668      1671      1677
      1666      1674      1677      1671      1666      1674      1677      1679
      1668      1666      1674      1676      1668      1666      1674      1677
      1668      1671      1677      1674      1668      1671      1677      1679
      1670      1668      1666      1674      1670      1668      1671      1673
      1670      1668      1671      1677      1671      1668      1666      1674
      1671      1677      1674      1676      1673      1671      1677      1674
      1673      1671      1677      1679      1676      1674      1677      1679
      1681      1686      1688      1690      1681      1686      1688      1691
      1681      1686      1694      1696      1681      1686      1694      1697
      1683      1681      1686      1688      1683      1681      1686      1694
      1684      1681      1686      1688      1684      1681      1686      1694
      1685      1681      1686      1688      1685      1681      1686      1694
      1686      1688      1691      1693      1686      1688      1691      1697
      1686      1694      1697      1691      1686      1694      1697      1699
      1688      1686      1694      1696      1688      1686      1694      1697
      1688      1691      1697      1694      1688      1691      1697      1699
      1690      1688      1686      1694      1690      1688      1691      1693
      1690      1688      1691      1697      1691      1688      1686      1694
      1691      1697      1694      1696      1693      1691      1697      1694
      1693      1691      1697      1699      1696      1694      1697      1699
      1701      1706      1708      1710      1701      1706      1708      1711
      1701      1706      1714      1716      1701      1706      1714      1717
      1703      1701      1706      1708      1703      1701      1706      1714
      1704      1701      1706      1708      1704      1701      1706      1714
      1705      1701      1706      1708      1705      1701      1706      1714
      1706      1708      1711      1713      1706      1708      1711      1717
      1706      1714      1717      1711      1706      1714      1717      1719
      1708      1706      1714      1716      1708      1706      1714      1717
      1708      1711      1717      1714      1708      1711      1717      1719
      1710      1708      1706      1714      1710      1708      1711      1713
      1710      1708      1711      1717      1711      1708      1706      1714
      1711      1717      1714      1716      1713      1711      1717      1714
      1713      1711      1717      1719      1716      1714      1717      1719
      1721      1726      1728      1730      1721      1726      1728      1731
      1721      1726      1734      1736      1721      1726      1734      1737
      1723      1721      1726      1728      1723      1721      1726      1734
      1724      1721      1726      1728      1724      1721      1726      1734
      1725      1721      1726      1728      1725      1721      1726      1734
      1726      1728      1731      1733      1726      1728      1731      1737
      1726      1734      1737      1731      1726      1734      1737      1739
      1728      1726      1734      1736      1728      1726      1734      1737
      1728      1731      1737      1734      1728      1731      1737      1739
      1730      1728      1726      1734      1730      1728      1731      1733
      1730      1728      1731      1737      1731      1728      1726      1734
      1731      1737      1734      1736      1733      1731      1737      1734
      1733      1731      1737      1739      1736      1734      1737      1739
      1741      1746      1748      1750      1741      1746      1748      1751
      1741      1746      1754      1756      1741      1746      1754      1757
      1743      1741      1746      1748      1743      1741      1746      1754
      1744      1741      1746      1748      1744      1741      1746      1754
      1745      1741      1746      1748      1745      1741      1746      1754
      1746      1748      1751      1753      1746      1748      1751      1757
      1746      1754      1757      1751      1746      1754      1757      1759
      1748      1746      1754      1756      1748      1746      1754      1757
      1748      1751      1757      1754      1748      1751      1757      1759
      1750      1748      1746      1754      1750      1748      1751      1753
      1750      1748      1751      1757      1751      1748      1746      1754
      1751      1757      1754      1756      1753      1751      1757      1754
      1753      1751      1757      1759      1756      1754      1757      1759
      1761      1766      1768      1770      1761      1766      1768      1771
      1761      1766      1774      1776      1761      1766      1774      1777
      1763      1761      1766      1768      1763      1761      1766      1774
      1764      1761      1766      1768      1764      1761      1766      1774
      1765      1761      1766      1768      1765      1761      1766      1774
      1766      1768      1771      1773      1766      1768      1771      1777
      1766      1774      1777      1771      1766      1774      1777      1779
      1768      1766      1774      1776      1768      1766      1774      1777
      1768      1771      1777      1774      1768      1771      1777      1779
      1770      1768      1766      1774      1770      1768      1771      1773
      1770      1768      1771      1777      1771      1768      1766      1774
      1771      1777      1774      1776      1773      1771      1777      1774
      1773      1771      1777      1779      1776      1774      1777      1779
      1781      1786      1788      1790      1781      1786      1788      1791
      1781      1786      1794      1796      1781      1786      1794      1797
      1783      1781      1786      1788      1783      1781      1786      1794
      1784      1781      1786      1788      1784      1781      1786      1794
      1785      1781      1786      1788      1785      1781      1786      1794
      1786      1788      1791      1793      1786      1788      1791      1797
      1786      1794      1797      1791      1786      1794      1797      1799
      1788      1786      1794      1796      1788      1786      1794      1797
      1788      1791      1797      1794      1788      1791      1797      1799
      1790      1788      1786      1794      1790      1788      1791      1793
      1790      1788      1791      1797      1791      1788      1786      1794
      1791      1797      1794      1796      1793      1791      1797      1794
      1793      1791      1797      1799      1796      1794      1797      1799
      1801      1806      1808      1810      1801      1806      1808      1811
      1801      1806      1814      1816      1801      1806      1814      1817
      1803      1801      1806      1808      1803      1801      1806      1814
      1804      1801      1806      1808      1804      1801      1806      1814
      1805      1801      1806      1808      1805      1801      1806      1814
      1806      1808      1811      1813      1806      1808      1811      1817
      1806      1814      1817      1811      1806      1814      1817      1819
      1808      1806      1814      1816      1808      1806      1814      1817
      1808      1811      1817      1814      1808      1811      1817      1819
      1810      1808      1806      1814      1810      1808      1811      1813
      1810      1808      1811      1817      1811      1808      1806      1814
      1811      1817      1814      1816      1813      1811      1817      1814
      1813      1811      1817      1819      1816      1814      1817      1819
      1821      1826      1828      1830      1821      1826      1828      1831
      1821      1826      1834      1836      1821      1826      1834      1837
      1823      1821      1826      1828      1823      1821      1826      1834
      1824      1821      1826      1828      1824      1821      1826      1834
      1825      1821      1826      1828      1825      1821      1826      1834
      1826      1828      1831      1833      1826      1828      1831      1837
      1826      1834      1837      1831      1826      1834      1837      1839
      1828      1826      1834      1836      1828      1826      1834      1837
      1828      1831      1837      1834      1828      1831      1837      1839
      1830      1828      1826      1834      1830      1828      1831      1833
      1830      1828      1831      1837      1831      1828      1826      1834
      1831      1837      1834      1836      1833      1831      1837      1834
      1833      1831      1837      1839      1836      1834      1837      1839
      1841      1846      1848      1850      1841      1846      1848      1851
      1841      1846      1854      1856      1841      1846      1854      1857
      1843      1841      1846      1848      1843      1841      1846      1854
      1844      1841      1846      1848      1844      1841      1846      1854
      1845      1841      1846      1848      1845      1841      1846      1854
      1846      1848      1851      1853      1846      1848      1851      1857
      1846      1854      1857      1851      1846      1854      1857      1859
      1848      1846      1854      1856      1848      1846      1854      1857
      1848      1851      1857      1854      1848      1851      1857      1859
      1850      1848      1846      1854      1850      1848      1851      1853
      1850      1848      1851      1857      1851      1848      1846      1854
      1851      1857      1854      1856      1853      1851      1857      1854
      1853      1851      1857      1859      1856      1854      1857      1859
      1861      1866      1868      1870      1861      1866      1868      1871
      1861      1866      1874      1876      1861      1866      1874      1877
      1863      1861      1866      1868      1863      1861      1866      1874
      1864      1861      1866      1868      1864      1861      1866      1874
      1865      1861      1866      1868      1865      1861      1866      1874
      1866      1868      1871      1873      1866      1868      1871      1877
      1866      1874      1877      1871      1866      1874      1877      1879
      1868      1866      1874      1876      1868      1866      1874      1877
      1868      1871      1877      1874      1868      1871      1877      1879
      1870      1868      1866      1874      1870      1868      1871      1873
      1870      1868      1871      1877      1871      1868      1866      1874
      1871      1877      1874      1876      1873      1871      1877      1874
      1873      1871      1877      1879      1876      1874      1877      1879
      1881      1886      1888      1890      1881      1886      1888      1891
      1881      1886      1894      1896      1881      1886      1894      1897
      1883      1881      1886      1888      1883      1881      1886      1894
      1884      1881      1886      1888      1884      1881      1886      1894
      1885      1881      1886      1888      1885      1881      1886      1894
      1886      1888      1891      1893      1886      1888      1891      1897
      1886      1894      1897      1891      1886      1894      1897      1899
      1888      1886      1894      1896      1888      1886      1894      1897
      1888      1891      1897      1894      1888      1891      1897      1899
      1890      1888      1886      1894      1890      1888      1891      1893
      1890      1888      1891      1897      1891      1888      1886      1894
      1891      1897      1894      1896      1893      1891      1897      1894
      1893      1891      1897      1899      1896      1894      1897      1899
      1901      1906      1908      1910      1901      1906      1908      1911
      1901      1906      1914      1916      1901      1906      1914      1917
      1903      1901      1906      1908      1903      1901      1906      1914
      1904      1901      1906      1908      1904      1901      1906      1914
      1905      1901      1906      1908      1905      1901      1906      1914
      1906      1908      1911      1913      1906      1908      1911      1917
      1906      1914      1917      1911      1906      1914      1917      1919
      1908      1906      1914      1916      1908      1906      1914      1917
      1908      1911      1917      1914      1908      1911      1917      1919
      1910      1908      1906      1914      1910      1908      1911      1913
      1910      1908      1911      1917      1911      1908      1906      1914
      1911      1917      1914      1916      1913      1911      1917      1914
      1913      1911      1917      1919      1916      1914      1917      1919
      1921      1926      1928      1930      1921      1926      1928      1931
      1921      1926      1934      1936      1921      1926      1934      1937
      1923      1921      1926      1928      1923      1921      1926      1934
      1924      1921      1926      1928      1924      1921      1926      1934
      1925      1921      1926      1928      1925      1921      1926      1934
      1926      1928      1931      1933      1926      1928      1931      1937
      1926      1934      1937      1931      1926      1934      1937      1939
      1928      1926      1934      1936      1928      1926      1934      1937
      1928      1931      1937      1934      1928      1931      1937      1939
      1930      1928      1926      1934      1930      1928      1931      1933
      1930      1928      1931      1937      1931      1928      1926      1934
      1931      1937      1934      1936      1933      1931      1937      1934
      1933      1931      1937      1939      1936      1934      1937      1939
      1941      1946      1948      1950      1941      1946      1948      1951
      1941      1946      1954      1956      1941      1946      1954      1957
      1943      1941      1946      1948      1943      1941      1946      1954
      1944      1941      1946      1948      1944      1941      1946      1954
      1945      1941      1946      1948      1945      1941      1946      1954
      1946      1948      1951      1953      1946      1948      1951      1957
      1946      1954      1957      1951      1946      1954      1957      1959
      1948      1946      1954      1956      1948      1946      1954      1957
      1948      1951      1957      1954      1948      1951      1957      1959
      1950      1948      1946      1954      1950      1948      1951      1953
      1950      1948      1951      1957      1951      1948      1946      1954
      1951      1957      1954      1956      1953      1951      1957      1954
      1953      1951      1957      1959      1956      1954      1957      1959
      1961      1966      1968      1970      1961      1966      1968      1971
      1961      1966      1974      1976      1961      1966      1974      1977
      1963      1961      1966      1968      1963      1961      1966      1974
      1964      1961      1966      1968      1964      1961      1966      1974
      1965      1961      1966      1968      1965      1961      1966      1974
      1966      1968      1971      1973      1966      1968      1971      1977
      1966      1974      1977      1971      1966      1974      1977      1979
      1968      1966      1974      1976      1968      1966      1974      1977
      1968      1971      1977      1974      1968      1971      1977      1979
      1970      1968      1966      1974      1970      1968      1971      1973
      1970      1968      1971      1977      1971      1968      1966      1974
      1971      1977      1974      1976      1973      1971      1977      1974
      1973      1971      1977      1979      1976      1974      1977      1979
      1981      1986      1988      1990      1981      1986      1988      1991
      1981      1986      1994      1996      1981      1986      1994      1997
      1983      1981      1986      1988      1983      1981      1986      1994
      1984      1981      1986      1988      1984      1981      1986      1994
      1985      1981      1986      1988      1985      1981      1986      1994
      1986      1988      1991      1993      1986      1988      1991      1997
      1986      1994      1997      1991      1986      1994      1997      1999
      1988      1986      1994      1996      1988      1986      1994      1997
      1988      1991      1997      1994      1988      1991      1997      1999
      1990      1988      1986      1994      1990      1988      1991      1993
      1990      1988      1991      1997      1991      1988      1986      1994
      1991      1997      1994      1996      1993      1991      1997      1994
      1993      1991      1997      1999      1996      1994      1997      1999
      2001      2006      2008      2010      2001      2006      2008      2011
      2001      2006      2014      2016      2001      2006      2014      2017
      2003      2001      2006      2008      2003      2001      2006      2014
      2004      2001      2006      2008      2004      2001      2006      2014
      2005      2001      2006      2008      2005      2001      2006      2014
      2006      2008      2011      2013      2006      2008      2011      2017
      2006      2014      2017      2011      2006      2014      2017      2019
      2008      2006      2014      2016      2008      2006      2014      2017
      2008      2011      2017      2014      2008      2011      2017      2019
      2010      2008      2006      2014      2010      2008      2011      2013
      2010      2008      2011      2017      2011      2008      2006      2014
      2011      2017      2014      2016      2013      2011      2017      2014
      2013      2011      2017      2019      2016      2014      2017      2019
      2021      2026      2028      2030      2021      2026      2028      2031
      2021      2026      2034      2036      2021      2026      2034      2037
      2023      2021      2026      2028      2023      2021      2026      2034
      2024      2021      2026      2028      2024      2021      2026      2034
      2025      2021      2026      2028      2025      2021      2026      2034
      2026      2028      2031      2033      2026      2028      2031      2037
      2026      2034      2037      2031      2026      2034      2037      2039
      2028      2026      2034      2036      2028      2026      2034      2037
      2028      2031      2037      2034      2028      2031      2037      2039
      2030      2028      2026      2034      2030      2028      2031      2033
      2030      2028      2031      2037      2031      2028      2026      2034
      2031      2037      2034      2036      2033      2031      2037      2034
      2033      2031      2037      2039      2036      2034      2037      2039
      2041      2046      2048      2050      2041      2046      2048      2051
      2041      2046      2054      2056      2041      2046      2054      2057
      2043      2041      2046      2048      2043      2041      2046      2054
      2044      2041      2046      2048      2044      2041      2046      2054
      2045      2041      2046      2048      2045      2041      2046      2054
      2046      2048      2051      2053      2046      2048      2051      2057
      2046      2054      2057      2051      2046      2054      2057      2059
      2048      2046      2054      2056      2048      2046      2054      2057
      2048      2051      2057      2054      2048      2051      2057      2059
      2050      2048      2046      2054      2050      2048      2051      2053
      2050      2048      2051      2057      2051      2048      2046      2054
      2051      2057      2054      2056      2053      2051      2057      2054
      2053      2051      2057      2059      2056      2054      2057      2059
      2061      2066      2068      2070      2061      2066      2068      2071
      2061      2066      2074      2076      2061      2066      2074      2077
      2063      2061      2066      2068      2063      2061      2066      2074
      2064      2061      2066      2068      2064      2061      2066      2074
      2065      2061      2066      2068      2065      2061      2066      2074
      2066      2068      2071      2073      2066      2068      2071      2077
      2066      2074      2077      2071      2066      2074      2077      2079
      2068      2066      2074      2076      2068      2066      2074      2077
      2068      2071      2077      2074      2068      2071      2077      2079
      2070      2068      2066      2074      2070      2068      2071      2073
      2070      2068      2071      2077      2071      2068      2066      2074
      2071      2077      2074      2076      2073      2071      2077      2074
      2073      2071      2077      2079      2076      2074      2077      2079
      2081      2086      2088      2090      2081      2086      2088      2091
      2081      2086      2094      2096      2081      2086      2094      2097
      2083      2081      2086      2088      2083      2081      2086      2094
      2084      2081      2086      2088      2084      2081      2086      2094
      2085      2081      2086      2088      2085      2081      2086      2094
      2086      2088      2091      2093      2086      2088      2091      2097
      2086      2094      2097      2091      2086      2094      2097      2099
      2088      2086      2094      2096      2088      2086      2094      2097
      2088      2091      2097      2094      2088      2091      2097      2099
      2090      2088      2086      2094      2090      2088      2091      2093
      2090      2088      2091      2097      2091      2088      2086      2094
      2091      2097      2094      2096      2093      2091      2097      2094
      2093      2091      2097      2099      2096      2094      2097      2099
      2101      2106      2108      2110      2101      2106      2108      2111
      2101      2106      2114      2116      2101      2106      2114      2117
      2103      2101      2106      2108      2103      2101      2106      2114
      2104      2101      2106      2108      2104      2101      2106      2114
      2105      2101      2106      2108      2105      2101      2106      2114
      2106      2108      2111      2113      2106      2108      2111      2117
      2106      2114      2117      2111      2106      2114      2117      2119
      2108      2106      2114      2116      2108      2106      2114      2117
      2108      2111      2117      2114      2108      2111      2117      2119
      2110      2108      2106      2114      2110      2108      2111      2113
      2110      2108      2111      2117      2111      2108      2106      2114
      2111      2117      2114      2116      2113      2111      2117      2114
      2113      2111      2117      2119      2116      2114      2117      2119
      2121      2126      2128      2130      2121      2126      2128      2131
      2121      2126      2134      2136      2121      2126      2134      2137
      2123      2121      2126      2128      2123      2121      2126      2134
      2124      2121      2126      2128      2124      2121      2126      2134
      2125      2121      2126      2128      2125      2121      2126      2134
      2126      2128      2131      2133      2126      2128      2131      2137
      2126      2134      2137      2131      2126      2134      2137      2139
      2128      2126      2134      2136      2128      2126      2134      2137
      2128      2131      2137      2134      2128      2131      2137      2139
      2130      2128      2126      2134      2130      2128      2131      2133
      2130      2128      2131      2137      2131      2128      2126      2134
      2131      2137      2134      2136      2133      2131      2137      2134
      2133      2131      2137      2139      2136      2134      2137      2139
      2141      2146      2148      2150      2141      2146      2148      2151
      2141      2146      2154      2156      2141      2146      2154      2157
      2143      2141      2146      2148      2143      2141      2146      2154
      2144      2141      2146      2148      2144      2141      2146      2154
      2145      2141      2146      2148      2145      2141      2146      2154
      2146      2148      2151      2153      2146      2148      2151      2157
      2146      2154      2157      2151      2146      2154      2157      2159
      2148      2146      2154      2156      2148      2146      2154      2157
      2148      2151      2157      2154      2148      2151      2157      2159
      2150      2148      2146      2154      2150      2148      2151      2153
      2150      2148      2151      2157      2151      2148      2146      2154
      2151      2157      2154      2156      2153      2151      2157      2154
      2153      2151      2157      2159      2156      2154      2157      2159
      2161      2166      2168      2170      2161      2166      2168      2171
      2161      2166      2174      2176      2161      2166      2174      2177
      2163      2161      2166      2168      2163      2161      2166      2174
      2164      2161      2166      2168      2164      2161      2166      2174
      2165      2161      2166      2168      2165      2161      2166      2174
      2166      2168      2171      2173      2166      2168      2171      2177
      2166      2174      2177      2171      2166      2174      2177      2179
      2168      2166      2174      2176      2168      2166      2174      2177
      2168      2171      2177      2174      2168      2171      2177      2179
      2170      2168      2166      2174      2170      2168      2171      2173
      2170      2168      2171      2177      2171      2168      2166      2174
      2171      2177      2174      2176      2173      2171      2177      2174
      2173      2171      2177      2179      2176      2174      2177      2179
      2181      2186      2188      2190      2181      2186      2188      2191
      2181      2186      2194      2196      2181      2186      2194      2197
      2183      2181      2186      2188      2183      2181      2186      2194
      2184      2181      2186      2188      2184      2181      2186      2194
      2185      2181      2186      2188      2185      2181      2186      2194
      2186      2188      2191      2193      2186      2188      2191      2197
      2186      2194      2197      2191      2186      2194      2197      2199
      2188      2186      2194      2196      2188      2186      2194      2197
      2188      2191      2197      2194      2188      2191      2197      2199
      2190      2188      2186      2194      2190      2188      2191      2193
      2190      2188      2191      2197      2191      2188      2186      2194
      2191      2197      2194      2196      2193      2191      2197      2194
      2193      2191      2197      2199      2196      2194      2197      2199
      2201      2206      2208      2210      2201      2206      2208      2211
      2201      2206      2214      2216      2201      2206      2214      2217
      2203      2201      2206      2208      2203      2201      2206      2214
      2204      2201      2206      2208      2204      2201      2206      2214
      2205      2201      2206      2208      2205      2201      2206      2214
      2206      2208      2211      2213      2206      2208      2211      2217
      2206      2214      2217      2211      2206      2214      2217      2219
      2208      2206      2214      2216      2208      2206      2214      2217
      2208      2211      2217      2214      2208      2211      2217      2219
      2210      2208      2206      2214      2210      2208      2211      2213
      2210      2208      2211      2217      2211      2208      2206      2214
      2211      2217      2214      2216      2213      2211      2217      2214
      2213      2211      2217      2219      2216      2214      2217      2219
      2221      2226      2228      2230      2221      2226      2228      2231
      2221      2226      2234      2236      2221      2226      2234      2237
      2223      2221      2226      2228      2223      2221      2226      2234
      2224      2221      2226      2228      2224      2221      2226      2234
      2225      2221      2226      2228      2225      2221      2226      2234
      2226      2228      2231      2233      2226      2228      2231      2237
      2226      2234      2237      2231      2226      2234      2237      2239
      2228      2226      2234      2236      2228      2226      2234      2237
      2228      2231      2237      2234      2228      2231      2237      2239
      2230      2228      2226      2234      2230      2228      2231      2233
      2230      2228      2231      2237      2231      2228      2226      2234
      2231      2237      2234      2236      2233      2231      2237      2234
      2233      2231      2237      2239      2236      2234      2237      2239
      2241      2246      2248      2250      2241      2246      2248      2251
      2241      2246      2254      2256      2241      2246      2254      2257
      2243      2241      2246      2248      2243      2241      2246      2254
      2244      2241      2246      2248      2244      2241      2246      2254
      2245      2241      2246      2248      2245      2241      2246      2254
      2246      2248      2251      2253      2246      2248      2251      2257
      2246      2254      2257      2251      2246      2254      2257      2259
      2248      2246      2254      2256      2248      2246      2254      2257
      2248      2251      2257      2254      2248      2251      2257      2259
      2250      2248      2246      2254      2250      2248      2251      2253
      2250      2248      2251      2257      2251      2248      2246      2254
      2251      2257      2254      2256      2253      2251      2257      2254
      2253      2251      2257      2259      2256      2254      2257      2259
      2261      2266      2268      2270      2261      2266      2268      2271
      2261      2266      2274      2276      2261      2266      2274      2277
      2263      2261      2266      2268      2263      2261      2266      2274
      2264      2261      2266      2268      2264      2261      2266      2274
      2265      2261      2266      2268      2265      2261      2266      2274
      2266      2268      2271      2273      2266      2268      2271      2277
      2266      2274      2277      2271      2266      2274      2277      2279
      2268      2266      2274      2276      2268      2266      2274      2277
      2268      2271      2277      2274      2268      2271      2277      2279
      2270      2268      2266      2274      2270      2268      2271      2273
      2270      2268      2271      2277      2271      2268      2266      2274
      2271      2277      2274      2276      2273      2271      2277      2274
      2273      2271      2277      2279      2276      2274      2277      2279
      2281      2286      2288      2290      2281      2286      2288      2291
      2281      2286      2294      2296      2281      2286      2294      2297
      2283      2281      2286      2288      2283      2281      2286      2294
      2284      2281      2286      2288      2284      2281      2286      2294
      2285      2281      2286      2288      2285      2281      2286      2294
      2286      2288      2291      2293      2286      2288      2291      2297
      2286      2294      2297      2291      2286      2294      2297      2299
      2288      2286      2294      2296      2288      2286      2294      2297
      2288      2291      2297      2294      2288      2291      2297      2299
      2290      2288      2286      2294      2290      2288      2291      2293
      2290      2288      2291      2297      2291      2288      2286      2294
      2291      2297      2294      2296      2293      2291      2297      2294
      2293      2291      2297      2299      2296      2294      2297      2299
      2301      2306      2308      2310      2301      2306      2308      2311
      2301      2306      2314      2316      2301      2306      2314      2317
      2303      2301      2306      2308      2303      2301      2306      2314
      2304      2301      2306      2308      2304      2301      2306      2314
      2305      2301      2306      2308      2305      2301      2306      2314
      2306      2308      2311      2313      2306      2308      2311      2317
      2306      2314      2317      2311      2306      2314      2317      2319
      2308      2306      2314      2316      2308      2306      2314      2317
      2308      2311      2317      2314      2308      2311      2317      2319
      2310      2308      2306      2314      2310      2308      2311      2313
      2310      2308      2311      2317      2311      2308      2306      2314
      2311      2317      2314      2316      2313      2311      2317      2314
      2313      2311      2317      2319      2316      2314      2317      2319
      2321      2326      2328      2330      2321      2326      2328      2331
      2321      2326      2334      2336      2321      2326      2334      2337
      2323      2321      2326      2328      2323      2321      2326      2334
      2324      2321      2326      2328      2324      2321      2326      2334
      2325      2321      2326      2328      2325      2321      2326      2334
      2326      2328      2331      2333      2326      2328      2331      2337
      2326      2334      2337      2331      2326      2334      2337      2339
      2328      2326      2334      2336      2328      2326      2334      2337
      2328      2331      2337      2334      2328      2331      2337      2339
      2330      2328      2326      2334      2330      2328      2331      2333
      2330      2328      2331      2337      2331      2328      2326      2334
      2331      2337      2334      2336      2333      2331      2337      2334
      2333      2331      2337      2339      2336      2334      2337      2339
      2341      2346      2348      2350      2341      2346      2348      2351
      2341      2346      2354      2356      2341      2346      2354      2357
      2343      2341      2346      2348      2343      2341      2346      2354
      2344      2341      2346      2348      2344      2341      2346      2354
      2345      2341      2346      2348      2345      2341      2346      2354
      2346      2348      2351      2353      2346      2348      2351      2357
      2346      2354      2357      2351      2346      2354      2357      2359
      2348      2346      2354      2356      2348      2346      2354      2357
      2348      2351      2357      2354      2348      2351      2357      2359
      2350      2348      2346      2354      2350      2348      2351      2353
      2350      2348      2351      2357      2351      2348      2346      2354
      2351      2357      2354      2356      2353      2351      2357      2354
      2353      2351      2357      2359      2356      2354      2357      2359
      2361      2366      2368      2370      2361      2366      2368      2371
      2361      2366      2374      2376      2361      2366      2374      2377
      2363      2361      2366      2368      2363      2361      2366      2374
      2364      2361      2366      2368      2364      2361      2366      2374
      2365      2361      2366      2368      2365      2361      2366      2374
      2366      2368      2371      2373      2366      2368      2371      2377
      2366      2374      2377      2371      2366      2374      2377      2379
      2368      2366      2374      2376      2368      2366      2374      2377
      2368      2371      2377      2374      2368      2371      2377      2379
      2370      2368      2366      2374      2370      2368      2371      2373
      2370      2368      2371      2377      2371      2368      2366      2374
      2371      2377      2374      2376      2373      2371      2377      2374
      2373      2371      2377      2379      2376      2374      2377      2379
      2381      2386      2388      2390      2381      2386      2388      2391
      2381      2386      2394      2396      2381      2386      2394      2397
      2383      2381      2386      2388      2383      2381      2386      2394
      2384      2381      2386      2388      2384      2381      2386      2394
      2385      2381      2386      2388      2385      2381      2386      2394
      2386      2388      2391      2393      2386      2388      2391      2397
      2386      2394      2397      2391      2386      2394      2397      2399
      2388      2386      2394      2396      2388      2386      2394      2397
      2388      2391      2397      2394      2388      2391      2397      2399
      2390      2388      2386      2394      2390      2388      2391      2393
      2390      2388      2391      2397      2391      2388      2386      2394
      2391      2397      2394      2396      2393      2391      2397      2394
      2393      2391      2397      2399      2396      2394      2397      2399
      2401      2406      2408      2410      2401      2406      2408      2411
      2401      2406      2414      2416      2401      2406      2414      2417
      2403      2401      2406      2408      2403      2401      2406      2414
      2404      2401      2406      2408      2404      2401      2406      2414
      2405      2401      2406      2408      2405      2401      2406      2414
      2406      2408      2411      2413      2406      2408      2411      2417
      2406      2414      2417      2411      2406      2414      2417      2419
      2408      2406      2414      2416      2408      2406      2414      2417
      2408      2411      2417      2414      2408      2411      2417      2419
      2410      2408      2406      2414      2410      2408      2411      2413
      2410      2408      2411      2417      2411      2408      2406      2414
      2411      2417      2414      2416      2413      2411      2417      2414
      2413      2411      2417      2419      2416      2414      2417      2419
      2421      2426      2428      2430      2421      2426      2428      2431
      2421      2426      2434      2436      2421      2426      2434      2437
      2423      2421      2426      2428      2423      2421      2426      2434
      2424      2421      2426      2428      2424      2421      2426      2434
      2425      2421      2426      2428      2425      2421      2426      2434
      2426      2428      2431      2433      2426      2428      2431      2437
      2426      2434      2437      2431      2426      2434      2437      2439
      2428      2426      2434      2436      2428      2426      2434      2437
      2428      2431      2437      2434      2428      2431      2437      2439
      2430      2428      2426      2434      2430      2428      2431      2433
      2430      2428      2431      2437      2431      2428      2426      2434
      2431      2437      2434      2436      2433      2431      2437      2434
      2433      2431      2437      2439      2436      2434      2437      2439
      2441      2446      2448      2450      2441      2446      2448      2451
      2441      2446      2454      2456      2441      2446      2454      2457
      2443      2441      2446      2448      2443      2441      2446      2454
      2444      2441      2446      2448      2444      2441      2446      2454
      2445      2441      2446      2448      2445      2441      2446      2454
      2446      2448      2451      2453      2446      2448      2451      2457
      2446      2454      2457      2451      2446      2454      2457      2459
      2448      2446      2454      2456      2448      2446      2454      2457
      2448      2451      2457      2454      2448      2451      2457      2459
      2450      2448      2446      2454      2450      2448      2451      2453
      2450      2448      2451      2457      2451      2448      2446      2454
      2451      2457      2454      2456      2453      2451      2457      2454
      2453      2451      2457      2459      2456      2454      2457      2459
      2461      2466      2468      2470      2461      2466      2468      2471
      2461      2466      2474      2476      2461      2466      2474      2477
      2463      2461      2466      2468      2463      2461      2466      2474
      2464      2461      2466      2468      2464      2461      2466      2474
      2465      2461      2466      2468      2465      2461      2466      2474
      2466      2468      2471      2473      2466      2468      2471      2477
      2466      2474      2477      2471      2466      2474      2477      2479
      2468      2466      2474      2476      2468      2466      2474      2477
      2468      2471      2477      2474      2468      2471      2477      2479
      2470      2468      2466      2474      2470      2468      2471      2473
      2470      2468      2471      2477      2471      2468      2466      2474
      2471      2477      2474      2476      2473      2471      2477      2474
      2473      2471      2477      2479      2476      2474      2477      2479
      2481      2486      2488      2490      2481      2486      2488      2491
      2481      2486      2494      2496      2481      2486      2494      2497
      2483      2481      2486      2488      2483      2481      2486      2494
      2484      2481      2486      2488      2484      2481      2486      2494
      2485      2481      2486      2488      2485      2481      2486      2494
      2486      2488      2491      2493      2486      2488      2491      2497
      2486      2494      2497      2491      2486      2494      2497      2499
      2488      2486      2494      2496      2488      2486      2494      2497
      2488      2491      2497      2494      2488      2491      2497      2499
      2490      2488      2486      2494      2490      2488      2491      2493
      2490      2488      2491      2497      2491      2488      2486      2494
      2491      2497      2494      2496      2493      2491      2497      2494
      2493      2491      2497      2499      2496      2494      2497      2499
      2501      2506      2508      2510      2501      2506      2508      2511
      2501      2506      2514      2516      2501      2506      2514      2517
      2503      2501      2506      2508      2503      2501      2506      2514
      2504      2501      2506      2508      2504      2501      2506      2514
      2505      2501      2506      2508      2505      2501      2506      2514
      2506      2508      2511      2513      2506      2508      2511      2517
      2506      2514      2517      2511      2506      2514      2517      2519
      2508      2506      2514      2516      2508      2506      2514      2517
      2508      2511      2517      2514      2508      2511      2517      2519
      2510      2508      2506      2514      2510      2508      2511      2513
      2510      2508      2511      2517      2511      2508      2506      2514
      2511      2517      2514      2516      2513      2511      2517      2514
      2513      2511      2517      2519      2516      2514      2517      2519
      2521      2526      2528      2530      2521      2526      2528      2531
      2521      2526      2534      2536      2521      2526      2534      2537
      2523      2521      2526      2528      2523      2521      2526      2534
      2524      2521      2526      2528      2524      2521      2526      2534
      2525      2521      2526      2528      2525      2521      2526      2534
      2526      2528      2531      2533      2526      2528      2531      2537
      2526      2534      2537      2531      2526      2534      2537      2539
      2528      2526      2534      2536      2528      2526      2534      2537
      2528      2531      2537      2534      2528      2531      2537      2539
      2530      2528      2526      2534      2530      2528      2531      2533
      2530      2528      2531      2537      2531      2528      2526      2534
      2531      2537      2534      2536      2533      2531      2537      2534
      2533      2531      2537      2539      2536      2534      2537      2539
      2541      2546      2548      2550      2541      2546      2548      2551
      2541      2546      2554      2556      2541      2546      2554      2557
      2543      2541      2546      2548      2543      2541      2546      2554
      2544      2541      2546      2548      2544      2541      2546      2554
      2545      2541      2546      2548      2545      2541      2546      2554
      2546      2548      2551      2553      2546      2548      2551      2557
      2546      2554      2557      2551      2546      2554      2557      2559
      2548      2546      2554      2556      2548      2546      2554      2557
      2548      2551      2557      2554      2548      2551      2557      2559
      2550      2548      2546      2554      2550      2548      2551      2553
      2550      2548      2551      2557      2551      2548      2546      2554
      2551      2557      2554      2556      2553      2551      2557      2554
      2553      2551      2557      2559      2556      2554      2557      2559
      2561      2566      2568      2570      2561      2566      2568      2571
      2561      2566      2574      2576      2561      2566      2574      2577
      2563      2561      2566      2568      2563      2561      2566      2574
      2564      2561      2566      2568      2564      2561      2566      2574
      2565      2561      2566      2568      2565      2561      2566      2574
      2566      2568      2571      2573      2566      2568      2571      2577
      2566      2574      2577      2571      2566      2574      2577      2579
      2568      2566      2574      2576      2568      2566      2574      2577
      2568      2571      2577      2574      2568      2571      2577      2579
      2570      2568      2566      2574      2570      2568      2571      2573
      2570      2568      2571      2577      2571      2568      2566      2574
      2571      2577      2574      2576      2573      2571      2577      2574
      2573      2571      2577      2579      2576      2574      2577      2579
      2581      2586      2588      2590      2581      2586      2588      2591
      2581      2586      2594      2596      2581      2586      2594      2597
      2583      2581      2586      2588      2583      2581      2586      2594
      2584      2581      2586      2588      2584      2581      2586      2594
      2585      2581      2586      2588      2585      2581      2586      2594
      2586      2588      2591      2593      2586      2588      2591      2597
      2586      2594      2597      2591      2586      2594      2597      2599
      2588      2586      2594      2596      2588      2586      2594      2597
      2588      2591      2597      2594      2588      2591      2597      2599
      2590      2588      2586      2594      2590      2588      2591      2593
      2590      2588      2591      2597      2591      2588      2586      2594
      2591      2597      2594      2596      2593      2591      2597      2594
      2593      2591      2597      2599      2596      2594      2597      2599
      2601      2606      2608      2610      2601      2606      2608      2611
      2601      2606      2614      2616      2601      2606      2614      2617
      2603      2601      2606      2608      2603      2601      2606      2614
      2604      2601      2606      2608      2604      2601      2606      2614
      2605      2601      2606      2608      2605      2601      2606      2614
      2606      2608      2611      2613      2606      2608      2611      2617
      2606      2614      2617      2611      2606      2614      2617      2619
      2608      2606      2614      2616      2608      2606      2614      2617
      2608      2611      2617      2614      2608      2611      2617      2619
      2610      2608      2606      2614      2610      2608      2611      2613
      2610      2608      2611      2617      2611      2608      2606      2614
      2611      2617      2614      2616      2613      2611      2617      2614
      2613      2611      2617      2619      2616      2614      2617      2619
      2621      2626      2628      2630      2621      2626      2628      2631
      2621      2626      2634      2636      2621      2626      2634      2637
      2623      2621      2626      2628      2623      2621      2626      2634
      2624      2621      2626      2628      2624      2621      2626      2634
      2625      2621      2626      2628      2625      2621      2626      2634
      2626      2628      2631      2633      2626      2628      2631      2637
      2626      2634      2637      2631      2626      2634      2637      2639
      2628      2626      2634      2636      2628      2626      2634      2637
      2628      2631      2637      2634      2628      2631      2637      2639
      2630      2628      2626      2634      2630      2628      2631      2633
      2630      2628      2631      2637      2631      2628      2626      2634
      2631      2637      2634      2636      2633      2631      2637      2634
      2633      2631      2637      2639      2636      2634      2637      2639
      2641      2646      2648      2650      2641      2646      2648      2651
      2641      2646      2654      2656      2641      2646      2654      2657
      2643      2641      2646      2648      2643      2641      2646      2654
      2644      2641      2646      2648      2644      2641      2646      2654
      2645      2641      2646      2648      2645      2641      2646      2654
      2646      2648      2651      2653      2646      2648      2651      2657
      2646      2654      2657      2651      2646      2654      2657      2659
      2648      2646      2654      2656      2648      2646      2654      2657
      2648      2651      2657      2654      2648      2651      2657      2659
      2650      2648      2646      2654      2650      2648      2651      2653
      2650      2648      2651      2657      2651      2648      2646      2654
      2651      2657      2654      2656      2653      2651      2657      2654
      2653      2651      2657      2659      2656      2654      2657      2659
      2661      2666      2668      2670      2661      2666      2668      2671
      2661      2666      2674      2676      2661      2666      2674      2677
      2663      2661      2666      2668      2663      2661      2666      2674
      2664      2661      2666      2668      2664      2661      2666      2674
      2665      2661      2666      2668      2665      2661      2666      2674
      2666      2668      2671      2673      2666      2668      2671      2677
      2666      2674      2677      2671      2666      2674      2677      2679
      2668      2666      2674      2676      2668      2666      2674      2677
      2668      2671      2677      2674      2668      2671      2677      2679
      2670      2668      2666      2674      2670      2668      2671      2673
      2670      2668      2671      2677      2671      2668      2666      2674
      2671      2677      2674      2676      2673      2671      2677      2674
      2673      2671      2677      2679      2676      2674      2677      2679
      2681      2686      2688      2690      2681      2686      2688      2691
      2681      2686      2694      2696      2681      2686      2694      2697
      2683      2681      2686      2688      2683      2681      2686      2694
      2684      2681      2686      2688      2684      2681      2686      2694
      2685      2681      2686      2688      2685      2681      2686      2694
      2686      2688      2691      2693      2686      2688      2691      2697
      2686      2694      2697      2691      2686      2694      2697      2699
      2688      2686      2694      2696      2688      2686      2694      2697
      2688      2691      2697      2694      2688      2691      2697      2699
      2690      2688      2686      2694      2690      2688      2691      2693
      2690      2688      2691      2697      2691      2688      2686      2694
      2691      2697      2694      2696      2693      2691      2697      2694
      2693      2691      2697      2699      2696      2694      2697      2699
      2701      2706      2708      2710      2701      2706      2708      2711
      2701      2706      2714      2716      2701      2706      2714      2717
      2703      2701      2706      2708      2703      2701      2706      2714
      2704      2701      2706      2708      2704      2701      2706      2714
      2705      2701      2706      2708      2705      2701      2706      2714
      2706      2708      2711      2713      2706      2708      2711      2717
      2706      2714      2717      2711      2706      2714      2717      2719
      2708      2706      2714      2716      2708      2706      2714      2717
      2708      2711      2717      2714      2708      2711      2717      2719
      2710      2708      2706      2714      2710      2708      2711      2713
      2710      2708      2711      2717      2711      2708      2706      2714
      2711      2717      2714      2716      2713      2711      2717      2714
      2713      2711      2717      2719      2716      2714      2717      2719
      2721      2726      2728      2730      2721      2726      2728      2731
      2721      2726      2734      2736      2721      2726      2734      2737
      2723      2721      2726      2728      2723      2721      2726      2734
      2724      2721      2726      2728      2724      2721      2726      2734
      2725      2721      2726      2728      2725      2721      2726      2734
      2726      2728      2731      2733      2726      2728      2731      2737
      2726      2734      2737      2731      2726      2734      2737      2739
      2728      2726      2734      2736      2728      2726      2734      2737
      2728      2731      2737      2734      2728      2731      2737      2739
      2730      2728      2726      2734      2730      2728      2731      2733
      2730      2728      2731      2737      2731      2728      2726      2734
      2731      2737      2734      2736      2733      2731      2737      2734
      2733      2731      2737      2739      2736      2734      2737      2739
      2741      2746      2748      2750      2741      2746      2748      2751
      2741      2746      2754      2756      2741      2746      2754      2757
      2743      2741      2746      2748      2743      2741      2746      2754
      2744      2741      2746      2748      2744      2741      2746      2754
      2745      2741      2746      2748      2745      2741      2746      2754
      2746      2748      2751      2753      2746      2748      2751      2757
      2746      2754      2757      2751      2746      2754      2757      2759
      2748      2746      2754      2756      2748      2746      2754      2757
      2748      2751      2757      2754      2748      2751      2757      2759
      2750      2748      2746      2754      2750      2748      2751      2753
      2750      2748      2751      2757      2751      2748      2746      2754
      2751      2757      2754      2756      2753      2751      2757      2754
      2753      2751      2757      2759      2756      2754      2757      2759
      2761      2766      2768      2770      2761      2766      2768      2771
      2761      2766      2774      2776      2761      2766      2774      2777
      2763      2761      2766      2768      2763      2761      2766      2774
      2764      2761      2766      2768      2764      2761      2766      2774
      2765      2761      2766      2768      2765      2761      2766      2774
      2766      2768      2771      2773      2766      2768      2771      2777
      2766      2774      2777      2771      2766      2774      2777      2779
      2768      2766      2774      2776      2768      2766      2774      2777
      2768      2771      2777      2774      2768      2771      2777      2779
      2770      2768      2766      2774      2770      2768      2771      2773
      2770      2768      2771      2777      2771      2768      2766      2774
      2771      2777      2774      2776      2773      2771      2777      2774
      2773      2771      2777      2779      2776      2774      2777      2779
      2781      2786      2788      2790      2781      2786      2788      2791
      2781      2786      2794      2796      2781      2786      2794      2797
      2783      2781      2786      2788      2783      2781      2786      2794
      2784      2781      2786      2788      2784      2781      2786      2794
      2785      2781      2786      2788      2785      2781      2786      2794
      2786      2788      2791      2793      2786      2788      2791      2797
      2786      2794      2797      2791      2786      2794      2797      2799
      2788      2786      2794      2796      2788      2786      2794      2797
      2788      2791      2797      2794      2788      2791      2797      2799
      2790      2788      2786      2794      2790      2788      2791      2793
      2790      2788      2791      2797      2791      2788      2786      2794
      2791      2797      2794      2796      2793      2791      2797      2794
      2793      2791      2797      2799      2796      2794      2797      2799
      2801      2806      2808      2810      2801      2806      2808      2811
      2801      2806      2814      2816      2801      2806      2814      2817
      2803      2801      2806      2808      2803      2801      2806      2814
      2804      2801      2806      2808      2804      2801      2806      2814
      2805      2801      2806      2808      2805      2801      2806      2814
      2806      2808      2811      2813      2806      2808      2811      2817
      2806      2814      2817      2811      2806      2814      2817      2819
      2808      2806      2814      2816      2808      2806      2814      2817
      2808      2811      2817      2814      2808      2811      2817      2819
      2810      2808      2806      2814      2810      2808      2811      2813
      2810      2808      2811      2817      2811      2808      2806      2814
      2811      2817      2814      2816      2813      2811      2817      2814
      2813      2811      2817      2819      2816      2814      2817      2819
      2821      2826      2828      2830      2821      2826      2828      2831
      2821      2826      2834      2836      2821      2826      2834      2837
      2823      2821      2826      2828      2823      2821      2826      2834
      2824      2821      2826      2828      2824      2821      2826      2834
      2825      2821      2826      2828      2825      2821      2826      2834
      2826      2828      2831      2833      2826      2828      2831      2837
      2826      2834      2837      2831      2826      2834      2837      2839
      2828      2826      2834      2836      2828      2826      2834      2837
      2828      2831      2837      2834      2828      2831      2837      2839
      2830      2828      2826      2834      2830      2828      2831      2833
      2830      2828      2831      2837      2831      2828      2826      2834
      2831      2837      2834      2836      2833      2831      2837      2834
      2833      2831      2837      2839      2836      2834      2837      2839
      2841      2846      2848      2850      2841      2846      2848      2851
      2841      2846      2854      2856      2841      2846      2854      2857
      2843      2841      2846      2848      2843      2841      2846      2854
      2844      2841      2846      2848      2844      2841      2846      2854
      2845      2841      2846      2848      2845      2841      2846      2854
      2846      2848      2851      2853      2846      2848      2851      2857
      2846      2854      2857      2851      2846      2854      2857      2859
      2848      2846      2854      2856      2848      2846      2854      2857
      2848      2851      2857      2854      2848      2851      2857      2859
      2850      2848      2846      2854      2850      2848      2851      2853
      2850      2848      2851      2857      2851      2848      2846      2854
      2851      2857      2854      2856      2853      2851      2857      2854
      2853      2851      2857      2859      2856      2854      2857      2859
      2861      2866      2868      2870      2861      2866      2868      2871
      2861      2866      2874      2876      2861      2866      2874      2877
      2863      2861      2866      2868      2863      2861      2866      2874
      2864      2861      2866      2868      2864      2861      2866      2874
      2865      2861      2866      2868      2865      2861      2866      2874
      2866      2868      2871      2873      2866      2868      2871      2877
      2866      2874      2877      2871      2866      2874      2877      2879
      2868      2866      2874      2876      2868      2866      2874      2877
      2868      2871      2877      2874      2868      2871      2877      2879
      2870      2868      2866      2874      2870      2868      2871      2873
      2870      2868      2871      2877      2871      2868      2866      2874
      2871      2877      2874      2876      2873      2871      2877      2874
      2873      2871      2877      2879      2876      2874      2877      2879
      2881      2886      2888      2890      2881      2886      2888      2891
      2881      2886      2894      2896      2881      2886      2894      2897
      2883      2881      2886      2888      2883      2881      2886      2894
      2884      2881      2886      2888      2884      2881      2886      2894
      2885      2881      2886      2888      2885      2881      2886      2894
      2886      2888      2891      2893      2886      2888      2891      2897
      2886      2894      2897      2891      2886      2894      2897      2899
      2888      2886      2894      2896      2888      2886      2894      2897
      2888      2891      2897      2894      2888      2891      2897      2899
      2890      2888      2886      2894      2890      2888      2891      2893
      2890      2888      2891      2897      2891      2888      2886      2894
      2891      2897      2894      2896      2893      2891      2897      2894
      2893      2891      2897      2899      2896      2894      2897      2899
      2901      2906      2908      2910      2901      2906      2908      2911
      2901      2906      2914      2916      2901      2906      2914      2917
      2903      2901      2906      2908      2903      2901      2906      2914
      2904      2901      2906      2908      2904      2901      2906      2914
      2905      2901      2906      2908      2905      2901      2906      2914
      2906      2908      2911      2913      2906      2908      2911      2917
      2906      2914      2917      2911      2906      2914      2917      2919
      2908      2906      2914      2916      2908      2906      2914      2917
      2908      2911      2917      2914      2908      2911      2917      2919
      2910      2908      2906      2914      2910      2908      2911      2913
      2910      2908      2911      2917      2911      2908      2906      2914
      2911      2917      2914      2916      2913      2911      2917      2914
      2913      2911      2917      2919      2916      2914      2917      2919
      2921      2926      2928      2930      2921      2926      2928      2931
      2921      2926      2934      2936      2921      2926      2934      2937
      2923      2921      2926      2928      2923      2921      2926      2934
      2924      2921      2926      2928      2924      2921      2926      2934
      2925      2921      2926      2928      2925      2921      2926      2934
      2926      2928      2931      2933      2926      2928      2931      2937
      2926      2934      2937      2931      2926      2934      2937      2939
      2928      2926      2934      2936      2928      2926      2934      2937
      2928      2931      2937      2934      2928      2931      2937      2939
      2930      2928      2926      2934      2930      2928      2931      2933
      2930      2928      2931      2937      2931      2928      2926      2934
      2931      2937      2934      2936      2933      2931      2937      2934
      2933      2931      2937      2939      2936      2934      2937      2939
      2943      2941      2950      2952      2945      2943      2941      2948
      2945      2943      2941      2950      2946      2943      2941      2948
      2946      2943      2941      2950      2947      2943      2941      2948
      2947      2943      2941      2950      2948      2941      2950      2952
      2959      2957      2966      2968      2961      2959      2957      2964
      2961      2959      2957      2966      2962      2959      2957      2964
      2962      2959      2957      2966      2963      2959      2957      2964
      2963      2959      2957      2966      2964      2957      2966      2968
      2975      2973      2982      2984      2977      2975      2973      2980
      2977      2975      2973      2982      2978      2975      2973      2980
      2978      2975      2973      2982      2979      2975      2973      2980
      2979      2975      2973      2982      2980      2973      2982      2984
      2991      2989      2998      3000      2993      2991      2989      2996
      2993      2991      2989      2998      2994      2991      2989      2996
      2994      2991      2989      2998      2995      2991      2989      2996
      2995      2991      2989      2998      2996      2989      2998      3000
      3007      3005      3014      3016      3009      3007      3005      3012
      3009      3007      3005      3014      3010      3007      3005      3012
      3010      3007      3005      3014      3011      3007      3005      3012
      3011      3007      3005      3014      3012      3005      3014      3016
      3023      3021      3030      3032      3025      3023      3021      3028
      3025      3023      3021      3030      3026      3023      3021      3028
      3026      3023      3021      3030      3027      3023      3021      3028
      3027      3023      3021      3030      3028      3021      3030      3032
      3039      3037      3046      3048      3041      3039      3037      3044
      3041      3039      3037      3046      3042      3039      3037      3044
      3042      3039      3037      3046      3043      3039      3037      3044
      3043      3039      3037      3046      3044      3037      3046      3048
      3055      3053      3062      3064      3057      3055      3053      3060
      3057      3055      3053      3062      3058      3055      3053      3060
      3058      3055      3053      3062      3059      3055      3053      3060
      3059      3055      3053      3062      3060      3053      3062      3064
      3071      3069      3078      3080      3073      3071      3069      3076
      3073      3071      3069      3078      3074      3071      3069      3076
      3074      3071      3069      3078      3075      3071      3069      3076
      3075      3071      3069      3078      3076      3069      3078      3080
      3087      3085      3094      3096      3089      3087      3085      3092
      3089      3087      3085      3094      3090      3087      3085      3092
      3090      3087      3085      3094      3091      3087      3085      3092
      3091      3087      3085      3094      3092      3085      3094      3096
      3103      3101      3110      3112      3105      3103      3101      3108
      3105      3103      3101      3110      3106      3103      3101      3108
      3106      3103      3101      3110      3107      3103      3101      3108
      3107      3103      3101      3110      3108      3101      3110      3112
      3119      3117      3126      3128      3121      3119      3117      3124
      3121      3119      3117      3126      3122      3119      3117      3124
      3122      3119      3117      3126      3123      3119      3117      3124
      3123      3119      3117      3126      3124      3117      3126      3128
      3135      3133      3142      3144      3137      3135      3133      3140
      3137      3135      3133      3142      3138      3135      3133      3140
      3138      3135      3133      3142      3139      3135      3133      3140
      3139      3135      3133      3142      3140      3133      3142      3144
      3151      3149      3158      3160      3153      3151      3149      3156
      3153      3151      3149      3158      3154      3151      3149      3156
      3154      3151      3149      3158      3155      3151      3149      3156
      3155      3151      3149      3158      3156      3149      3158      3160
      3167      3165      3174      3176      3169      3167      3165      3172
      3169      3167      3165      3174      3170      3167      3165      3172
      3170      3167      3165      3174      3171      3167      3165      3172
      3171      3167      3165      3174      3172      3165      3174      3176
      3183      3181      3190      3192      3185      3183      3181      3188
      3185      3183      3181      3190      3186      3183      3181      3188
      3186      3183      3181      3190      3187      3183      3181      3188
      3187      3183      3181      3190      3188      3181      3190      3192
      3199      3197      3206      3208      3201      3199      3197      3204
      3201      3199      3197      3206      3202      3199      3197      3204
      3202      3199      3197      3206      3203      3199      3197      3204
      3203      3199      3197      3206      3204      3197      3206      3208
      3215      3213      3222      3224      3217      3215      3213      3220
      3217      3215      3213      3222      3218      3215      3213      3220
      3218      3215      3213      3222      3219      3215      3213      3220
      3219      3215      3213      3222      3220      3213      3222      3224
      3231      3229      3238      3240      3233      3231      3229      3236
      3233      3231      3229      3238      3234      3231      3229      3236
      3234      3231      3229      3238      3235      3231      3229      3236
      3235      3231      3229      3238      3236      3229      3238      3240
      3247      3245      3254      3256      3249      3247      3245      3252
      3249      3247      3245      3254      3250      3247      3245      3252
      3250      3247      3245      3254      3251      3247      3245      3252
      3251      3247      3245      3254      3252      3245      3254      3256
      3263      3261      3270      3272      3265      3263      3261      3268
      3265      3263      3261      3270      3266      3263      3261      3268
      3266      3263      3261      3270      3267      3263      3261      3268
      3267      3263      3261      3270      3268      3261      3270      3272
      3279      3277      3286      3288      3281      3279      3277      3284
      3281      3279      3277      3286      3282      3279      3277      3284
      3282      3279      3277      3286      3283      3279      3277      3284
      3283      3279      3277      3286      3284      3277      3286      3288
      3295      3293      3302      3304      3297      3295      3293      3300
      3297      3295      3293      3302      3298      3295      3293      3300
      3298      3295      3293      3302      3299      3295      3293      3300
      3299      3295      3293      3302      3300      3293      3302      3304
      3311      3309      3318      3320      3313      3311      3309      3316
      3313      3311      3309      3318      3314      3311      3309      3316
      3314      3311      3309      3318      3315      3311      3309      3316
      3315      3311      3309      3318      3316      3309      3318      3320
      3327      3325      3334      3336      3329      3327      3325      3332
      3329      3327      3325      3334      3330      3327      3325      3332
      3330      3327      3325      3334      3331      3327      3325      3332
      3331      3327      3325      3334      3332      3325      3334      3336
      3343      3341      3350      3352      3345      3343      3341      3348
      3345      3343      3341      3350      3346      3343      3341      3348
      3346      3343      3341      3350      3347      3343      3341      3348
      3347      3343      3341      3350      3348      3341      3350      3352
      3359      3357      3366      3368      3361      3359      3357      3364
      3361      3359      3357      3366      3362      3359      3357      3364
      3362      3359      3357      3366      3363      3359      3357      3364
      3363      3359      3357      3366      3364      3357      3366      3368
      3375      3373      3382      3384      3377      3375      3373      3380
      3377      3375      3373      3382      3378      3375      3373      3380
      3378      3375      3373      3382      3379      3375      3373      3380
      3379      3375      3373      3382      3380      3373      3382      3384
      3391      3389      3398      3400      3393      3391      3389      3396
      3393      3391      3389      3398      3394      3391      3389      3396
      3394      3391      3389      3398      3395      3391      3389      3396
      3395      3391      3389      3398      3396      3389      3398      3400
      3407      3405      3414      3416      3409      3407      3405      3412
      3409      3407      3405      3414      3410      3407      3405      3412
      3410      3407      3405      3414      3411      3407      3405      3412
      3411      3407      3405      3414      3412      3405      3414      3416
      3423      3421      3430      3432      3425      3423      3421      3428
      3425      3423      3421      3430      3426      3423      3421      3428
      3426      3423      3421      3430      3427      3423      3421      3428
      3427      3423      3421      3430      3428      3421      3430      3432
      3439      3437      3446      3448      3441      3439      3437      3444
      3441      3439      3437      3446      3442      3439      3437      3444
      3442      3439      3437      3446      3443      3439      3437      3444
      3443      3439      3437      3446      3444      3437      3446      3448
      3455      3453      3462      3464      3457      3455      3453      3460
      3457      3455      3453      3462      3458      3455      3453      3460
      3458      3455      3453      3462      3459      3455      3453      3460
      3459      3455      3453      3462      3460      3453      3462      3464
      3471      3469      3478      3480      3473      3471      3469      3476
      3473      3471      3469      3478      3474      3471      3469      3476
      3474      3471      3469      3478      3475      3471      3469      3476
      3475      3471      3469      3478      3476      3469      3478      3480
      3487      3485      3494      3496      3489      3487      3485      3492
      3489      3487      3485      3494      3490      3487      3485      3492
      3490      3487      3485      3494      3491      3487      3485      3492
      3491      3487      3485      3494      3492      3485      3494      3496
      3503      3501      3510      3512      3505      3503      3501      3508
      3505      3503      3501      3510      3506      3503      3501      3508
      3506      3503      3501      3510      3507      3503      3501      3508
      3507      3503      3501      3510      3508      3501      3510      3512
      3519      3517      3526      3528      3521      3519      3517      3524
      3521      3519      3517      3526      3522      3519      3517      3524
      3522      3519      3517      3526      3523      3519      3517      3524
      3523      3519      3517      3526      3524      3517      3526      3528
      3535      3533      3542      3544      3537      3535      3533      3540
      3537      3535      3533      3542      3538      3535      3533      3540
      3538      3535      3533      3542      3539      3535      3533      3540
      3539      3535      3533      3542      3540      3533      3542      3544
      3551      3549      3558      3560      3553      3551      3549      3556
      3553      3551      3549      3558      3554      3551      3549      3556
      3554      3551      3549      3558      3555      3551      3549      3556
      3555      3551      3549      3558      3556      3549      3558      3560
      3567      3565      3574      3576      3569      3567      3565      3572
      3569      3567      3565      3574      3570      3567      3565      3572
      3570      3567      3565      3574      3571      3567      3565      3572
      3571      3567      3565      3574      3572      3565      3574      3576
      3583      3581      3590      3592      3585      3583      3581      3588
      3585      3583      3581      3590      3586      3583      3581      3588
      3586      3583      3581      3590      3587      3583      3581      3588
      3587      3583      3581      3590      3588      3581      3590      3592
      3599      3597      3606      3608      3601      3599      3597      3604
      3601      3599      3597      3606      3602      3599      3597      3604
      3602      3599      3597      3606      3603      3599      3597      3604
      3603      3599      3597      3606      3604      3597      3606      3608
      3615      3613      3622      3624      3617      3615      3613      3620
      3617      3615      3613      3622      3618      3615      3613      3620
      3618      3615      3613      3622      3619      3615      3613      3620
      3619      3615      3613      3622      3620      3613      3622      3624
      3631      3629      3638      3640      3633      3631      3629      3636
      3633      3631      3629      3638      3634      3631      3629      3636
      3634      3631      3629      3638      3635      3631      3629      3636
      3635      3631      3629      3638      3636      3629      3638      3640
      3647      3645      3654      3656      3649      3647      3645      3652
      3649      3647      3645      3654      3650      3647      3645      3652
      3650      3647      3645      3654      3651      3647      3645      3652
      3651      3647      3645      3654      3652      3645      3654      3656
      3663      3661      3670      3672      3665      3663      3661      3668
      3665      3663      3661      3670      3666      3663      3661      3668
      3666      3663      3661      3670      3667      3663      3661      3668
      3667      3663      3661      3670      3668      3661      3670      3672
      3679      3677      3686      3688      3681      3679      3677      3684
      3681      3679      3677      3686      3682      3679      3677      3684
      3682      3679      3677      3686      3683      3679      3677      3684
      3683      3679      3677      3686      3684      3677      3686      3688
      3695      3693      3702      3704      3697      3695      3693      3700
      3697      3695      3693      3702      3698      3695      3693      3700
      3698      3695      3693      3702      3699      3695      3693      3700
      3699      3695      3693      3702      3700      3693      3702      3704
      3711      3709      3718      3720      3713      3711      3709      3716
      3713      3711      3709      3718      3714      3711      3709      3716
      3714      3711      3709      3718      3715      3711      3709      3716
      3715      3711      3709      3718      3716      3709      3718      3720
      3727      3725      3734      3736      3729      3727      3725      3732
      3729      3727      3725      3734      3730      3727      3725      3732
      3730      3727      3725      3734      3731      3727      3725      3732
      3731      3727      3725      3734      3732      3725      3734      3736
      3743      3741      3750      3752      3745      3743      3741      3748
      3745      3743      3741      3750      3746      3743      3741      3748
      3746      3743      3741      3750      3747      3743      3741      3748
      3747      3743      3741      3750      3748      3741      3750      3752
      3759      3757      3766      3768      3761      3759      3757      3764
      3761      3759      3757      3766      3762      3759      3757      3764
      3762      3759      3757      3766      3763      3759      3757      3764
      3763      3759      3757      3766      3764      3757      3766      3768
      3775      3773      3782      3784      3777      3775      3773      3780
      3777      3775      3773      3782      3778      3775      3773      3780
      3778      3775      3773      3782      3779      3775      3773      3780
      3779      3775      3773      3782      3780      3773      3782      3784
      3791      3789      3798      3800      3793      3791      3789      3796
      3793      3791      3789      3798      3794      3791      3789      3796
      3794      3791      3789      3798      3795      3791      3789      3796
      3795      3791      3789      3798      3796      3789      3798      3800
      3807      3805      3814      3816      3809      3807      3805      3812
      3809      3807      3805      3814      3810      3807      3805      3812
      3810      3807      3805      3814      3811      3807      3805      3812
      3811      3807      3805      3814      3812      3805      3814      3816
      3823      3821      3830      3832      3825      3823      3821      3828
      3825      3823      3821      3830      3826      3823      3821      3828
      3826      3823      3821      3830      3827      3823      3821      3828
      3827      3823      3821      3830      3828      3821      3830      3832
      3839      3837      3846      3848      3841      3839      3837      3844
      3841      3839      3837      3846      3842      3839      3837      3844
      3842      3839      3837      3846      3843      3839      3837      3844
      3843      3839      3837      3846      3844      3837      3846      3848
      3855      3853      3862      3864      3857      3855      3853      3860
      3857      3855      3853      3862      3858      3855      3853      3860
      3858      3855      3853      3862      3859      3855      3853      3860
      3859      3855      3853      3862      3860      3853      3862      3864
      3871      3869      3878      3880      3873      3871      3869      3876
      3873      3871      3869      3878      3874      3871      3869      3876
      3874      3871      3869      3878      3875      3871      3869      3876
      3875      3871      3869      3878      3876      3869      3878      3880
      3887      3885      3894      3896      3889      3887      3885      3892
      3889      3887      3885      3894      3890      3887      3885      3892
      3890      3887      3885      3894      3891      3887      3885      3892
      3891      3887      3885      3894      3892      3885      3894      3896
      3903      3901      3910      3912      3905      3903      3901      3908
      3905      3903      3901      3910      3906      3903      3901      3908
      3906      3903      3901      3910      3907      3903      3901      3908
      3907      3903      3901      3910      3908      3901      3910      3912
      3919      3917      3926      3928      3921      3919      3917      3924
      3921      3919      3917      3926      3922      3919      3917      3924
      3922      3919      3917      3926      3923      3919      3917      3924
      3923      3919      3917      3926      3924      3917      3926      3928
      3935      3933      3942      3944      3937      3935      3933      3940
      3937      3935      3933      3942      3938      3935      3933      3940
      3938      3935      3933      3942      3939      3935      3933      3940
      3939      3935      3933      3942      3940      3933      3942      3944
      3951      3949      3958      3960      3953      3951      3949      3956
      3953      3951      3949      3958      3954      3951      3949      3956
      3954      3951      3949      3958      3955      3951      3949      3956
      3955      3951      3949      3958      3956      3949      3958      3960
      3967      3965      3974      3976      3969      3967      3965      3972
      3969      3967      3965      3974      3970      3967      3965      3972
      3970      3967      3965      3974      3971      3967      3965      3972
      3971      3967      3965      3974      3972      3965      3974      3976
      3983      3981      3990      3992      3985      3983      3981      3988
      3985      3983      3981      3990      3986      3983      3981      3988
      3986      3983      3981      3990      3987      3983      3981      3988
      3987      3983      3981      3990      3988      3981      3990      3992
      3999      3997      4006      4008      4001      3999      3997      4004
      4001      3999      3997      4006      4002      3999      3997      4004
      4002      3999      3997      4006      4003      3999      3997      4004
      4003      3999      3997      4006      4004      3997      4006      4008
      4015      4013      4022      4024      4017      4015      4013      4020
      4017      4015      4013      4022      4018      4015      4013      4020
      4018      4015      4013      4022      4019      4015      4013      4020
      4019      4015      4013      4022      4020      4013      4022      4024
      4031      4029      4038      4040      4033      4031      4029      4036
      4033      4031      4029      4038      4034      4031      4029      4036
      4034      4031      4029      4038      4035      4031      4029      4036
      4035      4031      4029      4038      4036      4029      4038      4040
      4047      4045      4054      4056      4049      4047      4045      4052
      4049      4047      4045      4054      4050      4047      4045      4052
      4050      4047      4045      4054      4051      4047      4045      4052
      4051      4047      4045      4054      4052      4045      4054      4056
      4063      4061      4070      4072      4065      4063      4061      4068
      4065      4063      4061      4070      4066      4063      4061      4068
      4066      4063      4061      4070      4067      4063      4061      4068
      4067      4063      4061      4070      4068      4061      4070      4072
      4079      4077      4086      4088      4081      4079      4077      4084
      4081      4079      4077      4086      4082      4079      4077      4084
      4082      4079      4077      4086      4083      4079      4077      4084
      4083      4079      4077      4086      4084      4077      4086      4088
      4095      4093      4102      4104      4097      4095      4093      4100
      4097      4095      4093      4102      4098      4095      4093      4100
      4098      4095      4093      4102      4099      4095      4093      4100
      4099      4095      4093      4102      4100      4093      4102      4104
      4111      4109      4118      4120      4113      4111      4109      4116
      4113      4111      4109      4118      4114      4111      4109      4116
      4114      4111      4109      4118      4115      4111      4109      4116
      4115      4111      4109      4118      4116      4109      4118      4120
      4127      4125      4134      4136      4129      4127      4125      4132
      4129      4127      4125      4134      4130      4127      4125      4132
      4130      4127      4125      4134      4131      4127      4125      4132
      4131      4127      4125      4134      4132      4125      4134      4136
      4143      4141      4150      4152      4145      4143      4141      4148
      4145      4143      4141      4150      4146      4143      4141      4148
      4146      4143      4141      4150      4147      4143      4141      4148
      4147      4143      4141      4150      4148      4141      4150      4152
      4159      4157      4166      4168      4161      4159      4157      4164
      4161      4159      4157      4166      4162      4159      4157      4164
      4162      4159      4157      4166      4163      4159      4157      4164
      4163      4159      4157      4166      4164      4157      4166      4168
      4175      4173      4182      4184      4177      4175      4173      4180
      4177      4175      4173      4182      4178      4175      4173      4180
      4178      4175      4173      4182      4179      4175      4173      4180
      4179      4175      4173      4182      4180      4173      4182      4184
      4191      4189      4198      4200      4193      4191      4189      4196
      4193      4191      4189      4198      4194      4191      4189      4196
      4194      4191      4189      4198      4195      4191      4189      4196
      4195      4191      4189      4198      4196      4189      4198      4200
      4207      4205      4214      4216      4209      4207      4205      4212
      4209      4207      4205      4214      4210      4207      4205      4212
      4210      4207      4205      4214      4211      4207      4205      4212
      4211      4207      4205      4214      4212      4205      4214      4216
      4223      4221      4230      4232      4225      4223      4221      4228
      4225      4223      4221      4230      4226      4223      4221      4228
      4226      4223      4221      4230      4227      4223      4221      4228
      4227      4223      4221      4230      4228      4221      4230      4232
      4239      4237      4246      4248      4241      4239      4237      4244
      4241      4239      4237      4246      4242      4239      4237      4244
      4242      4239      4237      4246      4243      4239      4237      4244
      4243      4239      4237      4246      4244      4237      4246      4248
      4255      4253      4262      4264      4257      4255      4253      4260
      4257      4255      4253      4262      4258      4255      4253      4260
      4258      4255      4253      4262      4259      4255      4253      4260
      4259      4255      4253      4262      4260      4253      4262      4264
      4271      4269      4278      4280      4273      4271      4269      4276
      4273      4271      4269      4278      4274      4271      4269      4276
      4274      4271      4269      4278      4275      4271      4269      4276
      4275      4271      4269      4278      4276      4269      4278      4280
      4287      4285      4294      4296      4289      4287      4285      4292
      4289      4287      4285      4294      4290      4287      4285      4292
      4290      4287      4285      4294      4291      4287      4285      4292
      4291      4287      4285      4294      4292      4285      4294      4296
      4303      4301      4310      4312      4305      4303      4301      4308
      4305      4303      4301      4310      4306      4303      4301      4308
      4306      4303      4301      4310      4307      4303      4301      4308
      4307      4303      4301      4310      4308      4301      4310      4312
      4319      4317      4326      4328      4321      4319      4317      4324
      4321      4319      4317      4326      4322      4319      4317      4324
      4322      4319      4317      4326      4323      4319      4317      4324
      4323      4319      4317      4326      4324      4317      4326      4328
      4335      4333      4342      4344      4337      4335      4333      4340
      4337      4335      4333      4342      4338      4335      4333      4340
      4338      4335      4333      4342      4339      4335      4333      4340
      4339      4335      4333      4342      4340      4333      4342      4344
      4351      4349      4358      4360      4353      4351      4349      4356
      4353      4351      4349      4358      4354      4351      4349      4356
      4354      4351      4349      4358      4355      4351      4349      4356
      4355      4351      4349      4358      4356      4349      4358      4360
      4367      4365      4374      4376      4369      4367      4365      4372
      4369      4367      4365      4374      4370      4367      4365      4372
      4370      4367      4365      4374      4371      4367      4365      4372
      4371      4367      4365      4374      4372      4365      4374      4376
      4383      4381      4390      4392      4385      4383      4381      4388
      4385      4383      4381      4390      4386      4383      4381      4388
      4386      4383      4381      4390      4387      4383      4381      4388
      4387      4383      4381      4390      4388      4381      4390      4392
      4399      4397      4406      4408      4401      4399      4397      4404
      4401      4399      4397      4406      4402      4399      4397      4404
      4402      4399      4397      4406      4403      4399      4397      4404
      4403      4399      4397      4406      4404      4397      4406      4408
      4415      4413      4422      4424      4417      4415      4413      4420
      4417      4415      4413      4422      4418      4415      4413      4420
      4418      4415      4413      4422      4419      4415      4413      4420
      4419      4415      4413      4422      4420      4413      4422      4424
      4429      4434      4436      4438      4429      4434      4436      4439
      4429      4434      4442      4444      4429      4434      4442      4445
      4431      4429      4434      4436      4431      4429      4434      4442
      4432      4429      4434      4436      4432      4429      4434      4442
      4433      4429      4434      4436      4433      4429      4434      4442
      4434      4436      4439      4441      4434      4436      4439      4445
      4434      4442      4445      4439      4434      4442      4445      4447
      4436      4434      4442      4444      4436      4434      4442      4445
      4436      4439      4445      4442      4436      4439      4445      4447
      4438      4436      4434      4442      4438      4436      4439      4441
      4438      4436      4439      4445      4439      4436      4434      4442
      4439      4445      4442      4444      4441      4439      4445      4442
      4441      4439      4445      4447      4444      4442      4445      4447
      4449      4454      4456      4458      4449      4454      4456      4459
      4449      4454      4462      4464      4449      4454      4462      4465
      4451      4449      4454      4456      4451      4449      4454      4462
      4452      4449      4454      4456      4452      4449      4454      4462
      4453      4449      4454      4456      4453      4449      4454      4462
      4454      4456      4459      4461      4454      4456      4459      4465
      4454      4462      4465      4459      4454      4462      4465      4467
      4456      4454      4462      4464      4456      4454      4462      4465
      4456      4459      4465      4462      4456      4459      4465      4467
      4458      4456      4454      4462      4458      4456      4459      4461
      4458      4456      4459      4465      4459      4456      4454      4462
      4459      4465      4462      4464      4461      4459      4465      4462
      4461      4459      4465      4467      4464      4462      4465      4467
      4469      4474      4476      4478      4469      4474      4476      4479
      4469      4474      4482      4484      4469      4474      4482      4485
      4471      4469      4474      4476      4471      4469      4474      4482
      4472      4469      4474      4476      4472      4469      4474      4482
      4473      4469      4474      4476      4473      4469      4474      4482
      4474      4476      4479      4481      4474      4476      4479      4485
      4474      4482      4485      4479      4474      4482      4485      4487
      4476      4474      4482      4484      4476      4474      4482      4485
      4476      4479      4485      4482      4476      4479      4485      4487
      4478      4476      4474      4482      4478      4476      4479      4481
      4478      4476      4479      4485      4479      4476      4474      4482
      4479      4485      4482      4484      4481      4479      4485      4482
      4481      4479      4485      4487      4484      4482      4485      4487
      4489      4494      4496      4498      4489      4494      4496      4499
      4489      4494      4502      4504      4489      4494      4502      4505
      4491      4489      4494      4496      4491      4489      4494      4502
      4492      4489      4494      4496      4492      4489      4494      4502
      4493      4489      4494      4496      4493      4489      4494      4502
      4494      4496      4499      4501      4494      4496      4499      4505
      4494      4502      4505      4499      4494      4502      4505      4507
      4496      4494      4502      4504      4496      4494      4502      4505
      4496      4499      4505      4502      4496      4499      4505      4507
      4498      4496      4494      4502      4498      4496      4499      4501
      4498      4496      4499      4505      4499      4496      4494      4502
      4499      4505      4502      4504      4501      4499      4505      4502
      4501      4499      4505      4507      4504      4502      4505      4507
      4509      4514      4516      4518      4509      4514      4516      4519
      4509      4514      4522      4524      4509      4514      4522      4525
      4511      4509      4514      4516      4511      4509      4514      4522
      4512      4509      4514      4516      4512      4509      4514      4522
      4513      4509      4514      4516      4513      4509      4514      4522
      4514      4516      4519      4521      4514      4516      4519      4525
      4514      4522      4525      4519      4514      4522      4525      4527
      4516      4514      4522      4524      4516      4514      4522      4525
      4516      4519      4525      4522      4516      4519      4525      4527
      4518      4516      4514      4522      4518      4516      4519      4521
      4518      4516      4519      4525      4519      4516      4514      4522
      4519      4525      4522      4524      4521      4519      4525      4522
      4521      4519      4525      4527      4524      4522      4525      4527
      4529      4534      4536      4538      4529      4534      4536      4539
      4529      4534      4542      4544      4529      4534      4542      4545
      4531      4529      4534      4536      4531      4529      4534      4542
      4532      4529      4534      4536      4532      4529      4534      4542
      4533      4529      4534      4536      4533      4529      4534      4542
      4534      4536      4539      4541      4534      4536      4539      4545
      4534      4542      4545      4539      4534      4542      4545      4547
      4536      4534      4542      4544      4536      4534      4542      4545
      4536      4539      4545      4542      4536      4539      4545      4547
      4538      4536      4534      4542      4538      4536      4539      4541
      4538      4536      4539      4545      4539      4536      4534      4542
      4539      4545      4542      4544      4541      4539      4545      4542
      4541      4539      4545      4547      4544      4542      4545      4547
      4549      4554      4556      4558      4549      4554      4556      4559
      4549      4554      4562      4564      4549      4554      4562      4565
      4551      4549      4554      4556      4551      4549      4554      4562
      4552      4549      4554      4556      4552      4549      4554      4562
      4553      4549      4554      4556      4553      4549      4554      4562
      4554      4556      4559      4561      4554      4556      4559      4565
      4554      4562      4565      4559      4554      4562      4565      4567
      4556      4554      4562      4564      4556      4554      4562      4565
      4556      4559      4565      4562      4556      4559      4565      4567
      4558      4556      4554      4562      4558      4556      4559      4561
      4558      4556      4559      4565      4559      4556      4554      4562
      4559      4565      4562      4564      4561      4559      4565      4562
      4561      4559      4565      4567      4564      4562      4565      4567
      4569      4574      4576      4578      4569      4574      4576      4579
      4569      4574      4582      4584      4569      4574      4582      4585
      4571      4569      4574      4576      4571      4569      4574      4582
      4572      4569      4574      4576      4572      4569      4574      4582
      4573      4569      4574      4576      4573      4569      4574      4582
      4574      4576      4579      4581      4574      4576      4579      4585
      4574      4582      4585      4579      4574      4582      4585      4587
      4576      4574      4582      4584      4576      4574      4582      4585
      4576      4579      4585      4582      4576      4579      4585      4587
      4578      4576      4574      4582      4578      4576      4579      4581
      4578      4576      4579      4585      4579      4576      4574      4582
      4579      4585      4582      4584      4581      4579      4585      4582
      4581      4579      4585      4587      4584      4582      4585      4587
      4589      4594      4596      4598      4589      4594      4596      4599
      4589      4594      4602      4604      4589      4594      4602      4605
      4591      4589      4594      4596      4591      4589      4594      4602
      4592      4589      4594      4596      4592      4589      4594      4602
      4593      4589      4594      4596      4593      4589      4594      4602
      4594      4596      4599      4601      4594      4596      4599      4605
      4594      4602      4605      4599      4594      4602      4605      4607
      4596      4594      4602      4604      4596      4594      4602      4605
      4596      4599      4605      4602      4596      4599      4605      4607
      4598      4596      4594      4602      4598      4596      4599      4601
      4598      4596      4599      4605      4599      4596      4594      4602
      4599      4605      4602      4604      4601      4599      4605      4602
      4601      4599      4605      4607      4604      4602      4605      4607
      4609      4614      4616      4618      4609      4614      4616      4619
      4609      4614      4622      4624      4609      4614      4622      4625
      4611      4609      4614      4616      4611      4609      4614      4622
      4612      4609      4614      4616      4612      4609      4614      4622
      4613      4609      4614      4616      4613      4609      4614      4622
      4614      4616      4619      4621      4614      4616      4619      4625
      4614      4622      4625      4619      4614      4622      4625      4627
      4616      4614      4622      4624      4616      4614      4622      4625
      4616      4619      4625      4622      4616      4619      4625      4627
      4618      4616      4614      4622      4618      4616      4619      4621
      4618      4616      4619      4625      4619      4616      4614      4622
      4619      4625      4622      4624      4621      4619      4625      4622
      4621      4619      4625      4627      4624      4622      4625      4627
      4629      4634      4636      4638      4629      4634      4636      4639
      4629      4634      4642      4644      4629      4634      4642      4645
      4631      4629      4634      4636      4631      4629      4634      4642
      4632      4629      4634      4636      4632      4629      4634      4642
      4633      4629      4634      4636      4633      4629      4634      4642
      4634      4636      4639      4641      4634      4636      4639      4645
      4634      4642      4645      4639      4634      4642      4645      4647
      4636      4634      4642      4644      4636      4634      4642      4645
      4636      4639      4645      4642      4636      4639      4645      4647
      4638      4636      4634      4642      4638      4636      4639      4641
      4638      4636      4639      4645      4639      4636      4634      4642
      4639      4645      4642      4644      4641      4639      4645      4642
      4641      4639      4645      4647      4644      4642      4645      4647
      4649      4654      4656      4658      4649      4654      4656      4659
      4649      4654      4662      4664      4649      4654      4662      4665
      4651      4649      4654      4656      4651      4649      4654      4662
      4652      4649      4654      4656      4652      4649      4654      4662
      4653      4649      4654      4656      4653      4649      4654      4662
      4654      4656      4659      4661      4654      4656      4659      4665
      4654      4662      4665      4659      4654      4662      4665      4667
      4656      4654      4662      4664      4656      4654      4662      4665
      4656      4659      4665      4662      4656      4659      4665      4667
      4658      4656      4654      4662      4658      4656      4659      4661
      4658      4656      4659      4665      4659      4656      4654      4662
      4659      4665      4662      4664      4661      4659      4665      4662
      4661      4659      4665      4667      4664      4662      4665      4667
      4669      4674      4676      4678      4669      4674      4676      4679
      4669      4674      4682      4684      4669      4674      4682      4685
      4671      4669      4674      4676      4671      4669      4674      4682
      4672      4669      4674      4676      4672      4669      4674      4682
      4673      4669      4674      4676      4673      4669      4674      4682
      4674      4676      4679      4681      4674      4676      4679      4685
      4674      4682      4685      4679      4674      4682      4685      4687
      4676      4674      4682      4684      4676      4674      4682      4685
      4676      4679      4685      4682      4676      4679      4685      4687
      4678      4676      4674      4682      4678      4676      4679      4681
      4678      4676      4679      4685      4679      4676      4674      4682
      4679      4685      4682      4684      4681      4679      4685      4682
      4681      4679      4685      4687      4684      4682      4685      4687
      4689      4694      4696      4698      4689      4694      4696      4699
      4689      4694      4702      4704      4689      4694      4702      4705
      4691      4689      4694      4696      4691      4689      4694      4702
      4692      4689      4694      4696      4692      4689      4694      4702
      4693      4689      4694      4696      4693      4689      4694      4702
      4694      4696      4699      4701      4694      4696      4699      4705
      4694      4702      4705      4699      4694      4702      4705      4707
      4696      4694      4702      4704      4696      4694      4702      4705
      4696      4699      4705      4702      4696      4699      4705      4707
      4698      4696      4694      4702      4698      4696      4699      4701
      4698      4696      4699      4705      4699      4696      4694      4702
      4699      4705      4702      4704      4701      4699      4705      4702
      4701      4699      4705      4707      4704      4702      4705      4707
      4709      4714      4716      4718      4709      4714      4716      4719
      4709      4714      4722      4724      4709      4714      4722      4725
      4711      4709      4714      4716      4711      4709      4714      4722
      4712      4709      4714      4716      4712      4709      4714      4722
      4713      4709      4714      4716      4713      4709      4714      4722
      4714      4716      4719      4721      4714      4716      4719      4725
      4714      4722      4725      4719      4714      4722      4725      4727
      4716      4714      4722      4724      4716      4714      4722      4725
      4716      4719      4725      4722      4716      4719      4725      4727
      4718      4716      4714      4722      4718      4716      4719      4721
      4718      4716      4719      4725      4719      4716      4714      4722
      4719      4725      4722      4724      4721      4719      4725      4722
      4721      4719      4725      4727      4724      4722      4725      4727
      4729      4734      4736      4738      4729      4734      4736      4739
      4729      4734      4742      4744      4729      4734      4742      4745
      4731      4729      4734      4736      4731      4729      4734      4742
      4732      4729      4734      4736      4732      4729      4734      4742
      4733      4729      4734      4736      4733      4729      4734      4742
      4734      4736      4739      4741      4734      4736      4739      4745
      4734      4742      4745      4739      4734      4742      4745      4747
      4736      4734      4742      4744      4736      4734      4742      4745
      4736      4739      4745      4742      4736      4739      4745      4747
      4738      4736      4734      4742      4738      4736      4739      4741
      4738      4736      4739      4745      4739      4736      4734      4742
      4739      4745      4742      4744      4741      4739      4745      4742
      4741      4739      4745      4747      4744      4742      4745      4747
      4749      4754      4756      4758      4749      4754      4756      4759
      4749      4754      4762      4764      4749      4754      4762      4765
      4751      4749      4754      4756      4751      4749      4754      4762
      4752      4749      4754      4756      4752      4749      4754      4762
      4753      4749      4754      4756      4753      4749      4754      4762
      4754      4756      4759      4761      4754      4756      4759      4765
      4754      4762      4765      4759      4754      4762      4765      4767
      4756      4754      4762      4764      4756      4754      4762      4765
      4756      4759      4765      4762      4756      4759      4765      4767
      4758      4756      4754      4762      4758      4756      4759      4761
      4758      4756      4759      4765      4759      4756      4754      4762
      4759      4765      4762      4764      4761      4759      4765      4762
      4761      4759      4765      4767      4764      4762      4765      4767
      4769      4774      4776      4778      4769      4774      4776      4779
      4769      4774      4782      4784      4769      4774      4782      4785
      4771      4769      4774      4776      4771      4769      4774      4782
      4772      4769      4774      4776      4772      4769      4774      4782
      4773      4769      4774      4776      4773      4769      4774      4782
      4774      4776      4779      4781      4774      4776      4779      4785
      4774      4782      4785      4779      4774      4782      4785      4787
      4776      4774      4782      4784      4776      4774      4782      4785
      4776      4779      4785      4782      4776      4779      4785      4787
      4778      4776      4774      4782      4778      4776      4779      4781
      4778      4776      4779      4785      4779      4776      4774      4782
      4779      4785      4782      4784      4781      4779      4785      4782
      4781      4779      4785      4787      4784      4782      4785      4787
      4789      4794      4796      4798      4789      4794      4796      4799
      4789      4794      4802      4804      4789      4794      4802      4805
      4791      4789      4794      4796      4791      4789      4794      4802
      4792      4789      4794      4796      4792      4789      4794      4802
      4793      4789      4794      4796      4793      4789      4794      4802
      4794      4796      4799      4801      4794      4796      4799      4805
      4794      4802      4805      4799      4794      4802      4805      4807
      4796      4794      4802      4804      4796      4794      4802      4805
      4796      4799      4805      4802      4796      4799      4805      4807
      4798      4796      4794      4802      4798      4796      4799      4801
      4798      4796      4799      4805      4799      4796      4794      4802
      4799      4805      4802      4804      4801      4799      4805      4802
      4801      4799      4805      4807      4804      4802      4805      4807
      4809      4814      4816      4818      4809      4814      4816      4819
      4809      4814      4822      4824      4809      4814      4822      4825
      4811      4809      4814      4816      4811      4809      4814      4822
      4812      4809      4814      4816      4812      4809      4814      4822
      4813      4809      4814      4816      4813      4809      4814      4822
      4814      4816      4819      4821      4814      4816      4819      4825
      4814      4822      4825      4819      4814      4822      4825      4827
      4816      4814      4822      4824      4816      4814      4822      4825
      4816      4819      4825      4822      4816      4819      4825      4827
      4818      4816      4814      4822      4818      4816      4819      4821
      4818      4816      4819      4825      4819      4816      4814      4822
      4819      4825      4822      4824      4821      4819      4825      4822
      4821      4819      4825      4827      4824      4822      4825      4827
      4829      4834      4836      4838      4829      4834      4836      4839
      4829      4834      4842      4844      4829      4834      4842      4845
      4831      4829      4834      4836      4831      4829      4834      4842
      4832      4829      4834      4836      4832      4829      4834      4842
      4833      4829      4834      4836      4833      4829      4834      4842
      4834      4836      4839      4841      4834      4836      4839      4845
      4834      4842      4845      4839      4834      4842      4845      4847
      4836      4834      4842      4844      4836      4834      4842      4845
      4836      4839      4845      4842      4836      4839      4845      4847
      4838      4836      4834      4842      4838      4836      4839      4841
      4838      4836      4839      4845      4839      4836      4834      4842
      4839      4845      4842      4844      4841      4839      4845      4842
      4841      4839      4845      4847      4844      4842      4845      4847
      4849      4854      4856      4858      4849      4854      4856      4859
      4849      4854      4862      4864      4849      4854      4862      4865
      4851      4849      4854      4856      4851      4849      4854      4862
      4852      4849      4854      4856      4852      4849      4854      4862
      4853      4849      4854      4856      4853      4849      4854      4862
      4854      4856      4859      4861      4854      4856      4859      4865
      4854      4862      4865      4859      4854      4862      4865      4867
      4856      4854      4862      4864      4856      4854      4862      4865
      4856      4859      4865      4862      4856      4859      4865      4867
      4858      4856      4854      4862      4858      4856      4859      4861
      4858      4856      4859      4865      4859      4856      4854      4862
      4859      4865      4862      4864      4861      4859      4865      4862
      4861      4859      4865      4867      4864      4862      4865      4867
      4869      4874      4876      4878      4869      4874      4876      4879
      4869      4874      4882      4884      4869      4874      4882      4885
      4871      4869      4874      4876      4871      4869      4874      4882
      4872      4869      4874      4876      4872      4869      4874      4882
      4873      4869      4874      4876      4873      4869      4874      4882
      4874      4876      4879      4881      4874      4876      4879      4885
      4874      4882      4885      4879      4874      4882      4885      4887
      4876      4874      4882      4884      4876      4874      4882      4885
      4876      4879      4885      4882      4876      4879      4885      4887
      4878      4876      4874      4882      4878      4876      4879      4881
      4878      4876      4879      4885      4879      4876      4874      4882
      4879      4885      4882      4884      4881      4879      4885      4882
      4881      4879      4885      4887      4884      4882      4885      4887
      4889      4894      4896      4898      4889      4894      4896      4899
      4889      4894      4902      4904      4889      4894      4902      4905
      4891      4889      4894      4896      4891      4889      4894      4902
      4892      4889      4894      4896      4892      4889      4894      4902
      4893      4889      4894      4896      4893      4889      4894      4902
      4894      4896      4899      4901      4894      4896      4899      4905
      4894      4902      4905      4899      4894      4902      4905      4907
      4896      4894      4902      4904      4896      4894      4902      4905
      4896      4899      4905      4902      4896      4899      4905      4907
      4898      4896      4894      4902      4898      4896      4899      4901
      4898      4896      4899      4905      4899      4896      4894      4902
      4899      4905      4902      4904      4901      4899      4905      4902
      4901      4899      4905      4907      4904      4902      4905      4907
      4909      4914      4916      4918      4909      4914      4916      4919
      4909      4914      4922      4924      4909      4914      4922      4925
      4911      4909      4914      4916      4911      4909      4914      4922
      4912      4909      4914      4916      4912      4909      4914      4922
      4913      4909      4914      4916      4913      4909      4914      4922
      4914      4916      4919      4921      4914      4916      4919      4925
      4914      4922      4925      4919      4914      4922      4925      4927
      4916      4914      4922      4924      4916      4914      4922      4925
      4916      4919      4925      4922      4916      4919      4925      4927
      4918      4916      4914      4922      4918      4916      4919      4921
      4918      4916      4919      4925      4919      4916      4914      4922
      4919      4925      4922      4924      4921      4919      4925      4922
      4921      4919      4925      4927      4924      4922      4925      4927
      4929      4934      4936      4938      4929      4934      4936      4939
      4929      4934      4942      4944      4929      4934      4942      4945
      4931      4929      4934      4936      4931      4929      4934      4942
      4932      4929      4934      4936      4932      4929      4934      4942
      4933      4929      4934      4936      4933      4929      4934      4942
      4934      4936      4939      4941      4934      4936      4939      4945
      4934      4942      4945      4939      4934      4942      4945      4947
      4936      4934      4942      4944      4936      4934      4942      4945
      4936      4939      4945      4942      4936      4939      4945      4947
      4938      4936      4934      4942      4938      4936      4939      4941
      4938      4936      4939      4945      4939      4936      4934      4942
      4939      4945      4942      4944      4941      4939      4945      4942
      4941      4939      4945      4947      4944      4942      4945      4947
      4949      4954      4956      4958      4949      4954      4956      4959
      4949      4954      4962      4964      4949      4954      4962      4965
      4951      4949      4954      4956      4951      4949      4954      4962
      4952      4949      4954      4956      4952      4949      4954      4962
      4953      4949      4954      4956      4953      4949      4954      4962
      4954      4956      4959      4961      4954      4956      4959      4965
      4954      4962      4965      4959      4954      4962      4965      4967
      4956      4954      4962      4964      4956      4954      4962      4965
      4956      4959      4965      4962      4956      4959      4965      4967
      4958      4956      4954      4962      4958      4956      4959      4961
      4958      4956      4959      4965      4959      4956      4954      4962
      4959      4965      4962      4964      4961      4959      4965      4962
      4961      4959      4965      4967      4964      4962      4965      4967
      4969      4974      4976      4978      4969      4974      4976      4979
      4969      4974      4982      4984      4969      4974      4982      4985
      4971      4969      4974      4976      4971      4969      4974      4982
      4972      4969      4974      4976      4972      4969      4974      4982
      4973      4969      4974      4976      4973      4969      4974      4982
      4974      4976      4979      4981      4974      4976      4979      4985
      4974      4982      4985      4979      4974      4982      4985      4987
      4976      4974      4982      4984      4976      4974      4982      4985
      4976      4979      4985      4982      4976      4979      4985      4987
      4978      4976      4974      4982      4978      4976      4979      4981
      4978      4976      4979      4985      4979      4976      4974      4982
      4979      4985      4982      4984      4981      4979      4985      4982
      4981      4979      4985      4987      4984      4982      4985      4987
      4989      4994      4996      4998      4989      4994      4996      4999
      4989      4994      5002      5004      4989      4994      5002      5005
      4991      4989      4994      4996      4991      4989      4994      5002
      4992      4989      4994      4996      4992      4989      4994      5002
      4993      4989      4994      4996      4993      4989      4994      5002
      4994      4996      4999      5001      4994      4996      4999      5005
      4994      5002      5005      4999      4994      5002      5005      5007
      4996      4994      5002      5004      4996      4994      5002      5005
      4996      4999      5005      5002      4996      4999      5005      5007
      4998      4996      4994      5002      4998      4996      4999      5001
      4998      4996      4999      5005      4999      4996      4994      5002
      4999      5005      5002      5004      5001      4999      5005      5002
      5001      4999      5005      5007      5004      5002      5005      5007
      5009      5014      5016      5018      5009      5014      5016      5019
      5009      5014      5022      5024      5009      5014      5022      5025
      5011      5009      5014      5016      5011      5009      5014      5022
      5012      5009      5014      5016      5012      5009      5014      5022
      5013      5009      5014      5016      5013      5009      5014      5022
      5014      5016      5019      5021      5014      5016      5019      5025
      5014      5022      5025      5019      5014      5022      5025      5027
      5016      5014      5022      5024      5016      5014      5022      5025
      5016      5019      5025      5022      5016      5019      5025      5027
      5018      5016      5014      5022      5018      5016      5019      5021
      5018      5016      5019      5025      5019      5016      5014      5022
      5019      5025      5022      5024      5021      5019      5025      5022
      5021      5019      5025      5027      5024      5022      5025      5027
      5029      5034      5036      5038      5029      5034      5036      5039
      5029      5034      5042      5044      5029      5034      5042      5045
      5031      5029      5034      5036      5031      5029      5034      5042
      5032      5029      5034      5036      5032      5029      5034      5042
      5033      5029      5034      5036      5033      5029      5034      5042
      5034      5036      5039      5041      5034      5036      5039      5045
      5034      5042      5045      5039      5034      5042      5045      5047
      5036      5034      5042      5044      5036      5034      5042      5045
      5036      5039      5045      5042      5036      5039      5045      5047
      5038      5036      5034      5042      5038      5036      5039      5041
      5038      5036      5039      5045      5039      5036      5034      5042
      5039      5045      5042      5044      5041      5039      5045      5042
      5041      5039      5045      5047      5044      5042      5045      5047
      5049      5054      5056      5058      5049      5054      5056      5059
      5049      5054      5062      5064      5049      5054      5062      5065
      5051      5049      5054      5056      5051      5049      5054      5062
      5052      5049      5054      5056      5052      5049      5054      5062
      5053      5049      5054      5056      5053      5049      5054      5062
      5054      5056      5059      5061      5054      5056      5059      5065
      5054      5062      5065      5059      5054      5062      5065      5067
      5056      5054      5062      5064      5056      5054      5062      5065
      5056      5059      5065      5062      5056      5059      5065      5067
      5058      5056      5054      5062      5058      5056      5059      5061
      5058      5056      5059      5065      5059      5056      5054      5062
      5059      5065      5062      5064      5061      5059      5065      5062
      5061      5059      5065      5067      5064      5062      5065      5067
      5069      5074      5076      5078      5069      5074      5076      5079
      5069      5074      5082      5084      5069      5074      5082      5085
      5071      5069      5074      5076      5071      5069      5074      5082
      5072      5069      5074      5076      5072      5069      5074      5082
      5073      5069      5074      5076      5073      5069      5074      5082
      5074      5076      5079      5081      5074      5076      5079      5085
      5074      5082      5085      5079      5074      5082      5085      5087
      5076      5074      5082      5084      5076      5074      5082      5085
      5076      5079      5085      5082      5076      5079      5085      5087
      5078      5076      5074      5082      5078      5076      5079      5081
      5078      5076      5079      5085      5079      5076      5074      5082
      5079      5085      5082      5084      5081      5079      5085      5082
      5081      5079      5085      5087      5084      5082      5085      5087
      5089      5094      5096      5098      5089      5094      5096      5099
      5089      5094      5102      5104      5089      5094      5102      5105
      5091      5089      5094      5096      5091      5089      5094      5102
      5092      5089      5094      5096      5092      5089      5094      5102
      5093      5089      5094      5096      5093      5089      5094      5102
      5094      5096      5099      5101      5094      5096      5099      5105
      5094      5102      5105      5099      5094      5102      5105      5107
      5096      5094      5102      5104      5096      5094      5102      5105
      5096      5099      5105      5102      5096      5099      5105      5107
      5098      5096      5094      5102      5098      5096      5099      5101
      5098      5096      5099      5105      5099      5096      5094      5102
      5099      5105      5102      5104      5101      5099      5105      5102
      5101      5099      5105      5107      5104      5102      5105      5107
      5109      5114      5116      5118      5109      5114      5116      5119
      5109      5114      5122      5124      5109      5114      5122      5125
      5111      5109      5114      5116      5111      5109      5114      5122
      5112      5109      5114      5116      5112      5109      5114      5122
      5113      5109      5114      5116      5113      5109      5114      5122
      5114      5116      5119      5121      5114      5116      5119      5125
      5114      5122      5125      5119      5114      5122      5125      5127
      5116      5114      5122      5124      5116      5114      5122      5125
      5116      5119      5125      5122      5116      5119      5125      5127
      5118      5116      5114      5122      5118      5116      5119      5121
      5118      5116      5119      5125      5119      5116      5114      5122
      5119      5125      5122      5124      5121      5119      5125      5122
      5121      5119      5125      5127      5124      5122      5125      5127
      5129      5134      5136      5138      5129      5134      5136      5139
      5129      5134      5142      5144      5129      5134      5142      5145
      5131      5129      5134      5136      5131      5129      5134      5142
      5132      5129      5134      5136      5132      5129      5134      5142
      5133      5129      5134      5136      5133      5129      5134      5142
      5134      5136      5139      5141      5134      5136      5139      5145
      5134      5142      5145      5139      5134      5142      5145      5147
      5136      5134      5142      5144      5136      5134      5142      5145
      5136      5139      5145      5142      5136      5139      5145      5147
      5138      5136      5134      5142      5138      5136      5139      5141
      5138      5136      5139      5145      5139      5136      5134      5142
      5139      5145      5142      5144      5141      5139      5145      5142
      5141      5139      5145      5147      5144      5142      5145      5147
      5149      5154      5156      5158      5149      5154      5156      5159
      5149      5154      5162      5164      5149      5154      5162      5165
      5151      5149      5154      5156      5151      5149      5154      5162
      5152      5149      5154      5156      5152      5149      5154      5162
      5153      5149      5154      5156      5153      5149      5154      5162
      5154      5156      5159      5161      5154      5156      5159      5165
      5154      5162      5165      5159      5154      5162      5165      5167
      5156      5154      5162      5164      5156      5154      5162      5165
      5156      5159      5165      5162      5156      5159      5165      5167
      5158      5156      5154      5162      5158      5156      5159      5161
      5158      5156      5159      5165      5159      5156      5154      5162
      5159      5165      5162      5164      5161      5159      5165      5162
      5161      5159      5165      5167      5164      5162      5165      5167
      5169      5174      5176      5178      5169      5174      5176      5179
      5169      5174      5182      5184      5169      5174      5182      5185
      5171      5169      5174      5176      5171      5169      5174      5182
      5172      5169      5174      5176      5172      5169      5174      5182
      5173      5169      5174      5176      5173      5169      5174      5182
      5174      5176      5179      5181      5174      5176      5179      5185
      5174      5182      5185      5179      5174      5182      5185      5187
      5176      5174      5182      5184      5176      5174      5182      5185
      5176      5179      5185      5182      5176      5179      5185      5187
      5178      5176      5174      5182      5178      5176      5179      5181
      5178      5176      5179      5185      5179      5176      5174      5182
      5179      5185      5182      5184      5181      5179      5185      5182
      5181      5179      5185      5187      5184      5182      5185      5187
      5189      5194      5196      5198      5189      5194      5196      5199
      5189      5194      5202      5204      5189      5194      5202      5205
      5191      5189      5194      5196      5191      5189      5194      5202
      5192      5189      5194      5196      5192      5189      5194      5202
      5193      5189      5194      5196      5193      5189      5194      5202
      5194      5196      5199      5201      5194      5196      5199      5205
      5194      5202      5205      5199      5194      5202      5205      5207
      5196      5194      5202      5204      5196      5194      5202      5205
      5196      5199      5205      5202      5196      5199      5205      5207
      5198      5196      5194      5202      5198      5196      5199      5201
      5198      5196      5199      5205      5199      5196      5194      5202
      5199      5205      5202      5204      5201      5199      5205      5202
      5201      5199      5205      5207      5204      5202      5205      5207
      5209      5214      5216      5218      5209      5214      5216      5219
      5209      5214      5222      5224      5209      5214      5222      5225
      5211      5209      5214      5216      5211      5209      5214      5222
      5212      5209      5214      5216      5212      5209      5214      5222
      5213      5209      5214      5216      5213      5209      5214      5222
      5214      5216      5219      5221      5214      5216      5219      5225
      5214      5222      5225      5219      5214      5222      5225      5227
      5216      5214      5222      5224      5216      5214      5222      5225
      5216      5219      5225      5222      5216      5219      5225      5227
      5218      5216      5214      5222      5218      5216      5219      5221
      5218      5216      5219      5225      5219      5216      5214      5222
      5219      5225      5222      5224      5221      5219      5225      5222
      5221      5219      5225      5227      5224      5222      5225      5227
      5229      5234      5236      5238      5229      5234      5236      5239
      5229      5234      5242      5244      5229      5234      5242      5245
      5231      5229      5234      5236      5231      5229      5234      5242
      5232      5229      5234      5236      5232      5229      5234      5242
      5233      5229      5234      5236      5233      5229      5234      5242
      5234      5236      5239      5241      5234      5236      5239      5245
      5234      5242      5245      5239      5234      5242      5245      5247
      5236      5234      5242      5244      5236      5234      5242      5245
      5236      5239      5245      5242      5236      5239      5245      5247
      5238      5236      5234      5242      5238      5236      5239      5241
      5238      5236      5239      5245      5239      5236      5234      5242
      5239      5245      5242      5244      5241      5239      5245      5242
      5241      5239      5245      5247      5244      5242      5245      5247
      5249      5254      5256      5258      5249      5254      5256      5259
      5249      5254      5262      5264      5249      5254      5262      5265
      5251      5249      5254      5256      5251      5249      5254      5262
      5252      5249      5254      5256      5252      5249      5254      5262
      5253      5249      5254      5256      5253      5249      5254      5262
      5254      5256      5259      5261      5254      5256      5259      5265
      5254      5262      5265      5259      5254      5262      5265      5267
      5256      5254      5262      5264      5256      5254      5262      5265
      5256      5259      5265      5262      5256      5259      5265      5267
      5258      5256      5254      5262      5258      5256      5259      5261
      5258      5256      5259      5265      5259      5256      5254      5262
      5259      5265      5262      5264      5261      5259      5265      5262
      5261      5259      5265      5267      5264      5262      5265      5267
      5269      5274      5276      5278      5269      5274      5276      5279
      5269      5274      5282      5284      5269      5274      5282      5285
      5271      5269      5274      5276      5271      5269      5274      5282
      5272      5269      5274      5276      5272      5269      5274      5282
      5273      5269      5274      5276      5273      5269      5274      5282
      5274      5276      5279      5281      5274      5276      5279      5285
      5274      5282      5285      5279      5274      5282      5285      5287
      5276      5274      5282      5284      5276      5274      5282      5285
      5276      5279      5285      5282      5276      5279      5285      5287
      5278      5276      5274      5282      5278      5276      5279      5281
      5278      5276      5279      5285      5279      5276      5274      5282
      5279      5285      5282      5284      5281      5279      5285      5282
      5281      5279      5285      5287      5284      5282      5285      5287
      5289      5294      5296      5298      5289      5294      5296      5299
      5289      5294      5302      5304      5289      5294      5302      5305
      5291      5289      5294      5296      5291      5289      5294      5302
      5292      5289      5294      5296      5292      5289      5294      5302
      5293      5289      5294      5296      5293      5289      5294      5302
      5294      5296      5299      5301      5294      5296      5299      5305
      5294      5302      5305      5299      5294      5302      5305      5307
      5296      5294      5302      5304      5296      5294      5302      5305
      5296      5299      5305      5302      5296      5299      5305      5307
      5298      5296      5294      5302      5298      5296      5299      5301
      5298      5296      5299      5305      5299      5296      5294      5302
      5299      5305      5302      5304      5301      5299      5305      5302
      5301      5299      5305      5307      5304      5302      5305      5307
      5309      5314      5316      5318      5309      5314      5316      5319
      5309      5314      5322      5324      5309      5314      5322      5325
      5311      5309      5314      5316      5311      5309      5314      5322
      5312      5309      5314      5316      5312      5309      5314      5322
      5313      5309      5314      5316      5313      5309      5314      5322
      5314      5316      5319      5321      5314      5316      5319      5325
      5314      5322      5325      5319      5314      5322      5325      5327
      5316      5314      5322      5324      5316      5314      5322      5325
      5316      5319      5325      5322      5316      5319      5325      5327
      5318      5316      5314      5322      5318      5316      5319      5321
      5318      5316      5319      5325      5319      5316      5314      5322
      5319      5325      5322      5324      5321      5319      5325      5322
      5321      5319      5325      5327      5324      5322      5325      5327
      5329      5334      5336      5338      5329      5334      5336      5339
      5329      5334      5342      5344      5329      5334      5342      5345
      5331      5329      5334      5336      5331      5329      5334      5342
      5332      5329      5334      5336      5332      5329      5334      5342
      5333      5329      5334      5336      5333      5329      5334      5342
      5334      5336      5339      5341      5334      5336      5339      5345
      5334      5342      5345      5339      5334      5342      5345      5347
      5336      5334      5342      5344      5336      5334      5342      5345
      5336      5339      5345      5342      5336      5339      5345      5347
      5338      5336      5334      5342      5338      5336      5339      5341
      5338      5336      5339      5345      5339      5336      5334      5342
      5339      5345      5342      5344      5341      5339      5345      5342
      5341      5339      5345      5347      5344      5342      5345      5347
      5349      5354      5356      5358      5349      5354      5356      5359
      5349      5354      5362      5364      5349      5354      5362      5365
      5351      5349      5354      5356      5351      5349      5354      5362
      5352      5349      5354      5356      5352      5349      5354      5362
      5353      5349      5354      5356      5353      5349      5354      5362
      5354      5356      5359      5361      5354      5356      5359      5365
      5354      5362      5365      5359      5354      5362      5365      5367
      5356      5354      5362      5364      5356      5354      5362      5365
      5356      5359      5365      5362      5356      5359      5365      5367
      5358      5356      5354      5362      5358      5356      5359      5361
      5358      5356      5359      5365      5359      5356      5354      5362
      5359      5365      5362      5364      5361      5359      5365      5362
      5361      5359      5365      5367      5364      5362      5365      5367
      5369      5374      5376      5378      5369      5374      5376      5379
      5369      5374      5382      5384      5369      5374      5382      5385
      5371      5369      5374      5376      5371      5369      5374      5382
      5372      5369      5374      5376      5372      5369      5374      5382
      5373      5369      5374      5376      5373      5369      5374      5382
      5374      5376      5379      5381      5374      5376      5379      5385
      5374      5382      5385      5379      5374      5382      5385      5387
      5376      5374      5382      5384      5376      5374      5382      5385
      5376      5379      5385      5382      5376      5379      5385      5387
      5378      5376      5374      5382      5378      5376      5379      5381
      5378      5376      5379      5385      5379      5376      5374      5382
      5379      5385      5382      5384      5381      5379      5385      5382
      5381      5379      5385      5387      5384      5382      5385      5387
      5389      5394      5396      5398      5389      5394      5396      5399
      5389      5394      5402      5404      5389      5394      5402      5405
      5391      5389      5394      5396      5391      5389      5394      5402
      5392      5389      5394      5396      5392      5389      5394      5402
      5393      5389      5394      5396      5393      5389      5394      5402
      5394      5396      5399      5401      5394      5396      5399      5405
      5394      5402      5405      5399      5394      5402      5405      5407
      5396      5394      5402      5404      5396      5394      5402      5405
      5396      5399      5405      5402      5396      5399      5405      5407
      5398      5396      5394      5402      5398      5396      5399      5401
      5398      5396      5399      5405      5399      5396      5394      5402
      5399      5405      5402      5404      5401      5399      5405      5402
      5401      5399      5405      5407      5404      5402      5405      5407
      5409      5414      5416      5418      5409      5414      5416      5419
      5409      5414      5422      5424      5409      5414      5422      5425
      5411      5409      5414      5416      5411      5409      5414      5422
      5412      5409      5414      5416      5412      5409      5414      5422
      5413      5409      5414      5416      5413      5409      5414      5422
      5414      5416      5419      5421      5414      5416      5419      5425
      5414      5422      5425      5419      5414      5422      5425      5427
      5416      5414      5422      5424      5416      5414      5422      5425
      5416      5419      5425      5422      5416      5419      5425      5427
      5418      5416      5414      5422      5418      5416      5419      5421
      5418      5416      5419      5425      5419      5416      5414      5422
      5419      5425      5422      5424      5421      5419      5425      5422
      5421      5419      5425      5427      5424      5422      5425      5427
      5429      5434      5436      5438      5429      5434      5436      5439
      5429      5434      5442      5444      5429      5434      5442      5445
      5431      5429      5434      5436      5431      5429      5434      5442
      5432      5429      5434      5436      5432      5429      5434      5442
      5433      5429      5434      5436      5433      5429      5434      5442
      5434      5436      5439      5441      5434      5436      5439      5445
      5434      5442      5445      5439      5434      5442      5445      5447
      5436      5434      5442      5444      5436      5434      5442      5445
      5436      5439      5445      5442      5436      5439      5445      5447
      5438      5436      5434      5442      5438      5436      5439      5441
      5438      5436      5439      5445      5439      5436      5434      5442
      5439      5445      5442      5444      5441      5439      5445      5442
      5441      5439      5445      5447      5444      5442      5445      5447
      5449      5454      5456      5458      5449      5454      5456      5459
      5449      5454      5462      5464      5449      5454      5462      5465
      5451      5449      5454      5456      5451      5449      5454      5462
      5452      5449      5454      5456      5452      5449      5454      5462
      5453      5449      5454      5456      5453      5449      5454      5462
      5454      5456      5459      5461      5454      5456      5459      5465
      5454      5462      5465      5459      5454      5462      5465      5467
      5456      5454      5462      5464      5456      5454      5462      5465
      5456      5459      5465      5462      5456      5459      5465      5467
      5458      5456      5454      5462      5458      5456      5459      5461
      5458      5456      5459      5465      5459      5456      5454      5462
      5459      5465      5462      5464      5461      5459      5465      5462
      5461      5459      5465      5467      5464      5462      5465      5467
      5469      5474      5476      5478      5469      5474      5476      5479
      5469      5474      5482      5484      5469      5474      5482      5485
      5471      5469      5474      5476      5471      5469      5474      5482
      5472      5469      5474      5476      5472      5469      5474      5482
      5473      5469      5474      5476      5473      5469      5474      5482
      5474      5476      5479      5481      5474      5476      5479      5485
      5474      5482      5485      5479      5474      5482      5485      5487
      5476      5474      5482      5484      5476      5474      5482      5485
      5476      5479      5485      5482      5476      5479      5485      5487
      5478      5476      5474      5482      5478      5476      5479      5481
      5478      5476      5479      5485      5479      5476      5474      5482
      5479      5485      5482      5484      5481      5479      5485      5482
      5481      5479      5485      5487      5484      5482      5485      5487
      5489      5494      5496      5498      5489      5494      5496      5499
      5489      5494      5502      5504      5489      5494      5502      5505
      5491      5489      5494      5496      5491      5489      5494      5502
      5492      5489      5494      5496      5492      5489      5494      5502
      5493      5489      5494      5496      5493      5489      5494      5502
      5494      5496      5499      5501      5494      5496      5499      5505
      5494      5502      5505      5499      5494      5502      5505      5507
      5496      5494      5502      5504      5496      5494      5502      5505
      5496      5499      5505      5502      5496      5499      5505      5507
      5498      5496      5494      5502      5498      5496      5499      5501
      5498      5496      5499      5505      5499      5496      5494      5502
      5499      5505      5502      5504      5501      5499      5505      5502
      5501      5499      5505      5507      5504      5502      5505      5507
      5509      5514      5516      5518      5509      5514      5516      5519
      5509      5514      5522      5524      5509      5514      5522      5525
      5511      5509      5514      5516      5511      5509      5514      5522
      5512      5509      5514      5516      5512      5509      5514      5522
      5513      5509      5514      5516      5513      5509      5514      5522
      5514      5516      5519      5521      5514      5516      5519      5525
      5514      5522      5525      5519      5514      5522      5525      5527
      5516      5514      5522      5524      5516      5514      5522      5525
      5516      5519      5525      5522      5516      5519      5525      5527
      5518      5516      5514      5522      5518      5516      5519      5521
      5518      5516      5519      5525      5519      5516      5514      5522
      5519      5525      5522      5524      5521      5519      5525      5522
      5521      5519      5525      5527      5524      5522      5525      5527
      5529      5534      5536      5538      5529      5534      5536      5539
      5529      5534      5542      5544      5529      5534      5542      5545
      5531      5529      5534      5536      5531      5529      5534      5542
      5532      5529      5534      5536      5532      5529      5534      5542
      5533      5529      5534      5536      5533      5529      5534      5542
      5534      5536      5539      5541      5534      5536      5539      5545
      5534      5542      5545      5539      5534      5542      5545      5547
      5536      5534      5542      5544      5536      5534      5542      5545
      5536      5539      5545      5542      5536      5539      5545      5547
      5538      5536      5534      5542      5538      5536      5539      5541
      5538      5536      5539      5545      5539      5536      5534      5542
      5539      5545      5542      5544      5541      5539      5545      5542
      5541      5539      5545      5547      5544      5542      5545      5547
      5549      5554      5556      5558      5549      5554      5556      5559
      5549      5554      5562      5564      5549      5554      5562      5565
      5551      5549      5554      5556      5551      5549      5554      5562
      5552      5549      5554      5556      5552      5549      5554      5562
      5553      5549      5554      5556      5553      5549      5554      5562
      5554      5556      5559      5561      5554      5556      5559      5565
      5554      5562      5565      5559      5554      5562      5565      5567
      5556      5554      5562      5564      5556      5554      5562      5565
      5556      5559      5565      5562      5556      5559      5565      5567
      5558      5556      5554      5562      5558      5556      5559      5561
      5558      5556      5559      5565      5559      5556      5554      5562
      5559      5565      5562      5564      5561      5559      5565      5562
      5561      5559      5565      5567      5564      5562      5565      5567
      5569      5574      5576      5578      5569      5574      5576      5579
      5569      5574      5582      5584      5569      5574      5582      5585
      5571      5569      5574      5576      5571      5569      5574      5582
      5572      5569      5574      5576      5572      5569      5574      5582
      5573      5569      5574      5576      5573      5569      5574      5582
      5574      5576      5579      5581      5574      5576      5579      5585
      5574      5582      5585      5579      5574      5582      5585      5587
      5576      5574      5582      5584      5576      5574      5582      5585
      5576      5579      5585      5582      5576      5579      5585      5587
      5578      5576      5574      5582      5578      5576      5579      5581
      5578      5576      5579      5585      5579      5576      5574      5582
      5579      5585      5582      5584      5581      5579      5585      5582
      5581      5579      5585      5587      5584      5582      5585      5587
      5589      5594      5596      5598      5589      5594      5596      5599
      5589      5594      5602      5604      5589      5594      5602      5605
      5591      5589      5594      5596      5591      5589      5594      5602
      5592      5589      5594      5596      5592      5589      5594      5602
      5593      5589      5594      5596      5593      5589      5594      5602
      5594      5596      5599      5601      5594      5596      5599      5605
      5594      5602      5605      5599      5594      5602      5605      5607
      5596      5594      5602      5604      5596      5594      5602      5605
      5596      5599      5605      5602      5596      5599      5605      5607
      5598      5596      5594      5602      5598      5596      5599      5601
      5598      5596      5599      5605      5599      5596      5594      5602
      5599      5605      5602      5604      5601      5599      5605      5602
      5601      5599      5605      5607      5604      5602      5605      5607
      5609      5614      5616      5618      5609      5614      5616      5619
      5609      5614      5622      5624      5609      5614      5622      5625
      5611      5609      5614      5616      5611      5609      5614      5622
      5612      5609      5614      5616      5612      5609      5614      5622
      5613      5609      5614      5616      5613      5609      5614      5622
      5614      5616      5619      5621      5614      5616      5619      5625
      5614      5622      5625      5619      5614      5622      5625      5627
      5616      5614      5622      5624      5616      5614      5622      5625
      5616      5619      5625      5622      5616      5619      5625      5627
      5618      5616      5614      5622      5618      5616      5619      5621
      5618      5616      5619      5625      5619      5616      5614      5622
      5619      5625      5622      5624      5621      5619      5625      5622
      5621      5619      5625      5627      5624      5622      5625      5627
      5629      5634      5636      5638      5629      5634      5636      5639
      5629      5634      5642      5644      5629      5634      5642      5645
      5631      5629      5634      5636      5631      5629      5634      5642
      5632      5629      5634      5636      5632      5629      5634      5642
      5633      5629      5634      5636      5633      5629      5634      5642
      5634      5636      5639      5641      5634      5636      5639      5645
      5634      5642      5645      5639      5634      5642      5645      5647
      5636      5634      5642      5644      5636      5634      5642      5645
      5636      5639      5645      5642      5636      5639      5645      5647
      5638      5636      5634      5642      5638      5636      5639      5641
      5638      5636      5639      5645      5639      5636      5634      5642
      5639      5645      5642      5644      5641      5639      5645      5642
      5641      5639      5645      5647      5644      5642      5645      5647
      5649      5654      5656      5658      5649      5654      5656      5659
      5649      5654      5662      5664      5649      5654      5662      5665
      5651      5649      5654      5656      5651      5649      5654      5662
      5652      5649      5654      5656      5652      5649      5654      5662
      5653      5649      5654      5656      5653      5649      5654      5662
      5654      5656      5659      5661      5654      5656      5659      5665
      5654      5662      5665      5659      5654      5662      5665      5667
      5656      5654      5662      5664      5656      5654      5662      5665
      5656      5659      5665      5662      5656      5659      5665      5667
      5658      5656      5654      5662      5658      5656      5659      5661
      5658      5656      5659      5665      5659      5656      5654      5662
      5659      5665      5662      5664      5661      5659      5665      5662
      5661      5659      5665      5667      5664      5662      5665      5667
      5669      5674      5676      5678      5669      5674      5676      5679
      5669      5674      5682      5684      5669      5674      5682      5685
      5671      5669      5674      5676      5671      5669      5674      5682
      5672      5669      5674      5676      5672      5669      5674      5682
      5673      5669      5674      5676      5673      5669      5674      5682
      5674      5676      5679      5681      5674      5676      5679      5685
      5674      5682      5685      5679      5674      5682      5685      5687
      5676      5674      5682      5684      5676      5674      5682      5685
      5676      5679      5685      5682      5676      5679      5685      5687
      5678      5676      5674      5682      5678      5676      5679      5681
      5678      5676      5679      5685      5679      5676      5674      5682
      5679      5685      5682      5684      5681      5679      5685      5682
      5681      5679      5685      5687      5684      5682      5685      5687
      5689      5694      5696      5698      5689      5694      5696      5699
      5689      5694      5702      5704      5689      5694      5702      5705
      5691      5689      5694      5696      5691      5689      5694      5702
      5692      5689      5694      5696      5692      5689      5694      5702
      5693      5689      5694      5696      5693      5689      5694      5702
      5694      5696      5699      5701      5694      5696      5699      5705
      5694      5702      5705      5699      5694      5702      5705      5707
      5696      5694      5702      5704      5696      5694      5702      5705
      5696      5699      5705      5702      5696      5699      5705      5707
      5698      5696      5694      5702      5698      5696      5699      5701
      5698      5696      5699      5705      5699      5696      5694      5702
      5699      5705      5702      5704      5701      5699      5705      5702
      5701      5699      5705      5707      5704      5702      5705      5707
      5709      5714      5716      5718      5709      5714      5716      5719
      5709      5714      5722      5724      5709      5714      5722      5725
      5711      5709      5714      5716      5711      5709      5714      5722
      5712      5709      5714      5716      5712      5709      5714      5722
      5713      5709      5714      5716      5713      5709      5714      5722
      5714      5716      5719      5721      5714      5716      5719      5725
      5714      5722      5725      5719      5714      5722      5725      5727
      5716      5714      5722      5724      5716      5714      5722      5725
      5716      5719      5725      5722      5716      5719      5725      5727
      5718      5716      5714      5722      5718      5716      5719      5721
      5718      5716      5719      5725      5719      5716      5714      5722
      5719      5725      5722      5724      5721      5719      5725      5722
      5721      5719      5725      5727      5724      5722      5725      5727
      5729      5734      5736      5738      5729      5734      5736      5739
      5729      5734      5742      5744      5729      5734      5742      5745
      5731      5729      5734      5736      5731      5729      5734      5742
      5732      5729      5734      5736      5732      5729      5734      5742
      5733      5729      5734      5736      5733      5729      5734      5742
      5734      5736      5739      5741      5734      5736      5739      5745
      5734      5742      5745      5739      5734      5742      5745      5747
      5736      5734      5742      5744      5736      5734      5742      5745
      5736      5739      5745      5742      5736      5739      5745      5747
      5738      5736      5734      5742      5738      5736      5739      5741
      5738      5736      5739      5745      5739      5736      5734      5742
      5739      5745      5742      5744      5741      5739      5745      5742
      5741      5739      5745      5747      5744      5742      5745      5747
      5749      5754      5756      5758      5749      5754      5756      5759
      5749      5754      5762      5764      5749      5754      5762      5765
      5751      5749      5754      5756      5751      5749      5754      5762
      5752      5749      5754      5756      5752      5749      5754      5762
      5753      5749      5754      5756      5753      5749      5754      5762
      5754      5756      5759      5761      5754      5756      5759      5765
      5754      5762      5765      5759      5754      5762      5765      5767
      5756      5754      5762      5764      5756      5754      5762      5765
      5756      5759      5765      5762      5756      5759      5765      5767
      5758      5756      5754      5762      5758      5756      5759      5761
      5758      5756      5759      5765      5759      5756      5754      5762
      5759      5765      5762      5764      5761      5759      5765      5762
      5761      5759      5765      5767      5764      5762      5765      5767
      5769      5774      5776      5778      5769      5774      5776      5779
      5769      5774      5782      5784      5769      5774      5782      5785
      5771      5769      5774      5776      5771      5769      5774      5782
      5772      5769      5774      5776      5772      5769      5774      5782
      5773      5769      5774      5776      5773      5769      5774      5782
      5774      5776      5779      5781      5774      5776      5779      5785
      5774      5782      5785      5779      5774      5782      5785      5787
      5776      5774      5782      5784      5776      5774      5782      5785
      5776      5779      5785      5782      5776      5779      5785      5787
      5778      5776      5774      5782      5778      5776      5779      5781
      5778      5776      5779      5785      5779      5776      5774      5782
      5779      5785      5782      5784      5781      5779      5785      5782
      5781      5779      5785      5787      5784      5782      5785      5787
      5789      5794      5796      5798      5789      5794      5796      5799
      5789      5794      5802      5804      5789      5794      5802      5805
      5791      5789      5794      5796      5791      5789      5794      5802
      5792      5789      5794      5796      5792      5789      5794      5802
      5793      5789      5794      5796      5793      5789      5794      5802
      5794      5796      5799      5801      5794      5796      5799      5805
      5794      5802      5805      5799      5794      5802      5805      5807
      5796      5794      5802      5804      5796      5794      5802      5805
      5796      5799      5805      5802      5796      5799      5805      5807
      5798      5796      5794      5802      5798      5796      5799      5801
      5798      5796      5799      5805      5799      5796      5794      5802
      5799      5805      5802      5804      5801      5799      5805      5802
      5801      5799      5805      5807      5804      5802      5805      5807
      5809      5814      5816      5818      5809      5814      5816      5819
      5809      5814      5822      5824      5809      5814      5822      5825
      5811      5809      5814      5816      5811      5809      5814      5822
      5812      5809      5814      5816      5812      5809      5814      5822
      5813      5809      5814      5816      5813      5809      5814      5822
      5814      5816      5819      5821      5814      5816      5819      5825
      5814      5822      5825      5819      5814      5822      5825      5827
      5816      5814      5822      5824      5816      5814      5822      5825
      5816      5819      5825      5822      5816      5819      5825      5827
      5818      5816      5814      5822      5818      5816      5819      5821
      5818      5816      5819      5825      5819      5816      5814      5822
      5819      5825      5822      5824      5821      5819      5825      5822
      5821      5819      5825      5827      5824      5822      5825      5827
      5829      5834      5836      5838      5829      5834      5836      5839
      5829      5834      5842      5844      5829      5834      5842      5845
      5831      5829      5834      5836      5831      5829      5834      5842
      5832      5829      5834      5836      5832      5829      5834      5842
      5833      5829      5834      5836      5833      5829      5834      5842
      5834      5836      5839      5841      5834      5836      5839      5845
      5834      5842      5845      5839      5834      5842      5845      5847
      5836      5834      5842      5844      5836      5834      5842      5845
      5836      5839      5845      5842      5836      5839      5845      5847
      5838      5836      5834      5842      5838      5836      5839      5841
      5838      5836      5839      5845      5839      5836      5834      5842
      5839      5845      5842      5844      5841      5839      5845      5842
      5841      5839      5845      5847      5844      5842      5845      5847
      5849      5854      5856      5858      5849      5854      5856      5859
      5849      5854      5862      5864      5849      5854      5862      5865
      5851      5849      5854      5856      5851      5849      5854      5862
      5852      5849      5854      5856      5852      5849      5854      5862
      5853      5849      5854      5856      5853      5849      5854      5862
      5854      5856      5859      5861      5854      5856      5859      5865
      5854      5862      5865      5859      5854      5862      5865      5867
      5856      5854      5862      5864      5856      5854      5862      5865
      5856      5859      5865      5862      5856      5859      5865      5867
      5858      5856      5854      5862      5858      5856      5859      5861
      5858      5856      5859      5865      5859      5856      5854      5862
      5859      5865      5862      5864      5861      5859      5865      5862
      5861      5859      5865      5867      5864      5862      5865      5867
      5869      5874      5876      5878      5869      5874      5876      5879
      5869      5874      5882      5884      5869      5874      5882      5885
      5871      5869      5874      5876      5871      5869      5874      5882
      5872      5869      5874      5876      5872      5869      5874      5882
      5873      5869      5874      5876      5873      5869      5874      5882
      5874      5876      5879      5881      5874      5876      5879      5885
      5874      5882      5885      5879      5874      5882      5885      5887
      5876      5874      5882      5884      5876      5874      5882      5885
      5876      5879      5885      5882      5876      5879      5885      5887
      5878      5876      5874      5882      5878      5876      5879      5881
      5878      5876      5879      5885      5879      5876      5874      5882
      5879      5885      5882      5884      5881      5879      5885      5882
      5881      5879      5885      5887      5884      5882      5885      5887
      5889      5894      5896      5898      5889      5894      5896      5899
      5889      5894      5902      5904      5889      5894      5902      5905
      5891      5889      5894      5896      5891      5889      5894      5902
      5892      5889      5894      5896      5892      5889      5894      5902
      5893      5889      5894      5896      5893      5889      5894      5902
      5894      5896      5899      5901      5894      5896      5899      5905
      5894      5902      5905      5899      5894      5902      5905      5907
      5896      5894      5902      5904      5896      5894      5902      5905
      5896      5899      5905      5902      5896      5899      5905      5907
      5898      5896      5894      5902      5898      5896      5899      5901
      5898      5896      5899      5905      5899      5896      5894      5902
      5899      5905      5902      5904      5901      5899      5905      5902
      5901      5899      5905      5907      5904      5902      5905      5907
      5909      5914      5916      5918      5909      5914      5916      5919
      5909      5914      5922      5924      5909      5914      5922      5925
      5911      5909      5914      5916      5911      5909      5914      5922
      5912      5909      5914      5916      5912      5909      5914      5922
      5913      5909      5914      5916      5913      5909      5914      5922
      5914      5916      5919      5921      5914      5916      5919      5925
      5914      5922      5925      5919      5914      5922      5925      5927
      5916      5914      5922      5924      5916      5914      5922      5925
      5916      5919      5925      5922      5916      5919      5925      5927
      5918      5916      5914      5922      5918      5916      5919      5921
      5918      5916      5919      5925      5919      5916      5914      5922
      5919      5925      5922      5924      5921      5919      5925      5922
      5921      5919      5925      5927      5924      5922      5925      5927
      5929      5934      5936      5938      5929      5934      5936      5939
      5929      5934      5942      5944      5929      5934      5942      5945
      5931      5929      5934      5936      5931      5929      5934      5942
      5932      5929      5934      5936      5932      5929      5934      5942
      5933      5929      5934      5936      5933      5929      5934      5942
      5934      5936      5939      5941      5934      5936      5939      5945
      5934      5942      5945      5939      5934      5942      5945      5947
      5936      5934      5942      5944      5936      5934      5942      5945
      5936      5939      5945      5942      5936      5939      5945      5947
      5938      5936      5934      5942      5938      5936      5939      5941
      5938      5936      5939      5945      5939      5936      5934      5942
      5939      5945      5942      5944      5941      5939      5945      5942
      5941      5939      5945      5947      5944      5942      5945      5947
      5949      5954      5956      5958      5949      5954      5956      5959
      5949      5954      5962      5964      5949      5954      5962      5965
      5951      5949      5954      5956      5951      5949      5954      5962
      5952      5949      5954      5956      5952      5949      5954      5962
      5953      5949      5954      5956      5953      5949      5954      5962
      5954      5956      5959      5961      5954      5956      5959      5965
      5954      5962      5965      5959      5954      5962      5965      5967
      5956      5954      5962      5964      5956      5954      5962      5965
      5956      5959      5965      5962      5956      5959      5965      5967
      5958      5956      5954      5962      5958      5956      5959      5961
      5958      5956      5959      5965      5959      5956      5954      5962
      5959      5965      5962      5964      5961      5959      5965      5962
      5961      5959      5965      5967      5964      5962      5965      5967
      5969      5974      5976      5978      5969      5974      5976      5979
      5969      5974      5982      5984      5969      5974      5982      5985
      5971      5969      5974      5976      5971      5969      5974      5982
      5972      5969      5974      5976      5972      5969      5974      5982
      5973      5969      5974      5976      5973      5969      5974      5982
      5974      5976      5979      5981      5974      5976      5979      5985
      5974      5982      5985      5979      5974      5982      5985      5987
      5976      5974      5982      5984      5976      5974      5982      5985
      5976      5979      5985      5982      5976      5979      5985      5987
      5978      5976      5974      5982      5978      5976      5979      5981
      5978      5976      5979      5985      5979      5976      5974      5982
      5979      5985      5982      5984      5981      5979      5985      5982
      5981      5979      5985      5987      5984      5982      5985      5987
      5989      5994      5996      5998      5989      5994      5996      5999
      5989      5994      6002      6004      5989      5994      6002      6005
      5991      5989      5994      5996      5991      5989      5994      6002
      5992      5989      5994      5996      5992      5989      5994      6002
      5993      5989      5994      5996      5993      5989      5994      6002
      5994      5996      5999      6001      5994      5996      5999      6005
      5994      6002      6005      5999      5994      6002      6005      6007
      5996      5994      6002      6004      5996      5994      6002      6005
      5996      5999      6005      6002      5996      5999      6005      6007
      5998      5996      5994      6002      5998      5996      5999      6001
      5998      5996      5999      6005      5999      5996      5994      6002
      5999      6005      6002      6004      6001      5999      6005      6002
      6001      5999      6005      6007      6004      6002      6005      6007
      6009      6014      6016      6018      6009      6014      6016      6019
      6009      6014      6022      6024      6009      6014      6022      6025
      6011      6009      6014      6016      6011      6009      6014      6022
      6012      6009      6014      6016      6012      6009      6014      6022
      6013      6009      6014      6016      6013      6009      6014      6022
      6014      6016      6019      6021      6014      6016      6019      6025
      6014      6022      6025      6019      6014      6022      6025      6027
      6016      6014      6022      6024      6016      6014      6022      6025
      6016      6019      6025      6022      6016      6019      6025      6027
      6018      6016      6014      6022      6018      6016      6019      6021
      6018      6016      6019      6025      6019      6016      6014      6022
      6019      6025      6022      6024      6021      6019      6025      6022
      6021      6019      6025      6027      6024      6022      6025      6027
      6029      6034      6036      6038      6029      6034      6036      6039
      6029      6034      6042      6044      6029      6034      6042      6045
      6031      6029      6034      6036      6031      6029      6034      6042
      6032      6029      6034      6036      6032      6029      6034      6042
      6033      6029      6034      6036      6033      6029      6034      6042
      6034      6036      6039      6041      6034      6036      6039      6045
      6034      6042      6045      6039      6034      6042      6045      6047
      6036      6034      6042      6044      6036      6034      6042      6045
      6036      6039      6045      6042      6036      6039      6045      6047
      6038      6036      6034      6042      6038      6036      6039      6041
      6038      6036      6039      6045      6039      6036      6034      6042
      6039      6045      6042      6044      6041      6039      6045      6042
      6041      6039      6045      6047      6044      6042      6045      6047
      6049      6054      6056      6058      6049      6054      6056      6059
      6049      6054      6062      6064      6049      6054      6062      6065
      6051      6049      6054      6056      6051      6049      6054      6062
      6052      6049      6054      6056      6052      6049      6054      6062
      6053      6049      6054      6056      6053      6049      6054      6062
      6054      6056      6059      6061      6054      6056      6059      6065
      6054      6062      6065      6059      6054      6062      6065      6067
      6056      6054      6062      6064      6056      6054      6062      6065
      6056      6059      6065      6062      6056      6059      6065      6067
      6058      6056      6054      6062      6058      6056      6059      6061
      6058      6056      6059      6065      6059      6056      6054      6062
      6059      6065      6062      6064      6061      6059      6065      6062
      6061      6059      6065      6067      6064      6062      6065      6067
      6069      6074      6076      6078      6069      6074      6076      6079
      6069      6074      6082      6084      6069      6074      6082      6085
      6071      6069      6074      6076      6071      6069      6074      6082
      6072      6069      6074      6076      6072      6069      6074      6082
      6073      6069      6074      6076      6073      6069      6074      6082
      6074      6076      6079      6081      6074      6076      6079      6085
      6074      6082      6085      6079      6074      6082      6085      6087
      6076      6074      6082      6084      6076      6074      6082      6085
      6076      6079      6085      6082      6076      6079      6085      6087
      6078      6076      6074      6082      6078      6076      6079      6081
      6078      6076      6079      6085      6079      6076      6074      6082
      6079      6085      6082      6084      6081      6079      6085      6082
      6081      6079      6085      6087      6084      6082      6085      6087
      6089      6094      6096      6098      6089      6094      6096      6099
      6089      6094      6102      6104      6089      6094      6102      6105
      6091      6089      6094      6096      6091      6089      6094      6102
      6092      6089      6094      6096      6092      6089      6094      6102
      6093      6089      6094      6096      6093      6089      6094      6102
      6094      6096      6099      6101      6094      6096      6099      6105
      6094      6102      6105      6099      6094      6102      6105      6107
      6096      6094      6102      6104      6096      6094      6102      6105
      6096      6099      6105      6102      6096      6099      6105      6107
      6098      6096      6094      6102      6098      6096      6099      6101
      6098      6096      6099      6105      6099      6096      6094      6102
      6099      6105      6102      6104      6101      6099      6105      6102
      6101      6099      6105      6107      6104      6102      6105      6107
      6109      6114      6116      6118      6109      6114      6116      6119
      6109      6114      6122      6124      6109      6114      6122      6125
      6111      6109      6114      6116      6111      6109      6114      6122
      6112      6109      6114      6116      6112      6109      6114      6122
      6113      6109      6114      6116      6113      6109      6114      6122
      6114      6116      6119      6121      6114      6116      6119      6125
      6114      6122      6125      6119      6114      6122      6125      6127
      6116      6114      6122      6124      6116      6114      6122      6125
      6116      6119      6125      6122      6116      6119      6125      6127
      6118      6116      6114      6122      6118      6116      6119      6121
      6118      6116      6119      6125      6119      6116      6114      6122
      6119      6125      6122      6124      6121      6119      6125      6122
      6121      6119      6125      6127      6124      6122      6125      6127
      6129      6134      6136      6138      6129      6134      6136      6139
      6129      6134      6142      6144      6129      6134      6142      6145
      6131      6129      6134      6136      6131      6129      6134      6142
      6132      6129      6134      6136      6132      6129      6134      6142
      6133      6129      6134      6136      6133      6129      6134      6142
      6134      6136      6139      6141      6134      6136      6139      6145
      6134      6142      6145      6139      6134      6142      6145      6147
      6136      6134      6142      6144      6136      6134      6142      6145
      6136      6139      6145      6142      6136      6139      6145      6147
      6138      6136      6134      6142      6138      6136      6139      6141
      6138      6136      6139      6145      6139      6136      6134      6142
      6139      6145      6142      6144      6141      6139      6145      6142
      6141      6139      6145      6147      6144      6142      6145      6147
      6149      6154      6156      6158      6149      6154      6156      6159
      6149      6154      6162      6164      6149      6154      6162      6165
      6151      6149      6154      6156      6151      6149      6154      6162
      6152      6149      6154      6156      6152      6149      6154      6162
      6153      6149      6154      6156      6153      6149      6154      6162
      6154      6156      6159      6161      6154      6156      6159      6165
      6154      6162      6165      6159      6154      6162      6165      6167
      6156      6154      6162      6164      6156      6154      6162      6165
      6156      6159      6165      6162      6156      6159      6165      6167
      6158      6156      6154      6162      6158      6156      6159      6161
      6158      6156      6159      6165      6159      6156      6154      6162
      6159      6165      6162      6164      6161      6159      6165      6162
      6161      6159      6165      6167      6164      6162      6165      6167
      6169      6174      6176      6178      6169      6174      6176      6179
      6169      6174      6182      6184      6169      6174      6182      6185
      6171      6169      6174      6176      6171      6169      6174      6182
      6172      6169      6174      6176      6172      6169      6174      6182
      6173      6169      6174      6176      6173      6169      6174      6182
      6174      6176      6179      6181      6174      6176      6179      6185
      6174      6182      6185      6179      6174      6182      6185      6187
      6176      6174      6182      6184      6176      6174      6182      6185
      6176      6179      6185      6182      6176      6179      6185      6187
      6178      6176      6174      6182      6178      6176      6179      6181
      6178      6176      6179      6185      6179      6176      6174      6182
      6179      6185      6182      6184      6181      6179      6185      6182
      6181      6179      6185      6187      6184      6182      6185      6187
      6189      6194      6196      6198      6189      6194      6196      6199
      6189      6194      6202      6204      6189      6194      6202      6205
      6191      6189      6194      6196      6191      6189      6194      6202
      6192      6189      6194      6196      6192      6189      6194      6202
      6193      6189      6194      6196      6193      6189      6194      6202
      6194      6196      6199      6201      6194      6196      6199      6205
      6194      6202      6205      6199      6194      6202      6205      6207
      6196      6194      6202      6204      6196      6194      6202      6205
      6196      6199      6205      6202      6196      6199      6205      6207
      6198      6196      6194      6202      6198      6196      6199      6201
      6198      6196      6199      6205      6199      6196      6194      6202
      6199      6205      6202      6204      6201      6199      6205      6202
      6201      6199      6205      6207      6204      6202      6205      6207
      6209      6214      6216      6218      6209      6214      6216      6219
      6209      6214      6222      6224      6209      6214      6222      6225
      6211      6209      6214      6216      6211      6209      6214      6222
      6212      6209      6214      6216      6212      6209      6214      6222
      6213      6209      6214      6216      6213      6209      6214      6222
      6214      6216      6219      6221      6214      6216      6219      6225
      6214      6222      6225      6219      6214      6222      6225      6227
      6216      6214      6222      6224      6216      6214      6222      6225
      6216      6219      6225      6222      6216      6219      6225      6227
      6218      6216      6214      6222      6218      6216      6219      6221
      6218      6216      6219      6225      6219      6216      6214      6222
      6219      6225      6222      6224      6221      6219      6225      6222
      6221      6219      6225      6227      6224      6222      6225      6227
      6229      6234      6236      6238      6229      6234      6236      6239
      6229      6234      6242      6244      6229      6234      6242      6245
      6231      6229      6234      6236      6231      6229      6234      6242
      6232      6229      6234      6236      6232      6229      6234      6242
      6233      6229      6234      6236      6233      6229      6234      6242
      6234      6236      6239      6241      6234      6236      6239      6245
      6234      6242      6245      6239      6234      6242      6245      6247
      6236      6234      6242      6244      6236      6234      6242      6245
      6236      6239      6245      6242      6236      6239      6245      6247
      6238      6236      6234      6242      6238      6236      6239      6241
      6238      6236      6239      6245      6239      6236      6234      6242
      6239      6245      6242      6244      6241      6239      6245      6242
      6241      6239      6245      6247      6244      6242      6245      6247
      6249      6254      6256      6258      6249      6254      6256      6259
      6249      6254      6262      6264      6249      6254      6262      6265
      6251      6249      6254      6256      6251      6249      6254      6262
      6252      6249      6254      6256      6252      6249      6254      6262
      6253      6249      6254      6256      6253      6249      6254      6262
      6254      6256      6259      6261      6254      6256      6259      6265
      6254      6262      6265      6259      6254      6262      6265      6267
      6256      6254      6262      6264      6256      6254      6262      6265
      6256      6259      6265      6262      6256      6259      6265      6267
      6258      6256      6254      6262      6258      6256      6259      6261
      6258      6256      6259      6265      6259      6256      6254      6262
      6259      6265      6262      6264      6261      6259      6265      6262
      6261      6259      6265      6267      6264      6262      6265      6267
      6269      6274      6276      6278      6269      6274      6276      6279
      6269      6274      6282      6284      6269      6274      6282      6285
      6271      6269      6274      6276      6271      6269      6274      6282
      6272      6269      6274      6276      6272      6269      6274      6282
      6273      6269      6274      6276      6273      6269      6274      6282
      6274      6276      6279      6281      6274      6276      6279      6285
      6274      6282      6285      6279      6274      6282      6285      6287
      6276      6274      6282      6284      6276      6274      6282      6285
      6276      6279      6285      6282      6276      6279      6285      6287
      6278      6276      6274      6282      6278      6276      6279      6281
      6278      6276      6279      6285      6279      6276      6274      6282
      6279      6285      6282      6284      6281      6279      6285      6282
      6281      6279      6285      6287      6284      6282      6285      6287
      6289      6294      6296      6298      6289      6294      6296      6299
      6289      6294      6302      6304      6289      6294      6302      6305
      6291      6289      6294      6296      6291      6289      6294      6302
      6292      6289      6294      6296      6292      6289      6294      6302
      6293      6289      6294      6296      6293      6289      6294      6302
      6294      6296      6299      6301      6294      6296      6299      6305
      6294      6302      6305      6299      6294      6302      6305      6307
      6296      6294      6302      6304      6296      6294      6302      6305
      6296      6299      6305      6302      6296      6299      6305      6307
      6298      6296      6294      6302      6298      6296      6299      6301
      6298      6296      6299      6305      6299      6296      6294      6302
      6299      6305      6302      6304      6301      6299      6305      6302
      6301      6299      6305      6307      6304      6302      6305      6307
      6309      6314      6316      6318      6309      6314      6316      6319
      6309      6314      6322      6324      6309      6314      6322      6325
      6311      6309      6314      6316      6311      6309      6314      6322
      6312      6309      6314      6316      6312      6309      6314      6322
      6313      6309      6314      6316      6313      6309      6314      6322
      6314      6316      6319      6321      6314      6316      6319      6325
      6314      6322      6325      6319      6314      6322      6325      6327
      6316      6314      6322      6324      6316      6314      6322      6325
      6316      6319      6325      6322      6316      6319      6325      6327
      6318      6316      6314      6322      6318      6316      6319      6321
      6318      6316      6319      6325      6319      6316      6314      6322
      6319      6325      6322      6324      6321      6319      6325      6322
      6321      6319      6325      6327      6324      6322      6325      6327
      6329      6334      6336      6338      6329      6334      6336      6339
      6329      6334      6342      6344      6329      6334      6342      6345
      6331      6329      6334      6336      6331      6329      6334      6342
      6332      6329      6334      6336      6332      6329      6334      6342
      6333      6329      6334      6336      6333      6329      6334      6342
      6334      6336      6339      6341      6334      6336      6339      6345
      6334      6342      6345      6339      6334      6342      6345      6347
      6336      6334      6342      6344      6336      6334      6342      6345
      6336      6339      6345      6342      6336      6339      6345      6347
      6338      6336      6334      6342      6338      6336      6339      6341
      6338      6336      6339      6345      6339      6336      6334      6342
      6339      6345      6342      6344      6341      6339      6345      6342
      6341      6339      6345      6347      6344      6342      6345      6347
      6349      6354      6356      6358      6349      6354      6356      6359
      6349      6354      6362      6364      6349      6354      6362      6365
      6351      6349      6354      6356      6351      6349      6354      6362
      6352      6349      6354      6356      6352      6349      6354      6362
      6353      6349      6354      6356      6353      6349      6354      6362
      6354      6356      6359      6361      6354      6356      6359      6365
      6354      6362      6365      6359      6354      6362      6365      6367
      6356      6354      6362      6364      6356      6354      6362      6365
      6356      6359      6365      6362      6356      6359      6365      6367
      6358      6356      6354      6362      6358      6356      6359      6361
      6358      6356      6359      6365      6359      6356      6354      6362
      6359      6365      6362      6364      6361      6359      6365      6362
      6361      6359      6365      6367      6364      6362      6365      6367
      6369      6374      6376      6378      6369      6374      6376      6379
      6369      6374      6382      6384      6369      6374      6382      6385
      6371      6369      6374      6376      6371      6369      6374      6382
      6372      6369      6374      6376      6372      6369      6374      6382
      6373      6369      6374      6376      6373      6369      6374      6382
      6374      6376      6379      6381      6374      6376      6379      6385
      6374      6382      6385      6379      6374      6382      6385      6387
      6376      6374      6382      6384      6376      6374      6382      6385
      6376      6379      6385      6382      6376      6379      6385      6387
      6378      6376      6374      6382      6378      6376      6379      6381
      6378      6376      6379      6385      6379      6376      6374      6382
      6379      6385      6382      6384      6381      6379      6385      6382
      6381      6379      6385      6387      6384      6382      6385      6387
      6389      6394      6396      6398      6389      6394      6396      6399
      6389      6394      6402      6404      6389      6394      6402      6405
      6391      6389      6394      6396      6391      6389      6394      6402
      6392      6389      6394      6396      6392      6389      6394      6402
      6393      6389      6394      6396      6393      6389      6394      6402
      6394      6396      6399      6401      6394      6396      6399      6405
      6394      6402      6405      6399      6394      6402      6405      6407
      6396      6394      6402      6404      6396      6394      6402      6405
      6396      6399      6405      6402      6396      6399      6405      6407
      6398      6396      6394      6402      6398      6396      6399      6401
      6398      6396      6399      6405      6399      6396      6394      6402
      6399      6405      6402      6404      6401      6399      6405      6402
      6401      6399      6405      6407      6404      6402      6405      6407
      6409      6414      6416      6418      6409      6414      6416      6419
      6409      6414      6422      6424      6409      6414      6422      6425
      6411      6409      6414      6416      6411      6409      6414      6422
      6412      6409      6414      6416      6412      6409      6414      6422
      6413      6409      6414      6416      6413      6409      6414      6422
      6414      6416      6419      6421      6414      6416      6419      6425
      6414      6422      6425      6419      6414      6422      6425      6427
      6416      6414      6422      6424      6416      6414      6422      6425
      6416      6419      6425      6422      6416      6419      6425      6427
      6418      6416      6414      6422      6418      6416      6419      6421
      6418      6416      6419      6425      6419      6416      6414      6422
      6419      6425      6422      6424      6421      6419      6425      6422
      6421      6419      6425      6427      6424      6422      6425      6427
      6429      6434      6436      6438      6429      6434      6436      6439
      6429      6434      6442      6444      6429      6434      6442      6445
      6431      6429      6434      6436      6431      6429      6434      6442
      6432      6429      6434      6436      6432      6429      6434      6442
      6433      6429      6434      6436      6433      6429      6434      6442
      6434      6436      6439      6441      6434      6436      6439      6445
      6434      6442      6445      6439      6434      6442      6445      6447
      6436      6434      6442      6444      6436      6434      6442      6445
      6436      6439      6445      6442      6436      6439      6445      6447
      6438      6436      6434      6442      6438      6436      6439      6441
      6438      6436      6439      6445      6439      6436      6434      6442
      6439      6445      6442      6444      6441      6439      6445      6442
      6441      6439      6445      6447      6444      6442      6445      6447
      6449      6454      6456      6458      6449      6454      6456      6459
      6449      6454      6462      6464      6449      6454      6462      6465
      6451      6449      6454      6456      6451      6449      6454      6462
      6452      6449      6454      6456      6452      6449      6454      6462
      6453      6449      6454      6456      6453      6449      6454      6462
      6454      6456      6459      6461      6454      6456      6459      6465
      6454      6462      6465      6459      6454      6462      6465      6467
      6456      6454      6462      6464      6456      6454      6462      6465
      6456      6459      6465      6462      6456      6459      6465      6467
      6458      6456      6454      6462      6458      6456      6459      6461
      6458      6456      6459      6465      6459      6456      6454      6462
      6459      6465      6462      6464      6461      6459      6465      6462
      6461      6459      6465      6467      6464      6462      6465      6467
      6469      6474      6476      6478      6469      6474      6476      6479
      6469      6474      6482      6484      6469      6474      6482      6485
      6471      6469      6474      6476      6471      6469      6474      6482
      6472      6469      6474      6476      6472      6469      6474      6482
      6473      6469      6474      6476      6473      6469      6474      6482
      6474      6476      6479      6481      6474      6476      6479      6485
      6474      6482      6485      6479      6474      6482      6485      6487
      6476      6474      6482      6484      6476      6474      6482      6485
      6476      6479      6485      6482      6476      6479      6485      6487
      6478      6476      6474      6482      6478      6476      6479      6481
      6478      6476      6479      6485      6479      6476      6474      6482
      6479      6485      6482      6484      6481      6479      6485      6482
      6481      6479      6485      6487      6484      6482      6485      6487
      6489      6494      6496      6498      6489      6494      6496      6499
      6489      6494      6502      6504      6489      6494      6502      6505
      6491      6489      6494      6496      6491      6489      6494      6502
      6492      6489      6494      6496      6492      6489      6494      6502
      6493      6489      6494      6496      6493      6489      6494      6502
      6494      6496      6499      6501      6494      6496      6499      6505
      6494      6502      6505      6499      6494      6502      6505      6507
      6496      6494      6502      6504      6496      6494      6502      6505
      6496      6499      6505      6502      6496      6499      6505      6507
      6498      6496      6494      6502      6498      6496      6499      6501
      6498      6496      6499      6505      6499      6496      6494      6502
      6499      6505      6502      6504      6501      6499      6505      6502
      6501      6499      6505      6507      6504      6502      6505      6507
      6509      6514      6516      6518      6509      6514      6516      6519
      6509      6514      6522      6524      6509      6514      6522      6525
      6511      6509      6514      6516      6511      6509      6514      6522
      6512      6509      6514      6516      6512      6509      6514      6522
      6513      6509      6514      6516      6513      6509      6514      6522
      6514      6516      6519      6521      6514      6516      6519      6525
      6514      6522      6525      6519      6514      6522      6525      6527
      6516      6514      6522      6524      6516      6514      6522      6525
      6516      6519      6525      6522      6516      6519      6525      6527
      6518      6516      6514      6522      6518      6516      6519      6521
      6518      6516      6519      6525      6519      6516      6514      6522
      6519      6525      6522      6524      6521      6519      6525      6522
      6521      6519      6525      6527      6524      6522      6525      6527
      6529      6534      6536      6538      6529      6534      6536      6539
      6529      6534      6542      6544      6529      6534      6542      6545
      6531      6529      6534      6536      6531      6529      6534      6542
      6532      6529      6534      6536      6532      6529      6534      6542
      6533      6529      6534      6536      6533      6529      6534      6542
      6534      6536      6539      6541      6534      6536      6539      6545
      6534      6542      6545      6539      6534      6542      6545      6547
      6536      6534      6542      6544      6536      6534      6542      6545
      6536      6539      6545      6542      6536      6539      6545      6547
      6538      6536      6534      6542      6538      6536      6539      6541
      6538      6536      6539      6545      6539      6536      6534      6542
      6539      6545      6542      6544      6541      6539      6545      6542
      6541      6539      6545      6547      6544      6542      6545      6547
      6549      6554      6556      6558      6549      6554      6556      6559
      6549      6554      6562      6564      6549      6554      6562      6565
      6551      6549      6554      6556      6551      6549      6554      6562
      6552      6549      6554      6556      6552      6549      6554      6562
      6553      6549      6554      6556      6553      6549      6554      6562
      6554      6556      6559      6561      6554      6556      6559      6565
      6554      6562      6565      6559      6554      6562      6565      6567
      6556      6554      6562      6564      6556      6554      6562      6565
      6556      6559      6565      6562      6556      6559      6565      6567
      6558      6556      6554      6562      6558      6556      6559      6561
      6558      6556      6559      6565      6559      6556      6554      6562
      6559      6565      6562      6564      6561      6559      6565      6562
      6561      6559      6565      6567      6564      6562      6565      6567
      6569      6574      6576      6578      6569      6574      6576      6579
      6569      6574      6582      6584      6569      6574      6582      6585
      6571      6569      6574      6576      6571      6569      6574      6582
      6572      6569      6574      6576      6572      6569      6574      6582
      6573      6569      6574      6576      6573      6569      6574      6582
      6574      6576      6579      6581      6574      6576      6579      6585
      6574      6582      6585      6579      6574      6582      6585      6587
      6576      6574      6582      6584      6576      6574      6582      6585
      6576      6579      6585      6582      6576      6579      6585      6587
      6578      6576      6574      6582      6578      6576      6579      6581
      6578      6576      6579      6585      6579      6576      6574      6582
      6579      6585      6582      6584      6581      6579      6585      6582
      6581      6579      6585      6587      6584      6582      6585      6587
      6589      6594      6596      6598      6589      6594      6596      6599
      6589      6594      6602      6604      6589      6594      6602      6605
      6591      6589      6594      6596      6591      6589      6594      6602
      6592      6589      6594      6596      6592      6589      6594      6602
      6593      6589      6594      6596      6593      6589      6594      6602
      6594      6596      6599      6601      6594      6596      6599      6605
      6594      6602      6605      6599      6594      6602      6605      6607
      6596      6594      6602      6604      6596      6594      6602      6605
      6596      6599      6605      6602      6596      6599      6605      6607
      6598      6596      6594      6602      6598      6596      6599      6601
      6598      6596      6599      6605      6599      6596      6594      6602
      6599      6605      6602      6604      6601      6599      6605      6602
      6601      6599      6605      6607      6604      6602      6605      6607
      6609      6614      6616      6618      6609      6614      6616      6619
      6609      6614      6622      6624      6609      6614      6622      6625
      6611      6609      6614      6616      6611      6609      6614      6622
      6612      6609      6614      6616      6612      6609      6614      6622
      6613      6609      6614      6616      6613      6609      6614      6622
      6614      6616      6619      6621      6614      6616      6619      6625
      6614      6622      6625      6619      6614      6622      6625      6627
      6616      6614      6622      6624      6616      6614      6622      6625
      6616      6619      6625      6622      6616      6619      6625      6627
      6618      6616      6614      6622      6618      6616      6619      6621
      6618      6616      6619      6625      6619      6616      6614      6622
      6619      6625      6622      6624      6621      6619      6625      6622
      6621      6619      6625      6627      6624      6622      6625      6627
      6629      6634      6636      6638      6629      6634      6636      6639
      6629      6634      6642      6644      6629      6634      6642      6645
      6631      6629      6634      6636      6631      6629      6634      6642
      6632      6629      6634      6636      6632      6629      6634      6642
      6633      6629      6634      6636      6633      6629      6634      6642
      6634      6636      6639      6641      6634      6636      6639      6645
      6634      6642      6645      6639      6634      6642      6645      6647
      6636      6634      6642      6644      6636      6634      6642      6645
      6636      6639      6645      6642      6636      6639      6645      6647
      6638      6636      6634      6642      6638      6636      6639      6641
      6638      6636      6639      6645      6639      6636      6634      6642
      6639      6645      6642      6644      6641      6639      6645      6642
      6641      6639      6645      6647      6644      6642      6645      6647
      6649      6654      6656      6658      6649      6654      6656      6659
      6649      6654      6662      6664      6649      6654      6662      6665
      6651      6649      6654      6656      6651      6649      6654      6662
      6652      6649      6654      6656      6652      6649      6654      6662
      6653      6649      6654      6656      6653      6649      6654      6662
      6654      6656      6659      6661      6654      6656      6659      6665
      6654      6662      6665      6659      6654      6662      6665      6667
      6656      6654      6662      6664      6656      6654      6662      6665
      6656      6659      6665      6662      6656      6659      6665      6667
      6658      6656      6654      6662      6658      6656      6659      6661
      6658      6656      6659      6665      6659      6656      6654      6662
      6659      6665      6662      6664      6661      6659      6665      6662
      6661      6659      6665      6667      6664      6662      6665      6667
      6669      6674      6676      6678      6669      6674      6676      6679
      6669      6674      6682      6684      6669      6674      6682      6685
      6671      6669      6674      6676      6671      6669      6674      6682
      6672      6669      6674      6676      6672      6669      6674      6682
      6673      6669      6674      6676      6673      6669      6674      6682
      6674      6676      6679      6681      6674      6676      6679      6685
      6674      6682      6685      6679      6674      6682      6685      6687
      6676      6674      6682      6684      6676      6674      6682      6685
      6676      6679      6685      6682      6676      6679      6685      6687
      6678      6676      6674      6682      6678      6676      6679      6681
      6678      6676      6679      6685      6679      6676      6674      6682
      6679      6685      6682      6684      6681      6679      6685      6682
      6681      6679      6685      6687      6684      6682      6685      6687
      6689      6694      6696      6698      6689      6694      6696      6699
      6689      6694      6702      6704      6689      6694      6702      6705
      6691      6689      6694      6696      6691      6689      6694      6702
      6692      6689      6694      6696      6692      6689      6694      6702
      6693      6689      6694      6696      6693      6689      6694      6702
      6694      6696      6699      6701      6694      6696      6699      6705
      6694      6702      6705      6699      6694      6702      6705      6707
      6696      6694      6702      6704      6696      6694      6702      6705
      6696      6699      6705      6702      6696      6699      6705      6707
      6698      6696      6694      6702      6698      6696      6699      6701
      6698      6696      6699      6705      6699      6696      6694      6702
      6699      6705      6702      6704      6701      6699      6705      6702
      6701      6699      6705      6707      6704      6702      6705      6707
      6709      6714      6716      6718      6709      6714      6716      6719
      6709      6714      6722      6724      6709      6714      6722      6725
      6711      6709      6714      6716      6711      6709      6714      6722
      6712      6709      6714      6716      6712      6709      6714      6722
      6713      6709      6714      6716      6713      6709      6714      6722
      6714      6716      6719      6721      6714      6716      6719      6725
      6714      6722      6725      6719      6714      6722      6725      6727
      6716      6714      6722      6724      6716      6714      6722      6725
      6716      6719      6725      6722      6716      6719      6725      6727
      6718      6716      6714      6722      6718      6716      6719      6721
      6718      6716      6719      6725      6719      6716      6714      6722
      6719      6725      6722      6724      6721      6719      6725      6722
      6721      6719      6725      6727      6724      6722      6725      6727
      6729      6734      6736      6738      6729      6734      6736      6739
      6729      6734      6742      6744      6729      6734      6742      6745
      6731      6729      6734      6736      6731      6729      6734      6742
      6732      6729      6734      6736      6732      6729      6734      6742
      6733      6729      6734      6736      6733      6729      6734      6742
      6734      6736      6739      6741      6734      6736      6739      6745
      6734      6742      6745      6739      6734      6742      6745      6747
      6736      6734      6742      6744      6736      6734      6742      6745
      6736      6739      6745      6742      6736      6739      6745      6747
      6738      6736      6734      6742      6738      6736      6739      6741
      6738      6736      6739      6745      6739      6736      6734      6742
      6739      6745      6742      6744      6741      6739      6745      6742
      6741      6739      6745      6747      6744      6742      6745      6747
      6749      6754      6756      6758      6749      6754      6756      6759
      6749      6754      6762      6764      6749      6754      6762      6765
      6751      6749      6754      6756      6751      6749      6754      6762
      6752      6749      6754      6756      6752      6749      6754      6762
      6753      6749      6754      6756      6753      6749      6754      6762
      6754      6756      6759      6761      6754      6756      6759      6765
      6754      6762      6765      6759      6754      6762      6765      6767
      6756      6754      6762      6764      6756      6754      6762      6765
      6756      6759      6765      6762      6756      6759      6765      6767
      6758      6756      6754      6762      6758      6756      6759      6761
      6758      6756      6759      6765      6759      6756      6754      6762
      6759      6765      6762      6764      6761      6759      6765      6762
      6761      6759      6765      6767      6764      6762      6765      6767
      6769      6774      6776      6778      6769      6774      6776      6779
      6769      6774      6782      6784      6769      6774      6782      6785
      6771      6769      6774      6776      6771      6769      6774      6782
      6772      6769      6774      6776      6772      6769      6774      6782
      6773      6769      6774      6776      6773      6769      6774      6782
      6774      6776      6779      6781      6774      6776      6779      6785
      6774      6782      6785      6779      6774      6782      6785      6787
      6776      6774      6782      6784      6776      6774      6782      6785
      6776      6779      6785      6782      6776      6779      6785      6787
      6778      6776      6774      6782      6778      6776      6779      6781
      6778      6776      6779      6785      6779      6776      6774      6782
      6779      6785      6782      6784      6781      6779      6785      6782
      6781      6779      6785      6787      6784      6782      6785      6787
      6789      6794      6796      6798      6789      6794      6796      6799
      6789      6794      6802      6804      6789      6794      6802      6805
      6791      6789      6794      6796      6791      6789      6794      6802
      6792      6789      6794      6796      6792      6789      6794      6802
      6793      6789      6794      6796      6793      6789      6794      6802
      6794      6796      6799      6801      6794      6796      6799      6805
      6794      6802      6805      6799      6794      6802      6805      6807
      6796      6794      6802      6804      6796      6794      6802      6805
      6796      6799      6805      6802      6796      6799      6805      6807
      6798      6796      6794      6802      6798      6796      6799      6801
      6798      6796      6799      6805      6799      6796      6794      6802
      6799      6805      6802      6804      6801      6799      6805      6802
      6801      6799      6805      6807      6804      6802      6805      6807
      6809      6814      6816      6818      6809      6814      6816      6819
      6809      6814      6822      6824      6809      6814      6822      6825
      6811      6809      6814      6816      6811      6809      6814      6822
      6812      6809      6814      6816      6812      6809      6814      6822
      6813      6809      6814      6816      6813      6809      6814      6822
      6814      6816      6819      6821      6814      6816      6819      6825
      6814      6822      6825      6819      6814      6822      6825      6827
      6816      6814      6822      6824      6816      6814      6822      6825
      6816      6819      6825      6822      6816      6819      6825      6827
      6818      6816      6814      6822      6818      6816      6819      6821
      6818      6816      6819      6825      6819      6816      6814      6822
      6819      6825      6822      6824      6821      6819      6825      6822
      6821      6819      6825      6827      6824      6822      6825      6827
      6829      6834      6836      6838      6829      6834      6836      6839
      6829      6834      6842      6844      6829      6834      6842      6845
      6831      6829      6834      6836      6831      6829      6834      6842
      6832      6829      6834      6836      6832      6829      6834      6842
      6833      6829      6834      6836      6833      6829      6834      6842
      6834      6836      6839      6841      6834      6836      6839      6845
      6834      6842      6845      6839      6834      6842      6845      6847
      6836      6834      6842      6844      6836      6834      6842      6845
      6836      6839      6845      6842      6836      6839      6845      6847
      6838      6836      6834      6842      6838      6836      6839      6841
      6838      6836      6839      6845      6839      6836      6834      6842
      6839      6845      6842      6844      6841      6839      6845      6842
      6841      6839      6845      6847      6844      6842      6845      6847
      6849      6854      6856      6858      6849      6854      6856      6859
      6849      6854      6862      6864      6849      6854      6862      6865
      6851      6849      6854      6856      6851      6849      6854      6862
      6852      6849      6854      6856      6852      6849      6854      6862
      6853      6849      6854      6856      6853      6849      6854      6862
      6854      6856      6859      6861      6854      6856      6859      6865
      6854      6862      6865      6859      6854      6862      6865      6867
      6856      6854      6862      6864      6856      6854      6862      6865
      6856      6859      6865      6862      6856      6859      6865      6867
      6858      6856      6854      6862      6858      6856      6859      6861
      6858      6856      6859      6865      6859      6856      6854      6862
      6859      6865      6862      6864      6861      6859      6865      6862
      6861      6859      6865      6867      6864      6862      6865      6867
      6869      6874      6876      6878      6869      6874      6876      6879
      6869      6874      6882      6884      6869      6874      6882      6885
      6871      6869      6874      6876      6871      6869      6874      6882
      6872      6869      6874      6876      6872      6869      6874      6882
      6873      6869      6874      6876      6873      6869      6874      6882
      6874      6876      6879      6881      6874      6876      6879      6885
      6874      6882      6885      6879      6874      6882      6885      6887
      6876      6874      6882      6884      6876      6874      6882      6885
      6876      6879      6885      6882      6876      6879      6885      6887
      6878      6876      6874      6882      6878      6876      6879      6881
      6878      6876      6879      6885      6879      6876      6874      6882
      6879      6885      6882      6884      6881      6879      6885      6882
      6881      6879      6885      6887      6884      6882      6885      6887
      6889      6894      6896      6898      6889      6894      6896      6899
      6889      6894      6902      6904      6889      6894      6902      6905
      6891      6889      6894      6896      6891      6889      6894      6902
      6892      6889      6894      6896      6892      6889      6894      6902
      6893      6889      6894      6896      6893      6889      6894      6902
      6894      6896      6899      6901      6894      6896      6899      6905
      6894      6902      6905      6899      6894      6902      6905      6907
      6896      6894      6902      6904      6896      6894      6902      6905
      6896      6899      6905      6902      6896      6899      6905      6907
      6898      6896      6894      6902      6898      6896      6899      6901
      6898      6896      6899      6905      6899      6896      6894      6902
      6899      6905      6902      6904      6901      6899      6905      6902
      6901      6899      6905      6907      6904      6902      6905      6907
      6909      6914      6916      6918      6909      6914      6916      6919
      6909      6914      6922      6924      6909      6914      6922      6925
      6911      6909      6914      6916      6911      6909      6914      6922
      6912      6909      6914      6916      6912      6909      6914      6922
      6913      6909      6914      6916      6913      6909      6914      6922
      6914      6916      6919      6921      6914      6916      6919      6925
      6914      6922      6925      6919      6914      6922      6925      6927
      6916      6914      6922      6924      6916      6914      6922      6925
      6916      6919      6925      6922      6916      6919      6925      6927
      6918      6916      6914      6922      6918      6916      6919      6921
      6918      6916      6919      6925      6919      6916      6914      6922
      6919      6925      6922      6924      6921      6919      6925      6922
      6921      6919      6925      6927      6924      6922      6925      6927
      6929      6934      6936      6938      6929      6934      6936      6939
      6929      6934      6942      6944      6929      6934      6942      6945
      6931      6929      6934      6936      6931      6929      6934      6942
      6932      6929      6934      6936      6932      6929      6934      6942
      6933      6929      6934      6936      6933      6929      6934      6942
      6934      6936      6939      6941      6934      6936      6939      6945
      6934      6942      6945      6939      6934      6942      6945      6947
      6936      6934      6942      6944      6936      6934      6942      6945
      6936      6939      6945      6942      6936      6939      6945      6947
      6938      6936      6934      6942      6938      6936      6939      6941
      6938      6936      6939      6945      6939      6936      6934      6942
      6939      6945      6942      6944      6941      6939      6945      6942
      6941      6939      6945      6947      6944      6942      6945      6947
      6949      6954      6956      6958      6949      6954      6956      6959
      6949      6954      6962      6964      6949      6954      6962      6965
      6951      6949      6954      6956      6951      6949      6954      6962
      6952      6949      6954      6956      6952      6949      6954      6962
      6953      6949      6954      6956      6953      6949      6954      6962
      6954      6956      6959      6961      6954      6956      6959      6965
      6954      6962      6965      6959      6954      6962      6965      6967
      6956      6954      6962      6964      6956      6954      6962      6965
      6956      6959      6965      6962      6956      6959      6965      6967
      6958      6956      6954      6962      6958      6956      6959      6961
      6958      6956      6959      6965      6959      6956      6954      6962
      6959      6965      6962      6964      6961      6959      6965      6962
      6961      6959      6965      6967      6964      6962      6965      6967
      6969      6974      6976      6978      6969      6974      6976      6979
      6969      6974      6982      6984      6969      6974      6982      6985
      6971      6969      6974      6976      6971      6969      6974      6982
      6972      6969      6974      6976      6972      6969      6974      6982
      6973      6969      6974      6976      6973      6969      6974      6982
      6974      6976      6979      6981      6974      6976      6979      6985
      6974      6982      6985      6979      6974      6982      6985      6987
      6976      6974      6982      6984      6976      6974      6982      6985
      6976      6979      6985      6982      6976      6979      6985      6987
      6978      6976      6974      6982      6978      6976      6979      6981
      6978      6976      6979      6985      6979      6976      6974      6982
      6979      6985      6982      6984      6981      6979      6985      6982
      6981      6979      6985      6987      6984      6982      6985      6987
      6989      6994      6996      6998      6989      6994      6996      6999
      6989      6994      7002      7004      6989      6994      7002      7005
      6991      6989      6994      6996      6991      6989      6994      7002
      6992      6989      6994      6996      6992      6989      6994      7002
      6993      6989      6994      6996      6993      6989      6994      7002
      6994      6996      6999      7001      6994      6996      6999      7005
      6994      7002      7005      6999      6994      7002      7005      7007
      6996      6994      7002      7004      6996      6994      7002      7005
      6996      6999      7005      7002      6996      6999      7005      7007
      6998      6996      6994      7002      6998      6996      6999      7001
      6998      6996      6999      7005      6999      6996      6994      7002
      6999      7005      7002      7004      7001      6999      7005      7002
      7001      6999      7005      7007      7004      7002      7005      7007
      7009      7014      7016      7018      7009      7014      7016      7019
      7009      7014      7022      7024      7009      7014      7022      7025
      7011      7009      7014      7016      7011      7009      7014      7022
      7012      7009      7014      7016      7012      7009      7014      7022
      7013      7009      7014      7016      7013      7009      7014      7022
      7014      7016      7019      7021      7014      7016      7019      7025
      7014      7022      7025      7019      7014      7022      7025      7027
      7016      7014      7022      7024      7016      7014      7022      7025
      7016      7019      7025      7022      7016      7019      7025      7027
      7018      7016      7014      7022      7018      7016      7019      7021
      7018      7016      7019      7025      7019      7016      7014      7022
      7019      7025      7022      7024      7021      7019      7025      7022
      7021      7019      7025      7027      7024      7022      7025      7027
      7029      7034      7036      7038      7029      7034      7036      7039
      7029      7034      7042      7044      7029      7034      7042      7045
      7031      7029      7034      7036      7031      7029      7034      7042
      7032      7029      7034      7036      7032      7029      7034      7042
      7033      7029      7034      7036      7033      7029      7034      7042
      7034      7036      7039      7041      7034      7036      7039      7045
      7034      7042      7045      7039      7034      7042      7045      7047
      7036      7034      7042      7044      7036      7034      7042      7045
      7036      7039      7045      7042      7036      7039      7045      7047
      7038      7036      7034      7042      7038      7036      7039      7041
      7038      7036      7039      7045      7039      7036      7034      7042
      7039      7045      7042      7044      7041      7039      7045      7042
      7041      7039      7045      7047      7044      7042      7045      7047
      7049      7054      7056      7058      7049      7054      7056      7059
      7049      7054      7062      7064      7049      7054      7062      7065
      7051      7049      7054      7056      7051      7049      7054      7062
      7052      7049      7054      7056      7052      7049      7054      7062
      7053      7049      7054      7056      7053      7049      7054      7062
      7054      7056      7059      7061      7054      7056      7059      7065
      7054      7062      7065      7059      7054      7062      7065      7067
      7056      7054      7062      7064      7056      7054      7062      7065
      7056      7059      7065      7062      7056      7059      7065      7067
      7058      7056      7054      7062      7058      7056      7059      7061
      7058      7056      7059      7065      7059      7056      7054      7062
      7059      7065      7062      7064      7061      7059      7065      7062
      7061      7059      7065      7067      7064      7062      7065      7067
      7069      7074      7076      7078      7069      7074      7076      7079
      7069      7074      7082      7084      7069      7074      7082      7085
      7071      7069      7074      7076      7071      7069      7074      7082
      7072      7069      7074      7076      7072      7069      7074      7082
      7073      7069      7074      7076      7073      7069      7074      7082
      7074      7076      7079      7081      7074      7076      7079      7085
      7074      7082      7085      7079      7074      7082      7085      7087
      7076      7074      7082      7084      7076      7074      7082      7085
      7076      7079      7085      7082      7076      7079      7085      7087
      7078      7076      7074      7082      7078      7076      7079      7081
      7078      7076      7079      7085      7079      7076      7074      7082
      7079      7085      7082      7084      7081      7079      7085      7082
      7081      7079      7085      7087      7084      7082      7085      7087
      7089      7094      7096      7098      7089      7094      7096      7099
      7089      7094      7102      7104      7089      7094      7102      7105
      7091      7089      7094      7096      7091      7089      7094      7102
      7092      7089      7094      7096      7092      7089      7094      7102
      7093      7089      7094      7096      7093      7089      7094      7102
      7094      7096      7099      7101      7094      7096      7099      7105
      7094      7102      7105      7099      7094      7102      7105      7107
      7096      7094      7102      7104      7096      7094      7102      7105
      7096      7099      7105      7102      7096      7099      7105      7107
      7098      7096      7094      7102      7098      7096      7099      7101
      7098      7096      7099      7105      7099      7096      7094      7102
      7099      7105      7102      7104      7101      7099      7105      7102
      7101      7099      7105      7107      7104      7102      7105      7107
      7109      7114      7116      7118      7109      7114      7116      7119
      7109      7114      7122      7124      7109      7114      7122      7125
      7111      7109      7114      7116      7111      7109      7114      7122
      7112      7109      7114      7116      7112      7109      7114      7122
      7113      7109      7114      7116      7113      7109      7114      7122
      7114      7116      7119      7121      7114      7116      7119      7125
      7114      7122      7125      7119      7114      7122      7125      7127
      7116      7114      7122      7124      7116      7114      7122      7125
      7116      7119      7125      7122      7116      7119      7125      7127
      7118      7116      7114      7122      7118      7116      7119      7121
      7118      7116      7119      7125      7119      7116      7114      7122
      7119      7125      7122      7124      7121      7119      7125      7122
      7121      7119      7125      7127      7124      7122      7125      7127
      7129      7134      7136      7138      7129      7134      7136      7139
      7129      7134      7142      7144      7129      7134      7142      7145
      7131      7129      7134      7136      7131      7129      7134      7142
      7132      7129      7134      7136      7132      7129      7134      7142
      7133      7129      7134      7136      7133      7129      7134      7142
      7134      7136      7139      7141      7134      7136      7139      7145
      7134      7142      7145      7139      7134      7142      7145      7147
      7136      7134      7142      7144      7136      7134      7142      7145
      7136      7139      7145      7142      7136      7139      7145      7147
      7138      7136      7134      7142      7138      7136      7139      7141
      7138      7136      7139      7145      7139      7136      7134      7142
      7139      7145      7142      7144      7141      7139      7145      7142
      7141      7139      7145      7147      7144      7142      7145      7147
      7149      7154      7156      7158      7149      7154      7156      7159
      7149      7154      7162      7164      7149      7154      7162      7165
      7151      7149      7154      7156      7151      7149      7154      7162
      7152      7149      7154      7156      7152      7149      7154      7162
      7153      7149      7154      7156      7153      7149      7154      7162
      7154      7156      7159      7161      7154      7156      7159      7165
      7154      7162      7165      7159      7154      7162      7165      7167
      7156      7154      7162      7164      7156      7154      7162      7165
      7156      7159      7165      7162      7156      7159      7165      7167
      7158      7156      7154      7162      7158      7156      7159      7161
      7158      7156      7159      7165      7159      7156      7154      7162
      7159      7165      7162      7164      7161      7159      7165      7162
      7161      7159      7165      7167      7164      7162      7165      7167
      7169      7174      7176      7178      7169      7174      7176      7179
      7169      7174      7182      7184      7169      7174      7182      7185
      7171      7169      7174      7176      7171      7169      7174      7182
      7172      7169      7174      7176      7172      7169      7174      7182
      7173      7169      7174      7176      7173      7169      7174      7182
      7174      7176      7179      7181      7174      7176      7179      7185
      7174      7182      7185      7179      7174      7182      7185      7187
      7176      7174      7182      7184      7176      7174      7182      7185
      7176      7179      7185      7182      7176      7179      7185      7187
      7178      7176      7174      7182      7178      7176      7179      7181
      7178      7176      7179      7185      7179      7176      7174      7182
      7179      7185      7182      7184      7181      7179      7185      7182
      7181      7179      7185      7187      7184      7182      7185      7187
      7189      7194      7196      7198      7189      7194      7196      7199
      7189      7194      7202      7204      7189      7194      7202      7205
      7191      7189      7194      7196      7191      7189      7194      7202
      7192      7189      7194      7196      7192      7189      7194      7202
      7193      7189      7194      7196      7193      7189      7194      7202
      7194      7196      7199      7201      7194      7196      7199      7205
      7194      7202      7205      7199      7194      7202      7205      7207
      7196      7194      7202      7204      7196      7194      7202      7205
      7196      7199      7205      7202      7196      7199      7205      7207
      7198      7196      7194      7202      7198      7196      7199      7201
      7198      7196      7199      7205      7199      7196      7194      7202
      7199      7205      7202      7204      7201      7199      7205      7202
      7201      7199      7205      7207      7204      7202      7205      7207
      7209      7214      7216      7218      7209      7214      7216      7219
      7209      7214      7222      7224      7209      7214      7222      7225
      7211      7209      7214      7216      7211      7209      7214      7222
      7212      7209      7214      7216      7212      7209      7214      7222
      7213      7209      7214      7216      7213      7209      7214      7222
      7214      7216      7219      7221      7214      7216      7219      7225
      7214      7222      7225      7219      7214      7222      7225      7227
      7216      7214      7222      7224      7216      7214      7222      7225
      7216      7219      7225      7222      7216      7219      7225      7227
      7218      7216      7214      7222      7218      7216      7219      7221
      7218      7216      7219      7225      7219      7216      7214      7222
      7219      7225      7222      7224      7221      7219      7225      7222
      7221      7219      7225      7227      7224      7222      7225      7227
      7229      7234      7236      7238      7229      7234      7236      7239
      7229      7234      7242      7244      7229      7234      7242      7245
      7231      7229      7234      7236      7231      7229      7234      7242
      7232      7229      7234      7236      7232      7229      7234      7242
      7233      7229      7234      7236      7233      7229      7234      7242
      7234      7236      7239      7241      7234      7236      7239      7245
      7234      7242      7245      7239      7234      7242      7245      7247
      7236      7234      7242      7244      7236      7234      7242      7245
      7236      7239      7245      7242      7236      7239      7245      7247
      7238      7236      7234      7242      7238      7236      7239      7241
      7238      7236      7239      7245      7239      7236      7234      7242
      7239      7245      7242      7244      7241      7239      7245      7242
      7241      7239      7245      7247      7244      7242      7245      7247
      7249      7254      7256      7258      7249      7254      7256      7259
      7249      7254      7262      7264      7249      7254      7262      7265
      7251      7249      7254      7256      7251      7249      7254      7262
      7252      7249      7254      7256      7252      7249      7254      7262
      7253      7249      7254      7256      7253      7249      7254      7262
      7254      7256      7259      7261      7254      7256      7259      7265
      7254      7262      7265      7259      7254      7262      7265      7267
      7256      7254      7262      7264      7256      7254      7262      7265
      7256      7259      7265      7262      7256      7259      7265      7267
      7258      7256      7254      7262      7258      7256      7259      7261
      7258      7256      7259      7265      7259      7256      7254      7262
      7259      7265      7262      7264      7261      7259      7265      7262
      7261      7259      7265      7267      7264      7262      7265      7267
      7269      7274      7276      7278      7269      7274      7276      7279
      7269      7274      7282      7284      7269      7274      7282      7285
      7271      7269      7274      7276      7271      7269      7274      7282
      7272      7269      7274      7276      7272      7269      7274      7282
      7273      7269      7274      7276      7273      7269      7274      7282
      7274      7276      7279      7281      7274      7276      7279      7285
      7274      7282      7285      7279      7274      7282      7285      7287
      7276      7274      7282      7284      7276      7274      7282      7285
      7276      7279      7285      7282      7276      7279      7285      7287
      7278      7276      7274      7282      7278      7276      7279      7281
      7278      7276      7279      7285      7279      7276      7274      7282
      7279      7285      7282      7284      7281      7279      7285      7282
      7281      7279      7285      7287      7284      7282      7285      7287
      7289      7294      7296      7298      7289      7294      7296      7299
      7289      7294      7302      7304      7289      7294      7302      7305
      7291      7289      7294      7296      7291      7289      7294      7302
      7292      7289      7294      7296      7292      7289      7294      7302
      7293      7289      7294      7296      7293      7289      7294      7302
      7294      7296      7299      7301      7294      7296      7299      7305
      7294      7302      7305      7299      7294      7302      7305      7307
      7296      7294      7302      7304      7296      7294      7302      7305
      7296      7299      7305      7302      7296      7299      7305      7307
      7298      7296      7294      7302      7298      7296      7299      7301
      7298      7296      7299      7305      7299      7296      7294      7302
      7299      7305      7302      7304      7301      7299      7305      7302
      7301      7299      7305      7307      7304      7302      7305      7307
      7309      7314      7316      7318      7309      7314      7316      7319
      7309      7314      7322      7324      7309      7314      7322      7325
      7311      7309      7314      7316      7311      7309      7314      7322
      7312      7309      7314      7316      7312      7309      7314      7322
      7313      7309      7314      7316      7313      7309      7314      7322
      7314      7316      7319      7321      7314      7316      7319      7325
      7314      7322      7325      7319      7314      7322      7325      7327
      7316      7314      7322      7324      7316      7314      7322      7325
      7316      7319      7325      7322      7316      7319      7325      7327
      7318      7316      7314      7322      7318      7316      7319      7321
      7318      7316      7319      7325      7319      7316      7314      7322
      7319      7325      7322      7324      7321      7319      7325      7322
      7321      7319      7325      7327      7324      7322      7325      7327
      7329      7334      7336      7338      7329      7334      7336      7339
      7329      7334      7342      7344      7329      7334      7342      7345
      7331      7329      7334      7336      7331      7329      7334      7342
      7332      7329      7334      7336      7332      7329      7334      7342
      7333      7329      7334      7336      7333      7329      7334      7342
      7334      7336      7339      7341      7334      7336      7339      7345
      7334      7342      7345      7339      7334      7342      7345      7347
      7336      7334      7342      7344      7336      7334      7342      7345
      7336      7339      7345      7342      7336      7339      7345      7347
      7338      7336      7334      7342      7338      7336      7339      7341
      7338      7336      7339      7345      7339      7336      7334      7342
      7339      7345      7342      7344      7341      7339      7345      7342
      7341      7339      7345      7347      7344      7342      7345      7347
      7349      7354      7356      7358      7349      7354      7356      7359
      7349      7354      7362      7364      7349      7354      7362      7365
      7351      7349      7354      7356      7351      7349      7354      7362
      7352      7349      7354      7356      7352      7349      7354      7362
      7353      7349      7354      7356      7353      7349      7354      7362
      7354      7356      7359      7361      7354      7356      7359      7365
      7354      7362      7365      7359      7354      7362      7365      7367
      7356      7354      7362      7364      7356      7354      7362      7365
      7356      7359      7365      7362      7356      7359      7365      7367
      7358      7356      7354      7362      7358      7356      7359      7361
      7358      7356      7359      7365      7359      7356      7354      7362
      7359      7365      7362      7364      7361      7359      7365      7362
      7361      7359      7365      7367      7364      7362      7365      7367
      7369      7374      7376      7378      7369      7374      7376      7379
      7369      7374      7382      7384      7369      7374      7382      7385
      7371      7369      7374      7376      7371      7369      7374      7382
      7372      7369      7374      7376      7372      7369      7374      7382
      7373      7369      7374      7376      7373      7369      7374      7382
      7374      7376      7379      7381      7374      7376      7379      7385
      7374      7382      7385      7379      7374      7382      7385      7387
      7376      7374      7382      7384      7376      7374      7382      7385
      7376      7379      7385      7382      7376      7379      7385      7387
      7378      7376      7374      7382      7378      7376      7379      7381
      7378      7376      7379      7385      7379      7376      7374      7382
      7379      7385      7382      7384      7381      7379      7385      7382
      7381      7379      7385      7387      7384      7382      7385      7387
      7389      7394      7396      7398      7389      7394      7396      7399
      7389      7394      7402      7404      7389      7394      7402      7405
      7391      7389      7394      7396      7391      7389      7394      7402
      7392      7389      7394      7396      7392      7389      7394      7402
      7393      7389      7394      7396      7393      7389      7394      7402
      7394      7396      7399      7401      7394      7396      7399      7405
      7394      7402      7405      7399      7394      7402      7405      7407
      7396      7394      7402      7404      7396      7394      7402      7405
      7396      7399      7405      7402      7396      7399      7405      7407
      7398      7396      7394      7402      7398      7396      7399      7401
      7398      7396      7399      7405      7399      7396      7394      7402
      7399      7405      7402      7404      7401      7399      7405      7402
      7401      7399      7405      7407      7404      7402      7405      7407
      7409      7414      7416      7418      7409      7414      7416      7419
      7409      7414      7422      7424      7409      7414      7422      7425
      7411      7409      7414      7416      7411      7409      7414      7422
      7412      7409      7414      7416      7412      7409      7414      7422
      7413      7409      7414      7416      7413      7409      7414      7422
      7414      7416      7419      7421      7414      7416      7419      7425
      7414      7422      7425      7419      7414      7422      7425      7427
      7416      7414      7422      7424      7416      7414      7422      7425
      7416      7419      7425      7422      7416      7419      7425      7427
      7418      7416      7414      7422      7418      7416      7419      7421
      7418      7416      7419      7425      7419      7416      7414      7422
      7419      7425      7422      7424      7421      7419      7425      7422
      7421      7419      7425      7427      7424      7422      7425      7427
      7429      7434      7436      7438      7429      7434      7436      7439
      7429      7434      7442      7444      7429      7434      7442      7445
      7431      7429      7434      7436      7431      7429      7434      7442
      7432      7429      7434      7436      7432      7429      7434      7442
      7433      7429      7434      7436      7433      7429      7434      7442
      7434      7436      7439      7441      7434      7436      7439      7445
      7434      7442      7445      7439      7434      7442      7445      7447
      7436      7434      7442      7444      7436      7434      7442      7445
      7436      7439      7445      7442      7436      7439      7445      7447
      7438      7436      7434      7442      7438      7436      7439      7441
      7438      7436      7439      7445      7439      7436      7434      7442
      7439      7445      7442      7444      7441      7439      7445      7442
      7441      7439      7445      7447      7444      7442      7445      7447
      7449      7454      7456      7458      7449      7454      7456      7459
      7449      7454      7462      7464      7449      7454      7462      7465
      7451      7449      7454      7456      7451      7449      7454      7462
      7452      7449      7454      7456      7452      7449      7454      7462
      7453      7449      7454      7456      7453      7449      7454      7462
      7454      7456      7459      7461      7454      7456      7459      7465
      7454      7462      7465      7459      7454      7462      7465      7467
      7456      7454      7462      7464      7456      7454      7462      7465
      7456      7459      7465      7462      7456      7459      7465      7467
      7458      7456      7454      7462      7458      7456      7459      7461
      7458      7456      7459      7465      7459      7456      7454      7462
      7459      7465      7462      7464      7461      7459      7465      7462
      7461      7459      7465      7467      7464      7462      7465      7467
      7469      7474      7476      7478      7469      7474      7476      7479
      7469      7474      7482      7484      7469      7474      7482      7485
      7471      7469      7474      7476      7471      7469      7474      7482
      7472      7469      7474      7476      7472      7469      7474      7482
      7473      7469      7474      7476      7473      7469      7474      7482
      7474      7476      7479      7481      7474      7476      7479      7485
      7474      7482      7485      7479      7474      7482      7485      7487
      7476      7474      7482      7484      7476      7474      7482      7485
      7476      7479      7485      7482      7476      7479      7485      7487
      7478      7476      7474      7482      7478      7476      7479      7481
      7478      7476      7479      7485      7479      7476      7474      7482
      7479      7485      7482      7484      7481      7479      7485      7482
      7481      7479      7485      7487      7484      7482      7485      7487
      7489      7494      7496      7498      7489      7494      7496      7499
      7489      7494      7502      7504      7489      7494      7502      7505
      7491      7489      7494      7496      7491      7489      7494      7502
      7492      7489      7494      7496      7492      7489      7494      7502
      7493      7489      7494      7496      7493      7489      7494      7502
      7494      7496      7499      7501      7494      7496      7499      7505
      7494      7502      7505      7499      7494      7502      7505      7507
      7496      7494      7502      7504      7496      7494      7502      7505
      7496      7499      7505      7502      7496      7499      7505      7507
      7498      7496      7494      7502      7498      7496      7499      7501
      7498      7496      7499      7505      7499      7496      7494      7502
      7499      7505      7502      7504      7501      7499      7505      7502
      7501      7499      7505      7507      7504      7502      7505      7507
      7509      7514      7516      7518      7509      7514      7516      7519
      7509      7514      7522      7524      7509      7514      7522      7525
      7511      7509      7514      7516      7511      7509      7514      7522
      7512      7509      7514      7516      7512      7509      7514      7522
      7513      7509      7514      7516      7513      7509      7514      7522
      7514      7516      7519      7521      7514      7516      7519      7525
      7514      7522      7525      7519      7514      7522      7525      7527
      7516      7514      7522      7524      7516      7514      7522      7525
      7516      7519      7525      7522      7516      7519      7525      7527
      7518      7516      7514      7522      7518      7516      7519      7521
      7518      7516      7519      7525      7519      7516      7514      7522
      7519      7525      7522      7524      7521      7519      7525      7522
      7521      7519      7525      7527      7524      7522      7525      7527
      7529      7534      7536      7538      7529      7534      7536      7539
      7529      7534      7542      7544      7529      7534      7542      7545
      7531      7529      7534      7536      7531      7529      7534      7542
      7532      7529      7534      7536      7532      7529      7534      7542
      7533      7529      7534      7536      7533      7529      7534      7542
      7534      7536      7539      7541      7534      7536      7539      7545
      7534      7542      7545      7539      7534      7542      7545      7547
      7536      7534      7542      7544      7536      7534      7542      7545
      7536      7539      7545      7542      7536      7539      7545      7547
      7538      7536      7534      7542      7538      7536      7539      7541
      7538      7536      7539      7545      7539      7536      7534      7542
      7539      7545      7542      7544      7541      7539      7545      7542
      7541      7539      7545      7547      7544      7542      7545      7547
      7549      7554      7556      7558      7549      7554      7556      7559
      7549      7554      7562      7564      7549      7554      7562      7565
      7551      7549      7554      7556      7551      7549      7554      7562
      7552      7549      7554      7556      7552      7549      7554      7562
      7553      7549      7554      7556      7553      7549      7554      7562
      7554      7556      7559      7561      7554      7556      7559      7565
      7554      7562      7565      7559      7554      7562      7565      7567
      7556      7554      7562      7564      7556      7554      7562      7565
      7556      7559      7565      7562      7556      7559      7565      7567
      7558      7556      7554      7562      7558      7556      7559      7561
      7558      7556      7559      7565      7559      7556      7554      7562
      7559      7565      7562      7564      7561      7559      7565      7562
      7561      7559      7565      7567      7564      7562      7565      7567
      7569      7574      7576      7578      7569      7574      7576      7579
      7569      7574      7582      7584      7569      7574      7582      7585
      7571      7569      7574      7576      7571      7569      7574      7582
      7572      7569      7574      7576      7572      7569      7574      7582
      7573      7569      7574      7576      7573      7569      7574      7582
      7574      7576      7579      7581      7574      7576      7579      7585
      7574      7582      7585      7579      7574      7582      7585      7587
      7576      7574      7582      7584      7576      7574      7582      7585
      7576      7579      7585      7582      7576      7579      7585      7587
      7578      7576      7574      7582      7578      7576      7579      7581
      7578      7576      7579      7585      7579      7576      7574      7582
      7579      7585      7582      7584      7581      7579      7585      7582
      7581      7579      7585      7587      7584      7582      7585      7587
      7589      7594      7596      7598      7589      7594      7596      7599
      7589      7594      7602      7604      7589      7594      7602      7605
      7591      7589      7594      7596      7591      7589      7594      7602
      7592      7589      7594      7596      7592      7589      7594      7602
      7593      7589      7594      7596      7593      7589      7594      7602
      7594      7596      7599      7601      7594      7596      7599      7605
      7594      7602      7605      7599      7594      7602      7605      7607
      7596      7594      7602      7604      7596      7594      7602      7605
      7596      7599      7605      7602      7596      7599      7605      7607
      7598      7596      7594      7602      7598      7596      7599      7601
      7598      7596      7599      7605      7599      7596      7594      7602
      7599      7605      7602      7604      7601      7599      7605      7602
      7601      7599      7605      7607      7604      7602      7605      7607
      7609      7614      7616      7618      7609      7614      7616      7619
      7609      7614      7622      7624      7609      7614      7622      7625
      7611      7609      7614      7616      7611      7609      7614      7622
      7612      7609      7614      7616      7612      7609      7614      7622
      7613      7609      7614      7616      7613      7609      7614      7622
      7614      7616      7619      7621      7614      7616      7619      7625
      7614      7622      7625      7619      7614      7622      7625      7627
      7616      7614      7622      7624      7616      7614      7622      7625
      7616      7619      7625      7622      7616      7619      7625      7627
      7618      7616      7614      7622      7618      7616      7619      7621
      7618      7616      7619      7625      7619      7616      7614      7622
      7619      7625      7622      7624      7621      7619      7625      7622
      7621      7619      7625      7627      7624      7622      7625      7627
      7629      7634      7636      7638      7629      7634      7636      7639
      7629      7634      7642      7644      7629      7634      7642      7645
      7631      7629      7634      7636      7631      7629      7634      7642
      7632      7629      7634      7636      7632      7629      7634      7642
      7633      7629      7634      7636      7633      7629      7634      7642
      7634      7636      7639      7641      7634      7636      7639      7645
      7634      7642      7645      7639      7634      7642      7645      7647
      7636      7634      7642      7644      7636      7634      7642      7645
      7636      7639      7645      7642      7636      7639      7645      7647
      7638      7636      7634      7642      7638      7636      7639      7641
      7638      7636      7639      7645      7639      7636      7634      7642
      7639      7645      7642      7644      7641      7639      7645      7642
      7641      7639      7645      7647      7644      7642      7645      7647
      7649      7654      7656      7658      7649      7654      7656      7659
      7649      7654      7662      7664      7649      7654      7662      7665
      7651      7649      7654      7656      7651      7649      7654      7662
      7652      7649      7654      7656      7652      7649      7654      7662
      7653      7649      7654      7656      7653      7649      7654      7662
      7654      7656      7659      7661      7654      7656      7659      7665
      7654      7662      7665      7659      7654      7662      7665      7667
      7656      7654      7662      7664      7656      7654      7662      7665
      7656      7659      7665      7662      7656      7659      7665      7667
      7658      7656      7654      7662      7658      7656      7659      7661
      7658      7656      7659      7665      7659      7656      7654      7662
      7659      7665      7662      7664      7661      7659      7665      7662
      7661      7659      7665      7667      7664      7662      7665      7667
      7669      7674      7676      7678      7669      7674      7676      7679
      7669      7674      7682      7684      7669      7674      7682      7685
      7671      7669      7674      7676      7671      7669      7674      7682
      7672      7669      7674      7676      7672      7669      7674      7682
      7673      7669      7674      7676      7673      7669      7674      7682
      7674      7676      7679      7681      7674      7676      7679      7685
      7674      7682      7685      7679      7674      7682      7685      7687
      7676      7674      7682      7684      7676      7674      7682      7685
      7676      7679      7685      7682      7676      7679      7685      7687
      7678      7676      7674      7682      7678      7676      7679      7681
      7678      7676      7679      7685      7679      7676      7674      7682
      7679      7685      7682      7684      7681      7679      7685      7682
      7681      7679      7685      7687      7684      7682      7685      7687
      7689      7694      7696      7698      7689      7694      7696      7699
      7689      7694      7702      7704      7689      7694      7702      7705
      7691      7689      7694      7696      7691      7689      7694      7702
      7692      7689      7694      7696      7692      7689      7694      7702
      7693      7689      7694      7696      7693      7689      7694      7702
      7694      7696      7699      7701      7694      7696      7699      7705
      7694      7702      7705      7699      7694      7702      7705      7707
      7696      7694      7702      7704      7696      7694      7702      7705
      7696      7699      7705      7702      7696      7699      7705      7707
      7698      7696      7694      7702      7698      7696      7699      7701
      7698      7696      7699      7705      7699      7696      7694      7702
      7699      7705      7702      7704      7701      7699      7705      7702
      7701      7699      7705      7707      7704      7702      7705      7707
      7709      7714      7716      7718      7709      7714      7716      7719
      7709      7714      7722      7724      7709      7714      7722      7725
      7711      7709      7714      7716      7711      7709      7714      7722
      7712      7709      7714      7716      7712      7709      7714      7722
      7713      7709      7714      7716      7713      7709      7714      7722
      7714      7716      7719      7721      7714      7716      7719      7725
      7714      7722      7725      7719      7714      7722      7725      7727
      7716      7714      7722      7724      7716      7714      7722      7725
      7716      7719      7725      7722      7716      7719      7725      7727
      7718      7716      7714      7722      7718      7716      7719      7721
      7718      7716      7719      7725      7719      7716      7714      7722
      7719      7725      7722      7724      7721      7719      7725      7722
      7721      7719      7725      7727      7724      7722      7725      7727
      7729      7734      7736      7738      7729      7734      7736      7739
      7729      7734      7742      7744      7729      7734      7742      7745
      7731      7729      7734      7736      7731      7729      7734      7742
      7732      7729      7734      7736      7732      7729      7734      7742
      7733      7729      7734      7736      7733      7729      7734      7742
      7734      7736      7739      7741      7734      7736      7739      7745
      7734      7742      7745      7739      7734      7742      7745      7747
      7736      7734      7742      7744      7736      7734      7742      7745
      7736      7739      7745      7742      7736      7739      7745      7747
      7738      7736      7734      7742      7738      7736      7739      7741
      7738      7736      7739      7745      7739      7736      7734      7742
      7739      7745      7742      7744      7741      7739      7745      7742
      7741      7739      7745      7747      7744      7742      7745      7747
      7749      7754      7756      7758      7749      7754      7756      7759
      7749      7754      7762      7764      7749      7754      7762      7765
      7751      7749      7754      7756      7751      7749      7754      7762
      7752      7749      7754      7756      7752      7749      7754      7762
      7753      7749      7754      7756      7753      7749      7754      7762
      7754      7756      7759      7761      7754      7756      7759      7765
      7754      7762      7765      7759      7754      7762      7765      7767
      7756      7754      7762      7764      7756      7754      7762      7765
      7756      7759      7765      7762      7756      7759      7765      7767
      7758      7756      7754      7762      7758      7756      7759      7761
      7758      7756      7759      7765      7759      7756      7754      7762
      7759      7765      7762      7764      7761      7759      7765      7762
      7761      7759      7765      7767      7764      7762      7765      7767
      7769      7774      7776      7778      7769      7774      7776      7779
      7769      7774      7782      7784      7769      7774      7782      7785
      7771      7769      7774      7776      7771      7769      7774      7782
      7772      7769      7774      7776      7772      7769      7774      7782
      7773      7769      7774      7776      7773      7769      7774      7782
      7774      7776      7779      7781      7774      7776      7779      7785
      7774      7782      7785      7779      7774      7782      7785      7787
      7776      7774      7782      7784      7776      7774      7782      7785
      7776      7779      7785      7782      7776      7779      7785      7787
      7778      7776      7774      7782      7778      7776      7779      7781
      7778      7776      7779      7785      7779      7776      7774      7782
      7779      7785      7782      7784      7781      7779      7785      7782
      7781      7779      7785      7787      7784      7782      7785      7787
      7789      7794      7796      7798      7789      7794      7796      7799
      7789      7794      7802      7804      7789      7794      7802      7805
      7791      7789      7794      7796      7791      7789      7794      7802
      7792      7789      7794      7796      7792      7789      7794      7802
      7793      7789      7794      7796      7793      7789      7794      7802
      7794      7796      7799      7801      7794      7796      7799      7805
      7794      7802      7805      7799      7794      7802      7805      7807
      7796      7794      7802      7804      7796      7794      7802      7805
      7796      7799      7805      7802      7796      7799      7805      7807
      7798      7796      7794      7802      7798      7796      7799      7801
      7798      7796      7799      7805      7799      7796      7794      7802
      7799      7805      7802      7804      7801      7799      7805      7802
      7801      7799      7805      7807      7804      7802      7805      7807
      7809      7814      7816      7818      7809      7814      7816      7819
      7809      7814      7822      7824      7809      7814      7822      7825
      7811      7809      7814      7816      7811      7809      7814      7822
      7812      7809      7814      7816      7812      7809      7814      7822
      7813      7809      7814      7816      7813      7809      7814      7822
      7814      7816      7819      7821      7814      7816      7819      7825
      7814      7822      7825      7819      7814      7822      7825      7827
      7816      7814      7822      7824      7816      7814      7822      7825
      7816      7819      7825      7822      7816      7819      7825      7827
      7818      7816      7814      7822      7818      7816      7819      7821
      7818      7816      7819      7825      7819      7816      7814      7822
      7819      7825      7822      7824      7821      7819      7825      7822
      7821      7819      7825      7827      7824      7822      7825      7827
      7829      7834      7836      7838      7829      7834      7836      7839
      7829      7834      7842      7844      7829      7834      7842      7845
      7831      7829      7834      7836      7831      7829      7834      7842
      7832      7829      7834      7836      7832      7829      7834      7842
      7833      7829      7834      7836      7833      7829      7834      7842
      7834      7836      7839      7841      7834      7836      7839      7845
      7834      7842      7845      7839      7834      7842      7845      7847
      7836      7834      7842      7844      7836      7834      7842      7845
      7836      7839      7845      7842      7836      7839      7845      7847
      7838      7836      7834      7842      7838      7836      7839      7841
      7838      7836      7839      7845      7839      7836      7834      7842
      7839      7845      7842      7844      7841      7839      7845      7842
      7841      7839      7845      7847      7844      7842      7845      7847
      7849      7854      7856      7858      7849      7854      7856      7859
      7849      7854      7862      7864      7849      7854      7862      7865
      7851      7849      7854      7856      7851      7849      7854      7862
      7852      7849      7854      7856      7852      7849      7854      7862
      7853      7849      7854      7856      7853      7849      7854      7862
      7854      7856      7859      7861      7854      7856      7859      7865
      7854      7862      7865      7859      7854      7862      7865      7867
      7856      7854      7862      7864      7856      7854      7862      7865
      7856      7859      7865      7862      7856      7859      7865      7867
      7858      7856      7854      7862      7858      7856      7859      7861
      7858      7856      7859      7865      7859      7856      7854      7862
      7859      7865      7862      7864      7861      7859      7865      7862
      7861      7859      7865      7867      7864      7862      7865      7867
      7869      7874      7876      7878      7869      7874      7876      7879
      7869      7874      7882      7884      7869      7874      7882      7885
      7871      7869      7874      7876      7871      7869      7874      7882
      7872      7869      7874      7876      7872      7869      7874      7882
      7873      7869      7874      7876      7873      7869      7874      7882
      7874      7876      7879      7881      7874      7876      7879      7885
      7874      7882      7885      7879      7874      7882      7885      7887
      7876      7874      7882      7884      7876      7874      7882      7885
      7876      7879      7885      7882      7876      7879      7885      7887
      7878      7876      7874      7882      7878      7876      7879      7881
      7878      7876      7879      7885      7879      7876      7874      7882
      7879      7885      7882      7884      7881      7879      7885      7882
      7881      7879      7885      7887      7884      7882      7885      7887
      7889      7894      7896      7898      7889      7894      7896      7899
      7889      7894      7902      7904      7889      7894      7902      7905
      7891      7889      7894      7896      7891      7889      7894      7902
      7892      7889      7894      7896      7892      7889      7894      7902
      7893      7889      7894      7896      7893      7889      7894      7902
      7894      7896      7899      7901      7894      7896      7899      7905
      7894      7902      7905      7899      7894      7902      7905      7907
      7896      7894      7902      7904      7896      7894      7902      7905
      7896      7899      7905      7902      7896      7899      7905      7907
      7898      7896      7894      7902      7898      7896      7899      7901
      7898      7896      7899      7905      7899      7896      7894      7902
      7899      7905      7902      7904      7901      7899      7905      7902
      7901      7899      7905      7907      7904      7902      7905      7907
      7909      7914      7916      7918      7909      7914      7916      7919
      7909      7914      7922      7924      7909      7914      7922      7925
      7911      7909      7914      7916      7911      7909      7914      7922
      7912      7909      7914      7916      7912      7909      7914      7922
      7913      7909      7914      7916      7913      7909      7914      7922
      7914      7916      7919      7921      7914      7916      7919      7925
      7914      7922      7925      7919      7914      7922      7925      7927
      7916      7914      7922      7924      7916      7914      7922      7925
      7916      7919      7925      7922      7916      7919      7925      7927
      7918      7916      7914      7922      7918      7916      7919      7921
      7918      7916      7919      7925      7919      7916      7914      7922
      7919      7925      7922      7924      7921      7919      7925      7922
      7921      7919      7925      7927      7924      7922      7925      7927
      7929      7934      7936      7938      7929      7934      7936      7939
      7929      7934      7942      7944      7929      7934      7942      7945
      7931      7929      7934      7936      7931      7929      7934      7942
      7932      7929      7934      7936      7932      7929      7934      7942
      7933      7929      7934      7936      7933      7929      7934      7942
      7934      7936      7939      7941      7934      7936      7939      7945
      7934      7942      7945      7939      7934      7942      7945      7947
      7936      7934      7942      7944      7936      7934      7942      7945
      7936      7939      7945      7942      7936      7939      7945      7947
      7938      7936      7934      7942      7938      7936      7939      7941
      7938      7936      7939      7945      7939      7936      7934      7942
      7939      7945      7942      7944      7941      7939      7945      7942
      7941      7939      7945      7947      7944      7942      7945      7947
      7949      7954      7956      7958      7949      7954      7956      7959
      7949      7954      7962      7964      7949      7954      7962      7965
      7951      7949      7954      7956      7951      7949      7954      7962
      7952      7949      7954      7956      7952      7949      7954      7962
      7953      7949      7954      7956      7953      7949      7954      7962
      7954      7956      7959      7961      7954      7956      7959      7965
      7954      7962      7965      7959      7954      7962      7965      7967
      7956      7954      7962      7964      7956      7954      7962      7965
      7956      7959      7965      7962      7956      7959      7965      7967
      7958      7956      7954      7962      7958      7956      7959      7961
      7958      7956      7959      7965      7959      7956      7954      7962
      7959      7965      7962      7964      7961      7959      7965      7962
      7961      7959      7965      7967      7964      7962      7965      7967
      7969      7974      7976      7978      7969      7974      7976      7979
      7969      7974      7982      7984      7969      7974      7982      7985
      7971      7969      7974      7976      7971      7969      7974      7982
      7972      7969      7974      7976      7972      7969      7974      7982
      7973      7969      7974      7976      7973      7969      7974      7982
      7974      7976      7979      7981      7974      7976      7979      7985
      7974      7982      7985      7979      7974      7982      7985      7987
      7976      7974      7982      7984      7976      7974      7982      7985
      7976      7979      7985      7982      7976      7979      7985      7987
      7978      7976      7974      7982      7978      7976      7979      7981
      7978      7976      7979      7985      7979      7976      7974      7982
      7979      7985      7982      7984      7981      7979      7985      7982
      7981      7979      7985      7987      7984      7982      7985      7987
      7989      7994      7996      7998      7989      7994      7996      7999
      7989      7994      8002      8004      7989      7994      8002      8005
      7991      7989      7994      7996      7991      7989      7994      8002
      7992      7989      7994      7996      7992      7989      7994      8002
      7993      7989      7994      7996      7993      7989      7994      8002
      7994      7996      7999      8001      7994      7996      7999      8005
      7994      8002      8005      7999      7994      8002      8005      8007
      7996      7994      8002      8004      7996      7994      8002      8005
      7996      7999      8005      8002      7996      7999      8005      8007
      7998      7996      7994      8002      7998      7996      7999      8001
      7998      7996      7999      8005      7999      7996      7994      8002
      7999      8005      8002      8004      8001      7999      8005      8002
      8001      7999      8005      8007      8004      8002      8005      8007
      8009      8014      8016      8018      8009      8014      8016      8019
      8009      8014      8022      8024      8009      8014      8022      8025
      8011      8009      8014      8016      8011      8009      8014      8022
      8012      8009      8014      8016      8012      8009      8014      8022
      8013      8009      8014      8016      8013      8009      8014      8022
      8014      8016      8019      8021      8014      8016      8019      8025
      8014      8022      8025      8019      8014      8022      8025      8027
      8016      8014      8022      8024      8016      8014      8022      8025
      8016      8019      8025      8022      8016      8019      8025      8027
      8018      8016      8014      8022      8018      8016      8019      8021
      8018      8016      8019      8025      8019      8016      8014      8022
      8019      8025      8022      8024      8021      8019      8025      8022
      8021      8019      8025      8027      8024      8022      8025      8027
      8029      8034      8036      8038      8029      8034      8036      8039
      8029      8034      8042      8044      8029      8034      8042      8045
      8031      8029      8034      8036      8031      8029      8034      8042
      8032      8029      8034      8036      8032      8029      8034      8042
      8033      8029      8034      8036      8033      8029      8034      8042
      8034      8036      8039      8041      8034      8036      8039      8045
      8034      8042      8045      8039      8034      8042      8045      8047
      8036      8034      8042      8044      8036      8034      8042      8045
      8036      8039      8045      8042      8036      8039      8045      8047
      8038      8036      8034      8042      8038      8036      8039      8041
      8038      8036      8039      8045      8039      8036      8034      8042
      8039      8045      8042      8044      8041      8039      8045      8042
      8041      8039      8045      8047      8044      8042      8045      8047
      8049      8054      8056      8058      8049      8054      8056      8059
      8049      8054      8062      8064      8049      8054      8062      8065
      8051      8049      8054      8056      8051      8049      8054      8062
      8052      8049      8054      8056      8052      8049      8054      8062
      8053      8049      8054      8056      8053      8049      8054      8062
      8054      8056      8059      8061      8054      8056      8059      8065
      8054      8062      8065      8059      8054      8062      8065      8067
      8056      8054      8062      8064      8056      8054      8062      8065
      8056      8059      8065      8062      8056      8059      8065      8067
      8058      8056      8054      8062      8058      8056      8059      8061
      8058      8056      8059      8065      8059      8056      8054      8062
      8059      8065      8062      8064      8061      8059      8065      8062
      8061      8059      8065      8067      8064      8062      8065      8067
      8069      8074      8076      8078      8069      8074      8076      8079
      8069      8074      8082      8084      8069      8074      8082      8085
      8071      8069      8074      8076      8071      8069      8074      8082
      8072      8069      8074      8076      8072      8069      8074      8082
      8073      8069      8074      8076      8073      8069      8074      8082
      8074      8076      8079      8081      8074      8076      8079      8085
      8074      8082      8085      8079      8074      8082      8085      8087
      8076      8074      8082      8084      8076      8074      8082      8085
      8076      8079      8085      8082      8076      8079      8085      8087
      8078      8076      8074      8082      8078      8076      8079      8081
      8078      8076      8079      8085      8079      8076      8074      8082
      8079      8085      8082      8084      8081      8079      8085      8082
      8081      8079      8085      8087      8084      8082      8085      8087
      8089      8094      8096      8098      8089      8094      8096      8099
      8089      8094      8102      8104      8089      8094      8102      8105
      8091      8089      8094      8096      8091      8089      8094      8102
      8092      8089      8094      8096      8092      8089      8094      8102
      8093      8089      8094      8096      8093      8089      8094      8102
      8094      8096      8099      8101      8094      8096      8099      8105
      8094      8102      8105      8099      8094      8102      8105      8107
      8096      8094      8102      8104      8096      8094      8102      8105
      8096      8099      8105      8102      8096      8099      8105      8107
      8098      8096      8094      8102      8098      8096      8099      8101
      8098      8096      8099      8105      8099      8096      8094      8102
      8099      8105      8102      8104      8101      8099      8105      8102
      8101      8099      8105      8107      8104      8102      8105      8107
      8109      8114      8116      8118      8109      8114      8116      8119
      8109      8114      8122      8124      8109      8114      8122      8125
      8111      8109      8114      8116      8111      8109      8114      8122
      8112      8109      8114      8116      8112      8109      8114      8122
      8113      8109      8114      8116      8113      8109      8114      8122
      8114      8116      8119      8121      8114      8116      8119      8125
      8114      8122      8125      8119      8114      8122      8125      8127
      8116      8114      8122      8124      8116      8114      8122      8125
      8116      8119      8125      8122      8116      8119      8125      8127
      8118      8116      8114      8122      8118      8116      8119      8121
      8118      8116      8119      8125      8119      8116      8114      8122
      8119      8125      8122      8124      8121      8119      8125      8122
      8121      8119      8125      8127      8124      8122      8125      8127
      8129      8134      8136      8138      8129      8134      8136      8139
      8129      8134      8142      8144      8129      8134      8142      8145
      8131      8129      8134      8136      8131      8129      8134      8142
      8132      8129      8134      8136      8132      8129      8134      8142
      8133      8129      8134      8136      8133      8129      8134      8142
      8134      8136      8139      8141      8134      8136      8139      8145
      8134      8142      8145      8139      8134      8142      8145      8147
      8136      8134      8142      8144      8136      8134      8142      8145
      8136      8139      8145      8142      8136      8139      8145      8147
      8138      8136      8134      8142      8138      8136      8139      8141
      8138      8136      8139      8145      8139      8136      8134      8142
      8139      8145      8142      8144      8141      8139      8145      8142
      8141      8139      8145      8147      8144      8142      8145      8147
      8149      8154      8156      8158      8149      8154      8156      8159
      8149      8154      8162      8164      8149      8154      8162      8165
      8151      8149      8154      8156      8151      8149      8154      8162
      8152      8149      8154      8156      8152      8149      8154      8162
      8153      8149      8154      8156      8153      8149      8154      8162
      8154      8156      8159      8161      8154      8156      8159      8165
      8154      8162      8165      8159      8154      8162      8165      8167
      8156      8154      8162      8164      8156      8154      8162      8165
      8156      8159      8165      8162      8156      8159      8165      8167
      8158      8156      8154      8162      8158      8156      8159      8161
      8158      8156      8159      8165      8159      8156      8154      8162
      8159      8165      8162      8164      8161      8159      8165      8162
      8161      8159      8165      8167      8164      8162      8165      8167
      8169      8174      8176      8178      8169      8174      8176      8179
      8169      8174      8182      8184      8169      8174      8182      8185
      8171      8169      8174      8176      8171      8169      8174      8182
      8172      8169      8174      8176      8172      8169      8174      8182
      8173      8169      8174      8176      8173      8169      8174      8182
      8174      8176      8179      8181      8174      8176      8179      8185
      8174      8182      8185      8179      8174      8182      8185      8187
      8176      8174      8182      8184      8176      8174      8182      8185
      8176      8179      8185      8182      8176      8179      8185      8187
      8178      8176      8174      8182      8178      8176      8179      8181
      8178      8176      8179      8185      8179      8176      8174      8182
      8179      8185      8182      8184      8181      8179      8185      8182
      8181      8179      8185      8187      8184      8182      8185      8187
      8189      8194      8196      8198      8189      8194      8196      8199
      8189      8194      8202      8204      8189      8194      8202      8205
      8191      8189      8194      8196      8191      8189      8194      8202
      8192      8189      8194      8196      8192      8189      8194      8202
      8193      8189      8194      8196      8193      8189      8194      8202
      8194      8196      8199      8201      8194      8196      8199      8205
      8194      8202      8205      8199      8194      8202      8205      8207
      8196      8194      8202      8204      8196      8194      8202      8205
      8196      8199      8205      8202      8196      8199      8205      8207
      8198      8196      8194      8202      8198      8196      8199      8201
      8198      8196      8199      8205      8199      8196      8194      8202
      8199      8205      8202      8204      8201      8199      8205      8202
      8201      8199      8205      8207      8204      8202      8205      8207
      8209      8214      8216      8218      8209      8214      8216      8219
      8209      8214      8222      8224      8209      8214      8222      8225
      8211      8209      8214      8216      8211      8209      8214      8222
      8212      8209      8214      8216      8212      8209      8214      8222
      8213      8209      8214      8216      8213      8209      8214      8222
      8214      8216      8219      8221      8214      8216      8219      8225
      8214      8222      8225      8219      8214      8222      8225      8227
      8216      8214      8222      8224      8216      8214      8222      8225
      8216      8219      8225      8222      8216      8219      8225      8227
      8218      8216      8214      8222      8218      8216      8219      8221
      8218      8216      8219      8225      8219      8216      8214      8222
      8219      8225      8222      8224      8221      8219      8225      8222
      8221      8219      8225      8227      8224      8222      8225      8227
      8229      8234      8236      8238      8229      8234      8236      8239
      8229      8234      8242      8244      8229      8234      8242      8245
      8231      8229      8234      8236      8231      8229      8234      8242
      8232      8229      8234      8236      8232      8229      8234      8242
      8233      8229      8234      8236      8233      8229      8234      8242
      8234      8236      8239      8241      8234      8236      8239      8245
      8234      8242      8245      8239      8234      8242      8245      8247
      8236      8234      8242      8244      8236      8234      8242      8245
      8236      8239      8245      8242      8236      8239      8245      8247
      8238      8236      8234      8242      8238      8236      8239      8241
      8238      8236      8239      8245      8239      8236      8234      8242
      8239      8245      8242      8244      8241      8239      8245      8242
      8241      8239      8245      8247      8244      8242      8245      8247
      8249      8254      8256      8258      8249      8254      8256      8259
      8249      8254      8262      8264      8249      8254      8262      8265
      8251      8249      8254      8256      8251      8249      8254      8262
      8252      8249      8254      8256      8252      8249      8254      8262
      8253      8249      8254      8256      8253      8249      8254      8262
      8254      8256      8259      8261      8254      8256      8259      8265
      8254      8262      8265      8259      8254      8262      8265      8267
      8256      8254      8262      8264      8256      8254      8262      8265
      8256      8259      8265      8262      8256      8259      8265      8267
      8258      8256      8254      8262      8258      8256      8259      8261
      8258      8256      8259      8265      8259      8256      8254      8262
      8259      8265      8262      8264      8261      8259      8265      8262
      8261      8259      8265      8267      8264      8262      8265      8267
      8269      8274      8276      8278      8269      8274      8276      8279
      8269      8274      8282      8284      8269      8274      8282      8285
      8271      8269      8274      8276      8271      8269      8274      8282
      8272      8269      8274      8276      8272      8269      8274      8282
      8273      8269      8274      8276      8273      8269      8274      8282
      8274      8276      8279      8281      8274      8276      8279      8285
      8274      8282      8285      8279      8274      8282      8285      8287
      8276      8274      8282      8284      8276      8274      8282      8285
      8276      8279      8285      8282      8276      8279      8285      8287
      8278      8276      8274      8282      8278      8276      8279      8281
      8278      8276      8279      8285      8279      8276      8274      8282
      8279      8285      8282      8284      8281      8279      8285      8282
      8281      8279      8285      8287      8284      8282      8285      8287
      8289      8294      8296      8298      8289      8294      8296      8299
      8289      8294      8302      8304      8289      8294      8302      8305
      8291      8289      8294      8296      8291      8289      8294      8302
      8292      8289      8294      8296      8292      8289      8294      8302
      8293      8289      8294      8296      8293      8289      8294      8302
      8294      8296      8299      8301      8294      8296      8299      8305
      8294      8302      8305      8299      8294      8302      8305      8307
      8296      8294      8302      8304      8296      8294      8302      8305
      8296      8299      8305      8302      8296      8299      8305      8307
      8298      8296      8294      8302      8298      8296      8299      8301
      8298      8296      8299      8305      8299      8296      8294      8302
      8299      8305      8302      8304      8301      8299      8305      8302
      8301      8299      8305      8307      8304      8302      8305      8307
      8309      8314      8316      8318      8309      8314      8316      8319
      8309      8314      8322      8324      8309      8314      8322      8325
      8311      8309      8314      8316      8311      8309      8314      8322
      8312      8309      8314      8316      8312      8309      8314      8322
      8313      8309      8314      8316      8313      8309      8314      8322
      8314      8316      8319      8321      8314      8316      8319      8325
      8314      8322      8325      8319      8314      8322      8325      8327
      8316      8314      8322      8324      8316      8314      8322      8325
      8316      8319      8325      8322      8316      8319      8325      8327
      8318      8316      8314      8322      8318      8316      8319      8321
      8318      8316      8319      8325      8319      8316      8314      8322
      8319      8325      8322      8324      8321      8319      8325      8322
      8321      8319      8325      8327      8324      8322      8325      8327
      8329      8334      8336      8338      8329      8334      8336      8339
      8329      8334      8342      8344      8329      8334      8342      8345
      8331      8329      8334      8336      8331      8329      8334      8342
      8332      8329      8334      8336      8332      8329      8334      8342
      8333      8329      8334      8336      8333      8329      8334      8342
      8334      8336      8339      8341      8334      8336      8339      8345
      8334      8342      8345      8339      8334      8342      8345      8347
      8336      8334      8342      8344      8336      8334      8342      8345
      8336      8339      8345      8342      8336      8339      8345      8347
      8338      8336      8334      8342      8338      8336      8339      8341
      8338      8336      8339      8345      8339      8336      8334      8342
      8339      8345      8342      8344      8341      8339      8345      8342
      8341      8339      8345      8347      8344      8342      8345      8347
      8349      8354      8356      8358      8349      8354      8356      8359
      8349      8354      8362      8364      8349      8354      8362      8365
      8351      8349      8354      8356      8351      8349      8354      8362
      8352      8349      8354      8356      8352      8349      8354      8362
      8353      8349      8354      8356      8353      8349      8354      8362
      8354      8356      8359      8361      8354      8356      8359      8365
      8354      8362      8365      8359      8354      8362      8365      8367
      8356      8354      8362      8364      8356      8354      8362      8365
      8356      8359      8365      8362      8356      8359      8365      8367
      8358      8356      8354      8362      8358      8356      8359      8361
      8358      8356      8359      8365      8359      8356      8354      8362
      8359      8365      8362      8364      8361      8359      8365      8362
      8361      8359      8365      8367      8364      8362      8365      8367
      8369      8374      8376      8378      8369      8374      8376      8379
      8369      8374      8382      8384      8369      8374      8382      8385
      8371      8369      8374      8376      8371      8369      8374      8382
      8372      8369      8374      8376      8372      8369      8374      8382
      8373      8369      8374      8376      8373      8369      8374      8382
      8374      8376      8379      8381      8374      8376      8379      8385
      8374      8382      8385      8379      8374      8382      8385      8387
      8376      8374      8382      8384      8376      8374      8382      8385
      8376      8379      8385      8382      8376      8379      8385      8387
      8378      8376      8374      8382      8378      8376      8379      8381
      8378      8376      8379      8385      8379      8376      8374      8382
      8379      8385      8382      8384      8381      8379      8385      8382
      8381      8379      8385      8387      8384      8382      8385      8387
      8389      8394      8396      8398      8389      8394      8396      8399
      8389      8394      8402      8404      8389      8394      8402      8405
      8391      8389      8394      8396      8391      8389      8394      8402
      8392      8389      8394      8396      8392      8389      8394      8402
      8393      8389      8394      8396      8393      8389      8394      8402
      8394      8396      8399      8401      8394      8396      8399      8405
      8394      8402      8405      8399      8394      8402      8405      8407
      8396      8394      8402      8404      8396      8394      8402      8405
      8396      8399      8405      8402      8396      8399      8405      8407
      8398      8396      8394      8402      8398      8396      8399      8401
      8398      8396      8399      8405      8399      8396      8394      8402
      8399      8405      8402      8404      8401      8399      8405      8402
      8401      8399      8405      8407      8404      8402      8405      8407
      8409      8414      8416      8418      8409      8414      8416      8419
      8409      8414      8422      8424      8409      8414      8422      8425
      8411      8409      8414      8416      8411      8409      8414      8422
      8412      8409      8414      8416      8412      8409      8414      8422
      8413      8409      8414      8416      8413      8409      8414      8422
      8414      8416      8419      8421      8414      8416      8419      8425
      8414      8422      8425      8419      8414      8422      8425      8427
      8416      8414      8422      8424      8416      8414      8422      8425
      8416      8419      8425      8422      8416      8419      8425      8427
      8418      8416      8414      8422      8418      8416      8419      8421
      8418      8416      8419      8425      8419      8416      8414      8422
      8419      8425      8422      8424      8421      8419      8425      8422
      8421      8419      8425      8427      8424      8422      8425      8427
      8429      8434      8436      8438      8429      8434      8436      8439
      8429      8434      8442      8444      8429      8434      8442      8445
      8431      8429      8434      8436      8431      8429      8434      8442
      8432      8429      8434      8436      8432      8429      8434      8442
      8433      8429      8434      8436      8433      8429      8434      8442
      8434      8436      8439      8441      8434      8436      8439      8445
      8434      8442      8445      8439      8434      8442      8445      8447
      8436      8434      8442      8444      8436      8434      8442      8445
      8436      8439      8445      8442      8436      8439      8445      8447
      8438      8436      8434      8442      8438      8436      8439      8441
      8438      8436      8439      8445      8439      8436      8434      8442
      8439      8445      8442      8444      8441      8439      8445      8442
      8441      8439      8445      8447      8444      8442      8445      8447
      8449      8454      8456      8458      8449      8454      8456      8459
      8449      8454      8462      8464      8449      8454      8462      8465
      8451      8449      8454      8456      8451      8449      8454      8462
      8452      8449      8454      8456      8452      8449      8454      8462
      8453      8449      8454      8456      8453      8449      8454      8462
      8454      8456      8459      8461      8454      8456      8459      8465
      8454      8462      8465      8459      8454      8462      8465      8467
      8456      8454      8462      8464      8456      8454      8462      8465
      8456      8459      8465      8462      8456      8459      8465      8467
      8458      8456      8454      8462      8458      8456      8459      8461
      8458      8456      8459      8465      8459      8456      8454      8462
      8459      8465      8462      8464      8461      8459      8465      8462
      8461      8459      8465      8467      8464      8462      8465      8467
      8469      8474      8476      8478      8469      8474      8476      8479
      8469      8474      8482      8484      8469      8474      8482      8485
      8471      8469      8474      8476      8471      8469      8474      8482
      8472      8469      8474      8476      8472      8469      8474      8482
      8473      8469      8474      8476      8473      8469      8474      8482
      8474      8476      8479      8481      8474      8476      8479      8485
      8474      8482      8485      8479      8474      8482      8485      8487
      8476      8474      8482      8484      8476      8474      8482      8485
      8476      8479      8485      8482      8476      8479      8485      8487
      8478      8476      8474      8482      8478      8476      8479      8481
      8478      8476      8479      8485      8479      8476      8474      8482
      8479      8485      8482      8484      8481      8479      8485      8482
      8481      8479      8485      8487      8484      8482      8485      8487
      8489      8494      8496      8498      8489      8494      8496      8499
      8489      8494      8502      8504      8489      8494      8502      8505
      8491      8489      8494      8496      8491      8489      8494      8502
      8492      8489      8494      8496      8492      8489      8494      8502
      8493      8489      8494      8496      8493      8489      8494      8502
      8494      8496      8499      8501      8494      8496      8499      8505
      8494      8502      8505      8499      8494      8502      8505      8507
      8496      8494      8502      8504      8496      8494      8502      8505
      8496      8499      8505      8502      8496      8499      8505      8507
      8498      8496      8494      8502      8498      8496      8499      8501
      8498      8496      8499      8505      8499      8496      8494      8502
      8499      8505      8502      8504      8501      8499      8505      8502
      8501      8499      8505      8507      8504      8502      8505      8507
      8509      8514      8516      8518      8509      8514      8516      8519
      8509      8514      8522      8524      8509      8514      8522      8525
      8511      8509      8514      8516      8511      8509      8514      8522
      8512      8509      8514      8516      8512      8509      8514      8522
      8513      8509      8514      8516      8513      8509      8514      8522
      8514      8516      8519      8521      8514      8516      8519      8525
      8514      8522      8525      8519      8514      8522      8525      8527
      8516      8514      8522      8524      8516      8514      8522      8525
      8516      8519      8525      8522      8516      8519      8525      8527
      8518      8516      8514      8522      8518      8516      8519      8521
      8518      8516      8519      8525      8519      8516      8514      8522
      8519      8525      8522      8524      8521      8519      8525      8522
      8521      8519      8525      8527      8524      8522      8525      8527
      8529      8534      8536      8538      8529      8534      8536      8539
      8529      8534      8542      8544      8529      8534      8542      8545
      8531      8529      8534      8536      8531      8529      8534      8542
      8532      8529      8534      8536      8532      8529      8534      8542
      8533      8529      8534      8536      8533      8529      8534      8542
      8534      8536      8539      8541      8534      8536      8539      8545
      8534      8542      8545      8539      8534      8542      8545      8547
      8536      8534      8542      8544      8536      8534      8542      8545
      8536      8539      8545      8542      8536      8539      8545      8547
      8538      8536      8534      8542      8538      8536      8539      8541
      8538      8536      8539      8545      8539      8536      8534      8542
      8539      8545      8542      8544      8541      8539      8545      8542
      8541      8539      8545      8547      8544      8542      8545      8547
      8549      8554      8556      8558      8549      8554      8556      8559
      8549      8554      8562      8564      8549      8554      8562      8565
      8551      8549      8554      8556      8551      8549      8554      8562
      8552      8549      8554      8556      8552      8549      8554      8562
      8553      8549      8554      8556      8553      8549      8554      8562
      8554      8556      8559      8561      8554      8556      8559      8565
      8554      8562      8565      8559      8554      8562      8565      8567
      8556      8554      8562      8564      8556      8554      8562      8565
      8556      8559      8565      8562      8556      8559      8565      8567
      8558      8556      8554      8562      8558      8556      8559      8561
      8558      8556      8559      8565      8559      8556      8554      8562
      8559      8565      8562      8564      8561      8559      8565      8562
      8561      8559      8565      8567      8564      8562      8565      8567
      8569      8574      8576      8578      8569      8574      8576      8579
      8569      8574      8582      8584      8569      8574      8582      8585
      8571      8569      8574      8576      8571      8569      8574      8582
      8572      8569      8574      8576      8572      8569      8574      8582
      8573      8569      8574      8576      8573      8569      8574      8582
      8574      8576      8579      8581      8574      8576      8579      8585
      8574      8582      8585      8579      8574      8582      8585      8587
      8576      8574      8582      8584      8576      8574      8582      8585
      8576      8579      8585      8582      8576      8579      8585      8587
      8578      8576      8574      8582      8578      8576      8579      8581
      8578      8576      8579      8585      8579      8576      8574      8582
      8579      8585      8582      8584      8581      8579      8585      8582
      8581      8579      8585      8587      8584      8582      8585      8587
      8589      8594      8596      8598      8589      8594      8596      8599
      8589      8594      8602      8604      8589      8594      8602      8605
      8591      8589      8594      8596      8591      8589      8594      8602
      8592      8589      8594      8596      8592      8589      8594      8602
      8593      8589      8594      8596      8593      8589      8594      8602
      8594      8596      8599      8601      8594      8596      8599      8605
      8594      8602      8605      8599      8594      8602      8605      8607
      8596      8594      8602      8604      8596      8594      8602      8605
      8596      8599      8605      8602      8596      8599      8605      8607
      8598      8596      8594      8602      8598      8596      8599      8601
      8598      8596      8599      8605      8599      8596      8594      8602
      8599      8605      8602      8604      8601      8599      8605      8602
      8601      8599      8605      8607      8604      8602      8605      8607
      8609      8614      8616      8618      8609      8614      8616      8619
      8609      8614      8622      8624      8609      8614      8622      8625
      8611      8609      8614      8616      8611      8609      8614      8622
      8612      8609      8614      8616      8612      8609      8614      8622
      8613      8609      8614      8616      8613      8609      8614      8622
      8614      8616      8619      8621      8614      8616      8619      8625
      8614      8622      8625      8619      8614      8622      8625      8627
      8616      8614      8622      8624      8616      8614      8622      8625
      8616      8619      8625      8622      8616      8619      8625      8627
      8618      8616      8614      8622      8618      8616      8619      8621
      8618      8616      8619      8625      8619      8616      8614      8622
      8619      8625      8622      8624      8621      8619      8625      8622
      8621      8619      8625      8627      8624      8622      8625      8627
      8629      8634      8636      8638      8629      8634      8636      8639
      8629      8634      8642      8644      8629      8634      8642      8645
      8631      8629      8634      8636      8631      8629      8634      8642
      8632      8629      8634      8636      8632      8629      8634      8642
      8633      8629      8634      8636      8633      8629      8634      8642
      8634      8636      8639      8641      8634      8636      8639      8645
      8634      8642      8645      8639      8634      8642      8645      8647
      8636      8634      8642      8644      8636      8634      8642      8645
      8636      8639      8645      8642      8636      8639      8645      8647
      8638      8636      8634      8642      8638      8636      8639      8641
      8638      8636      8639      8645      8639      8636      8634      8642
      8639      8645      8642      8644      8641      8639      8645      8642
      8641      8639      8645      8647      8644      8642      8645      8647
      8649      8654      8656      8658      8649      8654      8656      8659
      8649      8654      8662      8664      8649      8654      8662      8665
      8651      8649      8654      8656      8651      8649      8654      8662
      8652      8649      8654      8656      8652      8649      8654      8662
      8653      8649      8654      8656      8653      8649      8654      8662
      8654      8656      8659      8661      8654      8656      8659      8665
      8654      8662      8665      8659      8654      8662      8665      8667
      8656      8654      8662      8664      8656      8654      8662      8665
      8656      8659      8665      8662      8656      8659      8665      8667
      8658      8656      8654      8662      8658      8656      8659      8661
      8658      8656      8659      8665      8659      8656      8654      8662
      8659      8665      8662      8664      8661      8659      8665      8662
      8661      8659      8665      8667      8664      8662      8665      8667
      8669      8674      8676      8678      8669      8674      8676      8679
      8669      8674      8682      8684      8669      8674      8682      8685
      8671      8669      8674      8676      8671      8669      8674      8682
      8672      8669      8674      8676      8672      8669      8674      8682
      8673      8669      8674      8676      8673      8669      8674      8682
      8674      8676      8679      8681      8674      8676      8679      8685
      8674      8682      8685      8679      8674      8682      8685      8687
      8676      8674      8682      8684      8676      8674      8682      8685
      8676      8679      8685      8682      8676      8679      8685      8687
      8678      8676      8674      8682      8678      8676      8679      8681
      8678      8676      8679      8685      8679      8676      8674      8682
      8679      8685      8682      8684      8681      8679      8685      8682
      8681      8679      8685      8687      8684      8682      8685      8687
      8689      8694      8696      8698      8689      8694      8696      8699
      8689      8694      8702      8704      8689      8694      8702      8705
      8691      8689      8694      8696      8691      8689      8694      8702
      8692      8689      8694      8696      8692      8689      8694      8702
      8693      8689      8694      8696      8693      8689      8694      8702
      8694      8696      8699      8701      8694      8696      8699      8705
      8694      8702      8705      8699      8694      8702      8705      8707
      8696      8694      8702      8704      8696      8694      8702      8705
      8696      8699      8705      8702      8696      8699      8705      8707
      8698      8696      8694      8702      8698      8696      8699      8701
      8698      8696      8699      8705      8699      8696      8694      8702
      8699      8705      8702      8704      8701      8699      8705      8702
      8701      8699      8705      8707      8704      8702      8705      8707
      8709      8714      8716      8718      8709      8714      8716      8719
      8709      8714      8722      8724      8709      8714      8722      8725
      8711      8709      8714      8716      8711      8709      8714      8722
      8712      8709      8714      8716      8712      8709      8714      8722
      8713      8709      8714      8716      8713      8709      8714      8722
      8714      8716      8719      8721      8714      8716      8719      8725
      8714      8722      8725      8719      8714      8722      8725      8727
      8716      8714      8722      8724      8716      8714      8722      8725
      8716      8719      8725      8722      8716      8719      8725      8727
      8718      8716      8714      8722      8718      8716      8719      8721
      8718      8716      8719      8725      8719      8716      8714      8722
      8719      8725      8722      8724      8721      8719      8725      8722
      8721      8719      8725      8727      8724      8722      8725      8727
      8729      8734      8736      8738      8729      8734      8736      8739
      8729      8734      8742      8744      8729      8734      8742      8745
      8731      8729      8734      8736      8731      8729      8734      8742
      8732      8729      8734      8736      8732      8729      8734      8742
      8733      8729      8734      8736      8733      8729      8734      8742
      8734      8736      8739      8741      8734      8736      8739      8745
      8734      8742      8745      8739      8734      8742      8745      8747
      8736      8734      8742      8744      8736      8734      8742      8745
      8736      8739      8745      8742      8736      8739      8745      8747
      8738      8736      8734      8742      8738      8736      8739      8741
      8738      8736      8739      8745      8739      8736      8734      8742
      8739      8745      8742      8744      8741      8739      8745      8742
      8741      8739      8745      8747      8744      8742      8745      8747
      8749      8754      8756      8758      8749      8754      8756      8759
      8749      8754      8762      8764      8749      8754      8762      8765
      8751      8749      8754      8756      8751      8749      8754      8762
      8752      8749      8754      8756      8752      8749      8754      8762
      8753      8749      8754      8756      8753      8749      8754      8762
      8754      8756      8759      8761      8754      8756      8759      8765
      8754      8762      8765      8759      8754      8762      8765      8767
      8756      8754      8762      8764      8756      8754      8762      8765
      8756      8759      8765      8762      8756      8759      8765      8767
      8758      8756      8754      8762      8758      8756      8759      8761
      8758      8756      8759      8765      8759      8756      8754      8762
      8759      8765      8762      8764      8761      8759      8765      8762
      8761      8759      8765      8767      8764      8762      8765      8767
      8771      8769      8778      8780      8773      8771      8769      8776
      8773      8771      8769      8778      8774      8771      8769      8776
      8774      8771      8769      8778      8775      8771      8769      8776
      8775      8771      8769      8778      8776      8769      8778      8780
      8787      8785      8794      8796      8789      8787      8785      8792
      8789      8787      8785      8794      8790      8787      8785      8792
      8790      8787      8785      8794      8791      8787      8785      8792
      8791      8787      8785      8794      8792      8785      8794      8796
      8803      8801      8810      8812      8805      8803      8801      8808
      8805      8803      8801      8810      8806      8803      8801      8808
      8806      8803      8801      8810      8807      8803      8801      8808
      8807      8803      8801      8810      8808      8801      8810      8812
      8819      8817      8826      8828      8821      8819      8817      8824
      8821      8819      8817      8826      8822      8819      8817      8824
      8822      8819      8817      8826      8823      8819      8817      8824
      8823      8819      8817      8826      8824      8817      8826      8828
      8835      8833      8842      8844      8837      8835      8833      8840
      8837      8835      8833      8842      8838      8835      8833      8840
      8838      8835      8833      8842      8839      8835      8833      8840
      8839      8835      8833      8842      8840      8833      8842      8844
      8851      8849      8858      8860      8853      8851      8849      8856
      8853      8851      8849      8858      8854      8851      8849      8856
      8854      8851      8849      8858      8855      8851      8849      8856
      8855      8851      8849      8858      8856      8849      8858      8860
      8867      8865      8874      8876      8869      8867      8865      8872
      8869      8867      8865      8874      8870      8867      8865      8872
      8870      8867      8865      8874      8871      8867      8865      8872
      8871      8867      8865      8874      8872      8865      8874      8876
      8883      8881      8890      8892      8885      8883      8881      8888
      8885      8883      8881      8890      8886      8883      8881      8888
      8886      8883      8881      8890      8887      8883      8881      8888
      8887      8883      8881      8890      8888      8881      8890      8892
      8899      8897      8906      8908      8901      8899      8897      8904
      8901      8899      8897      8906      8902      8899      8897      8904
      8902      8899      8897      8906      8903      8899      8897      8904
      8903      8899      8897      8906      8904      8897      8906      8908
      8915      8913      8922      8924      8917      8915      8913      8920
      8917      8915      8913      8922      8918      8915      8913      8920
      8918      8915      8913      8922      8919      8915      8913      8920
      8919      8915      8913      8922      8920      8913      8922      8924
      8931      8929      8938      8940      8933      8931      8929      8936
      8933      8931      8929      8938      8934      8931      8929      8936
      8934      8931      8929      8938      8935      8931      8929      8936
      8935      8931      8929      8938      8936      8929      8938      8940
      8947      8945      8954      8956      8949      8947      8945      8952
      8949      8947      8945      8954      8950      8947      8945      8952
      8950      8947      8945      8954      8951      8947      8945      8952
      8951      8947      8945      8954      8952      8945      8954      8956
      8963      8961      8970      8972      8965      8963      8961      8968
      8965      8963      8961      8970      8966      8963      8961      8968
      8966      8963      8961      8970      8967      8963      8961      8968
      8967      8963      8961      8970      8968      8961      8970      8972
      8979      8977      8986      8988      8981      8979      8977      8984
      8981      8979      8977      8986      8982      8979      8977      8984
      8982      8979      8977      8986      8983      8979      8977      8984
      8983      8979      8977      8986      8984      8977      8986      8988
      8995      8993      9002      9004      8997      8995      8993      9000
      8997      8995      8993      9002      8998      8995      8993      9000
      8998      8995      8993      9002      8999      8995      8993      9000
      8999      8995      8993      9002      9000      8993      9002      9004
      9011      9009      9018      9020      9013      9011      9009      9016
      9013      9011      9009      9018      9014      9011      9009      9016
      9014      9011      9009      9018      9015      9011      9009      9016
      9015      9011      9009      9018      9016      9009      9018      9020
      9027      9025      9034      9036      9029      9027      9025      9032
      9029      9027      9025      9034      9030      9027      9025      9032
      9030      9027      9025      9034      9031      9027      9025      9032
      9031      9027      9025      9034      9032      9025      9034      9036
      9043      9041      9050      9052      9045      9043      9041      9048
      9045      9043      9041      9050      9046      9043      9041      9048
      9046      9043      9041      9050      9047      9043      9041      9048
      9047      9043      9041      9050      9048      9041      9050      9052
      9059      9057      9066      9068      9061      9059      9057      9064
      9061      9059      9057      9066      9062      9059      9057      9064
      9062      9059      9057      9066      9063      9059      9057      9064
      9063      9059      9057      9066      9064      9057      9066      9068
      9075      9073      9082      9084      9077      9075      9073      9080
      9077      9075      9073      9082      9078      9075      9073      9080
      9078      9075      9073      9082      9079      9075      9073      9080
      9079      9075      9073      9082      9080      9073      9082      9084
      9091      9089      9098      9100      9093      9091      9089      9096
      9093      9091      9089      9098      9094      9091      9089      9096
      9094      9091      9089      9098      9095      9091      9089      9096
      9095      9091      9089      9098      9096      9089      9098      9100
      9107      9105      9114      9116      9109      9107      9105      9112
      9109      9107      9105      9114      9110      9107      9105      9112
      9110      9107      9105      9114      9111      9107      9105      9112
      9111      9107      9105      9114      9112      9105      9114      9116
      9123      9121      9130      9132      9125      9123      9121      9128
      9125      9123      9121      9130      9126      9123      9121      9128
      9126      9123      9121      9130      9127      9123      9121      9128
      9127      9123      9121      9130      9128      9121      9130      9132
      9139      9137      9146      9148      9141      9139      9137      9144
      9141      9139      9137      9146      9142      9139      9137      9144
      9142      9139      9137      9146      9143      9139      9137      9144
      9143      9139      9137      9146      9144      9137      9146      9148
      9155      9153      9162      9164      9157      9155      9153      9160
      9157      9155      9153      9162      9158      9155      9153      9160
      9158      9155      9153      9162      9159      9155      9153      9160
      9159      9155      9153      9162      9160      9153      9162      9164
      9171      9169      9178      9180      9173      9171      9169      9176
      9173      9171      9169      9178      9174      9171      9169      9176
      9174      9171      9169      9178      9175      9171      9169      9176
      9175      9171      9169      9178      9176      9169      9178      9180
      9187      9185      9194      9196      9189      9187      9185      9192
      9189      9187      9185      9194      9190      9187      9185      9192
      9190      9187      9185      9194      9191      9187      9185      9192
      9191      9187      9185      9194      9192      9185      9194      9196
      9203      9201      9210      9212      9205      9203      9201      9208
      9205      9203      9201      9210      9206      9203      9201      9208
      9206      9203      9201      9210      9207      9203      9201      9208
      9207      9203      9201      9210      9208      9201      9210      9212
      9219      9217      9226      9228      9221      9219      9217      9224
      9221      9219      9217      9226      9222      9219      9217      9224
      9222      9219      9217      9226      9223      9219      9217      9224
      9223      9219      9217      9226      9224      9217      9226      9228
      9235      9233      9242      9244      9237      9235      9233      9240
      9237      9235      9233      9242      9238      9235      9233      9240
      9238      9235      9233      9242      9239      9235      9233      9240
      9239      9235      9233      9242      9240      9233      9242      9244
      9251      9249      9258      9260      9253      9251      9249      9256
      9253      9251      9249      9258      9254      9251      9249      9256
      9254      9251      9249      9258      9255      9251      9249      9256
      9255      9251      9249      9258      9256      9249      9258      9260
      9267      9265      9274      9276      9269      9267      9265      9272
      9269      9267      9265      9274      9270      9267      9265      9272
      9270      9267      9265      9274      9271      9267      9265      9272
      9271      9267      9265      9274      9272      9265      9274      9276
      9283      9281      9290      9292      9285      9283      9281      9288
      9285      9283      9281      9290      9286      9283      9281      9288
      9286      9283      9281      9290      9287      9283      9281      9288
      9287      9283      9281      9290      9288      9281      9290      9292
      9299      9297      9306      9308      9301      9299      9297      9304
      9301      9299      9297      9306      9302      9299      9297      9304
      9302      9299      9297      9306      9303      9299      9297      9304
      9303      9299      9297      9306      9304      9297      9306      9308
      9315      9313      9322      9324      9317      9315      9313      9320
      9317      9315      9313      9322      9318      9315      9313      9320
      9318      9315      9313      9322      9319      9315      9313      9320
      9319      9315      9313      9322      9320      9313      9322      9324
      9331      9329      9338      9340      9333      9331      9329      9336
      9333      9331      9329      9338      9334      9331      9329      9336
      9334      9331      9329      9338      9335      9331      9329      9336
      9335      9331      9329      9338      9336      9329      9338      9340
      9347      9345      9354      9356      9349      9347      9345      9352
      9349      9347      9345      9354      9350      9347      9345      9352
      9350      9347      9345      9354      9351      9347      9345      9352
      9351      9347      9345      9354      9352      9345      9354      9356
      9363      9361      9370      9372      9365      9363      9361      9368
      9365      9363      9361      9370      9366      9363      9361      9368
      9366      9363      9361      9370      9367      9363      9361      9368
      9367      9363      9361      9370      9368      9361      9370      9372
      9379      9377      9386      9388      9381      9379      9377      9384
      9381      9379      9377      9386      9382      9379      9377      9384
      9382      9379      9377      9386      9383      9379      9377      9384
      9383      9379      9377      9386      9384      9377      9386      9388
      9395      9393      9402      9404      9397      9395      9393      9400
      9397      9395      9393      9402      9398      9395      9393      9400
      9398      9395      9393      9402      9399      9395      9393      9400
      9399      9395      9393      9402      9400      9393      9402      9404
      9411      9409      9418      9420      9413      9411      9409      9416
      9413      9411      9409      9418      9414      9411      9409      9416
      9414      9411      9409      9418      9415      9411      9409      9416
      9415      9411      9409      9418      9416      9409      9418      9420
      9427      9425      9434      9436      9429      9427      9425      9432
      9429      9427      9425      9434      9430      9427      9425      9432
      9430      9427      9425      9434      9431      9427      9425      9432
      9431      9427      9425      9434      9432      9425      9434      9436
      9443      9441      9450      9452      9445      9443      9441      9448
      9445      9443      9441      9450      9446      9443      9441      9448
      9446      9443      9441      9450      9447      9443      9441      9448
      9447      9443      9441      9450      9448      9441      9450      9452
      9459      9457      9466      9468      9461      9459      9457      9464
      9461      9459      9457      9466      9462      9459      9457      9464
      9462      9459      9457      9466      9463      9459      9457      9464
      9463      9459      9457      9466      9464      9457      9466      9468
      9475      9473      9482      9484      9477      9475      9473      9480
      9477      9475      9473      9482      9478      9475      9473      9480
      9478      9475      9473      9482      9479      9475      9473      9480
      9479      9475      9473      9482      9480      9473      9482      9484
      9491      9489      9498      9500      9493      9491      9489      9496
      9493      9491      9489      9498      9494      9491      9489      9496
      9494      9491      9489      9498      9495      9491      9489      9496
      9495      9491      9489      9498      9496      9489      9498      9500
      9507      9505      9514      9516      9509      9507      9505      9512
      9509      9507      9505      9514      9510      9507      9505      9512
      9510      9507      9505      9514      9511      9507      9505      9512
      9511      9507      9505      9514      9512      9505      9514      9516
      9523      9521      9530      9532      9525      9523      9521      9528
      9525      9523      9521      9530      9526      9523      9521      9528
      9526      9523      9521      9530      9527      9523      9521      9528
      9527      9523      9521      9530      9528      9521      9530      9532
      9539      9537      9546      9548      9541      9539      9537      9544
      9541      9539      9537      9546      9542      9539      9537      9544
      9542      9539      9537      9546      9543      9539      9537      9544
      9543      9539      9537      9546      9544      9537      9546      9548
      9555      9553      9562      9564      9557      9555      9553      9560
      9557      9555      9553      9562      9558      9555      9553      9560
      9558      9555      9553      9562      9559      9555      9553      9560
      9559      9555      9553      9562      9560      9553      9562      9564
      9571      9569      9578      9580      9573      9571      9569      9576
      9573      9571      9569      9578      9574      9571      9569      9576
      9574      9571      9569      9578      9575      9571      9569      9576
      9575      9571      9569      9578      9576      9569      9578      9580
      9587      9585      9594      9596      9589      9587      9585      9592
      9589      9587      9585      9594      9590      9587      9585      9592
      9590      9587      9585      9594      9591      9587      9585      9592
      9591      9587      9585      9594      9592      9585      9594      9596
      9603      9601      9610      9612      9605      9603      9601      9608
      9605      9603      9601      9610      9606      9603      9601      9608
      9606      9603      9601      9610      9607      9603      9601      9608
      9607      9603      9601      9610      9608      9601      9610      9612
      9619      9617      9626      9628      9621      9619      9617      9624
      9621      9619      9617      9626      9622      9619      9617      9624
      9622      9619      9617      9626      9623      9619      9617      9624
      9623      9619      9617      9626      9624      9617      9626      9628
      9635      9633      9642      9644      9637      9635      9633      9640
      9637      9635      9633      9642      9638      9635      9633      9640
      9638      9635      9633      9642      9639      9635      9633      9640
      9639      9635      9633      9642      9640      9633      9642      9644
      9651      9649      9658      9660      9653      9651      9649      9656
      9653      9651      9649      9658      9654      9651      9649      9656
      9654      9651      9649      9658      9655      9651      9649      9656
      9655      9651      9649      9658      9656      9649      9658      9660
      9667      9665      9674      9676      9669      9667      9665      9672
      9669      9667      9665      9674      9670      9667      9665      9672
      9670      9667      9665      9674      9671      9667      9665      9672
      9671      9667      9665      9674      9672      9665      9674      9676
      9683      9681      9690      9692      9685      9683      9681      9688
      9685      9683      9681      9690      9686      9683      9681      9688
      9686      9683      9681      9690      9687      9683      9681      9688
      9687      9683      9681      9690      9688      9681      9690      9692
      9699      9697      9706      9708      9701      9699      9697      9704
      9701      9699      9697      9706      9702      9699      9697      9704
      9702      9699      9697      9706      9703      9699      9697      9704
      9703      9699      9697      9706      9704      9697      9706      9708
      9715      9713      9722      9724      9717      9715      9713      9720
      9717      9715      9713      9722      9718      9715      9713      9720
      9718      9715      9713      9722      9719      9715      9713      9720
      9719      9715      9713      9722      9720      9713      9722      9724
      9731      9729      9738      9740      9733      9731      9729      9736
      9733      9731      9729      9738      9734      9731      9729      9736
      9734      9731      9729      9738      9735      9731      9729      9736
      9735      9731      9729      9738      9736      9729      9738      9740
      9747      9745      9754      9756      9749      9747      9745      9752
      9749      9747      9745      9754      9750      9747      9745      9752
      9750      9747      9745      9754      9751      9747      9745      9752
      9751      9747      9745      9754      9752      9745      9754      9756
      9763      9761      9770      9772      9765      9763      9761      9768
      9765      9763      9761      9770      9766      9763      9761      9768
      9766      9763      9761      9770      9767      9763      9761      9768
      9767      9763      9761      9770      9768      9761      9770      9772
      9779      9777      9786      9788      9781      9779      9777      9784
      9781      9779      9777      9786      9782      9779      9777      9784
      9782      9779      9777      9786      9783      9779      9777      9784
      9783      9779      9777      9786      9784      9777      9786      9788
      9795      9793      9802      9804      9797      9795      9793      9800
      9797      9795      9793      9802      9798      9795      9793      9800
      9798      9795      9793      9802      9799      9795      9793      9800
      9799      9795      9793      9802      9800      9793      9802      9804
      9811      9809      9818      9820      9813      9811      9809      9816
      9813      9811      9809      9818      9814      9811      9809      9816
      9814      9811      9809      9818      9815      9811      9809      9816
      9815      9811      9809      9818      9816      9809      9818      9820
      9827      9825      9834      9836      9829      9827      9825      9832
      9829      9827      9825      9834      9830      9827      9825      9832
      9830      9827      9825      9834      9831      9827      9825      9832
      9831      9827      9825      9834      9832      9825      9834      9836
      9843      9841      9850      9852      9845      9843      9841      9848
      9845      9843      9841      9850      9846      9843      9841      9848
      9846      9843      9841      9850      9847      9843      9841      9848
      9847      9843      9841      9850      9848      9841      9850      9852
      9859      9857      9866      9868      9861      9859      9857      9864
      9861      9859      9857      9866      9862      9859      9857      9864
      9862      9859      9857      9866      9863      9859      9857      9864
      9863      9859      9857      9866      9864      9857      9866      9868
      9875      9873      9882      9884      9877      9875      9873      9880
      9877      9875      9873      9882      9878      9875      9873      9880
      9878      9875      9873      9882      9879      9875      9873      9880
      9879      9875      9873      9882      9880      9873      9882      9884
      9891      9889      9898      9900      9893      9891      9889      9896
      9893      9891      9889      9898      9894      9891      9889      9896
      9894      9891      9889      9898      9895      9891      9889      9896
      9895      9891      9889      9898      9896      9889      9898      9900
      9907      9905      9914      9916      9909      9907      9905      9912
      9909      9907      9905      9914      9910      9907      9905      9912
      9910      9907      9905      9914      9911      9907      9905      9912
      9911      9907      9905      9914      9912      9905      9914      9916
      9923      9921      9930      9932      9925      9923      9921      9928
      9925      9923      9921      9930      9926      9923      9921      9928
      9926      9923      9921      9930      9927      9923      9921      9928
      9927      9923      9921      9930      9928      9921      9930      9932
      9939      9937      9946      9948      9941      9939      9937      9944
      9941      9939      9937      9946      9942      9939      9937      9944
      9942      9939      9937      9946      9943      9939      9937      9944
      9943      9939      9937      9946      9944      9937      9946      9948
      9955      9953      9962      9964      9957      9955      9953      9960
      9957      9955      9953      9962      9958      9955      9953      9960
      9958      9955      9953      9962      9959      9955      9953      9960
      9959      9955      9953      9962      9960      9953      9962      9964
      9971      9969      9978      9980      9973      9971      9969      9976
      9973      9971      9969      9978      9974      9971      9969      9976
      9974      9971      9969      9978      9975      9971      9969      9976
      9975      9971      9969      9978      9976      9969      9978      9980
      9987      9985      9994      9996      9989      9987      9985      9992
      9989      9987      9985      9994      9990      9987      9985      9992
      9990      9987      9985      9994      9991      9987      9985      9992
      9991      9987      9985      9994      9992      9985      9994      9996
     10003     10001     10010     10012     10005     10003     10001     10008
     10005     10003     10001     10010     10006     10003     10001     10008
     10006     10003     10001     10010     10007     10003     10001     10008
     10007     10003     10001     10010     10008     10001     10010     10012
     10019     10017     10026     10028     10021     10019     10017     10024
     10021     10019     10017     10026     10022     10019     10017     10024
     10022     10019     10017     10026     10023     10019     10017     10024
     10023     10019     10017     10026     10024     10017     10026     10028
     10035     10033     10042     10044     10037     10035     10033     10040
     10037     10035     10033     10042     10038     10035     10033     10040
     10038     10035     10033     10042     10039     10035     10033     10040
     10039     10035     10033     10042     10040     10033     10042     10044
     10051     10049     10058     10060     10053     10051     10049     10056
     10053     10051     10049     10058     10054     10051     10049     10056
     10054     10051     10049     10058     10055     10051     10049     10056
     10055     10051     10049     10058     10056     10049     10058     10060
     10067     10065     10074     10076     10069     10067     10065     10072
     10069     10067     10065     10074     10070     10067     10065     10072
     10070     10067     10065     10074     10071     10067     10065     10072
     10071     10067     10065     10074     10072     10065     10074     10076
     10083     10081     10090     10092     10085     10083     10081     10088
     10085     10083     10081     10090     10086     10083     10081     10088
     10086     10083     10081     10090     10087     10083     10081     10088
     10087     10083     10081     10090     10088     10081     10090     10092
     10099     10097     10106     10108     10101     10099     10097     10104
     10101     10099     10097     10106     10102     10099     10097     10104
     10102     10099     10097     10106     10103     10099     10097     10104
     10103     10099     10097     10106     10104     10097     10106     10108
     10115     10113     10122     10124     10117     10115     10113     10120
     10117     10115     10113     10122     10118     10115     10113     10120
     10118     10115     10113     10122     10119     10115     10113     10120
     10119     10115     10113     10122     10120     10113     10122     10124
     10131     10129     10138     10140     10133     10131     10129     10136
     10133     10131     10129     10138     10134     10131     10129     10136
     10134     10131     10129     10138     10135     10131     10129     10136
     10135     10131     10129     10138     10136     10129     10138     10140
     10147     10145     10154     10156     10149     10147     10145     10152
     10149     10147     10145     10154     10150     10147     10145     10152
     10150     10147     10145     10154     10151     10147     10145     10152
     10151     10147     10145     10154     10152     10145     10154     10156
     10163     10161     10170     10172     10165     10163     10161     10168
     10165     10163     10161     10170     10166     10163     10161     10168
     10166     10163     10161     10170     10167     10163     10161     10168
     10167     10163     10161     10170     10168     10161     10170     10172
     10179     10177     10186     10188     10181     10179     10177     10184
     10181     10179     10177     10186     10182     10179     10177     10184
     10182     10179     10177     10186     10183     10179     10177     10184
     10183     10179     10177     10186     10184     10177     10186     10188
     10195     10193     10202     10204     10197     10195     10193     10200
     10197     10195     10193     10202     10198     10195     10193     10200
     10198     10195     10193     10202     10199     10195     10193     10200
     10199     10195     10193     10202     10200     10193     10202     10204
     10211     10209     10218     10220     10213     10211     10209     10216
     10213     10211     10209     10218     10214     10211     10209     10216
     10214     10211     10209     10218     10215     10211     10209     10216
     10215     10211     10209     10218     10216     10209     10218     10220
     10227     10225     10234     10236     10229     10227     10225     10232
     10229     10227     10225     10234     10230     10227     10225     10232
     10230     10227     10225     10234     10231     10227     10225     10232
     10231     10227     10225     10234     10232     10225     10234     10236
     10243     10241     10250     10252     10245     10243     10241     10248
     10245     10243     10241     10250     10246     10243     10241     10248
     10246     10243     10241     10250     10247     10243     10241     10248
     10247     10243     10241     10250     10248     10241     10250     10252
     10259     10257     10266     10268     10261     10259     10257     10264
     10261     10259     10257     10266     10262     10259     10257     10264
     10262     10259     10257     10266     10263     10259     10257     10264
     10263     10259     10257     10266     10264     10257     10266     10268
     10275     10273     10282     10284     10277     10275     10273     10280
     10277     10275     10273     10282     10278     10275     10273     10280
     10278     10275     10273     10282     10279     10275     10273     10280
     10279     10275     10273     10282     10280     10273     10282     10284
     10291     10289     10298     10300     10293     10291     10289     10296
     10293     10291     10289     10298     10294     10291     10289     10296
     10294     10291     10289     10298     10295     10291     10289     10296
     10295     10291     10289     10298     10296     10289     10298     10300
     10307     10305     10314     10316     10309     10307     10305     10312
     10309     10307     10305     10314     10310     10307     10305     10312
     10310     10307     10305     10314     10311     10307     10305     10312
     10311     10307     10305     10314     10312     10305     10314     10316
     10323     10321     10330     10332     10325     10323     10321     10328
     10325     10323     10321     10330     10326     10323     10321     10328
     10326     10323     10321     10330     10327     10323     10321     10328
     10327     10323     10321     10330     10328     10321     10330     10332
     10339     10337     10346     10348     10341     10339     10337     10344
     10341     10339     10337     10346     10342     10339     10337     10344
     10342     10339     10337     10346     10343     10339     10337     10344
     10343     10339     10337     10346     10344     10337     10346     10348
     10355     10353     10362     10364     10357     10355     10353     10360
     10357     10355     10353     10362     10358     10355     10353     10360
     10358     10355     10353     10362     10359     10355     10353     10360
     10359     10355     10353     10362     10360     10353     10362     10364
     10371     10369     10378     10380     10373     10371     10369     10376
     10373     10371     10369     10378     10374     10371     10369     10376
     10374     10371     10369     10378     10375     10371     10369     10376
     10375     10371     10369     10378     10376     10369     10378     10380
     10387     10385     10394     10396     10389     10387     10385     10392
     10389     10387     10385     10394     10390     10387     10385     10392
     10390     10387     10385     10394     10391     10387     10385     10392
     10391     10387     10385     10394     10392     10385     10394     10396
     10403     10401     10410     10412     10405     10403     10401     10408
     10405     10403     10401     10410     10406     10403     10401     10408
     10406     10403     10401     10410     10407     10403     10401     10408
     10407     10403     10401     10410     10408     10401     10410     10412
     10419     10417     10426     10428     10421     10419     10417     10424
     10421     10419     10417     10426     10422     10419     10417     10424
     10422     10419     10417     10426     10423     10419     10417     10424
     10423     10419     10417     10426     10424     10417     10426     10428
     10435     10433     10442     10444     10437     10435     10433     10440
     10437     10435     10433     10442     10438     10435     10433     10440
     10438     10435     10433     10442     10439     10435     10433     10440
     10439     10435     10433     10442     10440     10433     10442     10444
     10451     10449     10458     10460     10453     10451     10449     10456
     10453     10451     10449     10458     10454     10451     10449     10456
     10454     10451     10449     10458     10455     10451     10449     10456
     10455     10451     10449     10458     10456     10449     10458     10460
     10467     10465     10474     10476     10469     10467     10465     10472
     10469     10467     10465     10474     10470     10467     10465     10472
     10470     10467     10465     10474     10471     10467     10465     10472
     10471     10467     10465     10474     10472     10465     10474     10476
     10483     10481     10490     10492     10485     10483     10481     10488
     10485     10483     10481     10490     10486     10483     10481     10488
     10486     10483     10481     10490     10487     10483     10481     10488
     10487     10483     10481     10490     10488     10481     10490     10492
     10499     10497     10506     10508     10501     10499     10497     10504
     10501     10499     10497     10506     10502     10499     10497     10504
     10502     10499     10497     10506     10503     10499     10497     10504
     10503     10499     10497     10506     10504     10497     10506     10508
     10515     10513     10522     10524     10517     10515     10513     10520
     10517     10515     10513     10522     10518     10515     10513     10520
     10518     10515     10513     10522     10519     10515     10513     10520
     10519     10515     10513     10522     10520     10513     10522     10524
     10531     10529     10538     10540     10533     10531     10529     10536
     10533     10531     10529     10538     10534     10531     10529     10536
     10534     10531     10529     10538     10535     10531     10529     10536
     10535     10531     10529     10538     10536     10529     10538     10540
     10547     10545     10554     10556     10549     10547     10545     10552
     10549     10547     10545     10554     10550     10547     10545     10552
     10550     10547     10545     10554     10551     10547     10545     10552
     10551     10547     10545     10554     10552     10545     10554     10556
     10563     10561     10570     10572     10565     10563     10561     10568
     10565     10563     10561     10570     10566     10563     10561     10568
     10566     10563     10561     10570     10567     10563     10561     10568
     10567     10563     10561     10570     10568     10561     10570     10572
     10579     10577     10586     10588     10581     10579     10577     10584
     10581     10579     10577     10586     10582     10579     10577     10584
     10582     10579     10577     10586     10583     10579     10577     10584
     10583     10579     10577     10586     10584     10577     10586     10588
     10595     10593     10602     10604     10597     10595     10593     10600
     10597     10595     10593     10602     10598     10595     10593     10600
     10598     10595     10593     10602     10599     10595     10593     10600
     10599     10595     10593     10602     10600     10593     10602     10604
     10611     10609     10618     10620     10613     10611     10609     10616
     10613     10611     10609     10618     10614     10611     10609     10616
     10614     10611     10609     10618     10615     10611     10609     10616
     10615     10611     10609     10618     10616     10609     10618     10620
     10627     10625     10634     10636     10629     10627     10625     10632
     10629     10627     10625     10634     10630     10627     10625     10632
     10630     10627     10625     10634     10631     10627     10625     10632
     10631     10627     10625     10634     10632     10625     10634     10636
     10643     10641     10650     10652     10645     10643     10641     10648
     10645     10643     10641     10650     10646     10643     10641     10648
     10646     10643     10641     10650     10647     10643     10641     10648
     10647     10643     10641     10650     10648     10641     10650     10652
     10659     10657     10666     10668     10661     10659     10657     10664
     10661     10659     10657     10666     10662     10659     10657     10664
     10662     10659     10657     10666     10663     10659     10657     10664
     10663     10659     10657     10666     10664     10657     10666     10668
     10675     10673     10682     10684     10677     10675     10673     10680
     10677     10675     10673     10682     10678     10675     10673     10680
     10678     10675     10673     10682     10679     10675     10673     10680
     10679     10675     10673     10682     10680     10673     10682     10684
     10691     10689     10698     10700     10693     10691     10689     10696
     10693     10691     10689     10698     10694     10691     10689     10696
     10694     10691     10689     10698     10695     10691     10689     10696
     10695     10691     10689     10698     10696     10689     10698     10700
     10707     10705     10714     10716     10709     10707     10705     10712
     10709     10707     10705     10714     10710     10707     10705     10712
     10710     10707     10705     10714     10711     10707     10705     10712
     10711     10707     10705     10714     10712     10705     10714     10716
     10723     10721     10730     10732     10725     10723     10721     10728
     10725     10723     10721     10730     10726     10723     10721     10728
     10726     10723     10721     10730     10727     10723     10721     10728
     10727     10723     10721     10730     10728     10721     10730     10732
     10739     10737     10746     10748     10741     10739     10737     10744
     10741     10739     10737     10746     10742     10739     10737     10744
     10742     10739     10737     10746     10743     10739     10737     10744
     10743     10739     10737     10746     10744     10737     10746     10748
     10755     10753     10762     10764     10757     10755     10753     10760
     10757     10755     10753     10762     10758     10755     10753     10760
     10758     10755     10753     10762     10759     10755     10753     10760
     10759     10755     10753     10762     10760     10753     10762     10764
     10771     10769     10778     10780     10773     10771     10769     10776
     10773     10771     10769     10778     10774     10771     10769     10776
     10774     10771     10769     10778     10775     10771     10769     10776
     10775     10771     10769     10778     10776     10769     10778     10780
     10787     10785     10794     10796     10789     10787     10785     10792
     10789     10787     10785     10794     10790     10787     10785     10792
     10790     10787     10785     10794     10791     10787     10785     10792
     10791     10787     10785     10794     10792     10785     10794     10796
     10803     10801     10810     10812     10805     10803     10801     10808
     10805     10803     10801     10810     10806     10803     10801     10808
     10806     10803     10801     10810     10807     10803     10801     10808
     10807     10803     10801     10810     10808     10801     10810     10812
     10819     10817     10826     10828     10821     10819     10817     10824
     10821     10819     10817     10826     10822     10819     10817     10824
     10822     10819     10817     10826     10823     10819     10817     10824
     10823     10819     10817     10826     10824     10817     10826     10828
     10835     10833     10842     10844     10837     10835     10833     10840
     10837     10835     10833     10842     10838     10835     10833     10840
     10838     10835     10833     10842     10839     10835     10833     10840
     10839     10835     10833     10842     10840     10833     10842     10844
     10851     10849     10858     10860     10853     10851     10849     10856
     10853     10851     10849     10858     10854     10851     10849     10856
     10854     10851     10849     10858     10855     10851     10849     10856
     10855     10851     10849     10858     10856     10849     10858     10860
     10867     10865     10874     10876     10869     10867     10865     10872
     10869     10867     10865     10874     10870     10867     10865     10872
     10870     10867     10865     10874     10871     10867     10865     10872
     10871     10867     10865     10874     10872     10865     10874     10876
     10883     10881     10890     10892     10885     10883     10881     10888
     10885     10883     10881     10890     10886     10883     10881     10888
     10886     10883     10881     10890     10887     10883     10881     10888
     10887     10883     10881     10890     10888     10881     10890     10892
     10899     10897     10906     10908     10901     10899     10897     10904
     10901     10899     10897     10906     10902     10899     10897     10904
     10902     10899     10897     10906     10903     10899     10897     10904
     10903     10899     10897     10906     10904     10897     10906     10908
     10915     10913     10922     10924     10917     10915     10913     10920
     10917     10915     10913     10922     10918     10915     10913     10920
     10918     10915     10913     10922     10919     10915     10913     10920
     10919     10915     10913     10922     10920     10913     10922     10924
     10931     10929     10938     10940     10933     10931     10929     10936
     10933     10931     10929     10938     10934     10931     10929     10936
     10934     10931     10929     10938     10935     10931     10929     10936
     10935     10931     10929     10938     10936     10929     10938     10940
     10947     10945     10954     10956     10949     10947     10945     10952
     10949     10947     10945     10954     10950     10947     10945     10952
     10950     10947     10945     10954     10951     10947     10945     10952
     10951     10947     10945     10954     10952     10945     10954     10956
     10963     10961     10970     10972     10965     10963     10961     10968
     10965     10963     10961     10970     10966     10963     10961     10968
     10966     10963     10961     10970     10967     10963     10961     10968
     10967     10963     10961     10970     10968     10961     10970     10972
     10979     10977     10986     10988     10981     10979     10977     10984
     10981     10979     10977     10986     10982     10979     10977     10984
     10982     10979     10977     10986     10983     10979     10977     10984
     10983     10979     10977     10986     10984     10977     10986     10988
     10995     10993     11002     11004     10997     10995     10993     11000
     10997     10995     10993     11002     10998     10995     10993     11000
     10998     10995     10993     11002     10999     10995     10993     11000
     10999     10995     10993     11002     11000     10993     11002     11004
     11011     11009     11018     11020     11013     11011     11009     11016
     11013     11011     11009     11018     11014     11011     11009     11016
     11014     11011     11009     11018     11015     11011     11009     11016
     11015     11011     11009     11018     11016     11009     11018     11020
     11027     11025     11034     11036     11029     11027     11025     11032
     11029     11027     11025     11034     11030     11027     11025     11032
     11030     11027     11025     11034     11031     11027     11025     11032
     11031     11027     11025     11034     11032     11025     11034     11036
     11043     11041     11050     11052     11045     11043     11041     11048
     11045     11043     11041     11050     11046     11043     11041     11048
     11046     11043     11041     11050     11047     11043     11041     11048
     11047     11043     11041     11050     11048     11041     11050     11052
     11059     11057     11066     11068     11061     11059     11057     11064
     11061     11059     11057     11066     11062     11059     11057     11064
     11062     11059     11057     11066     11063     11059     11057     11064
     11063     11059     11057     11066     11064     11057     11066     11068
     11075     11073     11082     11084     11077     11075     11073     11080
     11077     11075     11073     11082     11078     11075     11073     11080
     11078     11075     11073     11082     11079     11075     11073     11080
     11079     11075     11073     11082     11080     11073     11082     11084
     11091     11089     11098     11100     11093     11091     11089     11096
     11093     11091     11089     11098     11094     11091     11089     11096
     11094     11091     11089     11098     11095     11091     11089     11096
     11095     11091     11089     11098     11096     11089     11098     11100
     11107     11105     11114     11116     11109     11107     11105     11112
     11109     11107     11105     11114     11110     11107     11105     11112
     11110     11107     11105     11114     11111     11107     11105     11112
     11111     11107     11105     11114     11112     11105     11114     11116
     11123     11121     11130     11132     11125     11123     11121     11128
     11125     11123     11121     11130     11126     11123     11121     11128
     11126     11123     11121     11130     11127     11123     11121     11128
     11127     11123     11121     11130     11128     11121     11130     11132
     11139     11137     11146     11148     11141     11139     11137     11144
     11141     11139     11137     11146     11142     11139     11137     11144
     11142     11139     11137     11146     11143     11139     11137     11144
     11143     11139     11137     11146     11144     11137     11146     11148
     11155     11153     11162     11164     11157     11155     11153     11160
     11157     11155     11153     11162     11158     11155     11153     11160
     11158     11155     11153     11162     11159     11155     11153     11160
     11159     11155     11153     11162     11160     11153     11162     11164
     11171     11169     11178     11180     11173     11171     11169     11176
     11173     11171     11169     11178     11174     11171     11169     11176
     11174     11171     11169     11178     11175     11171     11169     11176
     11175     11171     11169     11178     11176     11169     11178     11180
     11187     11185     11194     11196     11189     11187     11185     11192
     11189     11187     11185     11194     11190     11187     11185     11192
     11190     11187     11185     11194     11191     11187     11185     11192
     11191     11187     11185     11194     11192     11185     11194     11196
     11203     11201     11210     11212     11205     11203     11201     11208
     11205     11203     11201     11210     11206     11203     11201     11208
     11206     11203     11201     11210     11207     11203     11201     11208
     11207     11203     11201     11210     11208     11201     11210     11212
     11219     11217     11226     11228     11221     11219     11217     11224
     11221     11219     11217     11226     11222     11219     11217     11224
     11222     11219     11217     11226     11223     11219     11217     11224
     11223     11219     11217     11226     11224     11217     11226     11228
     11235     11233     11242     11244     11237     11235     11233     11240
     11237     11235     11233     11242     11238     11235     11233     11240
     11238     11235     11233     11242     11239     11235     11233     11240
     11239     11235     11233     11242     11240     11233     11242     11244
     11251     11249     11258     11260     11253     11251     11249     11256
     11253     11251     11249     11258     11254     11251     11249     11256
     11254     11251     11249     11258     11255     11251     11249     11256
     11255     11251     11249     11258     11256     11249     11258     11260
     11267     11265     11274     11276     11269     11267     11265     11272
     11269     11267     11265     11274     11270     11267     11265     11272
     11270     11267     11265     11274     11271     11267     11265     11272
     11271     11267     11265     11274     11272     11265     11274     11276
     11283     11281     11290     11292     11285     11283     11281     11288
     11285     11283     11281     11290     11286     11283     11281     11288
     11286     11283     11281     11290     11287     11283     11281     11288
     11287     11283     11281     11290     11288     11281     11290     11292
     11299     11297     11306     11308     11301     11299     11297     11304
     11301     11299     11297     11306     11302     11299     11297     11304
     11302     11299     11297     11306     11303     11299     11297     11304
     11303     11299     11297     11306     11304     11297     11306     11308
     11315     11313     11322     11324     11317     11315     11313     11320
     11317     11315     11313     11322     11318     11315     11313     11320
     11318     11315     11313     11322     11319     11315     11313     11320
     11319     11315     11313     11322     11320     11313     11322     11324
     11331     11329     11338     11340     11333     11331     11329     11336
     11333     11331     11329     11338     11334     11331     11329     11336
     11334     11331     11329     11338     11335     11331     11329     11336
     11335     11331     11329     11338     11336     11329     11338     11340
     11347     11345     11354     11356     11349     11347     11345     11352
     11349     11347     11345     11354     11350     11347     11345     11352
     11350     11347     11345     11354     11351     11347     11345     11352
     11351     11347     11345     11354     11352     11345     11354     11356
     11363     11361     11370     11372     11365     11363     11361     11368
     11365     11363     11361     11370     11366     11363     11361     11368
     11366     11363     11361     11370     11367     11363     11361     11368
     11367     11363     11361     11370     11368     11361     11370     11372
     11379     11377     11386     11388     11381     11379     11377     11384
     11381     11379     11377     11386     11382     11379     11377     11384
     11382     11379     11377     11386     11383     11379     11377     11384
     11383     11379     11377     11386     11384     11377     11386     11388
     11395     11393     11402     11404     11397     11395     11393     11400
     11397     11395     11393     11402     11398     11395     11393     11400
     11398     11395     11393     11402     11399     11395     11393     11400
     11399     11395     11393     11402     11400     11393     11402     11404
     11411     11409     11418     11420     11413     11411     11409     11416
     11413     11411     11409     11418     11414     11411     11409     11416
     11414     11411     11409     11418     11415     11411     11409     11416
     11415     11411     11409     11418     11416     11409     11418     11420
     11427     11425     11434     11436     11429     11427     11425     11432
     11429     11427     11425     11434     11430     11427     11425     11432
     11430     11427     11425     11434     11431     11427     11425     11432
     11431     11427     11425     11434     11432     11425     11434     11436
     11443     11441     11450     11452     11445     11443     11441     11448
     11445     11443     11441     11450     11446     11443     11441     11448
     11446     11443     11441     11450     11447     11443     11441     11448
     11447     11443     11441     11450     11448     11441     11450     11452
     11459     11457     11466     11468     11461     11459     11457     11464
     11461     11459     11457     11466     11462     11459     11457     11464
     11462     11459     11457     11466     11463     11459     11457     11464
     11463     11459     11457     11466     11464     11457     11466     11468
     11475     11473     11482     11484     11477     11475     11473     11480
     11477     11475     11473     11482     11478     11475     11473     11480
     11478     11475     11473     11482     11479     11475     11473     11480
     11479     11475     11473     11482     11480     11473     11482     11484
     11491     11489     11498     11500     11493     11491     11489     11496
     11493     11491     11489     11498     11494     11491     11489     11496
     11494     11491     11489     11498     11495     11491     11489     11496
     11495     11491     11489     11498     11496     11489     11498     11500
     11507     11505     11514     11516     11509     11507     11505     11512
     11509     11507     11505     11514     11510     11507     11505     11512
     11510     11507     11505     11514     11511     11507     11505     11512
     11511     11507     11505     11514     11512     11505     11514     11516
     11523     11521     11530     11532     11525     11523     11521     11528
     11525     11523     11521     11530     11526     11523     11521     11528
     11526     11523     11521     11530     11527     11523     11521     11528
     11527     11523     11521     11530     11528     11521     11530     11532
     11539     11537     11546     11548     11541     11539     11537     11544
     11541     11539     11537     11546     11542     11539     11537     11544
     11542     11539     11537     11546     11543     11539     11537     11544
     11543     11539     11537     11546     11544     11537     11546     11548
     11555     11553     11562     11564     11557     11555     11553     11560
     11557     11555     11553     11562     11558     11555     11553     11560
     11558     11555     11553     11562     11559     11555     11553     11560
     11559     11555     11553     11562     11560     11553     11562     11564
     11571     11569     11578     11580     11573     11571     11569     11576
     11573     11571     11569     11578     11574     11571     11569     11576
     11574     11571     11569     11578     11575     11571     11569     11576
     11575     11571     11569     11578     11576     11569     11578     11580
     11587     11585     11594     11596     11589     11587     11585     11592
     11589     11587     11585     11594     11590     11587     11585     11592
     11590     11587     11585     11594     11591     11587     11585     11592
     11591     11587     11585     11594     11592     11585     11594     11596
     11603     11601     11610     11612     11605     11603     11601     11608
     11605     11603     11601     11610     11606     11603     11601     11608
     11606     11603     11601     11610     11607     11603     11601     11608
     11607     11603     11601     11610     11608     11601     11610     11612
     11619     11617     11626     11628     11621     11619     11617     11624
     11621     11619     11617     11626     11622     11619     11617     11624
     11622     11619     11617     11626     11623     11619     11617     11624
     11623     11619     11617     11626     11624     11617     11626     11628
     11635     11633     11642     11644     11637     11635     11633     11640
     11637     11635     11633     11642     11638     11635     11633     11640
     11638     11635     11633     11642     11639     11635     11633     11640
     11639     11635     11633     11642     11640     11633     11642     11644
     11651     11649     11658     11660     11653     11651     11649     11656
     11653     11651     11649     11658     11654     11651     11649     11656
     11654     11651     11649     11658     11655     11651     11649     11656
     11655     11651     11649     11658     11656     11649     11658     11660
     11667     11665     11674     11676     11669     11667     11665     11672
     11669     11667     11665     11674     11670     11667     11665     11672
     11670     11667     11665     11674     11671     11667     11665     11672
     11671     11667     11665     11674     11672     11665     11674     11676
     11683     11681     11690     11692     11685     11683     11681     11688
     11685     11683     11681     11690     11686     11683     11681     11688
     11686     11683     11681     11690     11687     11683     11681     11688
     11687     11683     11681     11690     11688     11681     11690     11692
     11699     11697     11706     11708     11701     11699     11697     11704
     11701     11699     11697     11706     11702     11699     11697     11704
     11702     11699     11697     11706     11703     11699     11697     11704
     11703     11699     11697     11706     11704     11697     11706     11708
     11715     11713     11722     11724     11717     11715     11713     11720
     11717     11715     11713     11722     11718     11715     11713     11720
     11718     11715     11713     11722     11719     11715     11713     11720
     11719     11715     11713     11722     11720     11713     11722     11724
     11731     11729     11738     11740     11733     11731     11729     11736
     11733     11731     11729     11738     11734     11731     11729     11736
     11734     11731     11729     11738     11735     11731     11729     11736
     11735     11731     11729     11738     11736     11729     11738     11740
     11747     11745     11754     11756     11749     11747     11745     11752
     11749     11747     11745     11754     11750     11747     11745     11752
     11750     11747     11745     11754     11751     11747     11745     11752
     11751     11747     11745     11754     11752     11745     11754     11756
     11763     11761     11770     11772     11765     11763     11761     11768
     11765     11763     11761     11770     11766     11763     11761     11768
     11766     11763     11761     11770     11767     11763     11761     11768
     11767     11763     11761     11770     11768     11761     11770     11772
     11779     11777     11786     11788     11781     11779     11777     11784
     11781     11779     11777     11786     11782     11779     11777     11784
     11782     11779     11777     11786     11783     11779     11777     11784
     11783     11779     11777     11786     11784     11777     11786     11788
     11795     11793     11802     11804     11797     11795     11793     11800
     11797     11795     11793     11802     11798     11795     11793     11800
     11798     11795     11793     11802     11799     11795     11793     11800
     11799     11795     11793     11802     11800     11793     11802     11804
     11811     11809     11818     11820     11813     11811     11809     11816
     11813     11811     11809     11818     11814     11811     11809     11816
     11814     11811     11809     11818     11815     11811     11809     11816
     11815     11811     11809     11818     11816     11809     11818     11820
     11827     11825     11834     11836     11829     11827     11825     11832
     11829     11827     11825     11834     11830     11827     11825     11832
     11830     11827     11825     11834     11831     11827     11825     11832
     11831     11827     11825     11834     11832     11825     11834     11836
     11843     11841     11850     11852     11845     11843     11841     11848
     11845     11843     11841     11850     11846     11843     11841     11848
     11846     11843     11841     11850     11847     11843     11841     11848
     11847     11843     11841     11850     11848     11841     11850     11852
     11859     11857     11866     11868     11861     11859     11857     11864
     11861     11859     11857     11866     11862     11859     11857     11864
     11862     11859     11857     11866     11863     11859     11857     11864
     11863     11859     11857     11866     11864     11857     11866     11868
     11875     11873     11882     11884     11877     11875     11873     11880
     11877     11875     11873     11882     11878     11875     11873     11880
     11878     11875     11873     11882     11879     11875     11873     11880
     11879     11875     11873     11882     11880     11873     11882     11884
     11891     11889     11898     11900     11893     11891     11889     11896
     11893     11891     11889     11898     11894     11891     11889     11896
     11894     11891     11889     11898     11895     11891     11889     11896
     11895     11891     11889     11898     11896     11889     11898     11900
     11907     11905     11914     11916     11909     11907     11905     11912
     11909     11907     11905     11914     11910     11907     11905     11912
     11910     11907     11905     11914     11911     11907     11905     11912
     11911     11907     11905     11914     11912     11905     11914     11916
     11923     11921     11930     11932     11925     11923     11921     11928
     11925     11923     11921     11930     11926     11923     11921     11928
     11926     11923     11921     11930     11927     11923     11921     11928
     11927     11923     11921     11930     11928     11921     11930     11932
     11939     11937     11946     11948     11941     11939     11937     11944
     11941     11939     11937     11946     11942     11939     11937     11944
     11942     11939     11937     11946     11943     11939     11937     11944
     11943     11939     11937     11946     11944     11937     11946     11948
     11955     11953     11962     11964     11957     11955     11953     11960
     11957     11955     11953     11962     11958     11955     11953     11960
     11958     11955     11953     11962     11959     11955     11953     11960
     11959     11955     11953     11962     11960     11953     11962     11964
     11971     11969     11978     11980     11973     11971     11969     11976
     11973     11971     11969     11978     11974     11971     11969     11976
     11974     11971     11969     11978     11975     11971     11969     11976
     11975     11971     11969     11978     11976     11969     11978     11980
     11987     11985     11994     11996     11989     11987     11985     11992
     11989     11987     11985     11994     11990     11987     11985     11992
     11990     11987     11985     11994     11991     11987     11985     11992
     11991     11987     11985     11994     11992     11985     11994     11996
     12003     12001     12010     12012     12005     12003     12001     12008
     12005     12003     12001     12010     12006     12003     12001     12008
     12006     12003     12001     12010     12007     12003     12001     12008
     12007     12003     12001     12010     12008     12001     12010     12012
     12019     12017     12026     12028     12021     12019     12017     12024
     12021     12019     12017     12026     12022     12019     12017     12024
     12022     12019     12017     12026     12023     12019     12017     12024
     12023     12019     12017     12026     12024     12017     12026     12028
     12035     12033     12042     12044     12037     12035     12033     12040
     12037     12035     12033     12042     12038     12035     12033     12040
     12038     12035     12033     12042     12039     12035     12033     12040
     12039     12035     12033     12042     12040     12033     12042     12044
     12051     12049     12058     12060     12053     12051     12049     12056
     12053     12051     12049     12058     12054     12051     12049     12056
     12054     12051     12049     12058     12055     12051     12049     12056
     12055     12051     12049     12058     12056     12049     12058     12060
     12067     12065     12074     12076     12069     12067     12065     12072
     12069     12067     12065     12074     12070     12067     12065     12072
     12070     12067     12065     12074     12071     12067     12065     12072
     12071     12067     12065     12074     12072     12065     12074     12076
     12083     12081     12090     12092     12085     12083     12081     12088
     12085     12083     12081     12090     12086     12083     12081     12088
     12086     12083     12081     12090     12087     12083     12081     12088
     12087     12083     12081     12090     12088     12081     12090     12092
     12099     12097     12106     12108     12101     12099     12097     12104
     12101     12099     12097     12106     12102     12099     12097     12104
     12102     12099     12097     12106     12103     12099     12097     12104
     12103     12099     12097     12106     12104     12097     12106     12108
     12115     12113     12122     12124     12117     12115     12113     12120
     12117     12115     12113     12122     12118     12115     12113     12120
     12118     12115     12113     12122     12119     12115     12113     12120
     12119     12115     12113     12122     12120     12113     12122     12124
     12131     12129     12138     12140     12133     12131     12129     12136
     12133     12131     12129     12138     12134     12131     12129     12136
     12134     12131     12129     12138     12135     12131     12129     12136
     12135     12131     12129     12138     12136     12129     12138     12140
     12147     12145     12154     12156     12149     12147     12145     12152
     12149     12147     12145     12154     12150     12147     12145     12152
     12150     12147     12145     12154     12151     12147     12145     12152
     12151     12147     12145     12154     12152     12145     12154     12156
     12163     12161     12170     12172     12165     12163     12161     12168
     12165     12163     12161     12170     12166     12163     12161     12168
     12166     12163     12161     12170     12167     12163     12161     12168
     12167     12163     12161     12170     12168     12161     12170     12172
     12179     12177     12186     12188     12181     12179     12177     12184
     12181     12179     12177     12186     12182     12179     12177     12184
     12182     12179     12177     12186     12183     12179     12177     12184
     12183     12179     12177     12186     12184     12177     12186     12188
     12195     12193     12202     12204     12197     12195     12193     12200
     12197     12195     12193     12202     12198     12195     12193     12200
     12198     12195     12193     12202     12199     12195     12193     12200
     12199     12195     12193     12202     12200     12193     12202     12204
     12211     12209     12218     12220     12213     12211     12209     12216
     12213     12211     12209     12218     12214     12211     12209     12216
     12214     12211     12209     12218     12215     12211     12209     12216
     12215     12211     12209     12218     12216     12209     12218     12220
     12227     12225     12234     12236     12229     12227     12225     12232
     12229     12227     12225     12234     12230     12227     12225     12232
     12230     12227     12225     12234     12231     12227     12225     12232
     12231     12227     12225     12234     12232     12225     12234     12236
     12241     12243     12245     12247     12241     12243     12245     12255
     12241     12285     12283     12281     12241     12285     12283     12289
     12241     12285     12287     12247     12241     12285     12287     12277
     12243     12241     12285     12283     12243     12241     12285     12287
     12243     12245     12247     12249     12243     12245     12247     12287
     12243     12245     12255     12253     12243     12245     12255     12257
     12245     12243     12241     12285     12245     12243     12241     12299
     12245     12247     12249     12251     12245     12247     12249     12273
     12245     12247     12287     12277     12245     12247     12287     12285
     12245     12255     12253     12251     12245     12255     12253     12301
     12245     12255     12257     12259     12245     12255     12257     12261
     12245     12255     12257     12263     12247     12245     12243     12300
     12247     12245     12255     12253     12247     12245     12255     12257
     12247     12249     12251     12253     12247     12249     12251     12265
     12247     12249     12273     12275     12247     12249     12273     12302
     12247     12287     12277     12275     12247     12287     12277     12279
     12247     12287     12285     12283     12249     12247     12245     12255
     12249     12247     12287     12277     12249     12247     12287     12285
     12249     12251     12253     12255     12249     12251     12253     12301
     12249     12251     12265     12267     12249     12251     12265     12269
     12249     12251     12265     12271     12249     12273     12275     12277
     12249     12273     12275     12303     12251     12249     12247     12287
     12251     12249     12273     12275     12251     12249     12273     12302
     12251     12253     12255     12257     12253     12251     12249     12273
     12253     12251     12265     12267     12253     12251     12265     12269
     12253     12251     12265     12271     12253     12255     12257     12259
     12253     12255     12257     12261     12253     12255     12257     12263
     12255     12245     12243     12300     12255     12245     12247     12287
     12255     12253     12251     12265     12257     12255     12253     12301
     12265     12251     12249     12273     12265     12251     12253     12301
     12273     12249     12247     12287     12273     12275     12277     12279
     12273     12275     12277     12287     12275     12277     12279     12281
     12275     12277     12279     12291     12275     12277     12287     12285
     12277     12275     12273     12302     12277     12279     12281     12283
     12277     12279     12281     12304     12277     12279     12291     12293
     12277     12279     12291     12295     12277     12279     12291     12297
     12277     12287     12285     12283     12279     12277     12275     12303
     12279     12277     12287     12285     12279     12281     12283     12285
     12279     12281     12283     12289     12281     12279     12277     12287
     12281     12279     12291     12293     12281     12279     12291     12295
     12281     12279     12291     12297     12281     12283     12285     12287
     12281     12283     12289     12305     12283     12281     12279     12291
     12283     12285     12241     12299     12285     12241     12243     12300
     12285     12283     12281     12304     12285     12283     12289     12305
     12287     12277     12275     12303     12287     12277     12279     12291
     12287     12285     12241     12299     12287     12285     12283     12289
     12289     12283     12281     12304     12291     12279     12281     12304
     12299     12241     12243     12300     12302     12273     12275     12303
     12326     12328     12330     12332     12326     12328     12330     12340
     12326     12370     12368     12366     12326     12370     12368     12374
     12326     12370     12372     12332     12326     12370     12372     12362
     12328     12326     12370     12368     12328     12326     12370     12372
     12328     12330     12332     12334     12328     12330     12332     12372
     12328     12330     12340     12338     12328     12330     12340     12342
     12330     12328     12326     12370     12330     12328     12326     12384
     12330     12332     12334     12336     12330     12332     12334     12358
     12330     12332     12372     12362     12330     12332     12372     12370
     12330     12340     12338     12336     12330     12340     12338     12386
     12330     12340     12342     12344     12330     12340     12342     12346
     12330     12340     12342     12348     12332     12330     12328     12385
     12332     12330     12340     12338     12332     12330     12340     12342
     12332     12334     12336     12338     12332     12334     12336     12350
     12332     12334     12358     12360     12332     12334     12358     12387
     12332     12372     12362     12360     12332     12372     12362     12364
     12332     12372     12370     12368     12334     12332     12330     12340
     12334     12332     12372     12362     12334     12332     12372     12370
     12334     12336     12338     12340     12334     12336     12338     12386
     12334     12336     12350     12352     12334     12336     12350     12354
     12334     12336     12350     12356     12334     12358     12360     12362
     12334     12358     12360     12388     12336     12334     12332     12372
     12336     12334     12358     12360     12336     12334     12358     12387
     12336     12338     12340     12342     12338     12336     12334     12358
     12338     12336     12350     12352     12338     12336     12350     12354
     12338     12336     12350     12356     12338     12340     12342     12344
     12338     12340     12342     12346     12338     12340     12342     12348
     12340     12330     12328     12385     12340     12330     12332     12372
     12340     12338     12336     12350     12342     12340     12338     12386
     12350     12336     12334     12358     12350     12336     12338     12386
     12358     12334     12332     12372     12358     12360     12362     12364
     12358     12360     12362     12372     12360     12362     12364     12366
     12360     12362     12364     12376     12360     12362     12372     12370
     12362     12360     12358     12387     12362     12364     12366     12368
     12362     12364     12366     12389     12362     12364     12376     12378
     12362     12364     12376     12380     12362     12364     12376     12382
     12362     12372     12370     12368     12364     12362     12360     12388
     12364     12362     12372     12370     12364     12366     12368     12370
     12364     12366     12368     12374     12366     12364     12362     12372
     12366     12364     12376     12378     12366     12364     12376     12380
     12366     12364     12376     12382     12366     12368     12370     12372
     12366     12368     12374     12390     12368     12366     12364     12376
     12368     12370     12326     12384     12370     12326     12328     12385
     12370     12368     12366     12389     12370     12368     12374     12390
     12372     12362     12360     12388     12372     12362     12364     12376
     12372     12370     12326     12384     12372     12370     12368     12374
     12374     12368     12366     12389     12376     12364     12366     12389
     12384     12326     12328     12385     12387     12358     12360     12388
     12411     12413     12415     12417     12411     12413     12415     12425
     12411     12455     12453     12451     12411     12455     12453     12459
     12411     12455     12457     12417     12411     12455     12457     12447
     12413     12411     12455     12453     12413     12411     12455     12457
     12413     12415     12417     12419     12413     12415     12417     12457
     12413     12415     12425     12423     12413     12415     12425     12427
     12415     12413     12411     12455     12415     12413     12411     12469
     12415     12417     12419     12421     12415     12417     12419     12443
     12415     12417     12457     12447     12415     12417     12457     12455
     12415     12425     12423     12421     12415     12425     12423     12471
     12415     12425     12427     12429     12415     12425     12427     12431
     12415     12425     12427     12433     12417     12415     12413     12470
     12417     12415     12425     12423     12417     12415     12425     12427
     12417     12419     12421     12423     12417     12419     12421     12435
     12417     12419     12443     12445     12417     12419     12443     12472
     12417     12457     12447     12445     12417     12457     12447     12449
     12417     12457     12455     12453     12419     12417     12415     12425
     12419     12417     12457     12447     12419     12417     12457     12455
     12419     12421     12423     12425     12419     12421     12423     12471
     12419     12421     12435     12437     12419     12421     12435     12439
     12419     12421     12435     12441     12419     12443     12445     12447
     12419     12443     12445     12473     12421     12419     12417     12457
     12421     12419     12443     12445     12421     12419     12443     12472
     12421     12423     12425     12427     12423     12421     12419     12443
     12423     12421     12435     12437     12423     12421     12435     12439
     12423     12421     12435     12441     12423     12425     12427     12429
     12423     12425     12427     12431     12423     12425     12427     12433
     12425     12415     12413     12470     12425     12415     12417     12457
     12425     12423     12421     12435     12427     12425     12423     12471
     12435     12421     12419     12443     12435     12421     12423     12471
     12443     12419     12417     12457     12443     12445     12447     12449
     12443     12445     12447     12457     12445     12447     12449     12451
     12445     12447     12449     12461     12445     12447     12457     12455
     12447     12445     12443     12472     12447     12449     12451     12453
     12447     12449     12451     12474     12447     12449     12461     12463
     12447     12449     12461     12465     12447     12449     12461     12467
     12447     12457     12455     12453     12449     12447     12445     12473
     12449     12447     12457     12455     12449     12451     12453     12455
     12449     12451     12453     12459     12451     12449     12447     12457
     12451     12449     12461     12463     12451     12449     12461     12465
     12451     12449     12461     12467     12451     12453     12455     12457
     12451     12453     12459     12475     12453     12451     12449     12461
     12453     12455     12411     12469     12455     12411     12413     12470
     12455     12453     12451     12474     12455     12453     12459     12475
     12457     12447     12445     12473     12457     12447     12449     12461
     12457     12455     12411     12469     12457     12455     12453     12459
     12459     12453     12451     12474     12461     12449     12451     12474
     12469     12411     12413     12470     12472     12443     12445     12473
     12496     12498     12500     12502     12496     12498     12500     12510
     12496     12540     12538     12536     12496     12540     12538     12544
     12496     12540     12542     12502     12496     12540     12542     12532
     12498     12496     12540     12538     12498     12496     12540     12542
     12498     12500     12502     12504     12498     12500     12502     12542
     12498     12500     12510     12508     12498     12500     12510     12512
     12500     12498     12496     12540     12500     12498     12496     12554
     12500     12502     12504     12506     12500     12502     12504     12528
     12500     12502     12542     12532     12500     12502     12542     12540
     12500     12510     12508     12506     12500     12510     12508     12556
     12500     12510     12512     12514     12500     12510     12512     12516
     12500     12510     12512     12518     12502     12500     12498     12555
     12502     12500     12510     12508     12502     12500     12510     12512
     12502     12504     12506     12508     12502     12504     12506     12520
     12502     12504     12528     12530     12502     12504     12528     12557
     12502     12542     12532     12530     12502     12542     12532     12534
     12502     12542     12540     12538     12504     12502     12500     12510
     12504     12502     12542     12532     12504     12502     12542     12540
     12504     12506     12508     12510     12504     12506     12508     12556
     12504     12506     12520     12522     12504     12506     12520     12524
     12504     12506     12520     12526     12504     12528     12530     12532
     12504     12528     12530     12558     12506     12504     12502     12542
     12506     12504     12528     12530     12506     12504     12528     12557
     12506     12508     12510     12512     12508     12506     12504     12528
     12508     12506     12520     12522     12508     12506     12520     12524
     12508     12506     12520     12526     12508     12510     12512     12514
     12508     12510     12512     12516     12508     12510     12512     12518
     12510     12500     12498     12555     12510     12500     12502     12542
     12510     12508     12506     12520     12512     12510     12508     12556
     12520     12506     12504     12528     12520     12506     12508     12556
     12528     12504     12502     12542     12528     12530     12532     12534
     12528     12530     12532     12542     12530     12532     12534     12536
     12530     12532     12534     12546     12530     12532     12542     12540
     12532     12530     12528     12557     12532     12534     12536     12538
     12532     12534     12536     12559     12532     12534     12546     12548
     12532     12534     12546     12550     12532     12534     12546     12552
     12532     12542     12540     12538     12534     12532     12530     12558
     12534     12532     12542     12540     12534     12536     12538     12540
     12534     12536     12538     12544     12536     12534     12532     12542
     12536     12534     12546     12548     12536     12534     12546     12550
     12536     12534     12546     12552     12536     12538     12540     12542
     12536     12538     12544     12560     12538     12536     12534     12546
     12538     12540     12496     12554     12540     12496     12498     12555
     12540     12538     12536     12559     12540     12538     12544     12560
     12542     12532     12530     12558     12542     12532     12534     12546
     12542     12540     12496     12554     12542     12540     12538     12544
     12544     12538     12536     12559     12546     12534     12536     12559
     12554     12496     12498     12555     12557     12528     12530     12558
     12581     12583     12585     12587     12581     12583     12585     12595
     12581     12625     12623     12621     12581     12625     12623     12629
     12581     12625     12627     12587     12581     12625     12627     12617
     12583     12581     12625     12623     12583     12581     12625     12627
     12583     12585     12587     12589     12583     12585     12587     12627
     12583     12585     12595     12593     12583     12585     12595     12597
     12585     12583     12581     12625     12585     12583     12581     12639
     12585     12587     12589     12591     12585     12587     12589     12613
     12585     12587     12627     12617     12585     12587     12627     12625
     12585     12595     12593     12591     12585     12595     12593     12641
     12585     12595     12597     12599     12585     12595     12597     12601
     12585     12595     12597     12603     12587     12585     12583     12640
     12587     12585     12595     12593     12587     12585     12595     12597
     12587     12589     12591     12593     12587     12589     12591     12605
     12587     12589     12613     12615     12587     12589     12613     12642
     12587     12627     12617     12615     12587     12627     12617     12619
     12587     12627     12625     12623     12589     12587     12585     12595
     12589     12587     12627     12617     12589     12587     12627     12625
     12589     12591     12593     12595     12589     12591     12593     12641
     12589     12591     12605     12607     12589     12591     12605     12609
     12589     12591     12605     12611     12589     12613     12615     12617
     12589     12613     12615     12643     12591     12589     12587     12627
     12591     12589     12613     12615     12591     12589     12613     12642
     12591     12593     12595     12597     12593     12591     12589     12613
     12593     12591     12605     12607     12593     12591     12605     12609
     12593     12591     12605     12611     12593     12595     12597     12599
     12593     12595     12597     12601     12593     12595     12597     12603
     12595     12585     12583     12640     12595     12585     12587     12627
     12595     12593     12591     12605     12597     12595     12593     12641
     12605     12591     12589     12613     12605     12591     12593     12641
     12613     12589     12587     12627     12613     12615     12617     12619
     12613     12615     12617     12627     12615     12617     12619     12621
     12615     12617     12619     12631     12615     12617     12627     12625
     12617     12615     12613     12642     12617     12619     12621     12623
     12617     12619     12621     12644     12617     12619     12631     12633
     12617     12619     12631     12635     12617     12619     12631     12637
     12617     12627     12625     12623     12619     12617     12615     12643
     12619     12617     12627     12625     12619     12621     12623     12625
     12619     12621     12623     12629     12621     12619     12617     12627
     12621     12619     12631     12633     12621     12619     12631     12635
     12621     12619     12631     12637     12621     12623     12625     12627
     12621     12623     12629     12645     12623     12621     12619     12631
     12623     12625     12581     12639     12625     12581     12583     12640
     12625     12623     12621     12644     12625     12623     12629     12645
     12627     12617     12615     12643     12627     12617     12619     12631
     12627     12625     12581     12639     12627     12625     12623     12629
     12629     12623     12621     12644     12631     12619     12621     12644
     12639     12581     12583     12640     12642     12613     12615     12643
     12666     12668     12670     12672     12666     12668     12670     12680
     12666     12710     12708     12706     12666     12710     12708     12714
     12666     12710     12712     12672     12666     12710     12712     12702
     12668     12666     12710     12708     12668     12666     12710     12712
     12668     12670     12672     12674     12668     12670     12672     12712
     12668     12670     12680     12678     12668     12670     12680     12682
     12670     12668     12666     12710     12670     12668     12666     12724
     12670     12672     12674     12676     12670     12672     12674     12698
     12670     12672     12712     12702     12670     12672     12712     12710
     12670     12680     12678     12676     12670     12680     12678     12726
     12670     12680     12682     12684     12670     12680     12682     12686
     12670     12680     12682     12688     12672     12670     12668     12725
     12672     12670     12680     12678     12672     12670     12680     12682
     12672     12674     12676     12678     12672     12674     12676     12690
     12672     12674     12698     12700     12672     12674     12698     12727
     12672     12712     12702     12700     12672     12712     12702     12704
     12672     12712     12710     12708     12674     12672     12670     12680
     12674     12672     12712     12702     12674     12672     12712     12710
     12674     12676     12678     12680     12674     12676     12678     12726
     12674     12676     12690     12692     12674     12676     12690     12694
     12674     12676     12690     12696     12674     12698     12700     12702
     12674     12698     12700     12728     12676     12674     12672     12712
     12676     12674     12698     12700     12676     12674     12698     12727
     12676     12678     12680     12682     12678     12676     12674     12698
     12678     12676     12690     12692     12678     12676     12690     12694
     12678     12676     12690     12696     12678     12680     12682     12684
     12678     12680     12682     12686     12678     12680     12682     12688
     12680     12670     12668     12725     12680     12670     12672     12712
     12680     12678     12676     12690     12682     12680     12678     12726
     12690     12676     12674     12698     12690     12676     12678     12726
     12698     12674     12672     12712     12698     12700     12702     12704
     12698     12700     12702     12712     12700     12702     12704     12706
     12700     12702     12704     12716     12700     12702     12712     12710
     12702     12700     12698     12727     12702     12704     12706     12708
     12702     12704     12706     12729     12702     12704     12716     12718
     12702     12704     12716     12720     12702     12704     12716     12722
     12702     12712     12710     12708     12704     12702     12700     12728
     12704     12702     12712     12710     12704     12706     12708     12710
     12704     12706     12708     12714     12706     12704     12702     12712
     12706     12704     12716     12718     12706     12704     12716     12720
     12706     12704     12716     12722     12706     12708     12710     12712
     12706     12708     12714     12730     12708     12706     12704     12716
     12708     12710     12666     12724     12710     12666     12668     12725
     12710     12708     12706     12729     12710     12708     12714     12730
     12712     12702     12700     12728     12712     12702     12704     12716
     12712     12710     12666     12724     12712     12710     12708     12714
     12714     12708     12706     12729     12716     12704     12706     12729
     12724     12666     12668     12725     12727     12698     12700     12728
     12751     12753     12755     12757     12751     12753     12755     12765
     12751     12795     12793     12791     12751     12795     12793     12799
     12751     12795     12797     12757     12751     12795     12797     12787
     12753     12751     12795     12793     12753     12751     12795     12797
     12753     12755     12757     12759     12753     12755     12757     12797
     12753     12755     12765     12763     12753     12755     12765     12767
     12755     12753     12751     12795     12755     12753     12751     12809
     12755     12757     12759     12761     12755     12757     12759     12783
     12755     12757     12797     12787     12755     12757     12797     12795
     12755     12765     12763     12761     12755     12765     12763     12811
     12755     12765     12767     12769     12755     12765     12767     12771
     12755     12765     12767     12773     12757     12755     12753     12810
     12757     12755     12765     12763     12757     12755     12765     12767
     12757     12759     12761     12763     12757     12759     12761     12775
     12757     12759     12783     12785     12757     12759     12783     12812
     12757     12797     12787     12785     12757     12797     12787     12789
     12757     12797     12795     12793     12759     12757     12755     12765
     12759     12757     12797     12787     12759     12757     12797     12795
     12759     12761     12763     12765     12759     12761     12763     12811
     12759     12761     12775     12777     12759     12761     12775     12779
     12759     12761     12775     12781     12759     12783     12785     12787
     12759     12783     12785     12813     12761     12759     12757     12797
     12761     12759     12783     12785     12761     12759     12783     12812
     12761     12763     12765     12767     12763     12761     12759     12783
     12763     12761     12775     12777     12763     12761     12775     12779
     12763     12761     12775     12781     12763     12765     12767     12769
     12763     12765     12767     12771     12763     12765     12767     12773
     12765     12755     12753     12810     12765     12755     12757     12797
     12765     12763     12761     12775     12767     12765     12763     12811
     12775     12761     12759     12783     12775     12761     12763     12811
     12783     12759     12757     12797     12783     12785     12787     12789
     12783     12785     12787     12797     12785     12787     12789     12791
     12785     12787     12789     12801     12785     12787     12797     12795
     12787     12785     12783     12812     12787     12789     12791     12793
     12787     12789     12791     12814     12787     12789     12801     12803
     12787     12789     12801     12805     12787     12789     12801     12807
     12787     12797     12795     12793     12789     12787     12785     12813
     12789     12787     12797     12795     12789     12791     12793     12795
     12789     12791     12793     12799     12791     12789     12787     12797
     12791     12789     12801     12803     12791     12789     12801     12805
     12791     12789     12801     12807     12791     12793     12795     12797
     12791     12793     12799     12815     12793     12791     12789     12801
     12793     12795     12751     12809     12795     12751     12753     12810
     12795     12793     12791     12814     12795     12793     12799     12815
     12797     12787     12785     12813     12797     12787     12789     12801
     12797     12795     12751     12809     12797     12795     12793     12799
     12799     12793     12791     12814     12801     12789     12791     12814
     12809     12751     12753     12810     12812     12783     12785     12813
     12836     12838     12840     12842     12836     12838     12840     12850
     12836     12880     12878     12876     12836     12880     12878     12884
     12836     12880     12882     12842     12836     12880     12882     12872
     12838     12836     12880     12878     12838     12836     12880     12882
     12838     12840     12842     12844     12838     12840     12842     12882
     12838     12840     12850     12848     12838     12840     12850     12852
     12840     12838     12836     12880     12840     12838     12836     12894
     12840     12842     12844     12846     12840     12842     12844     12868
     12840     12842     12882     12872     12840     12842     12882     12880
     12840     12850     12848     12846     12840     12850     12848     12896
     12840     12850     12852     12854     12840     12850     12852     12856
     12840     12850     12852     12858     12842     12840     12838     12895
     12842     12840     12850     12848     12842     12840     12850     12852
     12842     12844     12846     12848     12842     12844     12846     12860
     12842     12844     12868     12870     12842     12844     12868     12897
     12842     12882     12872     12870     12842     12882     12872     12874
     12842     12882     12880     12878     12844     12842     12840     12850
     12844     12842     12882     12872     12844     12842     12882     12880
     12844     12846     12848     12850     12844     12846     12848     12896
     12844     12846     12860     12862     12844     12846     12860     12864
     12844     12846     12860     12866     12844     12868     12870     12872
     12844     12868     12870     12898     12846     12844     12842     12882
     12846     12844     12868     12870     12846     12844     12868     12897
     12846     12848     12850     12852     12848     12846     12844     12868
     12848     12846     12860     12862     12848     12846     12860     12864
     12848     12846     12860     12866     12848     12850     12852     12854
     12848     12850     12852     12856     12848     12850     12852     12858
     12850     12840     12838     12895     12850     12840     12842     12882
     12850     12848     12846     12860     12852     12850     12848     12896
     12860     12846     12844     12868     12860     12846     12848     12896
     12868     12844     12842     12882     12868     12870     12872     12874
     12868     12870     12872     12882     12870     12872     12874     12876
     12870     12872     12874     12886     12870     12872     12882     12880
     12872     12870     12868     12897     12872     12874     12876     12878
     12872     12874     12876     12899     12872     12874     12886     12888
     12872     12874     12886     12890     12872     12874     12886     12892
     12872     12882     12880     12878     12874     12872     12870     12898
     12874     12872     12882     12880     12874     12876     12878     12880
     12874     12876     12878     12884     12876     12874     12872     12882
     12876     12874     12886     12888     12876     12874     12886     12890
     12876     12874     12886     12892     12876     12878     12880     12882
     12876     12878     12884     12900     12878     12876     12874     12886
     12878     12880     12836     12894     12880     12836     12838     12895
     12880     12878     12876     12899     12880     12878     12884     12900
     12882     12872     12870     12898     12882     12872     12874     12886
     12882     12880     12836     12894     12882     12880     12878     12884
     12884     12878     12876     12899     12886     12874     12876     12899
     12894     12836     12838     12895     12897     12868     12870     12898
     12921     12923     12925     12927     12921     12923     12925     12935
     12921     12965     12963     12961     12921     12965     12963     12969
     12921     12965     12967     12927     12921     12965     12967     12957
     12923     12921     12965     12963     12923     12921     12965     12967
     12923     12925     12927     12929     12923     12925     12927     12967
     12923     12925     12935     12933     12923     12925     12935     12937
     12925     12923     12921     12965     12925     12923     12921     12979
     12925     12927     12929     12931     12925     12927     12929     12953
     12925     12927     12967     12957     12925     12927     12967     12965
     12925     12935     12933     12931     12925     12935     12933     12981
     12925     12935     12937     12939     12925     12935     12937     12941
     12925     12935     12937     12943     12927     12925     12923     12980
     12927     12925     12935     12933     12927     12925     12935     12937
     12927     12929     12931     12933     12927     12929     12931     12945
     12927     12929     12953     12955     12927     12929     12953     12982
     12927     12967     12957     12955     12927     12967     12957     12959
     12927     12967     12965     12963     12929     12927     12925     12935
     12929     12927     12967     12957     12929     12927     12967     12965
     12929     12931     12933     12935     12929     12931     12933     12981
     12929     12931     12945     12947     12929     12931     12945     12949
     12929     12931     12945     12951     12929     12953     12955     12957
     12929     12953     12955     12983     12931     12929     12927     12967
     12931     12929     12953     12955     12931     12929     12953     12982
     12931     12933     12935     12937     12933     12931     12929     12953
     12933     12931     12945     12947     12933     12931     12945     12949
     12933     12931     12945     12951     12933     12935     12937     12939
     12933     12935     12937     12941     12933     12935     12937     12943
     12935     12925     12923     12980     12935     12925     12927     12967
     12935     12933     12931     12945     12937     12935     12933     12981
     12945     12931     12929     12953     12945     12931     12933     12981
     12953     12929     12927     12967     12953     12955     12957     12959
     12953     12955     12957     12967     12955     12957     12959     12961
     12955     12957     12959     12971     12955     12957     12967     12965
     12957     12955     12953     12982     12957     12959     12961     12963
     12957     12959     12961     12984     12957     12959     12971     12973
     12957     12959     12971     12975     12957     12959     12971     12977
     12957     12967     12965     12963     12959     12957     12955     12983
     12959     12957     12967     12965     12959     12961     12963     12965
     12959     12961     12963     12969     12961     12959     12957     12967
     12961     12959     12971     12973     12961     12959     12971     12975
     12961     12959     12971     12977     12961     12963     12965     12967
     12961     12963     12969     12985     12963     12961     12959     12971
     12963     12965     12921     12979     12965     12921     12923     12980
     12965     12963     12961     12984     12965     12963     12969     12985
     12967     12957     12955     12983     12967     12957     12959     12971
     12967     12965     12921     12979     12967     12965     12963     12969
     12969     12963     12961     12984     12971     12959     12961     12984
     12979     12921     12923     12980     12982     12953     12955     12983
     13006     13008     13010     13012     13006     13008     13010     13020
     13006     13050     13048     13046     13006     13050     13048     13054
     13006     13050     13052     13012     13006     13050     13052     13042
     13008     13006     13050     13048     13008     13006     13050     13052
     13008     13010     13012     13014     13008     13010     13012     13052
     13008     13010     13020     13018     13008     13010     13020     13022
     13010     13008     13006     13050     13010     13008     13006     13064
     13010     13012     13014     13016     13010     13012     13014     13038
     13010     13012     13052     13042     13010     13012     13052     13050
     13010     13020     13018     13016     13010     13020     13018     13066
     13010     13020     13022     13024     13010     13020     13022     13026
     13010     13020     13022     13028     13012     13010     13008     13065
     13012     13010     13020     13018     13012     13010     13020     13022
     13012     13014     13016     13018     13012     13014     13016     13030
     13012     13014     13038     13040     13012     13014     13038     13067
     13012     13052     13042     13040     13012     13052     13042     13044
     13012     13052     13050     13048     13014     13012     13010     13020
     13014     13012     13052     13042     13014     13012     13052     13050
     13014     13016     13018     13020     13014     13016     13018     13066
     13014     13016     13030     13032     13014     13016     13030     13034
     13014     13016     13030     13036     13014     13038     13040     13042
     13014     13038     13040     13068     13016     13014     13012     13052
     13016     13014     13038     13040     13016     13014     13038     13067
     13016     13018     13020     13022     13018     13016     13014     13038
     13018     13016     13030     13032     13018     13016     13030     13034
     13018     13016     13030     13036     13018     13020     13022     13024
     13018     13020     13022     13026     13018     13020     13022     13028
     13020     13010     13008     13065     13020     13010     13012     13052
     13020     13018     13016     13030     13022     13020     13018     13066
     13030     13016     13014     13038     13030     13016     13018     13066
     13038     13014     13012     13052     13038     13040     13042     13044
     13038     13040     13042     13052     13040     13042     13044     13046
     13040     13042     13044     13056     13040     13042     13052     13050
     13042     13040     13038     13067     13042     13044     13046     13048
     13042     13044     13046     13069     13042     13044     13056     13058
     13042     13044     13056     13060     13042     13044     13056     13062
     13042     13052     13050     13048     13044     13042     13040     13068
     13044     13042     13052     13050     13044     13046     13048     13050
     13044     13046     13048     13054     13046     13044     13042     13052
     13046     13044     13056     13058     13046     13044     13056     13060
     13046     13044     13056     13062     13046     13048     13050     13052
     13046     13048     13054     13070     13048     13046     13044     13056
     13048     13050     13006     13064     13050     13006     13008     13065
     13050     13048     13046     13069     13050     13048     13054     13070
     13052     13042     13040     13068     13052     13042     13044     13056
     13052     13050     13006     13064     13052     13050     13048     13054
     13054     13048     13046     13069     13056     13044     13046     13069
     13064     13006     13008     13065     13067     13038     13040     13068
     13091     13093     13095     13097     13091     13093     13095     13105
     13091     13135     13133     13131     13091     13135     13133     13139
     13091     13135     13137     13097     13091     13135     13137     13127
     13093     13091     13135     13133     13093     13091     13135     13137
     13093     13095     13097     13099     13093     13095     13097     13137
     13093     13095     13105     13103     13093     13095     13105     13107
     13095     13093     13091     13135     13095     13093     13091     13149
     13095     13097     13099     13101     13095     13097     13099     13123
     13095     13097     13137     13127     13095     13097     13137     13135
     13095     13105     13103     13101     13095     13105     13103     13151
     13095     13105     13107     13109     13095     13105     13107     13111
     13095     13105     13107     13113     13097     13095     13093     13150
     13097     13095     13105     13103     13097     13095     13105     13107
     13097     13099     13101     13103     13097     13099     13101     13115
     13097     13099     13123     13125     13097     13099     13123     13152
     13097     13137     13127     13125     13097     13137     13127     13129
     13097     13137     13135     13133     13099     13097     13095     13105
     13099     13097     13137     13127     13099     13097     13137     13135
     13099     13101     13103     13105     13099     13101     13103     13151
     13099     13101     13115     13117     13099     13101     13115     13119
     13099     13101     13115     13121     13099     13123     13125     13127
     13099     13123     13125     13153     13101     13099     13097     13137
     13101     13099     13123     13125     13101     13099     13123     13152
     13101     13103     13105     13107     13103     13101     13099     13123
     13103     13101     13115     13117     13103     13101     13115     13119
     13103     13101     13115     13121     13103     13105     13107     13109
     13103     13105     13107     13111     13103     13105     13107     13113
     13105     13095     13093     13150     13105     13095     13097     13137
     13105     13103     13101     13115     13107     13105     13103     13151
     13115     13101     13099     13123     13115     13101     13103     13151
     13123     13099     13097     13137     13123     13125     13127     13129
     13123     13125     13127     13137     13125     13127     13129     13131
     13125     13127     13129     13141     13125     13127     13137     13135
     13127     13125     13123     13152     13127     13129     13131     13133
     13127     13129     13131     13154     13127     13129     13141     13143
     13127     13129     13141     13145     13127     13129     13141     13147
     13127     13137     13135     13133     13129     13127     13125     13153
     13129     13127     13137     13135     13129     13131     13133     13135
     13129     13131     13133     13139     13131     13129     13127     13137
     13131     13129     13141     13143     13131     13129     13141     13145
     13131     13129     13141     13147     13131     13133     13135     13137
     13131     13133     13139     13155     13133     13131     13129     13141
     13133     13135     13091     13149     13135     13091     13093     13150
     13135     13133     13131     13154     13135     13133     13139     13155
     13137     13127     13125     13153     13137     13127     13129     13141
     13137     13135     13091     13149     13137     13135     13133     13139
     13139     13133     13131     13154     13141     13129     13131     13154
     13149     13091     13093     13150     13152     13123     13125     13153
     13176     13178     13180     13182     13176     13178     13180     13190
     13176     13220     13218     13216     13176     13220     13218     13224
     13176     13220     13222     13182     13176     13220     13222     13212
     13178     13176     13220     13218     13178     13176     13220     13222
     13178     13180     13182     13184     13178     13180     13182     13222
     13178     13180     13190     13188     13178     13180     13190     13192
     13180     13178     13176     13220     13180     13178     13176     13234
     13180     13182     13184     13186     13180     13182     13184     13208
     13180     13182     13222     13212     13180     13182     13222     13220
     13180     13190     13188     13186     13180     13190     13188     13236
     13180     13190     13192     13194     13180     13190     13192     13196
     13180     13190     13192     13198     13182     13180     13178     13235
     13182     13180     13190     13188     13182     13180     13190     13192
     13182     13184     13186     13188     13182     13184     13186     13200
     13182     13184     13208     13210     13182     13184     13208     13237
     13182     13222     13212     13210     13182     13222     13212     13214
     13182     13222     13220     13218     13184     13182     13180     13190
     13184     13182     13222     13212     13184     13182     13222     13220
     13184     13186     13188     13190     13184     13186     13188     13236
     13184     13186     13200     13202     13184     13186     13200     13204
     13184     13186     13200     13206     13184     13208     13210     13212
     13184     13208     13210     13238     13186     13184     13182     13222
     13186     13184     13208     13210     13186     13184     13208     13237
     13186     13188     13190     13192     13188     13186     13184     13208
     13188     13186     13200     13202     13188     13186     13200     13204
     13188     13186     13200     13206     13188     13190     13192     13194
     13188     13190     13192     13196     13188     13190     13192     13198
     13190     13180     13178     13235     13190     13180     13182     13222
     13190     13188     13186     13200     13192     13190     13188     13236
     13200     13186     13184     13208     13200     13186     13188     13236
     13208     13184     13182     13222     13208     13210     13212     13214
     13208     13210     13212     13222     13210     13212     13214     13216
     13210     13212     13214     13226     13210     13212     13222     13220
     13212     13210     13208     13237     13212     13214     13216     13218
     13212     13214     13216     13239     13212     13214     13226     13228
     13212     13214     13226     13230     13212     13214     13226     13232
     13212     13222     13220     13218     13214     13212     13210     13238
     13214     13212     13222     13220     13214     13216     13218     13220
     13214     13216     13218     13224     13216     13214     13212     13222
     13216     13214     13226     13228     13216     13214     13226     13230
     13216     13214     13226     13232     13216     13218     13220     13222
     13216     13218     13224     13240     13218     13216     13214     13226
     13218     13220     13176     13234     13220     13176     13178     13235
     13220     13218     13216     13239     13220     13218     13224     13240
     13222     13212     13210     13238     13222     13212     13214     13226
     13222     13220     13176     13234     13222     13220     13218     13224
     13224     13218     13216     13239     13226     13214     13216     13239
     13234     13176     13178     13235     13237     13208     13210     13238
     13261     13263     13265     13267     13261     13263     13265     13275
     13261     13305     13303     13301     13261     13305     13303     13309
     13261     13305     13307     13267     13261     13305     13307     13297
     13263     13261     13305     13303     13263     13261     13305     13307
     13263     13265     13267     13269     13263     13265     13267     13307
     13263     13265     13275     13273     13263     13265     13275     13277
     13265     13263     13261     13305     13265     13263     13261     13319
     13265     13267     13269     13271     13265     13267     13269     13293
     13265     13267     13307     13297     13265     13267     13307     13305
     13265     13275     13273     13271     13265     13275     13273     13321
     13265     13275     13277     13279     13265     13275     13277     13281
     13265     13275     13277     13283     13267     13265     13263     13320
     13267     13265     13275     13273     13267     13265     13275     13277
     13267     13269     13271     13273     13267     13269     13271     13285
     13267     13269     13293     13295     13267     13269     13293     13322
     13267     13307     13297     13295     13267     13307     13297     13299
     13267     13307     13305     13303     13269     13267     13265     13275
     13269     13267     13307     13297     13269     13267     13307     13305
     13269     13271     13273     13275     13269     13271     13273     13321
     13269     13271     13285     13287     13269     13271     13285     13289
     13269     13271     13285     13291     13269     13293     13295     13297
     13269     13293     13295     13323     13271     13269     13267     13307
     13271     13269     13293     13295     13271     13269     13293     13322
     13271     13273     13275     13277     13273     13271     13269     13293
     13273     13271     13285     13287     13273     13271     13285     13289
     13273     13271     13285     13291     13273     13275     13277     13279
     13273     13275     13277     13281     13273     13275     13277     13283
     13275     13265     13263     13320     13275     13265     13267     13307
     13275     13273     13271     13285     13277     13275     13273     13321
     13285     13271     13269     13293     13285     13271     13273     13321
     13293     13269     13267     13307     13293     13295     13297     13299
     13293     13295     13297     13307     13295     13297     13299     13301
     13295     13297     13299     13311     13295     13297     13307     13305
     13297     13295     13293     13322     13297     13299     13301     13303
     13297     13299     13301     13324     13297     13299     13311     13313
     13297     13299     13311     13315     13297     13299     13311     13317
     13297     13307     13305     13303     13299     13297     13295     13323
     13299     13297     13307     13305     13299     13301     13303     13305
     13299     13301     13303     13309     13301     13299     13297     13307
     13301     13299     13311     13313     13301     13299     13311     13315
     13301     13299     13311     13317     13301     13303     13305     13307
     13301     13303     13309     13325     13303     13301     13299     13311
     13303     13305     13261     13319     13305     13261     13263     13320
     13305     13303     13301     13324     13305     13303     13309     13325
     13307     13297     13295     13323     13307     13297     13299     13311
     13307     13305     13261     13319     13307     13305     13303     13309
     13309     13303     13301     13324     13311     13299     13301     13324
     13319     13261     13263     13320     13322     13293     13295     13323
     13346     13348     13350     13352     13346     13348     13350     13360
     13346     13390     13388     13386     13346     13390     13388     13394
     13346     13390     13392     13352     13346     13390     13392     13382
     13348     13346     13390     13388     13348     13346     13390     13392
     13348     13350     13352     13354     13348     13350     13352     13392
     13348     13350     13360     13358     13348     13350     13360     13362
     13350     13348     13346     13390     13350     13348     13346     13404
     13350     13352     13354     13356     13350     13352     13354     13378
     13350     13352     13392     13382     13350     13352     13392     13390
     13350     13360     13358     13356     13350     13360     13358     13406
     13350     13360     13362     13364     13350     13360     13362     13366
     13350     13360     13362     13368     13352     13350     13348     13405
     13352     13350     13360     13358     13352     13350     13360     13362
     13352     13354     13356     13358     13352     13354     13356     13370
     13352     13354     13378     13380     13352     13354     13378     13407
     13352     13392     13382     13380     13352     13392     13382     13384
     13352     13392     13390     13388     13354     13352     13350     13360
     13354     13352     13392     13382     13354     13352     13392     13390
     13354     13356     13358     13360     13354     13356     13358     13406
     13354     13356     13370     13372     13354     13356     13370     13374
     13354     13356     13370     13376     13354     13378     13380     13382
     13354     13378     13380     13408     13356     13354     13352     13392
     13356     13354     13378     13380     13356     13354     13378     13407
     13356     13358     13360     13362     13358     13356     13354     13378
     13358     13356     13370     13372     13358     13356     13370     13374
     13358     13356     13370     13376     13358     13360     13362     13364
     13358     13360     13362     13366     13358     13360     13362     13368
     13360     13350     13348     13405     13360     13350     13352     13392
     13360     13358     13356     13370     13362     13360     13358     13406
     13370     13356     13354     13378     13370     13356     13358     13406
     13378     13354     13352     13392     13378     13380     13382     13384
     13378     13380     13382     13392     13380     13382     13384     13386
     13380     13382     13384     13396     13380     13382     13392     13390
     13382     13380     13378     13407     13382     13384     13386     13388
     13382     13384     13386     13409     13382     13384     13396     13398
     13382     13384     13396     13400     13382     13384     13396     13402
     13382     13392     13390     13388     13384     13382     13380     13408
     13384     13382     13392     13390     13384     13386     13388     13390
     13384     13386     13388     13394     13386     13384     13382     13392
     13386     13384     13396     13398     13386     13384     13396     13400
     13386     13384     13396     13402     13386     13388     13390     13392
     13386     13388     13394     13410     13388     13386     13384     13396
     13388     13390     13346     13404     13390     13346     13348     13405
     13390     13388     13386     13409     13390     13388     13394     13410
     13392     13382     13380     13408     13392     13382     13384     13396
     13392     13390     13346     13404     13392     13390     13388     13394
     13394     13388     13386     13409     13396     13384     13386     13409
     13404     13346     13348     13405     13407     13378     13380     13408
     13431     13433     13435     13437     13431     13433     13435     13445
     13431     13475     13473     13471     13431     13475     13473     13479
     13431     13475     13477     13437     13431     13475     13477     13467
     13433     13431     13475     13473     13433     13431     13475     13477
     13433     13435     13437     13439     13433     13435     13437     13477
     13433     13435     13445     13443     13433     13435     13445     13447
     13435     13433     13431     13475     13435     13433     13431     13489
     13435     13437     13439     13441     13435     13437     13439     13463
     13435     13437     13477     13467     13435     13437     13477     13475
     13435     13445     13443     13441     13435     13445     13443     13491
     13435     13445     13447     13449     13435     13445     13447     13451
     13435     13445     13447     13453     13437     13435     13433     13490
     13437     13435     13445     13443     13437     13435     13445     13447
     13437     13439     13441     13443     13437     13439     13441     13455
     13437     13439     13463     13465     13437     13439     13463     13492
     13437     13477     13467     13465     13437     13477     13467     13469
     13437     13477     13475     13473     13439     13437     13435     13445
     13439     13437     13477     13467     13439     13437     13477     13475
     13439     13441     13443     13445     13439     13441     13443     13491
     13439     13441     13455     13457     13439     13441     13455     13459
     13439     13441     13455     13461     13439     13463     13465     13467
     13439     13463     13465     13493     13441     13439     13437     13477
     13441     13439     13463     13465     13441     13439     13463     13492
     13441     13443     13445     13447     13443     13441     13439     13463
     13443     13441     13455     13457     13443     13441     13455     13459
     13443     13441     13455     13461     13443     13445     13447     13449
     13443     13445     13447     13451     13443     13445     13447     13453
     13445     13435     13433     13490     13445     13435     13437     13477
     13445     13443     13441     13455     13447     13445     13443     13491
     13455     13441     13439     13463     13455     13441     13443     13491
     13463     13439     13437     13477     13463     13465     13467     13469
     13463     13465     13467     13477     13465     13467     13469     13471
     13465     13467     13469     13481     13465     13467     13477     13475
     13467     13465     13463     13492     13467     13469     13471     13473
     13467     13469     13471     13494     13467     13469     13481     13483
     13467     13469     13481     13485     13467     13469     13481     13487
     13467     13477     13475     13473     13469     13467     13465     13493
     13469     13467     13477     13475     13469     13471     13473     13475
     13469     13471     13473     13479     13471     13469     13467     13477
     13471     13469     13481     13483     13471     13469     13481     13485
     13471     13469     13481     13487     13471     13473     13475     13477
     13471     13473     13479     13495     13473     13471     13469     13481
     13473     13475     13431     13489     13475     13431     13433     13490
     13475     13473     13471     13494     13475     13473     13479     13495
     13477     13467     13465     13493     13477     13467     13469     13481
     13477     13475     13431     13489     13477     13475     13473     13479
     13479     13473     13471     13494     13481     13469     13471     13494
     13489     13431     13433     13490     13492     13463     13465     13493
     13516     13518     13520     13522     13516     13518     13520     13530
     13516     13560     13558     13556     13516     13560     13558     13564
     13516     13560     13562     13522     13516     13560     13562     13552
     13518     13516     13560     13558     13518     13516     13560     13562
     13518     13520     13522     13524     13518     13520     13522     13562
     13518     13520     13530     13528     13518     13520     13530     13532
     13520     13518     13516     13560     13520     13518     13516     13574
     13520     13522     13524     13526     13520     13522     13524     13548
     13520     13522     13562     13552     13520     13522     13562     13560
     13520     13530     13528     13526     13520     13530     13528     13576
     13520     13530     13532     13534     13520     13530     13532     13536
     13520     13530     13532     13538     13522     13520     13518     13575
     13522     13520     13530     13528     13522     13520     13530     13532
     13522     13524     13526     13528     13522     13524     13526     13540
     13522     13524     13548     13550     13522     13524     13548     13577
     13522     13562     13552     13550     13522     13562     13552     13554
     13522     13562     13560     13558     13524     13522     13520     13530
     13524     13522     13562     13552     13524     13522     13562     13560
     13524     13526     13528     13530     13524     13526     13528     13576
     13524     13526     13540     13542     13524     13526     13540     13544
     13524     13526     13540     13546     13524     13548     13550     13552
     13524     13548     13550     13578     13526     13524     13522     13562
     13526     13524     13548     13550     13526     13524     13548     13577
     13526     13528     13530     13532     13528     13526     13524     13548
     13528     13526     13540     13542     13528     13526     13540     13544
     13528     13526     13540     13546     13528     13530     13532     13534
     13528     13530     13532     13536     13528     13530     13532     13538
     13530     13520     13518     13575     13530     13520     13522     13562
     13530     13528     13526     13540     13532     13530     13528     13576
     13540     13526     13524     13548     13540     13526     13528     13576
     13548     13524     13522     13562     13548     13550     13552     13554
     13548     13550     13552     13562     13550     13552     13554     13556
     13550     13552     13554     13566     13550     13552     13562     13560
     13552     13550     13548     13577     13552     13554     13556     13558
     13552     13554     13556     13579     13552     13554     13566     13568
     13552     13554     13566     13570     13552     13554     13566     13572
     13552     13562     13560     13558     13554     13552     13550     13578
     13554     13552     13562     13560     13554     13556     13558     13560
     13554     13556     13558     13564     13556     13554     13552     13562
     13556     13554     13566     13568     13556     13554     13566     13570
     13556     13554     13566     13572     13556     13558     13560     13562
     13556     13558     13564     13580     13558     13556     13554     13566
     13558     13560     13516     13574     13560     13516     13518     13575
     13560     13558     13556     13579     13560     13558     13564     13580
     13562     13552     13550     13578     13562     13552     13554     13566
     13562     13560     13516     13574     13562     13560     13558     13564
     13564     13558     13556     13579     13566     13554     13556     13579
     13574     13516     13518     13575     13577     13548     13550     13578
     13601     13603     13605     13607     13601     13603     13605     13615
     13601     13645     13643     13641     13601     13645     13643     13649
     13601     13645     13647     13607     13601     13645     13647     13637
     13603     13601     13645     13643     13603     13601     13645     13647
     13603     13605     13607     13609     13603     13605     13607     13647
     13603     13605     13615     13613     13603     13605     13615     13617
     13605     13603     13601     13645     13605     13603     13601     13659
     13605     13607     13609     13611     13605     13607     13609     13633
     13605     13607     13647     13637     13605     13607     13647     13645
     13605     13615     13613     13611     13605     13615     13613     13661
     13605     13615     13617     13619     13605     13615     13617     13621
     13605     13615     13617     13623     13607     13605     13603     13660
     13607     13605     13615     13613     13607     13605     13615     13617
     13607     13609     13611     13613     13607     13609     13611     13625
     13607     13609     13633     13635     13607     13609     13633     13662
     13607     13647     13637     13635     13607     13647     13637     13639
     13607     13647     13645     13643     13609     13607     13605     13615
     13609     13607     13647     13637     13609     13607     13647     13645
     13609     13611     13613     13615     13609     13611     13613     13661
     13609     13611     13625     13627     13609     13611     13625     13629
     13609     13611     13625     13631     13609     13633     13635     13637
     13609     13633     13635     13663     13611     13609     13607     13647
     13611     13609     13633     13635     13611     13609     13633     13662
     13611     13613     13615     13617     13613     13611     13609     13633
     13613     13611     13625     13627     13613     13611     13625     13629
     13613     13611     13625     13631     13613     13615     13617     13619
     13613     13615     13617     13621     13613     13615     13617     13623
     13615     13605     13603     13660     13615     13605     13607     13647
     13615     13613     13611     13625     13617     13615     13613     13661
     13625     13611     13609     13633     13625     13611     13613     13661
     13633     13609     13607     13647     13633     13635     13637     13639
     13633     13635     13637     13647     13635     13637     13639     13641
     13635     13637     13639     13651     13635     13637     13647     13645
     13637     13635     13633     13662     13637     13639     13641     13643
     13637     13639     13641     13664     13637     13639     13651     13653
     13637     13639     13651     13655     13637     13639     13651     13657
     13637     13647     13645     13643     13639     13637     13635     13663
     13639     13637     13647     13645     13639     13641     13643     13645
     13639     13641     13643     13649     13641     13639     13637     13647
     13641     13639     13651     13653     13641     13639     13651     13655
     13641     13639     13651     13657     13641     13643     13645     13647
     13641     13643     13649     13665     13643     13641     13639     13651
     13643     13645     13601     13659     13645     13601     13603     13660
     13645     13643     13641     13664     13645     13643     13649     13665
     13647     13637     13635     13663     13647     13637     13639     13651
     13647     13645     13601     13659     13647     13645     13643     13649
     13649     13643     13641     13664     13651     13639     13641     13664
     13659     13601     13603     13660     13662     13633     13635     13663
     13686     13688     13690     13692     13686     13688     13690     13700
     13686     13730     13728     13726     13686     13730     13728     13734
     13686     13730     13732     13692     13686     13730     13732     13722
     13688     13686     13730     13728     13688     13686     13730     13732
     13688     13690     13692     13694     13688     13690     13692     13732
     13688     13690     13700     13698     13688     13690     13700     13702
     13690     13688     13686     13730     13690     13688     13686     13744
     13690     13692     13694     13696     13690     13692     13694     13718
     13690     13692     13732     13722     13690     13692     13732     13730
     13690     13700     13698     13696     13690     13700     13698     13746
     13690     13700     13702     13704     13690     13700     13702     13706
     13690     13700     13702     13708     13692     13690     13688     13745
     13692     13690     13700     13698     13692     13690     13700     13702
     13692     13694     13696     13698     13692     13694     13696     13710
     13692     13694     13718     13720     13692     13694     13718     13747
     13692     13732     13722     13720     13692     13732     13722     13724
     13692     13732     13730     13728     13694     13692     13690     13700
     13694     13692     13732     13722     13694     13692     13732     13730
     13694     13696     13698     13700     13694     13696     13698     13746
     13694     13696     13710     13712     13694     13696     13710     13714
     13694     13696     13710     13716     13694     13718     13720     13722
     13694     13718     13720     13748     13696     13694     13692     13732
     13696     13694     13718     13720     13696     13694     13718     13747
     13696     13698     13700     13702     13698     13696     13694     13718
     13698     13696     13710     13712     13698     13696     13710     13714
     13698     13696     13710     13716     13698     13700     13702     13704
     13698     13700     13702     13706     13698     13700     13702     13708
     13700     13690     13688     13745     13700     13690     13692     13732
     13700     13698     13696     13710     13702     13700     13698     13746
     13710     13696     13694     13718     13710     13696     13698     13746
     13718     13694     13692     13732     13718     13720     13722     13724
     13718     13720     13722     13732     13720     13722     13724     13726
     13720     13722     13724     13736     13720     13722     13732     13730
     13722     13720     13718     13747     13722     13724     13726     13728
     13722     13724     13726     13749     13722     13724     13736     13738
     13722     13724     13736     13740     13722     13724     13736     13742
     13722     13732     13730     13728     13724     13722     13720     13748
     13724     13722     13732     13730     13724     13726     13728     13730
     13724     13726     13728     13734     13726     13724     13722     13732
     13726     13724     13736     13738     13726     13724     13736     13740
     13726     13724     13736     13742     13726     13728     13730     13732
     13726     13728     13734     13750     13728     13726     13724     13736
     13728     13730     13686     13744     13730     13686     13688     13745
     13730     13728     13726     13749     13730     13728     13734     13750
     13732     13722     13720     13748     13732     13722     13724     13736
     13732     13730     13686     13744     13732     13730     13728     13734
     13734     13728     13726     13749     13736     13724     13726     13749
     13744     13686     13688     13745     13747     13718     13720     13748
     13775     13773     13771     13777     13775     13773     13771     13778
     13775     13773     13771     13779     13776     13773     13771     13777
     13776     13773     13771     13778     13776     13773     13771     13779
     13786     13784     13782     13788     13786     13784     13782     13789
     13786     13784     13782     13790     13787     13784     13782     13788
     13787     13784     13782     13789     13787     13784     13782     13790
     13797     13795     13793     13799     13797     13795     13793     13800
     13797     13795     13793     13801     13798     13795     13793     13799
     13798     13795     13793     13800     13798     13795     13793     13801
     13808     13806     13804     13810     13808     13806     13804     13811
     13808     13806     13804     13812     13809     13806     13804     13810
     13809     13806     13804     13811     13809     13806     13804     13812
     13819     13817     13815     13821     13819     13817     13815     13822
     13819     13817     13815     13823     13820     13817     13815     13821
     13820     13817     13815     13822     13820     13817     13815     13823
     13830     13828     13826     13832     13830     13828     13826     13833
     13830     13828     13826     13834     13831     13828     13826     13832
     13831     13828     13826     13833     13831     13828     13826     13834
     13841     13839     13837     13843     13841     13839     13837     13844
     13841     13839     13837     13845     13842     13839     13837     13843
     13842     13839     13837     13844     13842     13839     13837     13845
     13852     13850     13848     13854     13852     13850     13848     13855
     13852     13850     13848     13856     13853     13850     13848     13854
     13853     13850     13848     13855     13853     13850     13848     13856
     13863     13861     13859     13865     13863     13861     13859     13866
     13863     13861     13859     13867     13864     13861     13859     13865
     13864     13861     13859     13866     13864     13861     13859     13867
     13874     13872     13870     13876     13874     13872     13870     13877
     13874     13872     13870     13878     13875     13872     13870     13876
     13875     13872     13870     13877     13875     13872     13870     13878
     13885     13883     13881     13887     13885     13883     13881     13888
     13885     13883     13881     13889     13886     13883     13881     13887
     13886     13883     13881     13888     13886     13883     13881     13889
     13896     13894     13892     13898     13896     13894     13892     13899
     13896     13894     13892     13900     13897     13894     13892     13898
     13897     13894     13892     13899     13897     13894     13892     13900
     13907     13905     13903     13909     13907     13905     13903     13910
     13907     13905     13903     13911     13908     13905     13903     13909
     13908     13905     13903     13910     13908     13905     13903     13911
     13918     13916     13914     13920     13918     13916     13914     13921
     13918     13916     13914     13922     13919     13916     13914     13920
     13919     13916     13914     13921     13919     13916     13914     13922
     13929     13927     13925     13931     13929     13927     13925     13932
     13929     13927     13925     13933     13930     13927     13925     13931
     13930     13927     13925     13932     13930     13927     13925     13933
     13940     13938     13936     13942     13940     13938     13936     13943
     13940     13938     13936     13944     13941     13938     13936     13942
     13941     13938     13936     13943     13941     13938     13936     13944
     13951     13949     13947     13953     13951     13949     13947     13954
     13951     13949     13947     13955     13952     13949     13947     13953
     13952     13949     13947     13954     13952     13949     13947     13955
     13962     13960     13958     13964     13962     13960     13958     13965
     13962     13960     13958     13966     13963     13960     13958     13964
     13963     13960     13958     13965     13963     13960     13958     13966
     13973     13971     13969     13975     13973     13971     13969     13976
     13973     13971     13969     13977     13974     13971     13969     13975
     13974     13971     13969     13976     13974     13971     13969     13977
     13984     13982     13980     13986     13984     13982     13980     13987
     13984     13982     13980     13988     13985     13982     13980     13986
     13985     13982     13980     13987     13985     13982     13980     13988
     13995     13993     13991     13997     13995     13993     13991     13998
     13995     13993     13991     13999     13996     13993     13991     13997
     13996     13993     13991     13998     13996     13993     13991     13999
     14006     14004     14002     14008     14006     14004     14002     14009
     14006     14004     14002     14010     14007     14004     14002     14008
     14007     14004     14002     14009     14007     14004     14002     14010
     14017     14015     14013     14019     14017     14015     14013     14020
     14017     14015     14013     14021     14018     14015     14013     14019
     14018     14015     14013     14020     14018     14015     14013     14021
     14028     14026     14024     14030     14028     14026     14024     14031
     14028     14026     14024     14032     14029     14026     14024     14030
     14029     14026     14024     14031     14029     14026     14024     14032
     14039     14037     14035     14041     14039     14037     14035     14042
     14039     14037     14035     14043     14040     14037     14035     14041
     14040     14037     14035     14042     14040     14037     14035     14043
     14050     14048     14046     14052     14050     14048     14046     14053
     14050     14048     14046     14054     14051     14048     14046     14052
     14051     14048     14046     14053     14051     14048     14046     14054
     14061     14059     14057     14063     14061     14059     14057     14064
     14061     14059     14057     14065     14062     14059     14057     14063
     14062     14059     14057     14064     14062     14059     14057     14065
     14072     14070     14068     14074     14072     14070     14068     14075
     14072     14070     14068     14076     14073     14070     14068     14074
     14073     14070     14068     14075     14073     14070     14068     14076
     14083     14081     14079     14085     14083     14081     14079     14086
     14083     14081     14079     14087     14084     14081     14079     14085
     14084     14081     14079     14086     14084     14081     14079     14087
     14094     14092     14090     14096     14094     14092     14090     14097
     14094     14092     14090     14098     14095     14092     14090     14096
     14095     14092     14090     14097     14095     14092     14090     14098
     14105     14103     14101     14107     14105     14103     14101     14108
     14105     14103     14101     14109     14106     14103     14101     14107
     14106     14103     14101     14108     14106     14103     14101     14109
     14116     14114     14112     14118     14116     14114     14112     14119
     14116     14114     14112     14120     14117     14114     14112     14118
     14117     14114     14112     14119     14117     14114     14112     14120
     14127     14125     14123     14129     14127     14125     14123     14130
     14127     14125     14123     14131     14128     14125     14123     14129
     14128     14125     14123     14130     14128     14125     14123     14131
     14138     14136     14134     14140     14138     14136     14134     14141
     14138     14136     14134     14142     14139     14136     14134     14140
     14139     14136     14134     14141     14139     14136     14134     14142
     14149     14147     14145     14151     14149     14147     14145     14152
     14149     14147     14145     14153     14150     14147     14145     14151
     14150     14147     14145     14152     14150     14147     14145     14153
     14160     14158     14156     14162     14160     14158     14156     14163
     14160     14158     14156     14164     14161     14158     14156     14162
     14161     14158     14156     14163     14161     14158     14156     14164
     14171     14169     14167     14173     14171     14169     14167     14174
     14171     14169     14167     14175     14172     14169     14167     14173
     14172     14169     14167     14174     14172     14169     14167     14175
     14182     14180     14178     14184     14182     14180     14178     14185
     14182     14180     14178     14186     14183     14180     14178     14184
     14183     14180     14178     14185     14183     14180     14178     14186
     14193     14191     14189     14195     14193     14191     14189     14196
     14193     14191     14189     14197     14194     14191     14189     14195
     14194     14191     14189     14196     14194     14191     14189     14197
     14204     14202     14200     14206     14204     14202     14200     14207
     14204     14202     14200     14208     14205     14202     14200     14206
     14205     14202     14200     14207     14205     14202     14200     14208
     14215     14213     14211     14217     14215     14213     14211     14218
     14215     14213     14211     14219     14216     14213     14211     14217
     14216     14213     14211     14218     14216     14213     14211     14219
     14226     14224     14222     14228     14226     14224     14222     14229
     14226     14224     14222     14230     14227     14224     14222     14228
     14227     14224     14222     14229     14227     14224     14222     14230
     14237     14235     14233     14239     14237     14235     14233     14240
     14237     14235     14233     14241     14238     14235     14233     14239
     14238     14235     14233     14240     14238     14235     14233     14241
     14248     14246     14244     14250     14248     14246     14244     14251
     14248     14246     14244     14252     14249     14246     14244     14250
     14249     14246     14244     14251     14249     14246     14244     14252
     14259     14257     14255     14261     14259     14257     14255     14262
     14259     14257     14255     14263     14260     14257     14255     14261
     14260     14257     14255     14262     14260     14257     14255     14263
     14270     14268     14266     14272     14270     14268     14266     14273
     14270     14268     14266     14274     14271     14268     14266     14272
     14271     14268     14266     14273     14271     14268     14266     14274
     14281     14279     14277     14283     14281     14279     14277     14284
     14281     14279     14277     14285     14282     14279     14277     14283
     14282     14279     14277     14284     14282     14279     14277     14285
     14292     14290     14288     14294     14292     14290     14288     14295
     14292     14290     14288     14296     14293     14290     14288     14294
     14293     14290     14288     14295     14293     14290     14288     14296
     14303     14301     14299     14305     14303     14301     14299     14306
     14303     14301     14299     14307     14304     14301     14299     14305
     14304     14301     14299     14306     14304     14301     14299     14307
     14314     14312     14310     14316     14314     14312     14310     14317
     14314     14312     14310     14318     14315     14312     14310     14316
     14315     14312     14310     14317     14315     14312     14310     14318
     14325     14323     14321     14327     14325     14323     14321     14328
     14325     14323     14321     14329     14326     14323     14321     14327
     14326     14323     14321     14328     14326     14323     14321     14329
     14336     14334     14332     14338     14336     14334     14332     14339
     14336     14334     14332     14340     14337     14334     14332     14338
     14337     14334     14332     14339     14337     14334     14332     14340
     14347     14345     14343     14349     14347     14345     14343     14350
     14347     14345     14343     14351     14348     14345     14343     14349
     14348     14345     14343     14350     14348     14345     14343     14351
     14358     14356     14354     14360     14358     14356     14354     14361
     14358     14356     14354     14362     14359     14356     14354     14360
     14359     14356     14354     14361     14359     14356     14354     14362
     14369     14367     14365     14371     14369     14367     14365     14372
     14369     14367     14365     14373     14370     14367     14365     14371
     14370     14367     14365     14372     14370     14367     14365     14373
     14380     14378     14376     14382     14380     14378     14376     14383
     14380     14378     14376     14384     14381     14378     14376     14382
     14381     14378     14376     14383     14381     14378     14376     14384
     14391     14389     14387     14393     14391     14389     14387     14394
     14391     14389     14387     14395     14392     14389     14387     14393
     14392     14389     14387     14394     14392     14389     14387     14395
     14402     14400     14398     14404     14402     14400     14398     14405
     14402     14400     14398     14406     14403     14400     14398     14404
     14403     14400     14398     14405     14403     14400     14398     14406
     14413     14411     14409     14415     14413     14411     14409     14416
     14413     14411     14409     14417     14414     14411     14409     14415
     14414     14411     14409     14416     14414     14411     14409     14417
     14424     14422     14420     14426     14424     14422     14420     14427
     14424     14422     14420     14428     14425     14422     14420     14426
     14425     14422     14420     14427     14425     14422     14420     14428
     14435     14433     14431     14437     14435     14433     14431     14438
     14435     14433     14431     14439     14436     14433     14431     14437
     14436     14433     14431     14438     14436     14433     14431     14439
     14446     14444     14442     14448     14446     14444     14442     14449
     14446     14444     14442     14450     14447     14444     14442     14448
     14447     14444     14442     14449     14447     14444     14442     14450
     14457     14455     14453     14459     14457     14455     14453     14460
     14457     14455     14453     14461     14458     14455     14453     14459
     14458     14455     14453     14460     14458     14455     14453     14461
     14468     14466     14464     14470     14468     14466     14464     14471
     14468     14466     14464     14472     14469     14466     14464     14470
     14469     14466     14464     14471     14469     14466     14464     14472
     14479     14477     14475     14481     14479     14477     14475     14482
     14479     14477     14475     14483     14480     14477     14475     14481
     14480     14477     14475     14482     14480     14477     14475     14483
     14490     14488     14486     14492     14490     14488     14486     14493
     14490     14488     14486     14494     14491     14488     14486     14492
     14491     14488     14486     14493     14491     14488     14486     14494
     14501     14499     14497     14503     14501     14499     14497     14504
     14501     14499     14497     14505     14502     14499     14497     14503
     14502     14499     14497     14504     14502     14499     14497     14505
     14512     14510     14508     14514     14512     14510     14508     14515
     14512     14510     14508     14516     14513     14510     14508     14514
     14513     14510     14508     14515     14513     14510     14508     14516
     14523     14521     14519     14525     14523     14521     14519     14526
     14523     14521     14519     14527     14524     14521     14519     14525
     14524     14521     14519     14526     14524     14521     14519     14527
     14534     14532     14530     14536     14534     14532     14530     14537
     14534     14532     14530     14538     14535     14532     14530     14536
     14535     14532     14530     14537     14535     14532     14530     14538
     14545     14543     14541     14547     14545     14543     14541     14548
     14545     14543     14541     14549     14546     14543     14541     14547
     14546     14543     14541     14548     14546     14543     14541     14549
     14556     14554     14552     14558     14556     14554     14552     14559
     14556     14554     14552     14560     14557     14554     14552     14558
     14557     14554     14552     14559     14557     14554     14552     14560
     14567     14565     14563     14569     14567     14565     14563     14570
     14567     14565     14563     14571     14568     14565     14563     14569
     14568     14565     14563     14570     14568     14565     14563     14571
     14578     14576     14574     14580     14578     14576     14574     14581
     14578     14576     14574     14582     14579     14576     14574     14580
     14579     14576     14574     14581     14579     14576     14574     14582
     14589     14587     14585     14591     14589     14587     14585     14592
     14589     14587     14585     14593     14590     14587     14585     14591
     14590     14587     14585     14592     14590     14587     14585     14593
     14600     14598     14596     14602     14600     14598     14596     14603
     14600     14598     14596     14604     14601     14598     14596     14602
     14601     14598     14596     14603     14601     14598     14596     14604
     14611     14609     14607     14613     14611     14609     14607     14614
     14611     14609     14607     14615     14612     14609     14607     14613
     14612     14609     14607     14614     14612     14609     14607     14615
     14622     14620     14618     14624     14622     14620     14618     14625
     14622     14620     14618     14626     14623     14620     14618     14624
     14623     14620     14618     14625     14623     14620     14618     14626
     14633     14631     14629     14635     14633     14631     14629     14636
     14633     14631     14629     14637     14634     14631     14629     14635
     14634     14631     14629     14636     14634     14631     14629     14637
     14644     14642     14640     14646     14644     14642     14640     14647
     14644     14642     14640     14648     14645     14642     14640     14646
     14645     14642     14640     14647     14645     14642     14640     14648
     14655     14653     14651     14657     14655     14653     14651     14658
     14655     14653     14651     14659     14656     14653     14651     14657
     14656     14653     14651     14658     14656     14653     14651     14659
     14666     14664     14662     14668     14666     14664     14662     14669
     14666     14664     14662     14670     14667     14664     14662     14668
     14667     14664     14662     14669     14667     14664     14662     14670
     14677     14675     14673     14679     14677     14675     14673     14680
     14677     14675     14673     14681     14678     14675     14673     14679
     14678     14675     14673     14680     14678     14675     14673     14681
     14688     14686     14684     14690     14688     14686     14684     14691
     14688     14686     14684     14692     14689     14686     14684     14690
     14689     14686     14684     14691     14689     14686     14684     14692
     14699     14697     14695     14701     14699     14697     14695     14702
     14699     14697     14695     14703     14700     14697     14695     14701
     14700     14697     14695     14702     14700     14697     14695     14703
     14710     14708     14706     14712     14710     14708     14706     14713
     14710     14708     14706     14714     14711     14708     14706     14712
     14711     14708     14706     14713     14711     14708     14706     14714
     14721     14719     14717     14723     14721     14719     14717     14724
     14721     14719     14717     14725     14722     14719     14717     14723
     14722     14719     14717     14724     14722     14719     14717     14725
     14732     14730     14728     14734     14732     14730     14728     14735
     14732     14730     14728     14736     14733     14730     14728     14734
     14733     14730     14728     14735     14733     14730     14728     14736
     14743     14741     14739     14745     14743     14741     14739     14746
     14743     14741     14739     14747     14744     14741     14739     14745
     14744     14741     14739     14746     14744     14741     14739     14747
     14754     14752     14750     14756     14754     14752     14750     14757
     14754     14752     14750     14758     14755     14752     14750     14756
     14755     14752     14750     14757     14755     14752     14750     14758
     14765     14763     14761     14767     14765     14763     14761     14768
     14765     14763     14761     14769     14766     14763     14761     14767
     14766     14763     14761     14768     14766     14763     14761     14769
     14776     14774     14772     14778     14776     14774     14772     14779
     14776     14774     14772     14780     14777     14774     14772     14778
     14777     14774     14772     14779     14777     14774     14772     14780
     14787     14785     14783     14789     14787     14785     14783     14790
     14787     14785     14783     14791     14788     14785     14783     14789
     14788     14785     14783     14790     14788     14785     14783     14791
     14798     14796     14794     14800     14798     14796     14794     14801
     14798     14796     14794     14802     14799     14796     14794     14800
     14799     14796     14794     14801     14799     14796     14794     14802
     14809     14807     14805     14811     14809     14807     14805     14812
     14809     14807     14805     14813     14810     14807     14805     14811
     14810     14807     14805     14812     14810     14807     14805     14813
     14820     14818     14816     14822     14820     14818     14816     14823
     14820     14818     14816     14824     14821     14818     14816     14822
     14821     14818     14816     14823     14821     14818     14816     14824
     14831     14829     14827     14833     14831     14829     14827     14834
     14831     14829     14827     14835     14832     14829     14827     14833
     14832     14829     14827     14834     14832     14829     14827     14835
     14842     14840     14838     14844     14842     14840     14838     14845
     14842     14840     14838     14846     14843     14840     14838     14844
     14843     14840     14838     14845     14843     14840     14838     14846
     14853     14851     14849     14855     14853     14851     14849     14856
     14853     14851     14849     14857     14854     14851     14849     14855
     14854     14851     14849     14856     14854     14851     14849     14857
     14864     14862     14860     14866     14864     14862     14860     14867
     14864     14862     14860     14868     14865     14862     14860     14866
     14865     14862     14860     14867     14865     14862     14860     14868
     14875     14873     14871     14877     14875     14873     14871     14878
     14875     14873     14871     14879     14876     14873     14871     14877
     14876     14873     14871     14878     14876     14873     14871     14879
     14886     14884     14882     14888     14886     14884     14882     14889
     14886     14884     14882     14890     14887     14884     14882     14888
     14887     14884     14882     14889     14887     14884     14882     14890
     14897     14895     14893     14899     14897     14895     14893     14900
     14897     14895     14893     14901     14898     14895     14893     14899
     14898     14895     14893     14900     14898     14895     14893     14901
     14908     14906     14904     14910     14908     14906     14904     14911
     14908     14906     14904     14912     14909     14906     14904     14910
     14909     14906     14904     14911     14909     14906     14904     14912
     14919     14917     14915     14921     14919     14917     14915     14922
     14919     14917     14915     14923     14920     14917     14915     14921
     14920     14917     14915     14922     14920     14917     14915     14923
     14930     14928     14926     14932     14930     14928     14926     14933
     14930     14928     14926     14934     14931     14928     14926     14932
     14931     14928     14926     14933     14931     14928     14926     14934
     14941     14939     14937     14943     14941     14939     14937     14944
     14941     14939     14937     14945     14942     14939     14937     14943
     14942     14939     14937     14944     14942     14939     14937     14945
     14952     14950     14948     14954     14952     14950     14948     14955
     14952     14950     14948     14956     14953     14950     14948     14954
     14953     14950     14948     14955     14953     14950     14948     14956
     14963     14961     14959     14965     14963     14961     14959     14966
     14963     14961     14959     14967     14964     14961     14959     14965
     14964     14961     14959     14966     14964     14961     14959     14967
     14974     14972     14970     14976     14974     14972     14970     14977
     14974     14972     14970     14978     14975     14972     14970     14976
     14975     14972     14970     14977     14975     14972     14970     14978
     14985     14983     14981     14987     14985     14983     14981     14988
     14985     14983     14981     14989     14986     14983     14981     14987
     14986     14983     14981     14988     14986     14983     14981     14989
     14996     14994     14992     14998     14996     14994     14992     14999
     14996     14994     14992     15000     14997     14994     14992     14998
     14997     14994     14992     14999     14997     14994     14992     15000
     15007     15005     15003     15009     15007     15005     15003     15010
     15007     15005     15003     15011     15008     15005     15003     15009
     15008     15005     15003     15010     15008     15005     15003     15011
     15018     15016     15014     15020     15018     15016     15014     15021
     15018     15016     15014     15022     15019     15016     15014     15020
     15019     15016     15014     15021     15019     15016     15014     15022
     15029     15027     15025     15031     15029     15027     15025     15032
     15029     15027     15025     15033     15030     15027     15025     15031
     15030     15027     15025     15032     15030     15027     15025     15033
     15040     15038     15036     15042     15040     15038     15036     15043
     15040     15038     15036     15044     15041     15038     15036     15042
     15041     15038     15036     15043     15041     15038     15036     15044
     15051     15049     15047     15053     15051     15049     15047     15054
     15051     15049     15047     15055     15052     15049     15047     15053
     15052     15049     15047     15054     15052     15049     15047     15055
     15062     15060     15058     15064     15062     15060     15058     15065
     15062     15060     15058     15066     15063     15060     15058     15064
     15063     15060     15058     15065     15063     15060     15058     15066
     15073     15071     15069     15075     15073     15071     15069     15076
     15073     15071     15069     15077     15074     15071     15069     15075
     15074     15071     15069     15076     15074     15071     15069     15077
     15084     15082     15080     15086     15084     15082     15080     15087
     15084     15082     15080     15088     15085     15082     15080     15086
     15085     15082     15080     15087     15085     15082     15080     15088
     15095     15093     15091     15097     15095     15093     15091     15098
     15095     15093     15091     15099     15096     15093     15091     15097
     15096     15093     15091     15098     15096     15093     15091     15099
     15106     15104     15102     15108     15106     15104     15102     15109
     15106     15104     15102     15110     15107     15104     15102     15108
     15107     15104     15102     15109     15107     15104     15102     15110
     15117     15115     15113     15119     15117     15115     15113     15120
     15117     15115     15113     15121     15118     15115     15113     15119
     15118     15115     15113     15120     15118     15115     15113     15121
     15128     15126     15124     15130     15128     15126     15124     15131
     15128     15126     15124     15132     15129     15126     15124     15130
     15129     15126     15124     15131     15129     15126     15124     15132
     15139     15137     15135     15141     15139     15137     15135     15142
     15139     15137     15135     15143     15140     15137     15135     15141
     15140     15137     15135     15142     15140     15137     15135     15143
     15150     15148     15146     15152     15150     15148     15146     15153
     15150     15148     15146     15154     15151     15148     15146     15152
     15151     15148     15146     15153     15151     15148     15146     15154
     15161     15159     15157     15163     15161     15159     15157     15164
     15161     15159     15157     15165     15162     15159     15157     15163
     15162     15159     15157     15164     15162     15159     15157     15165
     15172     15170     15168     15174     15172     15170     15168     15175
     15172     15170     15168     15176     15173     15170     15168     15174
     15173     15170     15168     15175     15173     15170     15168     15176
     15183     15181     15179     15185     15183     15181     15179     15186
     15183     15181     15179     15187     15184     15181     15179     15185
     15184     15181     15179     15186     15184     15181     15179     15187
     15194     15192     15190     15196     15194     15192     15190     15197
     15194     15192     15190     15198     15195     15192     15190     15196
     15195     15192     15190     15197     15195     15192     15190     15198
     15205     15203     15201     15207     15205     15203     15201     15208
     15205     15203     15201     15209     15206     15203     15201     15207
     15206     15203     15201     15208     15206     15203     15201     15209
     15216     15214     15212     15218     15216     15214     15212     15219
     15216     15214     15212     15220     15217     15214     15212     15218
     15217     15214     15212     15219     15217     15214     15212     15220
     15227     15225     15223     15229     15227     15225     15223     15230
     15227     15225     15223     15231     15228     15225     15223     15229
     15228     15225     15223     15230     15228     15225     15223     15231
     15238     15236     15234     15240     15238     15236     15234     15241
     15238     15236     15234     15242     15239     15236     15234     15240
     15239     15236     15234     15241     15239     15236     15234     15242
     15249     15247     15245     15251     15249     15247     15245     15252
     15249     15247     15245     15253     15250     15247     15245     15251
     15250     15247     15245     15252     15250     15247     15245     15253
     15260     15258     15256     15262     15260     15258     15256     15263
     15260     15258     15256     15264     15261     15258     15256     15262
     15261     15258     15256     15263     15261     15258     15256     15264
     15271     15269     15267     15273     15271     15269     15267     15274
     15271     15269     15267     15275     15272     15269     15267     15273
     15272     15269     15267     15274     15272     15269     15267     15275
     15282     15280     15278     15284     15282     15280     15278     15285
     15282     15280     15278     15286     15283     15280     15278     15284
     15283     15280     15278     15285     15283     15280     15278     15286
     15293     15291     15289     15295     15293     15291     15289     15296
     15293     15291     15289     15297     15294     15291     15289     15295
     15294     15291     15289     15296     15294     15291     15289     15297
     15304     15302     15300     15306     15304     15302     15300     15307
     15304     15302     15300     15308     15305     15302     15300     15306
     15305     15302     15300     15307     15305     15302     15300     15308
     15315     15313     15311     15317     15315     15313     15311     15318
     15315     15313     15311     15319     15316     15313     15311     15317
     15316     15313     15311     15318     15316     15313     15311     15319
     15326     15324     15322     15328     15326     15324     15322     15329
     15326     15324     15322     15330     15327     15324     15322     15328
     15327     15324     15322     15329     15327     15324     15322     15330
     15337     15335     15333     15339     15337     15335     15333     15340
     15337     15335     15333     15341     15338     15335     15333     15339
     15338     15335     15333     15340     15338     15335     15333     15341
     15348     15346     15344     15350     15348     15346     15344     15351
     15348     15346     15344     15352     15349     15346     15344     15350
     15349     15346     15344     15351     15349     15346     15344     15352
     15359     15357     15355     15361     15359     15357     15355     15362
     15359     15357     15355     15363     15360     15357     15355     15361
     15360     15357     15355     15362     15360     15357     15355     15363
     15370     15368     15366     15372     15370     15368     15366     15373
     15370     15368     15366     15374     15371     15368     15366     15372
     15371     15368     15366     15373     15371     15368     15366     15374
     15381     15379     15377     15383     15381     15379     15377     15384
     15381     15379     15377     15385     15382     15379     15377     15383
     15382     15379     15377     15384     15382     15379     15377     15385
     15392     15390     15388     15394     15392     15390     15388     15395
     15392     15390     15388     15396     15393     15390     15388     15394
     15393     15390     15388     15395     15393     15390     15388     15396
     15403     15401     15399     15405     15403     15401     15399     15406
     15403     15401     15399     15407     15404     15401     15399     15405
     15404     15401     15399     15406     15404     15401     15399     15407
     15414     15412     15410     15416     15414     15412     15410     15417
     15414     15412     15410     15418     15415     15412     15410     15416
     15415     15412     15410     15417     15415     15412     15410     15418
     15425     15423     15421     15427     15425     15423     15421     15428
     15425     15423     15421     15429     15426     15423     15421     15427
     15426     15423     15421     15428     15426     15423     15421     15429
     15436     15434     15432     15438     15436     15434     15432     15439
     15436     15434     15432     15440     15437     15434     15432     15438
     15437     15434     15432     15439     15437     15434     15432     15440
     15447     15445     15443     15449     15447     15445     15443     15450
     15447     15445     15443     15451     15448     15445     15443     15449
     15448     15445     15443     15450     15448     15445     15443     15451
     15458     15456     15454     15460     15458     15456     15454     15461
     15458     15456     15454     15462     15459     15456     15454     15460
     15459     15456     15454     15461     15459     15456     15454     15462
     15469     15467     15465     15471     15469     15467     15465     15472
     15469     15467     15465     15473     15470     15467     15465     15471
     15470     15467     15465     15472     15470     15467     15465     15473
     15480     15478     15476     15482     15480     15478     15476     15483
     15480     15478     15476     15484     15481     15478     15476     15482
     15481     15478     15476     15483     15481     15478     15476     15484
     15491     15489     15487     15493     15491     15489     15487     15494
     15491     15489     15487     15495     15492     15489     15487     15493
     15492     15489     15487     15494     15492     15489     15487     15495
     15502     15500     15498     15504     15502     15500     15498     15505
     15502     15500     15498     15506     15503     15500     15498     15504
     15503     15500     15498     15505     15503     15500     15498     15506
     15513     15511     15509     15515     15513     15511     15509     15516
     15513     15511     15509     15517     15514     15511     15509     15515
     15514     15511     15509     15516     15514     15511     15509     15517
     15524     15522     15520     15526     15524     15522     15520     15527
     15524     15522     15520     15528     15525     15522     15520     15526
     15525     15522     15520     15527     15525     15522     15520     15528
     15535     15533     15531     15537     15535     15533     15531     15538
     15535     15533     15531     15539     15536     15533     15531     15537
     15536     15533     15531     15538     15536     15533     15531     15539
     15546     15544     15542     15548     15546     15544     15542     15549
     15546     15544     15542     15550     15547     15544     15542     15548
     15547     15544     15542     15549     15547     15544     15542     15550
     15557     15555     15553     15559     15557     15555     15553     15560
     15557     15555     15553     15561     15558     15555     15553     15559
     15558     15555     15553     15560     15558     15555     15553     15561
     15568     15566     15564     15570     15568     15566     15564     15571
     15568     15566     15564     15572     15569     15566     15564     15570
     15569     15566     15564     15571     15569     15566     15564     15572
     15579     15577     15575     15581     15579     15577     15575     15582
     15579     15577     15575     15583     15580     15577     15575     15581
     15580     15577     15575     15582     15580     15577     15575     15583
     15590     15588     15586     15592     15590     15588     15586     15593
     15590     15588     15586     15594     15591     15588     15586     15592
     15591     15588     15586     15593     15591     15588     15586     15594
     15601     15599     15597     15603     15601     15599     15597     15604
     15601     15599     15597     15605     15602     15599     15597     15603
     15602     15599     15597     15604     15602     15599     15597     15605
     15612     15610     15608     15614     15612     15610     15608     15615
     15612     15610     15608     15616     15613     15610     15608     15614
     15613     15610     15608     15615     15613     15610     15608     15616
     15623     15621     15619     15625     15623     15621     15619     15626
     15623     15621     15619     15627     15624     15621     15619     15625
     15624     15621     15619     15626     15624     15621     15619     15627
     15634     15632     15630     15636     15634     15632     15630     15637
     15634     15632     15630     15638     15635     15632     15630     15636
     15635     15632     15630     15637     15635     15632     15630     15638
     15645     15643     15641     15647     15645     15643     15641     15648
     15645     15643     15641     15649     15646     15643     15641     15647
     15646     15643     15641     15648     15646     15643     15641     15649
     15656     15654     15652     15658     15656     15654     15652     15659
     15656     15654     15652     15660     15657     15654     15652     15658
     15657     15654     15652     15659     15657     15654     15652     15660
     15667     15665     15663     15669     15667     15665     15663     15670
     15667     15665     15663     15671     15668     15665     15663     15669
     15668     15665     15663     15670     15668     15665     15663     15671
     15678     15676     15674     15680     15678     15676     15674     15681
     15678     15676     15674     15682     15679     15676     15674     15680
     15679     15676     15674     15681     15679     15676     15674     15682
     15689     15687     15685     15691     15689     15687     15685     15692
     15689     15687     15685     15693     15690     15687     15685     15691
     15690     15687     15685     15692     15690     15687     15685     15693
     15700     15698     15696     15702     15700     15698     15696     15703
     15700     15698     15696     15704     15701     15698     15696     15702
     15701     15698     15696     15703     15701     15698     15696     15704
     15711     15709     15707     15713     15711     15709     15707     15714
     15711     15709     15707     15715     15712     15709     15707     15713
     15712     15709     15707     15714     15712     15709     15707     15715
     15722     15720     15718     15724     15722     15720     15718     15725
     15722     15720     15718     15726     15723     15720     15718     15724
     15723     15720     15718     15725     15723     15720     15718     15726
     15733     15731     15729     15735     15733     15731     15729     15736
     15733     15731     15729     15737     15734     15731     15729     15735
     15734     15731     15729     15736     15734     15731     15729     15737
     15744     15742     15740     15746     15744     15742     15740     15747
     15744     15742     15740     15748     15745     15742     15740     15746
     15745     15742     15740     15747     15745     15742     15740     15748
     15755     15753     15751     15757     15755     15753     15751     15758
     15755     15753     15751     15759     15756     15753     15751     15757
     15756     15753     15751     15758     15756     15753     15751     15759
     15766     15764     15762     15768     15766     15764     15762     15769
     15766     15764     15762     15770     15767     15764     15762     15768
     15767     15764     15762     15769     15767     15764     15762     15770
     15777     15775     15773     15779     15777     15775     15773     15780
     15777     15775     15773     15781     15778     15775     15773     15779
     15778     15775     15773     15780     15778     15775     15773     15781
     15788     15786     15784     15790     15788     15786     15784     15791
     15788     15786     15784     15792     15789     15786     15784     15790
     15789     15786     15784     15791     15789     15786     15784     15792
     15799     15797     15795     15801     15799     15797     15795     15802
     15799     15797     15795     15803     15800     15797     15795     15801
     15800     15797     15795     15802     15800     15797     15795     15803
     15810     15808     15806     15812     15810     15808     15806     15813
     15810     15808     15806     15814     15811     15808     15806     15812
     15811     15808     15806     15813     15811     15808     15806     15814
     15821     15819     15817     15823     15821     15819     15817     15824
     15821     15819     15817     15825     15822     15819     15817     15823
     15822     15819     15817     15824     15822     15819     15817     15825
     15832     15830     15828     15834     15832     15830     15828     15835
     15832     15830     15828     15836     15833     15830     15828     15834
     15833     15830     15828     15835     15833     15830     15828     15836
     15843     15841     15839     15845     15843     15841     15839     15846
     15843     15841     15839     15847     15844     15841     15839     15845
     15844     15841     15839     15846     15844     15841     15839     15847
     15854     15852     15850     15856     15854     15852     15850     15857
     15854     15852     15850     15858     15855     15852     15850     15856
     15855     15852     15850     15857     15855     15852     15850     15858
     15865     15863     15861     15867     15865     15863     15861     15868
     15865     15863     15861     15869     15866     15863     15861     15867
     15866     15863     15861     15868     15866     15863     15861     15869
     15876     15874     15872     15878     15876     15874     15872     15879
     15876     15874     15872     15880     15877     15874     15872     15878
     15877     15874     15872     15879     15877     15874     15872     15880
     15887     15885     15883     15889     15887     15885     15883     15890
     15887     15885     15883     15891     15888     15885     15883     15889
     15888     15885     15883     15890     15888     15885     15883     15891
     15898     15896     15894     15900     15898     15896     15894     15901
     15898     15896     15894     15902     15899     15896     15894     15900
     15899     15896     15894     15901     15899     15896     15894     15902
     15909     15907     15905     15911     15909     15907     15905     15912
     15909     15907     15905     15913     15910     15907     15905     15911
     15910     15907     15905     15912     15910     15907     15905     15913
     15920     15918     15916     15922     15920     15918     15916     15923
     15920     15918     15916     15924     15921     15918     15916     15922
     15921     15918     15916     15923     15921     15918     15916     15924
     15931     15929     15927     15933     15931     15929     15927     15934
     15931     15929     15927     15935     15932     15929     15927     15933
     15932     15929     15927     15934     15932     15929     15927     15935
     15942     15940     15938     15944     15942     15940     15938     15945
     15942     15940     15938     15946     15943     15940     15938     15944
     15943     15940     15938     15945     15943     15940     15938     15946
     15953     15951     15949     15955     15953     15951     15949     15956
     15953     15951     15949     15957     15954     15951     15949     15955
     15954     15951     15949     15956     15954     15951     15949     15957
     15964     15962     15960     15966     15964     15962     15960     15967
     15964     15962     15960     15968     15965     15962     15960     15966
     15965     15962     15960     15967     15965     15962     15960     15968
     15975     15973     15971     15977     15975     15973     15971     15978
     15975     15973     15971     15979     15976     15973     15971     15977
     15976     15973     15971     15978     15976     15973     15971     15979
     15986     15984     15982     15988     15986     15984     15982     15989
     15986     15984     15982     15990     15987     15984     15982     15988
     15987     15984     15982     15989     15987     15984     15982     15990
     15997     15995     15993     15999     15997     15995     15993     16000
     15997     15995     15993     16001     15998     15995     15993     15999
     15998     15995     15993     16000     15998     15995     15993     16001
     16008     16006     16004     16010     16008     16006     16004     16011
     16008     16006     16004     16012     16009     16006     16004     16010
     16009     16006     16004     16011     16009     16006     16004     16012
     16019     16017     16015     16021     16019     16017     16015     16022
     16019     16017     16015     16023     16020     16017     16015     16021
     16020     16017     16015     16022     16020     16017     16015     16023
     16030     16028     16026     16032     16030     16028     16026     16033
     16030     16028     16026     16034     16031     16028     16026     16032
     16031     16028     16026     16033     16031     16028     16026     16034
     16041     16039     16037     16043     16041     16039     16037     16044
     16041     16039     16037     16045     16042     16039     16037     16043
     16042     16039     16037     16044     16042     16039     16037     16045
     16052     16050     16048     16054     16052     16050     16048     16055
     16052     16050     16048     16056     16053     16050     16048     16054
     16053     16050     16048     16055     16053     16050     16048     16056
     16063     16061     16059     16065     16063     16061     16059     16066
     16063     16061     16059     16067     16064     16061     16059     16065
     16064     16061     16059     16066     16064     16061     16059     16067
     16074     16072     16070     16076     16074     16072     16070     16077
     16074     16072     16070     16078     16075     16072     16070     16076
     16075     16072     16070     16077     16075     16072     16070     16078
     16085     16083     16081     16087     16085     16083     16081     16088
     16085     16083     16081     16089     16086     16083     16081     16087
     16086     16083     16081     16088     16086     16083     16081     16089
     16096     16094     16092     16098     16096     16094     16092     16099
     16096     16094     16092     16100     16097     16094     16092     16098
     16097     16094     16092     16099     16097     16094     16092     16100
     16107     16105     16103     16109     16107     16105     16103     16110
     16107     16105     16103     16111     16108     16105     16103     16109
     16108     16105     16103     16110     16108     16105     16103     16111
     16118     16116     16114     16120     16118     16116     16114     16121
     16118     16116     16114     16122     16119     16116     16114     16120
     16119     16116     16114     16121     16119     16116     16114     16122
     16129     16127     16125     16131     16129     16127     16125     16132
     16129     16127     16125     16133     16130     16127     16125     16131
     16130     16127     16125     16132     16130     16127     16125     16133
     16140     16138     16136     16142     16140     16138     16136     16143
     16140     16138     16136     16144     16141     16138     16136     16142
     16141     16138     16136     16143     16141     16138     16136     16144
     16151     16149     16147     16153     16151     16149     16147     16154
     16151     16149     16147     16155     16152     16149     16147     16153
     16152     16149     16147     16154     16152     16149     16147     16155
     16162     16160     16158     16164     16162     16160     16158     16165
     16162     16160     16158     16166     16163     16160     16158     16164
     16163     16160     16158     16165     16163     16160     16158     16166
     16173     16171     16169     16175     16173     16171     16169     16176
     16173     16171     16169     16177     16174     16171     16169     16175
     16174     16171     16169     16176     16174     16171     16169     16177
     16184     16182     16180     16186     16184     16182     16180     16187
     16184     16182     16180     16188     16185     16182     16180     16186
     16185     16182     16180     16187     16185     16182     16180     16188
     16195     16193     16191     16197     16195     16193     16191     16198
     16195     16193     16191     16199     16196     16193     16191     16197
     16196     16193     16191     16198     16196     16193     16191     16199
     16206     16204     16202     16208     16206     16204     16202     16209
     16206     16204     16202     16210     16207     16204     16202     16208
     16207     16204     16202     16209     16207     16204     16202     16210
     16217     16215     16213     16219     16217     16215     16213     16220
     16217     16215     16213     16221     16218     16215     16213     16219
     16218     16215     16213     16220     16218     16215     16213     16221
     16228     16226     16224     16230     16228     16226     16224     16231
     16228     16226     16224     16232     16229     16226     16224     16230
     16229     16226     16224     16231     16229     16226     16224     16232
     16239     16237     16235     16241     16239     16237     16235     16242
     16239     16237     16235     16243     16240     16237     16235     16241
     16240     16237     16235     16242     16240     16237     16235     16243
     16250     16248     16246     16252     16250     16248     16246     16253
     16250     16248     16246     16254     16251     16248     16246     16252
     16251     16248     16246     16253     16251     16248     16246     16254
     16261     16259     16257     16263     16261     16259     16257     16264
     16261     16259     16257     16265     16262     16259     16257     16263
     16262     16259     16257     16264     16262     16259     16257     16265
     16272     16270     16268     16274     16272     16270     16268     16275
     16272     16270     16268     16276     16273     16270     16268     16274
     16273     16270     16268     16275     16273     16270     16268     16276
     16283     16281     16279     16285     16283     16281     16279     16286
     16283     16281     16279     16287     16284     16281     16279     16285
     16284     16281     16279     16286     16284     16281     16279     16287
     16294     16292     16290     16296     16294     16292     16290     16297
     16294     16292     16290     16298     16295     16292     16290     16296
     16295     16292     16290     16297     16295     16292     16290     16298
     16305     16303     16301     16307     16305     16303     16301     16308
     16305     16303     16301     16309     16306     16303     16301     16307
     16306     16303     16301     16308     16306     16303     16301     16309
     16316     16314     16312     16318     16316     16314     16312     16319
     16316     16314     16312     16320     16317     16314     16312     16318
     16317     16314     16312     16319     16317     16314     16312     16320
     16327     16325     16323     16329     16327     16325     16323     16330
     16327     16325     16323     16331     16328     16325     16323     16329
     16328     16325     16323     16330     16328     16325     16323     16331
     16338     16336     16334     16340     16338     16336     16334     16341
     16338     16336     16334     16342     16339     16336     16334     16340
     16339     16336     16334     16341     16339     16336     16334     16342
     16349     16347     16345     16351     16349     16347     16345     16352
     16349     16347     16345     16353     16350     16347     16345     16351
     16350     16347     16345     16352     16350     16347     16345     16353
     16360     16358     16356     16362     16360     16358     16356     16363
     16360     16358     16356     16364     16361     16358     16356     16362
     16361     16358     16356     16363     16361     16358     16356     16364
     16371     16369     16367     16373     16371     16369     16367     16374
     16371     16369     16367     16375     16372     16369     16367     16373
     16372     16369     16367     16374     16372     16369     16367     16375
     16382     16380     16378     16384     16382     16380     16378     16385
     16382     16380     16378     16386     16383     16380     16378     16384
     16383     16380     16378     16385     16383     16380     16378     16386
     16393     16391     16389     16395     16393     16391     16389     16396
     16393     16391     16389     16397     16394     16391     16389     16395
     16394     16391     16389     16396     16394     16391     16389     16397
     16404     16402     16400     16406     16404     16402     16400     16407
     16404     16402     16400     16408     16405     16402     16400     16406
     16405     16402     16400     16407     16405     16402     16400     16408
     16415     16413     16411     16417     16415     16413     16411     16418
     16415     16413     16411     16419     16416     16413     16411     16417
     16416     16413     16411     16418     16416     16413     16411     16419
     16426     16424     16422     16428     16426     16424     16422     16429
     16426     16424     16422     16430     16427     16424     16422     16428
     16427     16424     16422     16429     16427     16424     16422     16430
     16437     16435     16433     16439     16437     16435     16433     16440
     16437     16435     16433     16441     16438     16435     16433     16439
     16438     16435     16433     16440     16438     16435     16433     16441
     16448     16446     16444     16450     16448     16446     16444     16451
     16448     16446     16444     16452     16449     16446     16444     16450
     16449     16446     16444     16451     16449     16446     16444     16452
     16459     16457     16455     16461     16459     16457     16455     16462
     16459     16457     16455     16463     16460     16457     16455     16461
     16460     16457     16455     16462     16460     16457     16455     16463
     16470     16468     16466     16472     16470     16468     16466     16473
     16470     16468     16466     16474     16471     16468     16466     16472
     16471     16468     16466     16473     16471     16468     16466     16474
     16481     16479     16477     16483     16481     16479     16477     16484
     16481     16479     16477     16485     16482     16479     16477     16483
     16482     16479     16477     16484     16482     16479     16477     16485
     16492     16490     16488     16494     16492     16490     16488     16495
     16492     16490     16488     16496     16493     16490     16488     16494
     16493     16490     16488     16495     16493     16490     16488     16496
     16503     16501     16499     16505     16503     16501     16499     16506
     16503     16501     16499     16507     16504     16501     16499     16505
     16504     16501     16499     16506     16504     16501     16499     16507
     16514     16512     16510     16516     16514     16512     16510     16517
     16514     16512     16510     16518     16515     16512     16510     16516
     16515     16512     16510     16517     16515     16512     16510     16518
     16525     16523     16521     16527     16525     16523     16521     16528
     16525     16523     16521     16529     16526     16523     16521     16527
     16526     16523     16521     16528     16526     16523     16521     16529
     16536     16534     16532     16538     16536     16534     16532     16539
     16536     16534     16532     16540     16537     16534     16532     16538
     16537     16534     16532     16539     16537     16534     16532     16540
     16547     16545     16543     16549     16547     16545     16543     16550
     16547     16545     16543     16551     16548     16545     16543     16549
     16548     16545     16543     16550     16548     16545     16543     16551
     16558     16556     16554     16560     16558     16556     16554     16561
     16558     16556     16554     16562     16559     16556     16554     16560
     16559     16556     16554     16561     16559     16556     16554     16562
     16569     16567     16565     16571     16569     16567     16565     16572
     16569     16567     16565     16573     16570     16567     16565     16571
     16570     16567     16565     16572     16570     16567     16565     16573
     16580     16578     16576     16582     16580     16578     16576     16583
     16580     16578     16576     16584     16581     16578     16576     16582
     16581     16578     16576     16583     16581     16578     16576     16584
     16591     16589     16587     16593     16591     16589     16587     16594
     16591     16589     16587     16595     16592     16589     16587     16593
     16592     16589     16587     16594     16592     16589     16587     16595
     16602     16600     16598     16604     16602     16600     16598     16605
     16602     16600     16598     16606     16603     16600     16598     16604
     16603     16600     16598     16605     16603     16600     16598     16606
     16613     16611     16609     16615     16613     16611     16609     16616
     16613     16611     16609     16617     16614     16611     16609     16615
     16614     16611     16609     16616     16614     16611     16609     16617
     16624     16622     16620     16626     16624     16622     16620     16627
     16624     16622     16620     16628     16625     16622     16620     16626
     16625     16622     16620     16627     16625     16622     16620     16628
     16635     16633     16631     16637     16635     16633     16631     16638
     16635     16633     16631     16639     16636     16633     16631     16637
     16636     16633     16631     16638     16636     16633     16631     16639
     16646     16644     16642     16648     16646     16644     16642     16649
     16646     16644     16642     16650     16647     16644     16642     16648
     16647     16644     16642     16649     16647     16644     16642     16650
     16657     16655     16653     16659     16657     16655     16653     16660
     16657     16655     16653     16661     16658     16655     16653     16659
     16658     16655     16653     16660     16658     16655     16653     16661
     16668     16666     16664     16670     16668     16666     16664     16671
     16668     16666     16664     16672     16669     16666     16664     16670
     16669     16666     16664     16671     16669     16666     16664     16672
     16679     16677     16675     16681     16679     16677     16675     16682
     16679     16677     16675     16683     16680     16677     16675     16681
     16680     16677     16675     16682     16680     16677     16675     16683
     16690     16688     16686     16692     16690     16688     16686     16693
     16690     16688     16686     16694     16691     16688     16686     16692
     16691     16688     16686     16693     16691     16688     16686     16694
     16701     16699     16697     16703     16701     16699     16697     16704
     16701     16699     16697     16705     16702     16699     16697     16703
     16702     16699     16697     16704     16702     16699     16697     16705
     16712     16710     16708     16714     16712     16710     16708     16715
     16712     16710     16708     16716     16713     16710     16708     16714
     16713     16710     16708     16715     16713     16710     16708     16716
     16723     16721     16719     16725     16723     16721     16719     16726
     16723     16721     16719     16727     16724     16721     16719     16725
     16724     16721     16719     16726     16724     16721     16719     16727
     16734     16732     16730     16736     16734     16732     16730     16737
     16734     16732     16730     16738     16735     16732     16730     16736
     16735     16732     16730     16737     16735     16732     16730     16738
     16745     16743     16741     16747     16745     16743     16741     16748
     16745     16743     16741     16749     16746     16743     16741     16747
     16746     16743     16741     16748     16746     16743     16741     16749
     16756     16754     16752     16758     16756     16754     16752     16759
     16756     16754     16752     16760     16757     16754     16752     16758
     16757     16754     16752     16759     16757     16754     16752     16760
     16767     16765     16763     16769     16767     16765     16763     16770
     16767     16765     16763     16771     16768     16765     16763     16769
     16768     16765     16763     16770     16768     16765     16763     16771
     16778     16776     16774     16780     16778     16776     16774     16781
     16778     16776     16774     16782     16779     16776     16774     16780
     16779     16776     16774     16781     16779     16776     16774     16782
     16789     16787     16785     16791     16789     16787     16785     16792
     16789     16787     16785     16793     16790     16787     16785     16791
     16790     16787     16785     16792     16790     16787     16785     16793
     16800     16798     16796     16802     16800     16798     16796     16803
     16800     16798     16796     16804     16801     16798     16796     16802
     16801     16798     16796     16803     16801     16798     16796     16804
     16811     16809     16807     16813     16811     16809     16807     16814
     16811     16809     16807     16815     16812     16809     16807     16813
     16812     16809     16807     16814     16812     16809     16807     16815
     16822     16820     16818     16824     16822     16820     16818     16825
     16822     16820     16818     16826     16823     16820     16818     16824
     16823     16820     16818     16825     16823     16820     16818     16826
     16833     16831     16829     16835     16833     16831     16829     16836
     16833     16831     16829     16837     16834     16831     16829     16835
     16834     16831     16829     16836     16834     16831     16829     16837
     16844     16842     16840     16846     16844     16842     16840     16847
     16844     16842     16840     16848     16845     16842     16840     16846
     16845     16842     16840     16847     16845     16842     16840     16848
     16855     16853     16851     16857     16855     16853     16851     16858
     16855     16853     16851     16859     16856     16853     16851     16857
     16856     16853     16851     16858     16856     16853     16851     16859
     16866     16864     16862     16868     16866     16864     16862     16869
     16866     16864     16862     16870     16867     16864     16862     16868
     16867     16864     16862     16869     16867     16864     16862     16870
     16877     16875     16873     16879     16877     16875     16873     16880
     16877     16875     16873     16881     16878     16875     16873     16879
     16878     16875     16873     16880     16878     16875     16873     16881
     16888     16886     16884     16890     16888     16886     16884     16891
     16888     16886     16884     16892     16889     16886     16884     16890
     16889     16886     16884     16891     16889     16886     16884     16892
     16899     16897     16895     16901     16899     16897     16895     16902
     16899     16897     16895     16903     16900     16897     16895     16901
     16900     16897     16895     16902     16900     16897     16895     16903
     16910     16908     16906     16912     16910     16908     16906     16913
     16910     16908     16906     16914     16911     16908     16906     16912
     16911     16908     16906     16913     16911     16908     16906     16914
     16921     16919     16917     16923     16921     16919     16917     16924
     16921     16919     16917     16925     16922     16919     16917     16923
     16922     16919     16917     16924     16922     16919     16917     16925
     16932     16930     16928     16934     16932     16930     16928     16935
     16932     16930     16928     16936     16933     16930     16928     16934
     16933     16930     16928     16935     16933     16930     16928     16936
     16943     16941     16939     16945     16943     16941     16939     16946
     16943     16941     16939     16947     16944     16941     16939     16945
     16944     16941     16939     16946     16944     16941     16939     16947
     16954     16952     16950     16956     16954     16952     16950     16957
     16954     16952     16950     16958     16955     16952     16950     16956
     16955     16952     16950     16957     16955     16952     16950     16958
     16965     16963     16961     16967     16965     16963     16961     16968
     16965     16963     16961     16969     16966     16963     16961     16967
     16966     16963     16961     16968     16966     16963     16961     16969
     16976     16974     16972     16978     16976     16974     16972     16979
     16976     16974     16972     16980     16977     16974     16972     16978
     16977     16974     16972     16979     16977     16974     16972     16980
     16987     16985     16983     16989     16987     16985     16983     16990
     16987     16985     16983     16991     16988     16985     16983     16989
     16988     16985     16983     16990     16988     16985     16983     16991
     16998     16996     16994     17000     16998     16996     16994     17001
     16998     16996     16994     17002     16999     16996     16994     17000
     16999     16996     16994     17001     16999     16996     16994     17002
     17009     17007     17005     17011     17009     17007     17005     17012
     17009     17007     17005     17013     17010     17007     17005     17011
     17010     17007     17005     17012     17010     17007     17005     17013
     17020     17018     17016     17022     17020     17018     17016     17023
     17020     17018     17016     17024     17021     17018     17016     17022
     17021     17018     17016     17023     17021     17018     17016     17024
     17031     17029     17027     17033     17031     17029     17027     17034
     17031     17029     17027     17035     17032     17029     17027     17033
     17032     17029     17027     17034     17032     17029     17027     17035
     17042     17040     17038     17044     17042     17040     17038     17045
     17042     17040     17038     17046     17043     17040     17038     17044
     17043     17040     17038     17045     17043     17040     17038     17046
     17053     17051     17049     17055     17053     17051     17049     17056
     17053     17051     17049     17057     17054     17051     17049     17055
     17054     17051     17049     17056     17054     17051     17049     17057
     17064     17062     17060     17066     17064     17062     17060     17067
     17064     17062     17060     17068     17065     17062     17060     17066
     17065     17062     17060     17067     17065     17062     17060     17068
     17075     17073     17071     17077     17075     17073     17071     17078
     17075     17073     17071     17079     17076     17073     17071     17077
     17076     17073     17071     17078     17076     17073     17071     17079
     17086     17084     17082     17088     17086     17084     17082     17089
     17086     17084     17082     17090     17087     17084     17082     17088
     17087     17084     17082     17089     17087     17084     17082     17090
     17097     17095     17093     17099     17097     17095     17093     17100
     17097     17095     17093     17101     17098     17095     17093     17099
     17098     17095     17093     17100     17098     17095     17093     17101
     17108     17106     17104     17110     17108     17106     17104     17111
     17108     17106     17104     17112     17109     17106     17104     17110
     17109     17106     17104     17111     17109     17106     17104     17112
     17119     17117     17115     17121     17119     17117     17115     17122
     17119     17117     17115     17123     17120     17117     17115     17121
     17120     17117     17115     17122     17120     17117     17115     17123
     17130     17128     17126     17132     17130     17128     17126     17133
     17130     17128     17126     17134     17131     17128     17126     17132
     17131     17128     17126     17133     17131     17128     17126     17134
     17141     17139     17137     17143     17141     17139     17137     17144
     17141     17139     17137     17145     17142     17139     17137     17143
     17142     17139     17137     17144     17142     17139     17137     17145
     17152     17150     17148     17154     17152     17150     17148     17155
     17152     17150     17148     17156     17153     17150     17148     17154
     17153     17150     17148     17155     17153     17150     17148     17156
     17163     17161     17159     17165     17163     17161     17159     17166
     17163     17161     17159     17167     17164     17161     17159     17165
     17164     17161     17159     17166     17164     17161     17159     17167
     17174     17172     17170     17176     17174     17172     17170     17177
     17174     17172     17170     17178     17175     17172     17170     17176
     17175     17172     17170     17177     17175     17172     17170     17178
     17185     17183     17181     17187     17185     17183     17181     17188
     17185     17183     17181     17189     17186     17183     17181     17187
     17186     17183     17181     17188     17186     17183     17181     17189
     17196     17194     17192     17198     17196     17194     17192     17199
     17196     17194     17192     17200     17197     17194     17192     17198
     17197     17194     17192     17199     17197     17194     17192     17200
     17207     17205     17203     17209     17207     17205     17203     17210
     17207     17205     17203     17211     17208     17205     17203     17209
     17208     17205     17203     17210     17208     17205     17203     17211
     17218     17216     17214     17220     17218     17216     17214     17221
     17218     17216     17214     17222     17219     17216     17214     17220
     17219     17216     17214     17221     17219     17216     17214     17222
     17229     17227     17225     17231     17229     17227     17225     17232
     17229     17227     17225     17233     17230     17227     17225     17231
     17230     17227     17225     17232     17230     17227     17225     17233
     17240     17238     17236     17242     17240     17238     17236     17243
     17240     17238     17236     17244     17241     17238     17236     17242
     17241     17238     17236     17243     17241     17238     17236     17244
     17251     17249     17247     17253     17251     17249     17247     17254
     17251     17249     17247     17255     17252     17249     17247     17253
     17252     17249     17247     17254     17252     17249     17247     17255
     17262     17260     17258     17264     17262     17260     17258     17265
     17262     17260     17258     17266     17263     17260     17258     17264
     17263     17260     17258     17265     17263     17260     17258     17266
     17273     17271     17269     17275     17273     17271     17269     17276
     17273     17271     17269     17277     17274     17271     17269     17275
     17274     17271     17269     17276     17274     17271     17269     17277
     17284     17282     17280     17286     17284     17282     17280     17287
     17284     17282     17280     17288     17285     17282     17280     17286
     17285     17282     17280     17287     17285     17282     17280     17288
     17295     17293     17291     17297     17295     17293     17291     17298
     17295     17293     17291     17299     17296     17293     17291     17297
     17296     17293     17291     17298     17296     17293     17291     17299
     17306     17304     17302     17308     17306     17304     17302     17309
     17306     17304     17302     17310     17307     17304     17302     17308
     17307     17304     17302     17309     17307     17304     17302     17310
     17317     17315     17313     17319     17317     17315     17313     17320
     17317     17315     17313     17321     17318     17315     17313     17319
     17318     17315     17313     17320     17318     17315     17313     17321
     17328     17326     17324     17330     17328     17326     17324     17331
     17328     17326     17324     17332     17329     17326     17324     17330
     17329     17326     17324     17331     17329     17326     17324     17332
     17339     17337     17335     17341     17339     17337     17335     17342
     17339     17337     17335     17343     17340     17337     17335     17341
     17340     17337     17335     17342     17340     17337     17335     17343
     17350     17348     17346     17352     17350     17348     17346     17353
     17350     17348     17346     17354     17351     17348     17346     17352
     17351     17348     17346     17353     17351     17348     17346     17354
     17361     17359     17357     17363     17361     17359     17357     17364
     17361     17359     17357     17365     17362     17359     17357     17363
     17362     17359     17357     17364     17362     17359     17357     17365
     17372     17370     17368     17374     17372     17370     17368     17375
     17372     17370     17368     17376     17373     17370     17368     17374
     17373     17370     17368     17375     17373     17370     17368     17376
     17383     17381     17379     17385     17383     17381     17379     17386
     17383     17381     17379     17387     17384     17381     17379     17385
     17384     17381     17379     17386     17384     17381     17379     17387
     17394     17392     17390     17396     17394     17392     17390     17397
     17394     17392     17390     17398     17395     17392     17390     17396
     17395     17392     17390     17397     17395     17392     17390     17398
     17405     17403     17401     17407     17405     17403     17401     17408
     17405     17403     17401     17409     17406     17403     17401     17407
     17406     17403     17401     17408     17406     17403     17401     17409
     17416     17414     17412     17418     17416     17414     17412     17419
     17416     17414     17412     17420     17417     17414     17412     17418
     17417     17414     17412     17419     17417     17414     17412     17420
     17427     17425     17423     17429     17427     17425     17423     17430
     17427     17425     17423     17431     17428     17425     17423     17429
     17428     17425     17423     17430     17428     17425     17423     17431
     17438     17436     17434     17440     17438     17436     17434     17441
     17438     17436     17434     17442     17439     17436     17434     17440
     17439     17436     17434     17441     17439     17436     17434     17442
     17449     17447     17445     17451     17449     17447     17445     17452
     17449     17447     17445     17453     17450     17447     17445     17451
     17450     17447     17445     17452     17450     17447     17445     17453
     17460     17458     17456     17462     17460     17458     17456     17463
     17460     17458     17456     17464     17461     17458     17456     17462
     17461     17458     17456     17463     17461     17458     17456     17464
     17471     17469     17467     17473     17471     17469     17467     17474
     17471     17469     17467     17475     17472     17469     17467     17473
     17472     17469     17467     17474     17472     17469     17467     17475
     17482     17480     17478     17484     17482     17480     17478     17485
     17482     17480     17478     17486     17483     17480     17478     17484
     17483     17480     17478     17485     17483     17480     17478     17486
     17493     17491     17489     17495     17493     17491     17489     17496
     17493     17491     17489     17497     17494     17491     17489     17495
     17494     17491     17489     17496     17494     17491     17489     17497
     17504     17502     17500     17506     17504     17502     17500     17507
     17504     17502     17500     17508     17505     17502     17500     17506
     17505     17502     17500     17507     17505     17502     17500     17508
     17515     17513     17511     17517     17515     17513     17511     17518
     17515     17513     17511     17519     17516     17513     17511     17517
     17516     17513     17511     17518     17516     17513     17511     17519
     17526     17524     17522     17528     17526     17524     17522     17529
     17526     17524     17522     17530     17527     17524     17522     17528
     17527     17524     17522     17529     17527     17524     17522     17530
     17537     17535     17533     17539     17537     17535     17533     17540
     17537     17535     17533     17541     17538     17535     17533     17539
     17538     17535     17533     17540     17538     17535     17533     17541
     17548     17546     17544     17550     17548     17546     17544     17551
     17548     17546     17544     17552     17549     17546     17544     17550
     17549     17546     17544     17551     17549     17546     17544     17552
     17559     17557     17555     17561     17559     17557     17555     17562
     17559     17557     17555     17563     17560     17557     17555     17561
     17560     17557     17555     17562     17560     17557     17555     17563
     17570     17568     17566     17572     17570     17568     17566     17573
     17570     17568     17566     17574     17571     17568     17566     17572
     17571     17568     17566     17573     17571     17568     17566     17574
     17581     17579     17577     17583     17581     17579     17577     17584
     17581     17579     17577     17585     17582     17579     17577     17583
     17582     17579     17577     17584     17582     17579     17577     17585
     17592     17590     17588     17594     17592     17590     17588     17595
     17592     17590     17588     17596     17593     17590     17588     17594
     17593     17590     17588     17595     17593     17590     17588     17596
     17603     17601     17599     17605     17603     17601     17599     17606
     17603     17601     17599     17607     17604     17601     17599     17605
     17604     17601     17599     17606     17604     17601     17599     17607
     17614     17612     17610     17616     17614     17612     17610     17617
     17614     17612     17610     17618     17615     17612     17610     17616
     17615     17612     17610     17617     17615     17612     17610     17618
     17625     17623     17621     17627     17625     17623     17621     17628
     17625     17623     17621     17629     17626     17623     17621     17627
     17626     17623     17621     17628     17626     17623     17621     17629
     17636     17634     17632     17638     17636     17634     17632     17639
     17636     17634     17632     17640     17637     17634     17632     17638
     17637     17634     17632     17639     17637     17634     17632     17640
     17647     17645     17643     17649     17647     17645     17643     17650
     17647     17645     17643     17651     17648     17645     17643     17649
     17648     17645     17643     17650     17648     17645     17643     17651
     17658     17656     17654     17660     17658     17656     17654     17661
     17658     17656     17654     17662     17659     17656     17654     17660
     17659     17656     17654     17661     17659     17656     17654     17662
     17669     17667     17665     17671     17669     17667     17665     17672
     17669     17667     17665     17673     17670     17667     17665     17671
     17670     17667     17665     17672     17670     17667     17665     17673
     17680     17678     17676     17682     17680     17678     17676     17683
     17680     17678     17676     17684     17681     17678     17676     17682
     17681     17678     17676     17683     17681     17678     17676     17684
     17691     17689     17687     17693     17691     17689     17687     17694
     17691     17689     17687     17695     17692     17689     17687     17693
     17692     17689     17687     17694     17692     17689     17687     17695
     17702     17700     17698     17704     17702     17700     17698     17705
     17702     17700     17698     17706     17703     17700     17698     17704
     17703     17700     17698     17705     17703     17700     17698     17706
     17713     17711     17709     17715     17713     17711     17709     17716
     17713     17711     17709     17717     17714     17711     17709     17715
     17714     17711     17709     17716     17714     17711     17709     17717
     17724     17722     17720     17726     17724     17722     17720     17727
     17724     17722     17720     17728     17725     17722     17720     17726
     17725     17722     17720     17727     17725     17722     17720     17728
     17735     17733     17731     17737     17735     17733     17731     17738
     17735     17733     17731     17739     17736     17733     17731     17737
     17736     17733     17731     17738     17736     17733     17731     17739
     17746     17744     17742     17748     17746     17744     17742     17749
     17746     17744     17742     17750     17747     17744     17742     17748
     17747     17744     17742     17749     17747     17744     17742     17750
     17757     17755     17753     17759     17757     17755     17753     17760
     17757     17755     17753     17761     17758     17755     17753     17759
     17758     17755     17753     17760     17758     17755     17753     17761
     17768     17766     17764     17770     17768     17766     17764     17771
     17768     17766     17764     17772     17769     17766     17764     17770
     17769     17766     17764     17771     17769     17766     17764     17772
     17779     17777     17775     17781     17779     17777     17775     17782
     17779     17777     17775     17783     17780     17777     17775     17781
     17780     17777     17775     17782     17780     17777     17775     17783
     17790     17788     17786     17792     17790     17788     17786     17793
     17790     17788     17786     17794     17791     17788     17786     17792
     17791     17788     17786     17793     17791     17788     17786     17794
     17801     17799     17797     17803     17801     17799     17797     17804
     17801     17799     17797     17805     17802     17799     17797     17803
     17802     17799     17797     17804     17802     17799     17797     17805
     17812     17810     17808     17814     17812     17810     17808     17815
     17812     17810     17808     17816     17813     17810     17808     17814
     17813     17810     17808     17815     17813     17810     17808     17816
     17823     17821     17819     17825     17823     17821     17819     17826
     17823     17821     17819     17827     17824     17821     17819     17825
     17824     17821     17819     17826     17824     17821     17819     17827
     17834     17832     17830     17836     17834     17832     17830     17837
     17834     17832     17830     17838     17835     17832     17830     17836
     17835     17832     17830     17837     17835     17832     17830     17838
     17845     17843     17841     17847     17845     17843     17841     17848
     17845     17843     17841     17849     17846     17843     17841     17847
     17846     17843     17841     17848     17846     17843     17841     17849
     17856     17854     17852     17858     17856     17854     17852     17859
     17856     17854     17852     17860     17857     17854     17852     17858
     17857     17854     17852     17859     17857     17854     17852     17860
     17867     17865     17863     17869     17867     17865     17863     17870
     17867     17865     17863     17871     17868     17865     17863     17869
     17868     17865     17863     17870     17868     17865     17863     17871
     17878     17876     17874     17880     17878     17876     17874     17881
     17878     17876     17874     17882     17879     17876     17874     17880
     17879     17876     17874     17881     17879     17876     17874     17882
     17889     17887     17885     17891     17889     17887     17885     17892
     17889     17887     17885     17893     17890     17887     17885     17891
     17890     17887     17885     17892     17890     17887     17885     17893
     17900     17898     17896     17902     17900     17898     17896     17903
     17900     17898     17896     17904     17901     17898     17896     17902
     17901     17898     17896     17903     17901     17898     17896     17904
     17911     17909     17907     17913     17911     17909     17907     17914
     17911     17909     17907     17915     17912     17909     17907     17913
     17912     17909     17907     17914     17912     17909     17907     17915
     17922     17920     17918     17924     17922     17920     17918     17925
     17922     17920     17918     17926     17923     17920     17918     17924
     17923     17920     17918     17925     17923     17920     17918     17926
     17933     17931     17929     17935     17933     17931     17929     17936
     17933     17931     17929     17937     17934     17931     17929     17935
     17934     17931     17929     17936     17934     17931     17929     17937
     17944     17942     17940     17946     17944     17942     17940     17947
     17944     17942     17940     17948     17945     17942     17940     17946
     17945     17942     17940     17947     17945     17942     17940     17948
     17955     17953     17951     17957     17955     17953     17951     17958
     17955     17953     17951     17959     17956     17953     17951     17957
     17956     17953     17951     17958     17956     17953     17951     17959
     17966     17964     17962     17968     17966     17964     17962     17969
     17966     17964     17962     17970     17967     17964     17962     17968
     17967     17964     17962     17969     17967     17964     17962     17970
     17977     17975     17973     17979     17977     17975     17973     17980
     17977     17975     17973     17981     17978     17975     17973     17979
     17978     17975     17973     17980     17978     17975     17973     17981
     17988     17986     17984     17990     17988     17986     17984     17991
     17988     17986     17984     17992     17989     17986     17984     17990
     17989     17986     17984     17991     17989     17986     17984     17992
     17999     17997     17995     18001     17999     17997     17995     18002
     17999     17997     17995     18003     18000     17997     17995     18001
     18000     17997     17995     18002     18000     17997     17995     18003
     18010     18008     18006     18012     18010     18008     18006     18013
     18010     18008     18006     18014     18011     18008     18006     18012
     18011     18008     18006     18013     18011     18008     18006     18014
     18021     18019     18017     18023     18021     18019     18017     18024
     18021     18019     18017     18025     18022     18019     18017     18023
     18022     18019     18017     18024     18022     18019     18017     18025
     18032     18030     18028     18034     18032     18030     18028     18035
     18032     18030     18028     18036     18033     18030     18028     18034
     18033     18030     18028     18035     18033     18030     18028     18036
     18043     18041     18039     18045     18043     18041     18039     18046
     18043     18041     18039     18047     18044     18041     18039     18045
     18044     18041     18039     18046     18044     18041     18039     18047
     18054     18052     18050     18056     18054     18052     18050     18057
     18054     18052     18050     18058     18055     18052     18050     18056
     18055     18052     18050     18057     18055     18052     18050     18058
     18065     18063     18061     18067     18065     18063     18061     18068
     18065     18063     18061     18069     18066     18063     18061     18067
     18066     18063     18061     18068     18066     18063     18061     18069
     18076     18074     18072     18078     18076     18074     18072     18079
     18076     18074     18072     18080     18077     18074     18072     18078
     18077     18074     18072     18079     18077     18074     18072     18080
     18087     18085     18083     18089     18087     18085     18083     18090
     18087     18085     18083     18091     18088     18085     18083     18089
     18088     18085     18083     18090     18088     18085     18083     18091
     18098     18096     18094     18100     18098     18096     18094     18101
     18098     18096     18094     18102     18099     18096     18094     18100
     18099     18096     18094     18101     18099     18096     18094     18102
     18109     18107     18105     18111     18109     18107     18105     18112
     18109     18107     18105     18113     18110     18107     18105     18111
     18110     18107     18105     18112     18110     18107     18105     18113
     18120     18118     18116     18122     18120     18118     18116     18123
     18120     18118     18116     18124     18121     18118     18116     18122
     18121     18118     18116     18123     18121     18118     18116     18124
     18131     18129     18127     18133     18131     18129     18127     18134
     18131     18129     18127     18135     18132     18129     18127     18133
     18132     18129     18127     18134     18132     18129     18127     18135
     18142     18140     18138     18144     18142     18140     18138     18145
     18142     18140     18138     18146     18143     18140     18138     18144
     18143     18140     18138     18145     18143     18140     18138     18146
     18153     18151     18149     18155     18153     18151     18149     18156
     18153     18151     18149     18157     18154     18151     18149     18155
     18154     18151     18149     18156     18154     18151     18149     18157
     18164     18162     18160     18166     18164     18162     18160     18167
     18164     18162     18160     18168     18165     18162     18160     18166
     18165     18162     18160     18167     18165     18162     18160     18168
     18175     18173     18171     18177     18175     18173     18171     18178
     18175     18173     18171     18179     18176     18173     18171     18177
     18176     18173     18171     18178     18176     18173     18171     18179
     18186     18184     18182     18188     18186     18184     18182     18189
     18186     18184     18182     18190     18187     18184     18182     18188
     18187     18184     18182     18189     18187     18184     18182     18190
     18197     18195     18193     18199     18197     18195     18193     18200
     18197     18195     18193     18201     18198     18195     18193     18199
     18198     18195     18193     18200     18198     18195     18193     18201
     18208     18206     18204     18210     18208     18206     18204     18211
     18208     18206     18204     18212     18209     18206     18204     18210
     18209     18206     18204     18211     18209     18206     18204     18212
     18219     18217     18215     18221     18219     18217     18215     18222
     18219     18217     18215     18223     18220     18217     18215     18221
     18220     18217     18215     18222     18220     18217     18215     18223
     18230     18228     18226     18232     18230     18228     18226     18233
     18230     18228     18226     18234     18231     18228     18226     18232
     18231     18228     18226     18233     18231     18228     18226     18234
     18241     18239     18237     18243     18241     18239     18237     18244
     18241     18239     18237     18245     18242     18239     18237     18243
     18242     18239     18237     18244     18242     18239     18237     18245
     18252     18250     18248     18254     18252     18250     18248     18255
     18252     18250     18248     18256     18253     18250     18248     18254
     18253     18250     18248     18255     18253     18250     18248     18256
     18263     18261     18259     18265     18263     18261     18259     18266
     18263     18261     18259     18267     18264     18261     18259     18265
     18264     18261     18259     18266     18264     18261     18259     18267
     18274     18272     18270     18276     18274     18272     18270     18277
     18274     18272     18270     18278     18275     18272     18270     18276
     18275     18272     18270     18277     18275     18272     18270     18278
     18285     18283     18281     18287     18285     18283     18281     18288
     18285     18283     18281     18289     18286     18283     18281     18287
     18286     18283     18281     18288     18286     18283     18281     18289
     18296     18294     18292     18298     18296     18294     18292     18299
     18296     18294     18292     18300     18297     18294     18292     18298
     18297     18294     18292     18299     18297     18294     18292     18300
     18307     18305     18303     18309     18307     18305     18303     18310
     18307     18305     18303     18311     18308     18305     18303     18309
     18308     18305     18303     18310     18308     18305     18303     18311
     18318     18316     18314     18320     18318     18316     18314     18321
     18318     18316     18314     18322     18319     18316     18314     18320
     18319     18316     18314     18321     18319     18316     18314     18322
     18329     18327     18325     18331     18329     18327     18325     18332
     18329     18327     18325     18333     18330     18327     18325     18331
     18330     18327     18325     18332     18330     18327     18325     18333
     18340     18338     18336     18342     18340     18338     18336     18343
     18340     18338     18336     18344     18341     18338     18336     18342
     18341     18338     18336     18343     18341     18338     18336     18344
     18351     18349     18347     18353     18351     18349     18347     18354
     18351     18349     18347     18355     18352     18349     18347     18353
     18352     18349     18347     18354     18352     18349     18347     18355
     18362     18360     18358     18364     18362     18360     18358     18365
     18362     18360     18358     18366     18363     18360     18358     18364
     18363     18360     18358     18365     18363     18360     18358     18366
     18373     18371     18369     18375     18373     18371     18369     18376
     18373     18371     18369     18377     18374     18371     18369     18375
     18374     18371     18369     18376     18374     18371     18369     18377
     18384     18382     18380     18386     18384     18382     18380     18387
     18384     18382     18380     18388     18385     18382     18380     18386
     18385     18382     18380     18387     18385     18382     18380     18388
     18395     18393     18391     18397     18395     18393     18391     18398
     18395     18393     18391     18399     18396     18393     18391     18397
     18396     18393     18391     18398     18396     18393     18391     18399
     18406     18404     18402     18408     18406     18404     18402     18409
     18406     18404     18402     18410     18407     18404     18402     18408
     18407     18404     18402     18409     18407     18404     18402     18410
     18417     18415     18413     18419     18417     18415     18413     18420
     18417     18415     18413     18421     18418     18415     18413     18419
     18418     18415     18413     18420     18418     18415     18413     18421
     18428     18426     18424     18430     18428     18426     18424     18431
     18428     18426     18424     18432     18429     18426     18424     18430
     18429     18426     18424     18431     18429     18426     18424     18432
     18439     18437     18435     18441     18439     18437     18435     18442
     18439     18437     18435     18443     18440     18437     18435     18441
     18440     18437     18435     18442     18440     18437     18435     18443
     18450     18448     18446     18452     18450     18448     18446     18453
     18450     18448     18446     18454     18451     18448     18446     18452
     18451     18448     18446     18453     18451     18448     18446     18454
     18461     18459     18457     18463     18461     18459     18457     18464
     18461     18459     18457     18465     18462     18459     18457     18463
     18462     18459     18457     18464     18462     18459     18457     18465
     18472     18470     18468     18474     18472     18470     18468     18475
     18472     18470     18468     18476     18473     18470     18468     18474
     18473     18470     18468     18475     18473     18470     18468     18476
     18483     18481     18479     18485     18483     18481     18479     18486
     18483     18481     18479     18487     18484     18481     18479     18485
     18484     18481     18479     18486     18484     18481     18479     18487
     18494     18492     18490     18496     18494     18492     18490     18497
     18494     18492     18490     18498     18495     18492     18490     18496
     18495     18492     18490     18497     18495     18492     18490     18498
     18505     18503     18501     18507     18505     18503     18501     18508
     18505     18503     18501     18509     18506     18503     18501     18507
     18506     18503     18501     18508     18506     18503     18501     18509
     18516     18514     18512     18518     18516     18514     18512     18519
     18516     18514     18512     18520     18517     18514     18512     18518
     18517     18514     18512     18519     18517     18514     18512     18520
     18527     18525     18523     18529     18527     18525     18523     18530
     18527     18525     18523     18531     18528     18525     18523     18529
     18528     18525     18523     18530     18528     18525     18523     18531
     18538     18536     18534     18540     18538     18536     18534     18541
     18538     18536     18534     18542     18539     18536     18534     18540
     18539     18536     18534     18541     18539     18536     18534     18542
     18549     18547     18545     18551     18549     18547     18545     18552
     18549     18547     18545     18553     18550     18547     18545     18551
     18550     18547     18545     18552     18550     18547     18545     18553
     18560     18558     18556     18562     18560     18558     18556     18563
     18560     18558     18556     18564     18561     18558     18556     18562
     18561     18558     18556     18563     18561     18558     18556     18564
     18571     18569     18567     18573     18571     18569     18567     18574
     18571     18569     18567     18575     18572     18569     18567     18573
     18572     18569     18567     18574     18572     18569     18567     18575
     18582     18580     18578     18584     18582     18580     18578     18585
     18582     18580     18578     18586     18583     18580     18578     18584
     18583     18580     18578     18585     18583     18580     18578     18586
     18593     18591     18589     18595     18593     18591     18589     18596
     18593     18591     18589     18597     18594     18591     18589     18595
     18594     18591     18589     18596     18594     18591     18589     18597
     18604     18602     18600     18606     18604     18602     18600     18607
     18604     18602     18600     18608     18605     18602     18600     18606
     18605     18602     18600     18607     18605     18602     18600     18608
     18615     18613     18611     18617     18615     18613     18611     18618
     18615     18613     18611     18619     18616     18613     18611     18617
     18616     18613     18611     18618     18616     18613     18611     18619
     18626     18624     18622     18628     18626     18624     18622     18629
     18626     18624     18622     18630     18627     18624     18622     18628
     18627     18624     18622     18629     18627     18624     18622     18630
     18637     18635     18633     18639     18637     18635     18633     18640
     18637     18635     18633     18641     18638     18635     18633     18639
     18638     18635     18633     18640     18638     18635     18633     18641
     18648     18646     18644     18650     18648     18646     18644     18651
     18648     18646     18644     18652     18649     18646     18644     18650
     18649     18646     18644     18651     18649     18646     18644     18652
     18659     18657     18655     18661     18659     18657     18655     18662
     18659     18657     18655     18663     18660     18657     18655     18661
     18660     18657     18655     18662     18660     18657     18655     18663
     18670     18668     18666     18672     18670     18668     18666     18673
     18670     18668     18666     18674     18671     18668     18666     18672
     18671     18668     18666     18673     18671     18668     18666     18674
     18681     18679     18677     18683     18681     18679     18677     18684
     18681     18679     18677     18685     18682     18679     18677     18683
     18682     18679     18677     18684     18682     18679     18677     18685
     18692     18690     18688     18694     18692     18690     18688     18695
     18692     18690     18688     18696     18693     18690     18688     18694
     18693     18690     18688     18695     18693     18690     18688     18696
     18703     18701     18699     18705     18703     18701     18699     18706
     18703     18701     18699     18707     18704     18701     18699     18705
     18704     18701     18699     18706     18704     18701     18699     18707
     18714     18712     18710     18716     18714     18712     18710     18717
     18714     18712     18710     18718     18715     18712     18710     18716
     18715     18712     18710     18717     18715     18712     18710     18718
     18725     18723     18721     18727     18725     18723     18721     18728
     18725     18723     18721     18729     18726     18723     18721     18727
     18726     18723     18721     18728     18726     18723     18721     18729
     18736     18734     18732     18738     18736     18734     18732     18739
     18736     18734     18732     18740     18737     18734     18732     18738
     18737     18734     18732     18739     18737     18734     18732     18740
     18747     18745     18743     18749     18747     18745     18743     18750
     18747     18745     18743     18751     18748     18745     18743     18749
     18748     18745     18743     18750     18748     18745     18743     18751
     18758     18756     18754     18760     18758     18756     18754     18761
     18758     18756     18754     18762     18759     18756     18754     18760
     18759     18756     18754     18761     18759     18756     18754     18762
     18769     18767     18765     18771     18769     18767     18765     18772
     18769     18767     18765     18773     18770     18767     18765     18771
     18770     18767     18765     18772     18770     18767     18765     18773
     18780     18778     18776     18782     18780     18778     18776     18783
     18780     18778     18776     18784     18781     18778     18776     18782
     18781     18778     18776     18783     18781     18778     18776     18784
     18791     18789     18787     18793     18791     18789     18787     18794
     18791     18789     18787     18795     18792     18789     18787     18793
     18792     18789     18787     18794     18792     18789     18787     18795
     18802     18800     18798     18804     18802     18800     18798     18805
     18802     18800     18798     18806     18803     18800     18798     18804
     18803     18800     18798     18805     18803     18800     18798     18806
     18813     18811     18809     18815     18813     18811     18809     18816
     18813     18811     18809     18817     18814     18811     18809     18815
     18814     18811     18809     18816     18814     18811     18809     18817
     18824     18822     18820     18826     18824     18822     18820     18827
     18824     18822     18820     18828     18825     18822     18820     18826
     18825     18822     18820     18827     18825     18822     18820     18828
     18835     18833     18831     18837     18835     18833     18831     18838
     18835     18833     18831     18839     18836     18833     18831     18837
     18836     18833     18831     18838     18836     18833     18831     18839
     18846     18844     18842     18848     18846     18844     18842     18849
     18846     18844     18842     18850     18847     18844     18842     18848
     18847     18844     18842     18849     18847     18844     18842     18850
     18857     18855     18853     18859     18857     18855     18853     18860
     18857     18855     18853     18861     18858     18855     18853     18859
     18858     18855     18853     18860     18858     18855     18853     18861
     18868     18866     18864     18870     18868     18866     18864     18871
     18868     18866     18864     18872     18869     18866     18864     18870
     18869     18866     18864     18871     18869     18866     18864     18872
     18879     18877     18875     18881     18879     18877     18875     18882
     18879     18877     18875     18883     18880     18877     18875     18881
     18880     18877     18875     18882     18880     18877     18875     18883
     18890     18888     18886     18892     18890     18888     18886     18893
     18890     18888     18886     18894     18891     18888     18886     18892
     18891     18888     18886     18893     18891     18888     18886     18894
     18901     18899     18897     18903     18901     18899     18897     18904
     18901     18899     18897     18905     18902     18899     18897     18903
     18902     18899     18897     18904     18902     18899     18897     18905
     18912     18910     18908     18914     18912     18910     18908     18915
     18912     18910     18908     18916     18913     18910     18908     18914
     18913     18910     18908     18915     18913     18910     18908     18916
     18923     18921     18919     18925     18923     18921     18919     18926
     18923     18921     18919     18927     18924     18921     18919     18925
     18924     18921     18919     18926     18924     18921     18919     18927
     18934     18932     18930     18936     18934     18932     18930     18937
     18934     18932     18930     18938     18935     18932     18930     18936
     18935     18932     18930     18937     18935     18932     18930     18938
     18945     18943     18941     18947     18945     18943     18941     18948
     18945     18943     18941     18949     18946     18943     18941     18947
     18946     18943     18941     18948     18946     18943     18941     18949
     18956     18954     18952     18958     18956     18954     18952     18959
     18956     18954     18952     18960     18957     18954     18952     18958
     18957     18954     18952     18959     18957     18954     18952     18960
     18967     18965     18963     18969     18967     18965     18963     18970
     18967     18965     18963     18971     18968     18965     18963     18969
     18968     18965     18963     18970     18968     18965     18963     18971
     18978     18976     18974     18980     18978     18976     18974     18981
     18978     18976     18974     18982     18979     18976     18974     18980
     18979     18976     18974     18981     18979     18976     18974     18982
     18989     18987     18985     18991     18989     18987     18985     18992
     18989     18987     18985     18993     18990     18987     18985     18991
     18990     18987     18985     18992     18990     18987     18985     18993
     19000     18998     18996     19002     19000     18998     18996     19003
     19000     18998     18996     19004     19001     18998     18996     19002
     19001     18998     18996     19003     19001     18998     18996     19004
     19011     19009     19007     19013     19011     19009     19007     19014
     19011     19009     19007     19015     19012     19009     19007     19013
     19012     19009     19007     19014     19012     19009     19007     19015
     19022     19020     19018     19024     19022     19020     19018     19025
     19022     19020     19018     19026     19023     19020     19018     19024
     19023     19020     19018     19025     19023     19020     19018     19026
     19033     19031     19029     19035     19033     19031     19029     19036
     19033     19031     19029     19037     19034     19031     19029     19035
     19034     19031     19029     19036     19034     19031     19029     19037
     19044     19042     19040     19046     19044     19042     19040     19047
     19044     19042     19040     19048     19045     19042     19040     19046
     19045     19042     19040     19047     19045     19042     19040     19048
     19055     19053     19051     19057     19055     19053     19051     19058
     19055     19053     19051     19059     19056     19053     19051     19057
     19056     19053     19051     19058     19056     19053     19051     19059
     19066     19064     19062     19068     19066     19064     19062     19069
     19066     19064     19062     19070     19067     19064     19062     19068
     19067     19064     19062     19069     19067     19064     19062     19070
     19077     19075     19073     19079     19077     19075     19073     19080
     19077     19075     19073     19081     19078     19075     19073     19079
     19078     19075     19073     19080     19078     19075     19073     19081
     19088     19086     19084     19090     19088     19086     19084     19091
     19088     19086     19084     19092     19089     19086     19084     19090
     19089     19086     19084     19091     19089     19086     19084     19092
     19099     19097     19095     19101     19099     19097     19095     19102
     19099     19097     19095     19103     19100     19097     19095     19101
     19100     19097     19095     19102     19100     19097     19095     19103
     19110     19108     19106     19112     19110     19108     19106     19113
     19110     19108     19106     19114     19111     19108     19106     19112
     19111     19108     19106     19113     19111     19108     19106     19114
     19121     19119     19117     19123     19121     19119     19117     19124
     19121     19119     19117     19125     19122     19119     19117     19123
     19122     19119     19117     19124     19122     19119     19117     19125
     19132     19130     19128     19134     19132     19130     19128     19135
     19132     19130     19128     19136     19133     19130     19128     19134
     19133     19130     19128     19135     19133     19130     19128     19136
     19143     19141     19139     19145     19143     19141     19139     19146
     19143     19141     19139     19147     19144     19141     19139     19145
     19144     19141     19139     19146     19144     19141     19139     19147
     19154     19152     19150     19156     19154     19152     19150     19157
     19154     19152     19150     19158     19155     19152     19150     19156
     19155     19152     19150     19157     19155     19152     19150     19158
     19165     19163     19161     19167     19165     19163     19161     19168
     19165     19163     19161     19169     19166     19163     19161     19167
     19166     19163     19161     19168     19166     19163     19161     19169
     19176     19174     19172     19178     19176     19174     19172     19179
     19176     19174     19172     19180     19177     19174     19172     19178
     19177     19174     19172     19179     19177     19174     19172     19180
     19187     19185     19183     19189     19187     19185     19183     19190
     19187     19185     19183     19191     19188     19185     19183     19189
     19188     19185     19183     19190     19188     19185     19183     19191
     19198     19196     19194     19200     19198     19196     19194     19201
     19198     19196     19194     19202     19199     19196     19194     19200
     19199     19196     19194     19201     19199     19196     19194     19202
     19209     19207     19205     19211     19209     19207     19205     19212
     19209     19207     19205     19213     19210     19207     19205     19211
     19210     19207     19205     19212     19210     19207     19205     19213
     19220     19218     19216     19222     19220     19218     19216     19223
     19220     19218     19216     19224     19221     19218     19216     19222
     19221     19218     19216     19223     19221     19218     19216     19224
     19231     19229     19227     19233     19231     19229     19227     19234
     19231     19229     19227     19235     19232     19229     19227     19233
     19232     19229     19227     19234     19232     19229     19227     19235
     19242     19240     19238     19244     19242     19240     19238     19245
     19242     19240     19238     19246     19243     19240     19238     19244
     19243     19240     19238     19245     19243     19240     19238     19246
     19253     19251     19249     19255     19253     19251     19249     19256
     19253     19251     19249     19257     19254     19251     19249     19255
     19254     19251     19249     19256     19254     19251     19249     19257
     19264     19262     19260     19266     19264     19262     19260     19267
     19264     19262     19260     19268     19265     19262     19260     19266
     19265     19262     19260     19267     19265     19262     19260     19268
     19275     19273     19271     19277     19275     19273     19271     19278
     19275     19273     19271     19279     19276     19273     19271     19277
     19276     19273     19271     19278     19276     19273     19271     19279
     19286     19284     19282     19288     19286     19284     19282     19289
     19286     19284     19282     19290     19287     19284     19282     19288
     19287     19284     19282     19289     19287     19284     19282     19290
     19297     19295     19293     19299     19297     19295     19293     19300
     19297     19295     19293     19301     19298     19295     19293     19299
     19298     19295     19293     19300     19298     19295     19293     19301
     19308     19306     19304     19310     19308     19306     19304     19311
     19308     19306     19304     19312     19309     19306     19304     19310
     19309     19306     19304     19311     19309     19306     19304     19312
     19319     19317     19315     19321     19319     19317     19315     19322
     19319     19317     19315     19323     19320     19317     19315     19321
     19320     19317     19315     19322     19320     19317     19315     19323
     19330     19328     19326     19332     19330     19328     19326     19333
     19330     19328     19326     19334     19331     19328     19326     19332
     19331     19328     19326     19333     19331     19328     19326     19334
     19341     19339     19337     19343     19341     19339     19337     19344
     19341     19339     19337     19345     19342     19339     19337     19343
     19342     19339     19337     19344     19342     19339     19337     19345
     19352     19350     19348     19354     19352     19350     19348     19355
     19352     19350     19348     19356     19353     19350     19348     19354
     19353     19350     19348     19355     19353     19350     19348     19356
     19363     19361     19359     19365     19363     19361     19359     19366
     19363     19361     19359     19367     19364     19361     19359     19365
     19364     19361     19359     19366     19364     19361     19359     19367
     19374     19372     19370     19376     19374     19372     19370     19377
     19374     19372     19370     19378     19375     19372     19370     19376
     19375     19372     19370     19377     19375     19372     19370     19378
     19385     19383     19381     19387     19385     19383     19381     19388
     19385     19383     19381     19389     19386     19383     19381     19387
     19386     19383     19381     19388     19386     19383     19381     19389
     19396     19394     19392     19398     19396     19394     19392     19399
     19396     19394     19392     19400     19397     19394     19392     19398
     19397     19394     19392     19399     19397     19394     19392     19400
     19407     19405     19403     19409     19407     19405     19403     19410
     19407     19405     19403     19411     19408     19405     19403     19409
     19408     19405     19403     19410     19408     19405     19403     19411
     19418     19416     19414     19420     19418     19416     19414     19421
     19418     19416     19414     19422     19419     19416     19414     19420
     19419     19416     19414     19421     19419     19416     19414     19422
     19429     19427     19425     19431     19429     19427     19425     19432
     19429     19427     19425     19433     19430     19427     19425     19431
     19430     19427     19425     19432     19430     19427     19425     19433
     19440     19438     19436     19442     19440     19438     19436     19443
     19440     19438     19436     19444     19441     19438     19436     19442
     19441     19438     19436     19443     19441     19438     19436     19444
     19451     19449     19447     19453     19451     19449     19447     19454
     19451     19449     19447     19455     19452     19449     19447     19453
     19452     19449     19447     19454     19452     19449     19447     19455
     19462     19460     19458     19464     19462     19460     19458     19465
     19462     19460     19458     19466     19463     19460     19458     19464
     19463     19460     19458     19465     19463     19460     19458     19466
     19473     19471     19469     19475     19473     19471     19469     19476
     19473     19471     19469     19477     19474     19471     19469     19475
     19474     19471     19469     19476     19474     19471     19469     19477
     19484     19482     19480     19486     19484     19482     19480     19487
     19484     19482     19480     19488     19485     19482     19480     19486
     19485     19482     19480     19487     19485     19482     19480     19488
     19495     19493     19491     19497     19495     19493     19491     19498
     19495     19493     19491     19499     19496     19493     19491     19497
     19496     19493     19491     19498     19496     19493     19491     19499
     19506     19504     19502     19508     19506     19504     19502     19509
     19506     19504     19502     19510     19507     19504     19502     19508
     19507     19504     19502     19509     19507     19504     19502     19510
     19517     19515     19513     19519     19517     19515     19513     19520
     19517     19515     19513     19521     19518     19515     19513     19519
     19518     19515     19513     19520     19518     19515     19513     19521
     19528     19526     19524     19530     19528     19526     19524     19531
     19528     19526     19524     19532     19529     19526     19524     19530
     19529     19526     19524     19531     19529     19526     19524     19532
     19539     19537     19535     19541     19539     19537     19535     19542
     19539     19537     19535     19543     19540     19537     19535     19541
     19540     19537     19535     19542     19540     19537     19535     19543
     19550     19548     19546     19552     19550     19548     19546     19553
     19550     19548     19546     19554     19551     19548     19546     19552
     19551     19548     19546     19553     19551     19548     19546     19554
     19561     19559     19557     19563     19561     19559     19557     19564
     19561     19559     19557     19565     19562     19559     19557     19563
     19562     19559     19557     19564     19562     19559     19557     19565
     19572     19570     19568     19574     19572     19570     19568     19575
     19572     19570     19568     19576     19573     19570     19568     19574
     19573     19570     19568     19575     19573     19570     19568     19576
     19583     19581     19579     19585     19583     19581     19579     19586
     19583     19581     19579     19587     19584     19581     19579     19585
     19584     19581     19579     19586     19584     19581     19579     19587
     19594     19592     19590     19596     19594     19592     19590     19597
     19594     19592     19590     19598     19595     19592     19590     19596
     19595     19592     19590     19597     19595     19592     19590     19598
     19605     19603     19601     19607     19605     19603     19601     19608
     19605     19603     19601     19609     19606     19603     19601     19607
     19606     19603     19601     19608     19606     19603     19601     19609
     19616     19614     19612     19618     19616     19614     19612     19619
     19616     19614     19612     19620     19617     19614     19612     19618
     19617     19614     19612     19619     19617     19614     19612     19620
     19627     19625     19623     19629     19627     19625     19623     19630
     19627     19625     19623     19631     19628     19625     19623     19629
     19628     19625     19623     19630     19628     19625     19623     19631
     19638     19636     19634     19640     19638     19636     19634     19641
     19638     19636     19634     19642     19639     19636     19634     19640
     19639     19636     19634     19641     19639     19636     19634     19642
     19649     19647     19645     19651     19649     19647     19645     19652
     19649     19647     19645     19653     19650     19647     19645     19651
     19650     19647     19645     19652     19650     19647     19645     19653
     19660     19658     19656     19662     19660     19658     19656     19663
     19660     19658     19656     19664     19661     19658     19656     19662
     19661     19658     19656     19663     19661     19658     19656     19664
     19671     19669     19667     19673     19671     19669     19667     19674
     19671     19669     19667     19675     19672     19669     19667     19673
     19672     19669     19667     19674     19672     19669     19667     19675
     19682     19680     19678     19684     19682     19680     19678     19685
     19682     19680     19678     19686     19683     19680     19678     19684
     19683     19680     19678     19685     19683     19680     19678     19686
     19693     19691     19689     19695     19693     19691     19689     19696
     19693     19691     19689     19697     19694     19691     19689     19695
     19694     19691     19689     19696     19694     19691     19689     19697
     19704     19702     19700     19706     19704     19702     19700     19707
     19704     19702     19700     19708     19705     19702     19700     19706
     19705     19702     19700     19707     19705     19702     19700     19708
     19715     19713     19711     19717     19715     19713     19711     19718
     19715     19713     19711     19719     19716     19713     19711     19717
     19716     19713     19711     19718     19716     19713     19711     19719
     19726     19724     19722     19728     19726     19724     19722     19729
     19726     19724     19722     19730     19727     19724     19722     19728
     19727     19724     19722     19729     19727     19724     19722     19730
     19737     19735     19733     19739     19737     19735     19733     19740
     19737     19735     19733     19741     19738     19735     19733     19739
     19738     19735     19733     19740     19738     19735     19733     19741
     19748     19746     19744     19750     19748     19746     19744     19751
     19748     19746     19744     19752     19749     19746     19744     19750
     19749     19746     19744     19751     19749     19746     19744     19752
     19759     19757     19755     19761     19759     19757     19755     19762
     19759     19757     19755     19763     19760     19757     19755     19761
     19760     19757     19755     19762     19760     19757     19755     19763
     19770     19768     19766     19772     19770     19768     19766     19773
     19770     19768     19766     19774     19771     19768     19766     19772
     19771     19768     19766     19773     19771     19768     19766     19774
     19781     19779     19777     19783     19781     19779     19777     19784
     19781     19779     19777     19785     19782     19779     19777     19783
     19782     19779     19777     19784     19782     19779     19777     19785
     19792     19790     19788     19794     19792     19790     19788     19795
     19792     19790     19788     19796     19793     19790     19788     19794
     19793     19790     19788     19795     19793     19790     19788     19796
     19803     19801     19799     19805     19803     19801     19799     19806
     19803     19801     19799     19807     19804     19801     19799     19805
     19804     19801     19799     19806     19804     19801     19799     19807
     19814     19812     19810     19816     19814     19812     19810     19817
     19814     19812     19810     19818     19815     19812     19810     19816
     19815     19812     19810     19817     19815     19812     19810     19818
     19825     19823     19821     19827     19825     19823     19821     19828
     19825     19823     19821     19829     19826     19823     19821     19827
     19826     19823     19821     19828     19826     19823     19821     19829
     19836     19834     19832     19838     19836     19834     19832     19839
     19836     19834     19832     19840     19837     19834     19832     19838
     19837     19834     19832     19839     19837     19834     19832     19840
     19847     19845     19843     19849     19847     19845     19843     19850
     19847     19845     19843     19851     19848     19845     19843     19849
     19848     19845     19843     19850     19848     19845     19843     19851
     19858     19856     19854     19860     19858     19856     19854     19861
     19858     19856     19854     19862     19859     19856     19854     19860
     19859     19856     19854     19861     19859     19856     19854     19862
     19869     19867     19865     19871     19869     19867     19865     19872
     19869     19867     19865     19873     19870     19867     19865     19871
     19870     19867     19865     19872     19870     19867     19865     19873
     19880     19878     19876     19882     19880     19878     19876     19883
     19880     19878     19876     19884     19881     19878     19876     19882
     19881     19878     19876     19883     19881     19878     19876     19884
     19891     19889     19887     19893     19891     19889     19887     19894
     19891     19889     19887     19895     19892     19889     19887     19893
     19892     19889     19887     19894     19892     19889     19887     19895
     19902     19900     19898     19904     19902     19900     19898     19905
     19902     19900     19898     19906     19903     19900     19898     19904
     19903     19900     19898     19905     19903     19900     19898     19906
     19913     19911     19909     19915     19913     19911     19909     19916
     19913     19911     19909     19917     19914     19911     19909     19915
     19914     19911     19909     19916     19914     19911     19909     19917
     19924     19922     19920     19926     19924     19922     19920     19927
     19924     19922     19920     19928     19925     19922     19920     19926
     19925     19922     19920     19927     19925     19922     19920     19928
     19935     19933     19931     19937     19935     19933     19931     19938
     19935     19933     19931     19939     19936     19933     19931     19937
     19936     19933     19931     19938     19936     19933     19931     19939
     19946     19944     19942     19948     19946     19944     19942     19949
     19946     19944     19942     19950     19947     19944     19942     19948
     19947     19944     19942     19949     19947     19944     19942     19950
     19957     19955     19953     19959     19957     19955     19953     19960
     19957     19955     19953     19961     19958     19955     19953     19959
     19958     19955     19953     19960     19958     19955     19953     19961
     19968     19966     19964     19970     19968     19966     19964     19971
     19968     19966     19964     19972     19969     19966     19964     19970
     19969     19966     19964     19971     19969     19966     19964     19972
     19979     19977     19975     19981     19979     19977     19975     19982
     19979     19977     19975     19983     19980     19977     19975     19981
     19980     19977     19975     19982     19980     19977     19975     19983
     19990     19988     19986     19992     19990     19988     19986     19993
     19990     19988     19986     19994     19991     19988     19986     19992
     19991     19988     19986     19993     19991     19988     19986     19994
     20001     19999     19997     20003     20001     19999     19997     20004
     20001     19999     19997     20005     20002     19999     19997     20003
     20002     19999     19997     20004     20002     19999     19997     20005
     20012     20010     20008     20014     20012     20010     20008     20015
     20012     20010     20008     20016     20013     20010     20008     20014
     20013     20010     20008     20015     20013     20010     20008     20016
     20023     20021     20019     20025     20023     20021     20019     20026
     20023     20021     20019     20027     20024     20021     20019     20025
     20024     20021     20019     20026     20024     20021     20019     20027
     20034     20032     20030     20036     20034     20032     20030     20037
     20034     20032     20030     20038     20035     20032     20030     20036
     20035     20032     20030     20037     20035     20032     20030     20038
     20045     20043     20041     20047     20045     20043     20041     20048
     20045     20043     20041     20049     20046     20043     20041     20047
     20046     20043     20041     20048     20046     20043     20041     20049
     20056     20054     20052     20058     20056     20054     20052     20059
     20056     20054     20052     20060     20057     20054     20052     20058
     20057     20054     20052     20059     20057     20054     20052     20060
     20067     20065     20063     20069     20067     20065     20063     20070
     20067     20065     20063     20071     20068     20065     20063     20069
     20068     20065     20063     20070     20068     20065     20063     20071
     20078     20076     20074     20080     20078     20076     20074     20081
     20078     20076     20074     20082     20079     20076     20074     20080
     20079     20076     20074     20081     20079     20076     20074     20082
     20089     20087     20085     20091     20089     20087     20085     20092
     20089     20087     20085     20093     20090     20087     20085     20091
     20090     20087     20085     20092     20090     20087     20085     20093
     20100     20098     20096     20102     20100     20098     20096     20103
     20100     20098     20096     20104     20101     20098     20096     20102
     20101     20098     20096     20103     20101     20098     20096     20104
     20111     20109     20107     20113     20111     20109     20107     20114
     20111     20109     20107     20115     20112     20109     20107     20113
     20112     20109     20107     20114     20112     20109     20107     20115
     20122     20120     20118     20124     20122     20120     20118     20125
     20122     20120     20118     20126     20123     20120     20118     20124
     20123     20120     20118     20125     20123     20120     20118     20126
     20133     20131     20129     20135     20133     20131     20129     20136
     20133     20131     20129     20137     20134     20131     20129     20135
     20134     20131     20129     20136     20134     20131     20129     20137
     20144     20142     20140     20146     20144     20142     20140     20147
     20144     20142     20140     20148     20145     20142     20140     20146
     20145     20142     20140     20147     20145     20142     20140     20148
     20155     20153     20151     20157     20155     20153     20151     20158
     20155     20153     20151     20159     20156     20153     20151     20157
     20156     20153     20151     20158     20156     20153     20151     20159
     20166     20164     20162     20168     20166     20164     20162     20169
     20166     20164     20162     20170     20167     20164     20162     20168
     20167     20164     20162     20169     20167     20164     20162     20170
     20177     20175     20173     20179     20177     20175     20173     20180
     20177     20175     20173     20181     20178     20175     20173     20179
     20178     20175     20173     20180     20178     20175     20173     20181
     20188     20186     20184     20190     20188     20186     20184     20191
     20188     20186     20184     20192     20189     20186     20184     20190
     20189     20186     20184     20191     20189     20186     20184     20192
     20199     20197     20195     20201     20199     20197     20195     20202
     20199     20197     20195     20203     20200     20197     20195     20201
     20200     20197     20195     20202     20200     20197     20195     20203
     20210     20208     20206     20212     20210     20208     20206     20213
     20210     20208     20206     20214     20211     20208     20206     20212
     20211     20208     20206     20213     20211     20208     20206     20214
     20221     20219     20217     20223     20221     20219     20217     20224
     20221     20219     20217     20225     20222     20219     20217     20223
     20222     20219     20217     20224     20222     20219     20217     20225
     20232     20230     20228     20234     20232     20230     20228     20235
     20232     20230     20228     20236     20233     20230     20228     20234
     20233     20230     20228     20235     20233     20230     20228     20236
     20243     20241     20239     20245     20243     20241     20239     20246
     20243     20241     20239     20247     20244     20241     20239     20245
     20244     20241     20239     20246     20244     20241     20239     20247
     20254     20252     20250     20256     20254     20252     20250     20257
     20254     20252     20250     20258     20255     20252     20250     20256
     20255     20252     20250     20257     20255     20252     20250     20258
     20265     20263     20261     20267     20265     20263     20261     20268
     20265     20263     20261     20269     20266     20263     20261     20267
     20266     20263     20261     20268     20266     20263     20261     20269
     20276     20274     20272     20278     20276     20274     20272     20279
     20276     20274     20272     20280     20277     20274     20272     20278
     20277     20274     20272     20279     20277     20274     20272     20280
     20287     20285     20283     20289     20287     20285     20283     20290
     20287     20285     20283     20291     20288     20285     20283     20289
     20288     20285     20283     20290     20288     20285     20283     20291
     20298     20296     20294     20300     20298     20296     20294     20301
     20298     20296     20294     20302     20299     20296     20294     20300
     20299     20296     20294     20301     20299     20296     20294     20302
     20309     20307     20305     20311     20309     20307     20305     20312
     20309     20307     20305     20313     20310     20307     20305     20311
     20310     20307     20305     20312     20310     20307     20305     20313
     20320     20318     20316     20322     20320     20318     20316     20323
     20320     20318     20316     20324     20321     20318     20316     20322
     20321     20318     20316     20323     20321     20318     20316     20324
     20331     20329     20327     20333     20331     20329     20327     20334
     20331     20329     20327     20335     20332     20329     20327     20333
     20332     20329     20327     20334     20332     20329     20327     20335
     20342     20340     20338     20344     20342     20340     20338     20345
     20342     20340     20338     20346     20343     20340     20338     20344
     20343     20340     20338     20345     20343     20340     20338     20346
     20353     20351     20349     20355     20353     20351     20349     20356
     20353     20351     20349     20357     20354     20351     20349     20355
     20354     20351     20349     20356     20354     20351     20349     20357
     20364     20362     20360     20366     20364     20362     20360     20367
     20364     20362     20360     20368     20365     20362     20360     20366
     20365     20362     20360     20367     20365     20362     20360     20368
     20375     20373     20371     20377     20375     20373     20371     20378
     20375     20373     20371     20379     20376     20373     20371     20377
     20376     20373     20371     20378     20376     20373     20371     20379
     20386     20384     20382     20388     20386     20384     20382     20389
     20386     20384     20382     20390     20387     20384     20382     20388
     20387     20384     20382     20389     20387     20384     20382     20390
     20397     20395     20393     20399     20397     20395     20393     20400
     20397     20395     20393     20401     20398     20395     20393     20399
     20398     20395     20393     20400     20398     20395     20393     20401
     20408     20406     20404     20410     20408     20406     20404     20411
     20408     20406     20404     20412     20409     20406     20404     20410
     20409     20406     20404     20411     20409     20406     20404     20412
     20419     20417     20415     20421     20419     20417     20415     20422
     20419     20417     20415     20423     20420     20417     20415     20421
     20420     20417     20415     20422     20420     20417     20415     20423
     20430     20428     20426     20432     20430     20428     20426     20433
     20430     20428     20426     20434     20431     20428     20426     20432
     20431     20428     20426     20433     20431     20428     20426     20434
     20441     20439     20437     20443     20441     20439     20437     20444
     20441     20439     20437     20445     20442     20439     20437     20443
     20442     20439     20437     20444     20442     20439     20437     20445
     20452     20450     20448     20454     20452     20450     20448     20455
     20452     20450     20448     20456     20453     20450     20448     20454
     20453     20450     20448     20455     20453     20450     20448     20456
     20463     20461     20459     20465     20463     20461     20459     20466
     20463     20461     20459     20467     20464     20461     20459     20465
     20464     20461     20459     20466     20464     20461     20459     20467
     20474     20472     20470     20476     20474     20472     20470     20477
     20474     20472     20470     20478     20475     20472     20470     20476
     20475     20472     20470     20477     20475     20472     20470     20478
     20485     20483     20481     20487     20485     20483     20481     20488
     20485     20483     20481     20489     20486     20483     20481     20487
     20486     20483     20481     20488     20486     20483     20481     20489
     20496     20494     20492     20498     20496     20494     20492     20499
     20496     20494     20492     20500     20497     20494     20492     20498
     20497     20494     20492     20499     20497     20494     20492     20500
     20507     20505     20503     20509     20507     20505     20503     20510
     20507     20505     20503     20511     20508     20505     20503     20509
     20508     20505     20503     20510     20508     20505     20503     20511
     20518     20516     20514     20520     20518     20516     20514     20521
     20518     20516     20514     20522     20519     20516     20514     20520
     20519     20516     20514     20521     20519     20516     20514     20522
     20529     20527     20525     20531     20529     20527     20525     20532
     20529     20527     20525     20533     20530     20527     20525     20531
     20530     20527     20525     20532     20530     20527     20525     20533
     20540     20538     20536     20542     20540     20538     20536     20543
     20540     20538     20536     20544     20541     20538     20536     20542
     20541     20538     20536     20543     20541     20538     20536     20544
     20551     20549     20547     20553     20551     20549     20547     20554
     20551     20549     20547     20555     20552     20549     20547     20553
     20552     20549     20547     20554     20552     20549     20547     20555
     20562     20560     20558     20564     20562     20560     20558     20565
     20562     20560     20558     20566     20563     20560     20558     20564
     20563     20560     20558     20565     20563     20560     20558     20566
     20573     20571     20569     20575     20573     20571     20569     20576
     20573     20571     20569     20577     20574     20571     20569     20575
     20574     20571     20569     20576     20574     20571     20569     20577
     20584     20582     20580     20586     20584     20582     20580     20587
     20584     20582     20580     20588     20585     20582     20580     20586
     20585     20582     20580     20587     20585     20582     20580     20588
     20595     20593     20591     20597     20595     20593     20591     20598
     20595     20593     20591     20599     20596     20593     20591     20597
     20596     20593     20591     20598     20596     20593     20591     20599
     20606     20604     20602     20608     20606     20604     20602     20609
     20606     20604     20602     20610     20607     20604     20602     20608
     20607     20604     20602     20609     20607     20604     20602     20610
     20617     20615     20613     20619     20617     20615     20613     20620
     20617     20615     20613     20621     20618     20615     20613     20619
     20618     20615     20613     20620     20618     20615     20613     20621
     20628     20626     20624     20630     20628     20626     20624     20631
     20628     20626     20624     20632     20629     20626     20624     20630
     20629     20626     20624     20631     20629     20626     20624     20632
     20639     20637     20635     20641     20639     20637     20635     20642
     20639     20637     20635     20643     20640     20637     20635     20641
     20640     20637     20635     20642     20640     20637     20635     20643
     20650     20648     20646     20652     20650     20648     20646     20653
     20650     20648     20646     20654     20651     20648     20646     20652
     20651     20648     20646     20653     20651     20648     20646     20654
     20661     20659     20657     20663     20661     20659     20657     20664
     20661     20659     20657     20665     20662     20659     20657     20663
     20662     20659     20657     20664     20662     20659     20657     20665
     20672     20670     20668     20674     20672     20670     20668     20675
     20672     20670     20668     20676     20673     20670     20668     20674
     20673     20670     20668     20675     20673     20670     20668     20676
     20683     20681     20679     20685     20683     20681     20679     20686
     20683     20681     20679     20687     20684     20681     20679     20685
     20684     20681     20679     20686     20684     20681     20679     20687
     20694     20692     20690     20696     20694     20692     20690     20697
     20694     20692     20690     20698     20695     20692     20690     20696
     20695     20692     20690     20697     20695     20692     20690     20698
     20705     20703     20701     20707     20705     20703     20701     20708
     20705     20703     20701     20709     20706     20703     20701     20707
     20706     20703     20701     20708     20706     20703     20701     20709
     20716     20714     20712     20718     20716     20714     20712     20719
     20716     20714     20712     20720     20717     20714     20712     20718
     20717     20714     20712     20719     20717     20714     20712     20720
     20727     20725     20723     20729     20727     20725     20723     20730
     20727     20725     20723     20731     20728     20725     20723     20729
     20728     20725     20723     20730     20728     20725     20723     20731
     20738     20736     20734     20740     20738     20736     20734     20741
     20738     20736     20734     20742     20739     20736     20734     20740
     20739     20736     20734     20741     20739     20736     20734     20742
     20749     20747     20745     20751     20749     20747     20745     20752
     20749     20747     20745     20753     20750     20747     20745     20751
     20750     20747     20745     20752     20750     20747     20745     20753
     20760     20758     20756     20762     20760     20758     20756     20763
     20760     20758     20756     20764     20761     20758     20756     20762
     20761     20758     20756     20763     20761     20758     20756     20764
     20771     20769     20767     20773     20771     20769     20767     20774
     20771     20769     20767     20775     20772     20769     20767     20773
     20772     20769     20767     20774     20772     20769     20767     20775
     20782     20780     20778     20784     20782     20780     20778     20785
     20782     20780     20778     20786     20783     20780     20778     20784
     20783     20780     20778     20785     20783     20780     20778     20786
     20793     20791     20789     20795     20793     20791     20789     20796
     20793     20791     20789     20797     20794     20791     20789     20795
     20794     20791     20789     20796     20794     20791     20789     20797
     20804     20802     20800     20806     20804     20802     20800     20807
     20804     20802     20800     20808     20805     20802     20800     20806
     20805     20802     20800     20807     20805     20802     20800     20808
     20815     20813     20811     20817     20815     20813     20811     20818
     20815     20813     20811     20819     20816     20813     20811     20817
     20816     20813     20811     20818     20816     20813     20811     20819
     20826     20824     20822     20828     20826     20824     20822     20829
     20826     20824     20822     20830     20827     20824     20822     20828
     20827     20824     20822     20829     20827     20824     20822     20830
     20837     20835     20833     20839     20837     20835     20833     20840
     20837     20835     20833     20841     20838     20835     20833     20839
     20838     20835     20833     20840     20838     20835     20833     20841
     20848     20846     20844     20850     20848     20846     20844     20851
     20848     20846     20844     20852     20849     20846     20844     20850
     20849     20846     20844     20851     20849     20846     20844     20852
     20859     20857     20855     20861     20859     20857     20855     20862
     20859     20857     20855     20863     20860     20857     20855     20861
     20860     20857     20855     20862     20860     20857     20855     20863
     20870     20868     20866     20872     20870     20868     20866     20873
     20870     20868     20866     20874     20871     20868     20866     20872
     20871     20868     20866     20873     20871     20868     20866     20874
     20881     20879     20877     20883     20881     20879     20877     20884
     20881     20879     20877     20885     20882     20879     20877     20883
     20882     20879     20877     20884     20882     20879     20877     20885
     20892     20890     20888     20894     20892     20890     20888     20895
     20892     20890     20888     20896     20893     20890     20888     20894
     20893     20890     20888     20895     20893     20890     20888     20896
     20903     20901     20899     20905     20903     20901     20899     20906
     20903     20901     20899     20907     20904     20901     20899     20905
     20904     20901     20899     20906     20904     20901     20899     20907
     20914     20912     20910     20916     20914     20912     20910     20917
     20914     20912     20910     20918     20915     20912     20910     20916
     20915     20912     20910     20917     20915     20912     20910     20918
     20925     20923     20921     20927     20925     20923     20921     20928
     20925     20923     20921     20929     20926     20923     20921     20927
     20926     20923     20921     20928     20926     20923     20921     20929
     20936     20934     20932     20938     20936     20934     20932     20939
     20936     20934     20932     20940     20937     20934     20932     20938
     20937     20934     20932     20939     20937     20934     20932     20940
     20947     20945     20943     20949     20947     20945     20943     20950
     20947     20945     20943     20951     20948     20945     20943     20949
     20948     20945     20943     20950     20948     20945     20943     20951
     20958     20956     20954     20960     20958     20956     20954     20961
     20958     20956     20954     20962     20959     20956     20954     20960
     20959     20956     20954     20961     20959     20956     20954     20962
     20969     20967     20965     20971     20969     20967     20965     20972
     20969     20967     20965     20973     20970     20967     20965     20971
     20970     20967     20965     20972     20970     20967     20965     20973
     20980     20978     20976     20982     20980     20978     20976     20983
     20980     20978     20976     20984     20981     20978     20976     20982
     20981     20978     20976     20983     20981     20978     20976     20984
     20991     20989     20987     20993     20991     20989     20987     20994
     20991     20989     20987     20995     20992     20989     20987     20993
     20992     20989     20987     20994     20992     20989     20987     20995
     21002     21000     20998     21004     21002     21000     20998     21005
     21002     21000     20998     21006     21003     21000     20998     21004
     21003     21000     20998     21005     21003     21000     20998     21006
     21013     21011     21009     21015     21013     21011     21009     21016
     21013     21011     21009     21017     21014     21011     21009     21015
     21014     21011     21009     21016     21014     21011     21009     21017
     21024     21022     21020     21026     21024     21022     21020     21027
     21024     21022     21020     21028     21025     21022     21020     21026
     21025     21022     21020     21027     21025     21022     21020     21028
     21035     21033     21031     21037     21035     21033     21031     21038
     21035     21033     21031     21039     21036     21033     21031     21037
     21036     21033     21031     21038     21036     21033     21031     21039
     21046     21044     21042     21048     21046     21044     21042     21049
     21046     21044     21042     21050     21047     21044     21042     21048
     21047     21044     21042     21049     21047     21044     21042     21050
     21057     21055     21053     21059     21057     21055     21053     21060
     21057     21055     21053     21061     21058     21055     21053     21059
     21058     21055     21053     21060     21058     21055     21053     21061
     21068     21066     21064     21070     21068     21066     21064     21071
     21068     21066     21064     21072     21069     21066     21064     21070
     21069     21066     21064     21071     21069     21066     21064     21072
     21079     21077     21075     21081     21079     21077     21075     21082
     21079     21077     21075     21083     21080     21077     21075     21081
     21080     21077     21075     21082     21080     21077     21075     21083
     21090     21088     21086     21092     21090     21088     21086     21093
     21090     21088     21086     21094     21091     21088     21086     21092
     21091     21088     21086     21093     21091     21088     21086     21094
     21101     21099     21097     21103     21101     21099     21097     21104
     21101     21099     21097     21105     21102     21099     21097     21103
     21102     21099     21097     21104     21102     21099     21097     21105
     21112     21110     21108     21114     21112     21110     21108     21115
     21112     21110     21108     21116     21113     21110     21108     21114
     21113     21110     21108     21115     21113     21110     21108     21116
     21123     21121     21119     21125     21123     21121     21119     21126
     21123     21121     21119     21127     21124     21121     21119     21125
     21124     21121     21119     21126     21124     21121     21119     21127
     21134     21132     21130     21136     21134     21132     21130     21137
     21134     21132     21130     21138     21135     21132     21130     21136
     21135     21132     21130     21137     21135     21132     21130     21138
     21145     21143     21141     21147     21145     21143     21141     21148
     21145     21143     21141     21149     21146     21143     21141     21147
     21146     21143     21141     21148     21146     21143     21141     21149
     21156     21154     21152     21158     21156     21154     21152     21159
     21156     21154     21152     21160     21157     21154     21152     21158
     21157     21154     21152     21159     21157     21154     21152     21160
     21167     21165     21163     21169     21167     21165     21163     21170
     21167     21165     21163     21171     21168     21165     21163     21169
     21168     21165     21163     21170     21168     21165     21163     21171
     21178     21176     21174     21180     21178     21176     21174     21181
     21178     21176     21174     21182     21179     21176     21174     21180
     21179     21176     21174     21181     21179     21176     21174     21182
     21189     21187     21185     21191     21189     21187     21185     21192
     21189     21187     21185     21193     21190     21187     21185     21191
     21190     21187     21185     21192     21190     21187     21185     21193
     21200     21198     21196     21202     21200     21198     21196     21203
     21200     21198     21196     21204     21201     21198     21196     21202
     21201     21198     21196     21203     21201     21198     21196     21204
     21211     21209     21207     21213     21211     21209     21207     21214
     21211     21209     21207     21215     21212     21209     21207     21213
     21212     21209     21207     21214     21212     21209     21207     21215
     21222     21220     21218     21224     21222     21220     21218     21225
     21222     21220     21218     21226     21223     21220     21218     21224
     21223     21220     21218     21225     21223     21220     21218     21226
     21233     21231     21229     21235     21233     21231     21229     21236
     21233     21231     21229     21237     21234     21231     21229     21235
     21234     21231     21229     21236     21234     21231     21229     21237
     21244     21242     21240     21246     21244     21242     21240     21247
     21244     21242     21240     21248     21245     21242     21240     21246
     21245     21242     21240     21247     21245     21242     21240     21248
     21255     21253     21251     21257     21255     21253     21251     21258
     21255     21253     21251     21259     21256     21253     21251     21257
     21256     21253     21251     21258     21256     21253     21251     21259
     21266     21264     21262     21268     21266     21264     21262     21269
     21266     21264     21262     21270     21267     21264     21262     21268
     21267     21264     21262     21269     21267     21264     21262     21270
     21277     21275     21273     21279     21277     21275     21273     21280
     21277     21275     21273     21281     21278     21275     21273     21279
     21278     21275     21273     21280     21278     21275     21273     21281
     21288     21286     21284     21290     21288     21286     21284     21291
     21288     21286     21284     21292     21289     21286     21284     21290
     21289     21286     21284     21291     21289     21286     21284     21292
     21299     21297     21295     21301     21299     21297     21295     21302
     21299     21297     21295     21303     21300     21297     21295     21301
     21300     21297     21295     21302     21300     21297     21295     21303
     21310     21308     21306     21312     21310     21308     21306     21313
     21310     21308     21306     21314     21311     21308     21306     21312
     21311     21308     21306     21313     21311     21308     21306     21314
     21321     21319     21317     21323     21321     21319     21317     21324
     21321     21319     21317     21325     21322     21319     21317     21323
     21322     21319     21317     21324     21322     21319     21317     21325
     21332     21330     21328     21334     21332     21330     21328     21335
     21332     21330     21328     21336     21333     21330     21328     21334
     21333     21330     21328     21335     21333     21330     21328     21336
     21343     21341     21339     21345     21343     21341     21339     21346
     21343     21341     21339     21347     21344     21341     21339     21345
     21344     21341     21339     21346     21344     21341     21339     21347
     21354     21352     21350     21356     21354     21352     21350     21357
     21354     21352     21350     21358     21355     21352     21350     21356
     21355     21352     21350     21357     21355     21352     21350     21358
     21365     21363     21361     21367     21365     21363     21361     21368
     21365     21363     21361     21369     21366     21363     21361     21367
     21366     21363     21361     21368     21366     21363     21361     21369
     21376     21374     21372     21378     21376     21374     21372     21379
     21376     21374     21372     21380     21377     21374     21372     21378
     21377     21374     21372     21379     21377     21374     21372     21380
     21387     21385     21383     21389     21387     21385     21383     21390
     21387     21385     21383     21391     21388     21385     21383     21389
     21388     21385     21383     21390     21388     21385     21383     21391
     21398     21396     21394     21400     21398     21396     21394     21401
     21398     21396     21394     21402     21399     21396     21394     21400
     21399     21396     21394     21401     21399     21396     21394     21402
     21409     21407     21405     21411     21409     21407     21405     21412
     21409     21407     21405     21413     21410     21407     21405     21411
     21410     21407     21405     21412     21410     21407     21405     21413
     21420     21418     21416     21422     21420     21418     21416     21423
     21420     21418     21416     21424     21421     21418     21416     21422
     21421     21418     21416     21423     21421     21418     21416     21424
     21431     21429     21427     21433     21431     21429     21427     21434
     21431     21429     21427     21435     21432     21429     21427     21433
     21432     21429     21427     21434     21432     21429     21427     21435
     21442     21440     21438     21444     21442     21440     21438     21445
     21442     21440     21438     21446     21443     21440     21438     21444
     21443     21440     21438     21445     21443     21440     21438     21446
     21453     21451     21449     21455     21453     21451     21449     21456
     21453     21451     21449     21457     21454     21451     21449     21455
     21454     21451     21449     21456     21454     21451     21449     21457
     21464     21462     21460     21466     21464     21462     21460     21467
     21464     21462     21460     21468     21465     21462     21460     21466
     21465     21462     21460     21467     21465     21462     21460     21468
     21475     21473     21471     21477     21475     21473     21471     21478
     21475     21473     21471     21479     21476     21473     21471     21477
     21476     21473     21471     21478     21476     21473     21471     21479
     21486     21484     21482     21488     21486     21484     21482     21489
     21486     21484     21482     21490     21487     21484     21482     21488
     21487     21484     21482     21489     21487     21484     21482     21490
     21497     21495     21493     21499     21497     21495     21493     21500
     21497     21495     21493     21501     21498     21495     21493     21499
     21498     21495     21493     21500     21498     21495     21493     21501
     21508     21506     21504     21510     21508     21506     21504     21511
     21508     21506     21504     21512     21509     21506     21504     21510
     21509     21506     21504     21511     21509     21506     21504     21512
     21519     21517     21515     21521     21519     21517     21515     21522
     21519     21517     21515     21523     21520     21517     21515     21521
     21520     21517     21515     21522     21520     21517     21515     21523
     21530     21528     21526     21532     21530     21528     21526     21533
     21530     21528     21526     21534     21531     21528     21526     21532
     21531     21528     21526     21533     21531     21528     21526     21534
     21541     21539     21537     21543     21541     21539     21537     21544
     21541     21539     21537     21545     21542     21539     21537     21543
     21542     21539     21537     21544     21542     21539     21537     21545
     21552     21550     21548     21554     21552     21550     21548     21555
     21552     21550     21548     21556     21553     21550     21548     21554
     21553     21550     21548     21555     21553     21550     21548     21556
     21563     21561     21559     21565     21563     21561     21559     21566
     21563     21561     21559     21567     21564     21561     21559     21565
     21564     21561     21559     21566     21564     21561     21559     21567
     21574     21572     21570     21576     21574     21572     21570     21577
     21574     21572     21570     21578     21575     21572     21570     21576
     21575     21572     21570     21577     21575     21572     21570     21578
     21585     21583     21581     21587     21585     21583     21581     21588
     21585     21583     21581     21589     21586     21583     21581     21587
     21586     21583     21581     21588     21586     21583     21581     21589
     21596     21594     21592     21598     21596     21594     21592     21599
     21596     21594     21592     21600     21597     21594     21592     21598
     21597     21594     21592     21599     21597     21594     21592     21600
     21607     21605     21603     21609     21607     21605     21603     21610
     21607     21605     21603     21611     21608     21605     21603     21609
     21608     21605     21603     21610     21608     21605     21603     21611
     21618     21616     21614     21620     21618     21616     21614     21621
     21618     21616     21614     21622     21619     21616     21614     21620
     21619     21616     21614     21621     21619     21616     21614     21622
     21629     21627     21625     21631     21629     21627     21625     21632
     21629     21627     21625     21633     21630     21627     21625     21631
     21630     21627     21625     21632     21630     21627     21625     21633
     21640     21638     21636     21642     21640     21638     21636     21643
     21640     21638     21636     21644     21641     21638     21636     21642
     21641     21638     21636     21643     21641     21638     21636     21644
     21651     21649     21647     21653     21651     21649     21647     21654
     21651     21649     21647     21655     21652     21649     21647     21653
     21652     21649     21647     21654     21652     21649     21647     21655
     21662     21660     21658     21664     21662     21660     21658     21665
     21662     21660     21658     21666     21663     21660     21658     21664
     21663     21660     21658     21665     21663     21660     21658     21666
     21673     21671     21669     21675     21673     21671     21669     21676
     21673     21671     21669     21677     21674     21671     21669     21675
     21674     21671     21669     21676     21674     21671     21669     21677
     21684     21682     21680     21686     21684     21682     21680     21687
     21684     21682     21680     21688     21685     21682     21680     21686
     21685     21682     21680     21687     21685     21682     21680     21688
     21695     21693     21691     21697     21695     21693     21691     21698
     21695     21693     21691     21699     21696     21693     21691     21697
     21696     21693     21691     21698     21696     21693     21691     21699
     21706     21704     21702     21708     21706     21704     21702     21709
     21706     21704     21702     21710     21707     21704     21702     21708
     21707     21704     21702     21709     21707     21704     21702     21710
     21717     21715     21713     21719     21717     21715     21713     21720
     21717     21715     21713     21721     21718     21715     21713     21719
     21718     21715     21713     21720     21718     21715     21713     21721
     21728     21726     21724     21730     21728     21726     21724     21731
     21728     21726     21724     21732     21729     21726     21724     21730
     21729     21726     21724     21731     21729     21726     21724     21732
     21739     21737     21735     21741     21739     21737     21735     21742
     21739     21737     21735     21743     21740     21737     21735     21741
     21740     21737     21735     21742     21740     21737     21735     21743
     21750     21748     21746     21752     21750     21748     21746     21753
     21750     21748     21746     21754     21751     21748     21746     21752
     21751     21748     21746     21753     21751     21748     21746     21754
     21761     21759     21757     21763     21761     21759     21757     21764
     21761     21759     21757     21765     21762     21759     21757     21763
     21762     21759     21757     21764     21762     21759     21757     21765
     21772     21770     21768     21774     21772     21770     21768     21775
     21772     21770     21768     21776     21773     21770     21768     21774
     21773     21770     21768     21775     21773     21770     21768     21776
     21783     21781     21779     21785     21783     21781     21779     21786
     21783     21781     21779     21787     21784     21781     21779     21785
     21784     21781     21779     21786     21784     21781     21779     21787
     21794     21792     21790     21796     21794     21792     21790     21797
     21794     21792     21790     21798     21795     21792     21790     21796
     21795     21792     21790     21797     21795     21792     21790     21798
     21805     21803     21801     21807     21805     21803     21801     21808
     21805     21803     21801     21809     21806     21803     21801     21807
     21806     21803     21801     21808     21806     21803     21801     21809
     21816     21814     21812     21818     21816     21814     21812     21819
     21816     21814     21812     21820     21817     21814     21812     21818
     21817     21814     21812     21819     21817     21814     21812     21820
     21827     21825     21823     21829     21827     21825     21823     21830
     21827     21825     21823     21831     21828     21825     21823     21829
     21828     21825     21823     21830     21828     21825     21823     21831
     21838     21836     21834     21840     21838     21836     21834     21841
     21838     21836     21834     21842     21839     21836     21834     21840
     21839     21836     21834     21841     21839     21836     21834     21842
     21849     21847     21845     21851     21849     21847     21845     21852
     21849     21847     21845     21853     21850     21847     21845     21851
     21850     21847     21845     21852     21850     21847     21845     21853
     21860     21858     21856     21862     21860     21858     21856     21863
     21860     21858     21856     21864     21861     21858     21856     21862
     21861     21858     21856     21863     21861     21858     21856     21864
     21871     21869     21867     21873     21871     21869     21867     21874
     21871     21869     21867     21875     21872     21869     21867     21873
     21872     21869     21867     21874     21872     21869     21867     21875
     21882     21880     21878     21884     21882     21880     21878     21885
     21882     21880     21878     21886     21883     21880     21878     21884
     21883     21880     21878     21885     21883     21880     21878     21886
     21893     21891     21889     21895     21893     21891     21889     21896
     21893     21891     21889     21897     21894     21891     21889     21895
     21894     21891     21889     21896     21894     21891     21889     21897
     21904     21902     21900     21906     21904     21902     21900     21907
     21904     21902     21900     21908     21905     21902     21900     21906
     21905     21902     21900     21907     21905     21902     21900     21908
     21915     21913     21911     21917     21915     21913     21911     21918
     21915     21913     21911     21919     21916     21913     21911     21917
     21916     21913     21911     21918     21916     21913     21911     21919
     21926     21924     21922     21928     21926     21924     21922     21929
     21926     21924     21922     21930     21927     21924     21922     21928
     21927     21924     21922     21929     21927     21924     21922     21930
     21937     21935     21933     21939     21937     21935     21933     21940
     21937     21935     21933     21941     21938     21935     21933     21939
     21938     21935     21933     21940     21938     21935     21933     21941
     21948     21946     21944     21950     21948     21946     21944     21951
     21948     21946     21944     21952     21949     21946     21944     21950
     21949     21946     21944     21951     21949     21946     21944     21952
     21959     21957     21955     21961     21959     21957     21955     21962
     21959     21957     21955     21963     21960     21957     21955     21961
     21960     21957     21955     21962     21960     21957     21955     21963
     21970     21968     21966     21972     21970     21968     21966     21973
     21970     21968     21966     21974     21971     21968     21966     21972
     21971     21968     21966     21973     21971     21968     21966     21974
     21981     21979     21977     21983     21981     21979     21977     21984
     21981     21979     21977     21985     21982     21979     21977     21983
     21982     21979     21977     21984     21982     21979     21977     21985
     21992     21990     21988     21994     21992     21990     21988     21995
     21992     21990     21988     21996     21993     21990     21988     21994
     21993     21990     21988     21995     21993     21990     21988     21996
     22003     22001     21999     22005     22003     22001     21999     22006
     22003     22001     21999     22007     22004     22001     21999     22005
     22004     22001     21999     22006     22004     22001     21999     22007
     22014     22012     22010     22016     22014     22012     22010     22017
     22014     22012     22010     22018     22015     22012     22010     22016
     22015     22012     22010     22017     22015     22012     22010     22018
     22025     22023     22021     22027     22025     22023     22021     22028
     22025     22023     22021     22029     22026     22023     22021     22027
     22026     22023     22021     22028     22026     22023     22021     22029
     22036     22034     22032     22038     22036     22034     22032     22039
     22036     22034     22032     22040     22037     22034     22032     22038
     22037     22034     22032     22039     22037     22034     22032     22040
     22047     22045     22043     22049     22047     22045     22043     22050
     22047     22045     22043     22051     22048     22045     22043     22049
     22048     22045     22043     22050     22048     22045     22043     22051
     22058     22056     22054     22060     22058     22056     22054     22061
     22058     22056     22054     22062     22059     22056     22054     22060
     22059     22056     22054     22061     22059     22056     22054     22062
     22069     22067     22065     22071     22069     22067     22065     22072
     22069     22067     22065     22073     22070     22067     22065     22071
     22070     22067     22065     22072     22070     22067     22065     22073
     22080     22078     22076     22082     22080     22078     22076     22083
     22080     22078     22076     22084     22081     22078     22076     22082
     22081     22078     22076     22083     22081     22078     22076     22084
     22091     22089     22087     22093     22091     22089     22087     22094
     22091     22089     22087     22095     22092     22089     22087     22093
     22092     22089     22087     22094     22092     22089     22087     22095
     22102     22100     22098     22104     22102     22100     22098     22105
     22102     22100     22098     22106     22103     22100     22098     22104
     22103     22100     22098     22105     22103     22100     22098     22106
     22113     22111     22109     22115     22113     22111     22109     22116
     22113     22111     22109     22117     22114     22111     22109     22115
     22114     22111     22109     22116     22114     22111     22109     22117
     22124     22122     22120     22126     22124     22122     22120     22127
     22124     22122     22120     22128     22125     22122     22120     22126
     22125     22122     22120     22127     22125     22122     22120     22128
     22135     22133     22131     22137     22135     22133     22131     22138
     22135     22133     22131     22139     22136     22133     22131     22137
     22136     22133     22131     22138     22136     22133     22131     22139
     22146     22144     22142     22148     22146     22144     22142     22149
     22146     22144     22142     22150     22147     22144     22142     22148
     22147     22144     22142     22149     22147     22144     22142     22150
     22157     22155     22153     22159     22157     22155     22153     22160
     22157     22155     22153     22161     22158     22155     22153     22159
     22158     22155     22153     22160     22158     22155     22153     22161
     22168     22166     22164     22170     22168     22166     22164     22171
     22168     22166     22164     22172     22169     22166     22164     22170
     22169     22166     22164     22171     22169     22166     22164     22172
     22179     22177     22175     22181     22179     22177     22175     22182
     22179     22177     22175     22183     22180     22177     22175     22181
     22180     22177     22175     22182     22180     22177     22175     22183
     22190     22188     22186     22192     22190     22188     22186     22193
     22190     22188     22186     22194     22191     22188     22186     22192
     22191     22188     22186     22193     22191     22188     22186     22194
     22201     22199     22197     22203     22201     22199     22197     22204
     22201     22199     22197     22205     22202     22199     22197     22203
     22202     22199     22197     22204     22202     22199     22197     22205
     22212     22210     22208     22214     22212     22210     22208     22215
     22212     22210     22208     22216     22213     22210     22208     22214
     22213     22210     22208     22215     22213     22210     22208     22216
     22223     22221     22219     22225     22223     22221     22219     22226
     22223     22221     22219     22227     22224     22221     22219     22225
     22224     22221     22219     22226     22224     22221     22219     22227
     22234     22232     22230     22236     22234     22232     22230     22237
     22234     22232     22230     22238     22235     22232     22230     22236
     22235     22232     22230     22237     22235     22232     22230     22238
     22245     22243     22241     22247     22245     22243     22241     22248
     22245     22243     22241     22249     22246     22243     22241     22247
     22246     22243     22241     22248     22246     22243     22241     22249
     22256     22254     22252     22258     22256     22254     22252     22259
     22256     22254     22252     22260     22257     22254     22252     22258
     22257     22254     22252     22259     22257     22254     22252     22260
     22267     22265     22263     22269     22267     22265     22263     22270
     22267     22265     22263     22271     22268     22265     22263     22269
     22268     22265     22263     22270     22268     22265     22263     22271
     22278     22276     22274     22280     22278     22276     22274     22281
     22278     22276     22274     22282     22279     22276     22274     22280
     22279     22276     22274     22281     22279     22276     22274     22282
     22289     22287     22285     22291     22289     22287     22285     22292
     22289     22287     22285     22293     22290     22287     22285     22291
     22290     22287     22285     22292     22290     22287     22285     22293
     22300     22298     22296     22302     22300     22298     22296     22303
     22300     22298     22296     22304     22301     22298     22296     22302
     22301     22298     22296     22303     22301     22298     22296     22304
     22311     22309     22307     22313     22311     22309     22307     22314
     22311     22309     22307     22315     22312     22309     22307     22313
     22312     22309     22307     22314     22312     22309     22307     22315
     22322     22320     22318     22324     22322     22320     22318     22325
     22322     22320     22318     22326     22323     22320     22318     22324
     22323     22320     22318     22325     22323     22320     22318     22326
     22333     22331     22329     22335     22333     22331     22329     22336
     22333     22331     22329     22337     22334     22331     22329     22335
     22334     22331     22329     22336     22334     22331     22329     22337
     22344     22342     22340     22346     22344     22342     22340     22347
     22344     22342     22340     22348     22345     22342     22340     22346
     22345     22342     22340     22347     22345     22342     22340     22348
     22355     22353     22351     22357     22355     22353     22351     22358
     22355     22353     22351     22359     22356     22353     22351     22357
     22356     22353     22351     22358     22356     22353     22351     22359
     22366     22364     22362     22368     22366     22364     22362     22369
     22366     22364     22362     22370     22367     22364     22362     22368
     22367     22364     22362     22369     22367     22364     22362     22370
     22377     22375     22373     22379     22377     22375     22373     22380
     22377     22375     22373     22381     22378     22375     22373     22379
     22378     22375     22373     22380     22378     22375     22373     22381
     22388     22386     22384     22390     22388     22386     22384     22391
     22388     22386     22384     22392     22389     22386     22384     22390
     22389     22386     22384     22391     22389     22386     22384     22392
     22399     22397     22395     22401     22399     22397     22395     22402
     22399     22397     22395     22403     22400     22397     22395     22401
     22400     22397     22395     22402     22400     22397     22395     22403
     22410     22408     22406     22412     22410     22408     22406     22413
     22410     22408     22406     22414     22411     22408     22406     22412
     22411     22408     22406     22413     22411     22408     22406     22414
     22421     22419     22417     22423     22421     22419     22417     22424
     22421     22419     22417     22425     22422     22419     22417     22423
     22422     22419     22417     22424     22422     22419     22417     22425
     22432     22430     22428     22434     22432     22430     22428     22435
     22432     22430     22428     22436     22433     22430     22428     22434
     22433     22430     22428     22435     22433     22430     22428     22436
     22443     22441     22439     22445     22443     22441     22439     22446
     22443     22441     22439     22447     22444     22441     22439     22445
     22444     22441     22439     22446     22444     22441     22439     22447
     22454     22452     22450     22456     22454     22452     22450     22457
     22454     22452     22450     22458     22455     22452     22450     22456
     22455     22452     22450     22457     22455     22452     22450     22458
     22465     22463     22461     22467     22465     22463     22461     22468
     22465     22463     22461     22469     22466     22463     22461     22467
     22466     22463     22461     22468     22466     22463     22461     22469
     22476     22474     22472     22478     22476     22474     22472     22479
     22476     22474     22472     22480     22477     22474     22472     22478
     22477     22474     22472     22479     22477     22474     22472     22480
     22487     22485     22483     22489     22487     22485     22483     22490
     22487     22485     22483     22491     22488     22485     22483     22489
     22488     22485     22483     22490     22488     22485     22483     22491
     22498     22496     22494     22500     22498     22496     22494     22501
     22498     22496     22494     22502     22499     22496     22494     22500
     22499     22496     22494     22501     22499     22496     22494     22502
     22509     22507     22505     22511     22509     22507     22505     22512
     22509     22507     22505     22513     22510     22507     22505     22511
     22510     22507     22505     22512     22510     22507     22505     22513
     22520     22518     22516     22522     22520     22518     22516     22523
     22520     22518     22516     22524     22521     22518     22516     22522
     22521     22518     22516     22523     22521     22518     22516     22524
     22531     22529     22527     22533     22531     22529     22527     22534
     22531     22529     22527     22535     22532     22529     22527     22533
     22532     22529     22527     22534     22532     22529     22527     22535
     22542     22540     22538     22544     22542     22540     22538     22545
     22542     22540     22538     22546     22543     22540     22538     22544
     22543     22540     22538     22545     22543     22540     22538     22546
     22553     22551     22549     22555     22553     22551     22549     22556
     22553     22551     22549     22557     22554     22551     22549     22555
     22554     22551     22549     22556     22554     22551     22549     22557
     22564     22562     22560     22566     22564     22562     22560     22567
     22564     22562     22560     22568     22565     22562     22560     22566
     22565     22562     22560     22567     22565     22562     22560     22568
     22575     22573     22571     22577     22575     22573     22571     22578
     22575     22573     22571     22579     22576     22573     22571     22577
     22576     22573     22571     22578     22576     22573     22571     22579
     22586     22584     22582     22588     22586     22584     22582     22589
     22586     22584     22582     22590     22587     22584     22582     22588
     22587     22584     22582     22589     22587     22584     22582     22590
     22597     22595     22593     22599     22597     22595     22593     22600
     22597     22595     22593     22601     22598     22595     22593     22599
     22598     22595     22593     22600     22598     22595     22593     22601
     22608     22606     22604     22610     22608     22606     22604     22611
     22608     22606     22604     22612     22609     22606     22604     22610
     22609     22606     22604     22611     22609     22606     22604     22612
     22619     22617     22615     22621     22619     22617     22615     22622
     22619     22617     22615     22623     22620     22617     22615     22621
     22620     22617     22615     22622     22620     22617     22615     22623
     22630     22628     22626     22632     22630     22628     22626     22633
     22630     22628     22626     22634     22631     22628     22626     22632
     22631     22628     22626     22633     22631     22628     22626     22634
     22641     22639     22637     22643     22641     22639     22637     22644
     22641     22639     22637     22645     22642     22639     22637     22643
     22642     22639     22637     22644     22642     22639     22637     22645
     22652     22650     22648     22654     22652     22650     22648     22655
     22652     22650     22648     22656     22653     22650     22648     22654
     22653     22650     22648     22655     22653     22650     22648     22656
     22663     22661     22659     22665     22663     22661     22659     22666
     22663     22661     22659     22667     22664     22661     22659     22665
     22664     22661     22659     22666     22664     22661     22659     22667
     22674     22672     22670     22676     22674     22672     22670     22677
     22674     22672     22670     22678     22675     22672     22670     22676
     22675     22672     22670     22677     22675     22672     22670     22678
     22685     22683     22681     22687     22685     22683     22681     22688
     22685     22683     22681     22689     22686     22683     22681     22687
     22686     22683     22681     22688     22686     22683     22681     22689
     22696     22694     22692     22698     22696     22694     22692     22699
     22696     22694     22692     22700     22697     22694     22692     22698
     22697     22694     22692     22699     22697     22694     22692     22700
     22707     22705     22703     22709     22707     22705     22703     22710
     22707     22705     22703     22711     22708     22705     22703     22709
     22708     22705     22703     22710     22708     22705     22703     22711
     22718     22716     22714     22720     22718     22716     22714     22721
     22718     22716     22714     22722     22719     22716     22714     22720
     22719     22716     22714     22721     22719     22716     22714     22722
     22729     22727     22725     22731     22729     22727     22725     22732
     22729     22727     22725     22733     22730     22727     22725     22731
     22730     22727     22725     22732     22730     22727     22725     22733
     22740     22738     22736     22742     22740     22738     22736     22743
     22740     22738     22736     22744     22741     22738     22736     22742
     22741     22738     22736     22743     22741     22738     22736     22744
     22751     22749     22747     22753     22751     22749     22747     22754
     22751     22749     22747     22755     22752     22749     22747     22753
     22752     22749     22747     22754     22752     22749     22747     22755
     22762     22760     22758     22764     22762     22760     22758     22765
     22762     22760     22758     22766     22763     22760     22758     22764
     22763     22760     22758     22765     22763     22760     22758     22766
     22773     22771     22769     22775     22773     22771     22769     22776
     22773     22771     22769     22777     22774     22771     22769     22775
     22774     22771     22769     22776     22774     22771     22769     22777
     22784     22782     22780     22786     22784     22782     22780     22787
     22784     22782     22780     22788     22785     22782     22780     22786
     22785     22782     22780     22787     22785     22782     22780     22788
     22795     22793     22791     22797     22795     22793     22791     22798
     22795     22793     22791     22799     22796     22793     22791     22797
     22796     22793     22791     22798     22796     22793     22791     22799
     22806     22804     22802     22808     22806     22804     22802     22809
     22806     22804     22802     22810     22807     22804     22802     22808
     22807     22804     22802     22809     22807     22804     22802     22810
     22817     22815     22813     22819     22817     22815     22813     22820
     22817     22815     22813     22821     22818     22815     22813     22819
     22818     22815     22813     22820     22818     22815     22813     22821
     22828     22826     22824     22830     22828     22826     22824     22831
     22828     22826     22824     22832     22829     22826     22824     22830
     22829     22826     22824     22831     22829     22826     22824     22832
     22839     22837     22835     22841     22839     22837     22835     22842
     22839     22837     22835     22843     22840     22837     22835     22841
     22840     22837     22835     22842     22840     22837     22835     22843
     22850     22848     22846     22852     22850     22848     22846     22853
     22850     22848     22846     22854     22851     22848     22846     22852
     22851     22848     22846     22853     22851     22848     22846     22854
     22861     22859     22857     22863     22861     22859     22857     22864
     22861     22859     22857     22865     22862     22859     22857     22863
     22862     22859     22857     22864     22862     22859     22857     22865
     22872     22870     22868     22874     22872     22870     22868     22875
     22872     22870     22868     22876     22873     22870     22868     22874
     22873     22870     22868     22875     22873     22870     22868     22876
     22883     22881     22879     22885     22883     22881     22879     22886
     22883     22881     22879     22887     22884     22881     22879     22885
     22884     22881     22879     22886     22884     22881     22879     22887
     22894     22892     22890     22896     22894     22892     22890     22897
     22894     22892     22890     22898     22895     22892     22890     22896
     22895     22892     22890     22897     22895     22892     22890     22898
     22905     22903     22901     22907     22905     22903     22901     22908
     22905     22903     22901     22909     22906     22903     22901     22907
     22906     22903     22901     22908     22906     22903     22901     22909
     22916     22914     22912     22918     22916     22914     22912     22919
     22916     22914     22912     22920     22917     22914     22912     22918
     22917     22914     22912     22919     22917     22914     22912     22920
     22927     22925     22923     22929     22927     22925     22923     22930
     22927     22925     22923     22931     22928     22925     22923     22929
     22928     22925     22923     22930     22928     22925     22923     22931
     22938     22936     22934     22940     22938     22936     22934     22941
     22938     22936     22934     22942     22939     22936     22934     22940
     22939     22936     22934     22941     22939     22936     22934     22942
     22949     22947     22945     22951     22949     22947     22945     22952
     22949     22947     22945     22953     22950     22947     22945     22951
     22950     22947     22945     22952     22950     22947     22945     22953
     22960     22958     22956     22962     22960     22958     22956     22963
     22960     22958     22956     22964     22961     22958     22956     22962
     22961     22958     22956     22963     22961     22958     22956     22964
     22971     22969     22967     22973     22971     22969     22967     22974
     22971     22969     22967     22975     22972     22969     22967     22973
     22972     22969     22967     22974     22972     22969     22967     22975
     22982     22980     22978     22984     22982     22980     22978     22985
     22982     22980     22978     22986     22983     22980     22978     22984
     22983     22980     22978     22985     22983     22980     22978     22986
     22993     22991     22989     22995     22993     22991     22989     22996
     22993     22991     22989     22997     22994     22991     22989     22995
     22994     22991     22989     22996     22994     22991     22989     22997
     23004     23002     23000     23006     23004     23002     23000     23007
     23004     23002     23000     23008     23005     23002     23000     23006
     23005     23002     23000     23007     23005     23002     23000     23008
     23015     23013     23011     23017     23015     23013     23011     23018
     23015     23013     23011     23019     23016     23013     23011     23017
     23016     23013     23011     23018     23016     23013     23011     23019
     23026     23024     23022     23028     23026     23024     23022     23029
     23026     23024     23022     23030     23027     23024     23022     23028
     23027     23024     23022     23029     23027     23024     23022     23030
     23037     23035     23033     23039     23037     23035     23033     23040
     23037     23035     23033     23041     23038     23035     23033     23039
     23038     23035     23033     23040     23038     23035     23033     23041
     23048     23046     23044     23050     23048     23046     23044     23051
     23048     23046     23044     23052     23049     23046     23044     23050
     23049     23046     23044     23051     23049     23046     23044     23052
     23059     23057     23055     23061     23059     23057     23055     23062
     23059     23057     23055     23063     23060     23057     23055     23061
     23060     23057     23055     23062     23060     23057     23055     23063
     23070     23068     23066     23072     23070     23068     23066     23073
     23070     23068     23066     23074     23071     23068     23066     23072
     23071     23068     23066     23073     23071     23068     23066     23074
     23081     23079     23077     23083     23081     23079     23077     23084
     23081     23079     23077     23085     23082     23079     23077     23083
     23082     23079     23077     23084     23082     23079     23077     23085
     23092     23090     23088     23094     23092     23090     23088     23095
     23092     23090     23088     23096     23093     23090     23088     23094
     23093     23090     23088     23095     23093     23090     23088     23096
     23103     23101     23099     23105     23103     23101     23099     23106
     23103     23101     23099     23107     23104     23101     23099     23105
     23104     23101     23099     23106     23104     23101     23099     23107
     23114     23112     23110     23116     23114     23112     23110     23117
     23114     23112     23110     23118     23115     23112     23110     23116
     23115     23112     23110     23117     23115     23112     23110     23118
     23125     23123     23121     23127     23125     23123     23121     23128
     23125     23123     23121     23129     23126     23123     23121     23127
     23126     23123     23121     23128     23126     23123     23121     23129
     23136     23134     23132     23138     23136     23134     23132     23139
     23136     23134     23132     23140     23137     23134     23132     23138
     23137     23134     23132     23139     23137     23134     23132     23140
     23147     23145     23143     23149     23147     23145     23143     23150
     23147     23145     23143     23151     23148     23145     23143     23149
     23148     23145     23143     23150     23148     23145     23143     23151
     23158     23156     23154     23160     23158     23156     23154     23161
     23158     23156     23154     23162     23159     23156     23154     23160
     23159     23156     23154     23161     23159     23156     23154     23162
     23169     23167     23165     23171     23169     23167     23165     23172
     23169     23167     23165     23173     23170     23167     23165     23171
     23170     23167     23165     23172     23170     23167     23165     23173
     23180     23178     23176     23182     23180     23178     23176     23183
     23180     23178     23176     23184     23181     23178     23176     23182
     23181     23178     23176     23183     23181     23178     23176     23184
     23191     23189     23187     23193     23191     23189     23187     23194
     23191     23189     23187     23195     23192     23189     23187     23193
     23192     23189     23187     23194     23192     23189     23187     23195
     23202     23200     23198     23204     23202     23200     23198     23205
     23202     23200     23198     23206     23203     23200     23198     23204
     23203     23200     23198     23205     23203     23200     23198     23206
     23213     23211     23209     23215     23213     23211     23209     23216
     23213     23211     23209     23217     23214     23211     23209     23215
     23214     23211     23209     23216     23214     23211     23209     23217
     23224     23222     23220     23226     23224     23222     23220     23227
     23224     23222     23220     23228     23225     23222     23220     23226
     23225     23222     23220     23227     23225     23222     23220     23228
     23235     23233     23231     23237     23235     23233     23231     23238
     23235     23233     23231     23239     23236     23233     23231     23237
     23236     23233     23231     23238     23236     23233     23231     23239
     23246     23244     23242     23248     23246     23244     23242     23249
     23246     23244     23242     23250     23247     23244     23242     23248
     23247     23244     23242     23249     23247     23244     23242     23250
     23257     23255     23253     23259     23257     23255     23253     23260
     23257     23255     23253     23261     23258     23255     23253     23259
     23258     23255     23253     23260     23258     23255     23253     23261
     23268     23266     23264     23270     23268     23266     23264     23271
     23268     23266     23264     23272     23269     23266     23264     23270
     23269     23266     23264     23271     23269     23266     23264     23272
     23279     23277     23275     23281     23279     23277     23275     23282
     23279     23277     23275     23283     23280     23277     23275     23281
     23280     23277     23275     23282     23280     23277     23275     23283
     23290     23288     23286     23292     23290     23288     23286     23293
     23290     23288     23286     23294     23291     23288     23286     23292
     23291     23288     23286     23293     23291     23288     23286     23294
     23301     23299     23297     23303     23301     23299     23297     23304
     23301     23299     23297     23305     23302     23299     23297     23303
     23302     23299     23297     23304     23302     23299     23297     23305
     23312     23310     23308     23314     23312     23310     23308     23315
     23312     23310     23308     23316     23313     23310     23308     23314
     23313     23310     23308     23315     23313     23310     23308     23316
     23323     23321     23319     23325     23323     23321     23319     23326
     23323     23321     23319     23327     23324     23321     23319     23325
     23324     23321     23319     23326     23324     23321     23319     23327
     23334     23332     23330     23336     23334     23332     23330     23337
     23334     23332     23330     23338     23335     23332     23330     23336
     23335     23332     23330     23337     23335     23332     23330     23338
     23345     23343     23341     23347     23345     23343     23341     23348
     23345     23343     23341     23349     23346     23343     23341     23347
     23346     23343     23341     23348     23346     23343     23341     23349
     23356     23354     23352     23358     23356     23354     23352     23359
     23356     23354     23352     23360     23357     23354     23352     23358
     23357     23354     23352     23359     23357     23354     23352     23360
     23367     23365     23363     23369     23367     23365     23363     23370
     23367     23365     23363     23371     23368     23365     23363     23369
     23368     23365     23363     23370     23368     23365     23363     23371
     23378     23376     23374     23380     23378     23376     23374     23381
     23378     23376     23374     23382     23379     23376     23374     23380
     23379     23376     23374     23381     23379     23376     23374     23382
     23389     23387     23385     23391     23389     23387     23385     23392
     23389     23387     23385     23393     23390     23387     23385     23391
     23390     23387     23385     23392     23390     23387     23385     23393
     23400     23398     23396     23402     23400     23398     23396     23403
     23400     23398     23396     23404     23401     23398     23396     23402
     23401     23398     23396     23403     23401     23398     23396     23404
     23411     23409     23407     23413     23411     23409     23407     23414
     23411     23409     23407     23415     23412     23409     23407     23413
     23412     23409     23407     23414     23412     23409     23407     23415
     23422     23420     23418     23424     23422     23420     23418     23425
     23422     23420     23418     23426     23423     23420     23418     23424
     23423     23420     23418     23425     23423     23420     23418     23426
     23433     23431     23429     23435     23433     23431     23429     23436
     23433     23431     23429     23437     23434     23431     23429     23435
     23434     23431     23429     23436     23434     23431     23429     23437
     23444     23442     23440     23446     23444     23442     23440     23447
     23444     23442     23440     23448     23445     23442     23440     23446
     23445     23442     23440     23447     23445     23442     23440     23448
     23455     23453     23451     23457     23455     23453     23451     23458
     23455     23453     23451     23459     23456     23453     23451     23457
     23456     23453     23451     23458     23456     23453     23451     23459
     23466     23464     23462     23468     23466     23464     23462     23469
     23466     23464     23462     23470     23467     23464     23462     23468
     23467     23464     23462     23469     23467     23464     23462     23470
     23477     23475     23473     23479     23477     23475     23473     23480
     23477     23475     23473     23481     23478     23475     23473     23479
     23478     23475     23473     23480     23478     23475     23473     23481
     23488     23486     23484     23490     23488     23486     23484     23491
     23488     23486     23484     23492     23489     23486     23484     23490
     23489     23486     23484     23491     23489     23486     23484     23492
     23499     23497     23495     23501     23499     23497     23495     23502
     23499     23497     23495     23503     23500     23497     23495     23501
     23500     23497     23495     23502     23500     23497     23495     23503
     23510     23508     23506     23512     23510     23508     23506     23513
     23510     23508     23506     23514     23511     23508     23506     23512
     23511     23508     23506     23513     23511     23508     23506     23514
     23521     23519     23517     23523     23521     23519     23517     23524
     23521     23519     23517     23525     23522     23519     23517     23523
     23522     23519     23517     23524     23522     23519     23517     23525
     23532     23530     23528     23534     23532     23530     23528     23535
     23532     23530     23528     23536     23533     23530     23528     23534
     23533     23530     23528     23535     23533     23530     23528     23536
     23543     23541     23539     23545     23543     23541     23539     23546
     23543     23541     23539     23547     23544     23541     23539     23545
     23544     23541     23539     23546     23544     23541     23539     23547
     23554     23552     23550     23556     23554     23552     23550     23557
     23554     23552     23550     23558     23555     23552     23550     23556
     23555     23552     23550     23557     23555     23552     23550     23558
     23565     23563     23561     23567     23565     23563     23561     23568
     23565     23563     23561     23569     23566     23563     23561     23567
     23566     23563     23561     23568     23566     23563     23561     23569
     23576     23574     23572     23578     23576     23574     23572     23579
     23576     23574     23572     23580     23577     23574     23572     23578
     23577     23574     23572     23579     23577     23574     23572     23580
     23587     23585     23583     23589     23587     23585     23583     23590
     23587     23585     23583     23591     23588     23585     23583     23589
     23588     23585     23583     23590     23588     23585     23583     23591
     23598     23596     23594     23600     23598     23596     23594     23601
     23598     23596     23594     23602     23599     23596     23594     23600
     23599     23596     23594     23601     23599     23596     23594     23602
     23609     23607     23605     23611     23609     23607     23605     23612
     23609     23607     23605     23613     23610     23607     23605     23611
     23610     23607     23605     23612     23610     23607     23605     23613
     23620     23618     23616     23622     23620     23618     23616     23623
     23620     23618     23616     23624     23621     23618     23616     23622
     23621     23618     23616     23623     23621     23618     23616     23624
     23631     23629     23627     23633     23631     23629     23627     23634
     23631     23629     23627     23635     23632     23629     23627     23633
     23632     23629     23627     23634     23632     23629     23627     23635
     23642     23640     23638     23644     23642     23640     23638     23645
     23642     23640     23638     23646     23643     23640     23638     23644
     23643     23640     23638     23645     23643     23640     23638     23646
     23653     23651     23649     23655     23653     23651     23649     23656
     23653     23651     23649     23657     23654     23651     23649     23655
     23654     23651     23649     23656     23654     23651     23649     23657
     23664     23662     23660     23666     23664     23662     23660     23667
     23664     23662     23660     23668     23665     23662     23660     23666
     23665     23662     23660     23667     23665     23662     23660     23668
     23675     23673     23671     23677     23675     23673     23671     23678
     23675     23673     23671     23679     23676     23673     23671     23677
     23676     23673     23671     23678     23676     23673     23671     23679
     23686     23684     23682     23688     23686     23684     23682     23689
     23686     23684     23682     23690     23687     23684     23682     23688
     23687     23684     23682     23689     23687     23684     23682     23690
     23697     23695     23693     23699     23697     23695     23693     23700
     23697     23695     23693     23701     23698     23695     23693     23699
     23698     23695     23693     23700     23698     23695     23693     23701
     23708     23706     23704     23710     23708     23706     23704     23711
     23708     23706     23704     23712     23709     23706     23704     23710
     23709     23706     23704     23711     23709     23706     23704     23712
     23719     23717     23715     23721     23719     23717     23715     23722
     23719     23717     23715     23723     23720     23717     23715     23721
     23720     23717     23715     23722     23720     23717     23715     23723
     23730     23728     23726     23732     23730     23728     23726     23733
     23730     23728     23726     23734     23731     23728     23726     23732
     23731     23728     23726     23733     23731     23728     23726     23734
     23741     23739     23737     23743     23741     23739     23737     23744
     23741     23739     23737     23745     23742     23739     23737     23743
     23742     23739     23737     23744     23742     23739     23737     23745
     23752     23750     23748     23754     23752     23750     23748     23755
     23752     23750     23748     23756     23753     23750     23748     23754
     23753     23750     23748     23755     23753     23750     23748     23756
     23763     23761     23759     23765     23763     23761     23759     23766
     23763     23761     23759     23767     23764     23761     23759     23765
     23764     23761     23759     23766     23764     23761     23759     23767
     23774     23772     23770     23776     23774     23772     23770     23777
     23774     23772     23770     23778     23775     23772     23770     23776
     23775     23772     23770     23777     23775     23772     23770     23778
     23785     23783     23781     23787     23785     23783     23781     23788
     23785     23783     23781     23789     23786     23783     23781     23787
     23786     23783     23781     23788     23786     23783     23781     23789
     23796     23794     23792     23798     23796     23794     23792     23799
     23796     23794     23792     23800     23797     23794     23792     23798
     23797     23794     23792     23799     23797     23794     23792     23800
     23807     23805     23803     23809     23807     23805     23803     23810
     23807     23805     23803     23811     23808     23805     23803     23809
     23808     23805     23803     23810     23808     23805     23803     23811
     23818     23816     23814     23820     23818     23816     23814     23821
     23818     23816     23814     23822     23819     23816     23814     23820
     23819     23816     23814     23821     23819     23816     23814     23822
     23829     23827     23825     23831     23829     23827     23825     23832
     23829     23827     23825     23833     23830     23827     23825     23831
     23830     23827     23825     23832     23830     23827     23825     23833
     23840     23838     23836     23842     23840     23838     23836     23843
     23840     23838     23836     23844     23841     23838     23836     23842
     23841     23838     23836     23843     23841     23838     23836     23844
     23851     23849     23847     23853     23851     23849     23847     23854
     23851     23849     23847     23855     23852     23849     23847     23853
     23852     23849     23847     23854     23852     23849     23847     23855
     23862     23860     23858     23864     23862     23860     23858     23865
     23862     23860     23858     23866     23863     23860     23858     23864
     23863     23860     23858     23865     23863     23860     23858     23866
     23873     23871     23869     23875     23873     23871     23869     23876
     23873     23871     23869     23877     23874     23871     23869     23875
     23874     23871     23869     23876     23874     23871     23869     23877
     23884     23882     23880     23886     23884     23882     23880     23887
     23884     23882     23880     23888     23885     23882     23880     23886
     23885     23882     23880     23887     23885     23882     23880     23888
     23895     23893     23891     23897     23895     23893     23891     23898
     23895     23893     23891     23899     23896     23893     23891     23897
     23896     23893     23891     23898     23896     23893     23891     23899
     23906     23904     23902     23908     23906     23904     23902     23909
     23906     23904     23902     23910     23907     23904     23902     23908
     23907     23904     23902     23909     23907     23904     23902     23910
     23917     23915     23913     23919     23917     23915     23913     23920
     23917     23915     23913     23921     23918     23915     23913     23919
     23918     23915     23913     23920     23918     23915     23913     23921
     23928     23926     23924     23930     23928     23926     23924     23931
     23928     23926     23924     23932     23929     23926     23924     23930
     23929     23926     23924     23931     23929     23926     23924     23932
     23939     23937     23935     23941     23939     23937     23935     23942
     23939     23937     23935     23943     23940     23937     23935     23941
     23940     23937     23935     23942     23940     23937     23935     23943
     23950     23948     23946     23952     23950     23948     23946     23953
     23950     23948     23946     23954     23951     23948     23946     23952
     23951     23948     23946     23953     23951     23948     23946     23954
     23961     23959     23957     23963     23961     23959     23957     23964
     23961     23959     23957     23965     23962     23959     23957     23963
     23962     23959     23957     23964     23962     23959     23957     23965
     23972     23970     23968     23974     23972     23970     23968     23975
     23972     23970     23968     23976     23973     23970     23968     23974
     23973     23970     23968     23975     23973     23970     23968     23976
     23983     23981     23979     23985     23983     23981     23979     23986
     23983     23981     23979     23987     23984     23981     23979     23985
     23984     23981     23979     23986     23984     23981     23979     23987
     23994     23992     23990     23996     23994     23992     23990     23997
     23994     23992     23990     23998     23995     23992     23990     23996
     23995     23992     23990     23997     23995     23992     23990     23998
     24005     24003     24001     24007     24005     24003     24001     24008
     24005     24003     24001     24009     24006     24003     24001     24007
     24006     24003     24001     24008     24006     24003     24001     24009
     24016     24014     24012     24018     24016     24014     24012     24019
     24016     24014     24012     24020     24017     24014     24012     24018
     24017     24014     24012     24019     24017     24014     24012     24020
     24027     24025     24023     24029     24027     24025     24023     24030
     24027     24025     24023     24031     24028     24025     24023     24029
     24028     24025     24023     24030     24028     24025     24023     24031
     24038     24036     24034     24040     24038     24036     24034     24041
     24038     24036     24034     24042     24039     24036     24034     24040
     24039     24036     24034     24041     24039     24036     24034     24042
     24049     24047     24045     24051     24049     24047     24045     24052
     24049     24047     24045     24053     24050     24047     24045     24051
     24050     24047     24045     24052     24050     24047     24045     24053
     24060     24058     24056     24062     24060     24058     24056     24063
     24060     24058     24056     24064     24061     24058     24056     24062
     24061     24058     24056     24063     24061     24058     24056     24064
     24071     24069     24067     24073     24071     24069     24067     24074
     24071     24069     24067     24075     24072     24069     24067     24073
     24072     24069     24067     24074     24072     24069     24067     24075
     24082     24080     24078     24084     24082     24080     24078     24085
     24082     24080     24078     24086     24083     24080     24078     24084
     24083     24080     24078     24085     24083     24080     24078     24086
     24093     24091     24089     24095     24093     24091     24089     24096
     24093     24091     24089     24097     24094     24091     24089     24095
     24094     24091     24089     24096     24094     24091     24089     24097
     24104     24102     24100     24106     24104     24102     24100     24107
     24104     24102     24100     24108     24105     24102     24100     24106
     24105     24102     24100     24107     24105     24102     24100     24108
     24115     24113     24111     24117     24115     24113     24111     24118
     24115     24113     24111     24119     24116     24113     24111     24117
     24116     24113     24111     24118     24116     24113     24111     24119
     24126     24124     24122     24128     24126     24124     24122     24129
     24126     24124     24122     24130     24127     24124     24122     24128
     24127     24124     24122     24129     24127     24124     24122     24130
     24137     24135     24133     24139     24137     24135     24133     24140
     24137     24135     24133     24141     24138     24135     24133     24139
     24138     24135     24133     24140     24138     24135     24133     24141
     24148     24146     24144     24150     24148     24146     24144     24151
     24148     24146     24144     24152     24149     24146     24144     24150
     24149     24146     24144     24151     24149     24146     24144     24152
     24159     24157     24155     24161     24159     24157     24155     24162
     24159     24157     24155     24163     24160     24157     24155     24161
     24160     24157     24155     24162     24160     24157     24155     24163
     24170     24168     24166     24172     24170     24168     24166     24173
     24170     24168     24166     24174     24171     24168     24166     24172
     24171     24168     24166     24173     24171     24168     24166     24174
     24181     24179     24177     24183     24181     24179     24177     24184
     24181     24179     24177     24185     24182     24179     24177     24183
     24182     24179     24177     24184     24182     24179     24177     24185
     24192     24190     24188     24194     24192     24190     24188     24195
     24192     24190     24188     24196     24193     24190     24188     24194
     24193     24190     24188     24195     24193     24190     24188     24196
     24203     24201     24199     24205     24203     24201     24199     24206
     24203     24201     24199     24207     24204     24201     24199     24205
     24204     24201     24199     24206     24204     24201     24199     24207
     24214     24212     24210     24216     24214     24212     24210     24217
     24214     24212     24210     24218     24215     24212     24210     24216
     24215     24212     24210     24217     24215     24212     24210     24218
     24225     24223     24221     24227     24225     24223     24221     24228
     24225     24223     24221     24229     24226     24223     24221     24227
     24226     24223     24221     24228     24226     24223     24221     24229
     24236     24234     24232     24238     24236     24234     24232     24239
     24236     24234     24232     24240     24237     24234     24232     24238
     24237     24234     24232     24239     24237     24234     24232     24240
     24247     24245     24243     24249     24247     24245     24243     24250
     24247     24245     24243     24251     24248     24245     24243     24249
     24248     24245     24243     24250     24248     24245     24243     24251
     24258     24256     24254     24260     24258     24256     24254     24261
     24258     24256     24254     24262     24259     24256     24254     24260
     24259     24256     24254     24261     24259     24256     24254     24262
     24269     24267     24265     24271     24269     24267     24265     24272
     24269     24267     24265     24273     24270     24267     24265     24271
     24270     24267     24265     24272     24270     24267     24265     24273
     24280     24278     24276     24282     24280     24278     24276     24283
     24280     24278     24276     24284     24281     24278     24276     24282
     24281     24278     24276     24283     24281     24278     24276     24284
     24291     24289     24287     24293     24291     24289     24287     24294
     24291     24289     24287     24295     24292     24289     24287     24293
     24292     24289     24287     24294     24292     24289     24287     24295
     24302     24300     24298     24304     24302     24300     24298     24305
     24302     24300     24298     24306     24303     24300     24298     24304
     24303     24300     24298     24305     24303     24300     24298     24306
     24313     24311     24309     24315     24313     24311     24309     24316
     24313     24311     24309     24317     24314     24311     24309     24315
     24314     24311     24309     24316     24314     24311     24309     24317
     24324     24322     24320     24326     24324     24322     24320     24327
     24324     24322     24320     24328     24325     24322     24320     24326
     24325     24322     24320     24327     24325     24322     24320     24328
     24335     24333     24331     24337     24335     24333     24331     24338
     24335     24333     24331     24339     24336     24333     24331     24337
     24336     24333     24331     24338     24336     24333     24331     24339
     24346     24344     24342     24348     24346     24344     24342     24349
     24346     24344     24342     24350     24347     24344     24342     24348
     24347     24344     24342     24349     24347     24344     24342     24350
     24357     24355     24353     24359     24357     24355     24353     24360
     24357     24355     24353     24361     24358     24355     24353     24359
     24358     24355     24353     24360     24358     24355     24353     24361
     24368     24366     24364     24370     24368     24366     24364     24371
     24368     24366     24364     24372     24369     24366     24364     24370
     24369     24366     24364     24371     24369     24366     24364     24372
     24379     24377     24375     24381     24379     24377     24375     24382
     24379     24377     24375     24383     24380     24377     24375     24381
     24380     24377     24375     24382     24380     24377     24375     24383
     24390     24388     24386     24392     24390     24388     24386     24393
     24390     24388     24386     24394     24391     24388     24386     24392
     24391     24388     24386     24393     24391     24388     24386     24394
     24401     24399     24397     24403     24401     24399     24397     24404
     24401     24399     24397     24405     24402     24399     24397     24403
     24402     24399     24397     24404     24402     24399     24397     24405
     24412     24410     24408     24414     24412     24410     24408     24415
     24412     24410     24408     24416     24413     24410     24408     24414
     24413     24410     24408     24415     24413     24410     24408     24416
     24423     24421     24419     24425     24423     24421     24419     24426
     24423     24421     24419     24427     24424     24421     24419     24425
     24424     24421     24419     24426     24424     24421     24419     24427
     24434     24432     24430     24436     24434     24432     24430     24437
     24434     24432     24430     24438     24435     24432     24430     24436
     24435     24432     24430     24437     24435     24432     24430     24438
     24445     24443     24441     24447     24445     24443     24441     24448
     24445     24443     24441     24449     24446     24443     24441     24447
     24446     24443     24441     24448     24446     24443     24441     24449
     24456     24454     24452     24458     24456     24454     24452     24459
     24456     24454     24452     24460     24457     24454     24452     24458
     24457     24454     24452     24459     24457     24454     24452     24460
     24467     24465     24463     24469     24467     24465     24463     24470
     24467     24465     24463     24471     24468     24465     24463     24469
     24468     24465     24463     24470     24468     24465     24463     24471
     24478     24476     24474     24480     24478     24476     24474     24481
     24478     24476     24474     24482     24479     24476     24474     24480
     24479     24476     24474     24481     24479     24476     24474     24482
     24489     24487     24485     24491     24489     24487     24485     24492
     24489     24487     24485     24493     24490     24487     24485     24491
     24490     24487     24485     24492     24490     24487     24485     24493
     24500     24498     24496     24502     24500     24498     24496     24503
     24500     24498     24496     24504     24501     24498     24496     24502
     24501     24498     24496     24503     24501     24498     24496     24504
     24511     24509     24507     24513     24511     24509     24507     24514
     24511     24509     24507     24515     24512     24509     24507     24513
     24512     24509     24507     24514     24512     24509     24507     24515
     24522     24520     24518     24524     24522     24520     24518     24525
     24522     24520     24518     24526     24523     24520     24518     24524
     24523     24520     24518     24525     24523     24520     24518     24526
     24533     24531     24529     24535     24533     24531     24529     24536
     24533     24531     24529     24537     24534     24531     24529     24535
     24534     24531     24529     24536     24534     24531     24529     24537
     24544     24542     24540     24546     24544     24542     24540     24547
     24544     24542     24540     24548     24545     24542     24540     24546
     24545     24542     24540     24547     24545     24542     24540     24548
     24555     24553     24551     24557     24555     24553     24551     24558
     24555     24553     24551     24559     24556     24553     24551     24557
     24556     24553     24551     24558     24556     24553     24551     24559
     24566     24564     24562     24568     24566     24564     24562     24569
     24566     24564     24562     24570     24567     24564     24562     24568
     24567     24564     24562     24569     24567     24564     24562     24570
     24577     24575     24573     24579     24577     24575     24573     24580
     24577     24575     24573     24581     24578     24575     24573     24579
     24578     24575     24573     24580     24578     24575     24573     24581
     24588     24586     24584     24590     24588     24586     24584     24591
     24588     24586     24584     24592     24589     24586     24584     24590
     24589     24586     24584     24591     24589     24586     24584     24592
     24599     24597     24595     24601     24599     24597     24595     24602
     24599     24597     24595     24603     24600     24597     24595     24601
     24600     24597     24595     24602     24600     24597     24595     24603
     24610     24608     24606     24612     24610     24608     24606     24613
     24610     24608     24606     24614     24611     24608     24606     24612
     24611     24608     24606     24613     24611     24608     24606     24614
     24621     24619     24617     24623     24621     24619     24617     24624
     24621     24619     24617     24625     24622     24619     24617     24623
     24622     24619     24617     24624     24622     24619     24617     24625
     24632     24630     24628     24634     24632     24630     24628     24635
     24632     24630     24628     24636     24633     24630     24628     24634
     24633     24630     24628     24635     24633     24630     24628     24636
     24643     24641     24639     24645     24643     24641     24639     24646
     24643     24641     24639     24647     24644     24641     24639     24645
     24644     24641     24639     24646     24644     24641     24639     24647
     24654     24652     24650     24656     24654     24652     24650     24657
     24654     24652     24650     24658     24655     24652     24650     24656
     24655     24652     24650     24657     24655     24652     24650     24658
     24665     24663     24661     24667     24665     24663     24661     24668
     24665     24663     24661     24669     24666     24663     24661     24667
     24666     24663     24661     24668     24666     24663     24661     24669
     24676     24674     24672     24678     24676     24674     24672     24679
     24676     24674     24672     24680     24677     24674     24672     24678
     24677     24674     24672     24679     24677     24674     24672     24680
     24687     24685     24683     24689     24687     24685     24683     24690
     24687     24685     24683     24691     24688     24685     24683     24689
     24688     24685     24683     24690     24688     24685     24683     24691
     24698     24696     24694     24700     24698     24696     24694     24701
     24698     24696     24694     24702     24699     24696     24694     24700
     24699     24696     24694     24701     24699     24696     24694     24702
     24709     24707     24705     24711     24709     24707     24705     24712
     24709     24707     24705     24713     24710     24707     24705     24711
     24710     24707     24705     24712     24710     24707     24705     24713
     24720     24718     24716     24722     24720     24718     24716     24723
     24720     24718     24716     24724     24721     24718     24716     24722
     24721     24718     24716     24723     24721     24718     24716     24724
     24731     24729     24727     24733     24731     24729     24727     24734
     24731     24729     24727     24735     24732     24729     24727     24733
     24732     24729     24727     24734     24732     24729     24727     24735
     24742     24740     24738     24744     24742     24740     24738     24745
     24742     24740     24738     24746     24743     24740     24738     24744
     24743     24740     24738     24745     24743     24740     24738     24746
     24753     24751     24749     24755     24753     24751     24749     24756
     24753     24751     24749     24757     24754     24751     24749     24755
     24754     24751     24749     24756     24754     24751     24749     24757
     24764     24762     24760     24766     24764     24762     24760     24767
     24764     24762     24760     24768     24765     24762     24760     24766
     24765     24762     24760     24767     24765     24762     24760     24768
     24775     24773     24771     24777     24775     24773     24771     24778
     24775     24773     24771     24779     24776     24773     24771     24777
     24776     24773     24771     24778     24776     24773     24771     24779
     24786     24784     24782     24788     24786     24784     24782     24789
     24786     24784     24782     24790     24787     24784     24782     24788
     24787     24784     24782     24789     24787     24784     24782     24790
     24797     24795     24793     24799     24797     24795     24793     24800
     24797     24795     24793     24801     24798     24795     24793     24799
     24798     24795     24793     24800     24798     24795     24793     24801
     24808     24806     24804     24810     24808     24806     24804     24811
     24808     24806     24804     24812     24809     24806     24804     24810
     24809     24806     24804     24811     24809     24806     24804     24812
     24819     24817     24815     24821     24819     24817     24815     24822
     24819     24817     24815     24823     24820     24817     24815     24821
     24820     24817     24815     24822     24820     24817     24815     24823
     24830     24828     24826     24832     24830     24828     24826     24833
     24830     24828     24826     24834     24831     24828     24826     24832
     24831     24828     24826     24833     24831     24828     24826     24834
     24841     24839     24837     24843     24841     24839     24837     24844
     24841     24839     24837     24845     24842     24839     24837     24843
     24842     24839     24837     24844     24842     24839     24837     24845
     24852     24850     24848     24854     24852     24850     24848     24855
     24852     24850     24848     24856     24853     24850     24848     24854
     24853     24850     24848     24855     24853     24850     24848     24856
     24863     24861     24859     24865     24863     24861     24859     24866
     24863     24861     24859     24867     24864     24861     24859     24865
     24864     24861     24859     24866     24864     24861     24859     24867
     24874     24872     24870     24876     24874     24872     24870     24877
     24874     24872     24870     24878     24875     24872     24870     24876
     24875     24872     24870     24877     24875     24872     24870     24878
     24885     24883     24881     24887     24885     24883     24881     24888
     24885     24883     24881     24889     24886     24883     24881     24887
     24886     24883     24881     24888     24886     24883     24881     24889
     24896     24894     24892     24898     24896     24894     24892     24899
     24896     24894     24892     24900     24897     24894     24892     24898
     24897     24894     24892     24899     24897     24894     24892     24900
     24907     24905     24903     24909     24907     24905     24903     24910
     24907     24905     24903     24911     24908     24905     24903     24909
     24908     24905     24903     24910     24908     24905     24903     24911
     24918     24916     24914     24920     24918     24916     24914     24921
     24918     24916     24914     24922     24919     24916     24914     24920
     24919     24916     24914     24921     24919     24916     24914     24922
     24929     24927     24925     24931     24929     24927     24925     24932
     24929     24927     24925     24933     24930     24927     24925     24931
     24930     24927     24925     24932     24930     24927     24925     24933
     24940     24938     24936     24942     24940     24938     24936     24943
     24940     24938     24936     24944     24941     24938     24936     24942
     24941     24938     24936     24943     24941     24938     24936     24944
     24951     24949     24947     24953     24951     24949     24947     24954
     24951     24949     24947     24955     24952     24949     24947     24953
     24952     24949     24947     24954     24952     24949     24947     24955
     24962     24960     24958     24964     24962     24960     24958     24965
     24962     24960     24958     24966     24963     24960     24958     24964
     24963     24960     24958     24965     24963     24960     24958     24966
     24973     24971     24969     24975     24973     24971     24969     24976
     24973     24971     24969     24977     24974     24971     24969     24975
     24974     24971     24969     24976     24974     24971     24969     24977
     24984     24982     24980     24986     24984     24982     24980     24987
     24984     24982     24980     24988     24985     24982     24980     24986
     24985     24982     24980     24987     24985     24982     24980     24988
     24995     24993     24991     24997     24995     24993     24991     24998
     24995     24993     24991     24999     24996     24993     24991     24997
     24996     24993     24991     24998     24996     24993     24991     24999
     25006     25004     25002     25008     25006     25004     25002     25009
     25006     25004     25002     25010     25007     25004     25002     25008
     25007     25004     25002     25009     25007     25004     25002     25010
     25017     25015     25013     25019     25017     25015     25013     25020
     25017     25015     25013     25021     25018     25015     25013     25019
     25018     25015     25013     25020     25018     25015     25013     25021
     25028     25026     25024     25030     25028     25026     25024     25031
     25028     25026     25024     25032     25029     25026     25024     25030
     25029     25026     25024     25031     25029     25026     25024     25032
     25039     25037     25035     25041     25039     25037     25035     25042
     25039     25037     25035     25043     25040     25037     25035     25041
     25040     25037     25035     25042     25040     25037     25035     25043
     25050     25048     25046     25052     25050     25048     25046     25053
     25050     25048     25046     25054     25051     25048     25046     25052
     25051     25048     25046     25053     25051     25048     25046     25054
     25061     25059     25057     25063     25061     25059     25057     25064
     25061     25059     25057     25065     25062     25059     25057     25063
     25062     25059     25057     25064     25062     25059     25057     25065
     25072     25070     25068     25074     25072     25070     25068     25075
     25072     25070     25068     25076     25073     25070     25068     25074
     25073     25070     25068     25075     25073     25070     25068     25076
     25083     25081     25079     25085     25083     25081     25079     25086
     25083     25081     25079     25087     25084     25081     25079     25085
     25084     25081     25079     25086     25084     25081     25079     25087
     25094     25092     25090     25096     25094     25092     25090     25097
     25094     25092     25090     25098     25095     25092     25090     25096
     25095     25092     25090     25097     25095     25092     25090     25098
     25105     25103     25101     25107     25105     25103     25101     25108
     25105     25103     25101     25109     25106     25103     25101     25107
     25106     25103     25101     25108     25106     25103     25101     25109
     25116     25114     25112     25118     25116     25114     25112     25119
     25116     25114     25112     25120     25117     25114     25112     25118
     25117     25114     25112     25119     25117     25114     25112     25120
     25127     25125     25123     25129     25127     25125     25123     25130
     25127     25125     25123     25131     25128     25125     25123     25129
     25128     25125     25123     25130     25128     25125     25123     25131
     25138     25136     25134     25140     25138     25136     25134     25141
     25138     25136     25134     25142     25139     25136     25134     25140
     25139     25136     25134     25141     25139     25136     25134     25142
     25149     25147     25145     25151     25149     25147     25145     25152
     25149     25147     25145     25153     25150     25147     25145     25151
     25150     25147     25145     25152     25150     25147     25145     25153
     25160     25158     25156     25162     25160     25158     25156     25163
     25160     25158     25156     25164     25161     25158     25156     25162
     25161     25158     25156     25163     25161     25158     25156     25164
     25171     25169     25167     25173     25171     25169     25167     25174
     25171     25169     25167     25175     25172     25169     25167     25173
     25172     25169     25167     25174     25172     25169     25167     25175
     25182     25180     25178     25184     25182     25180     25178     25185
     25182     25180     25178     25186     25183     25180     25178     25184
     25183     25180     25178     25185     25183     25180     25178     25186
     25193     25191     25189     25195     25193     25191     25189     25196
     25193     25191     25189     25197     25194     25191     25189     25195
     25194     25191     25189     25196     25194     25191     25189     25197
     25204     25202     25200     25206     25204     25202     25200     25207
     25204     25202     25200     25208     25205     25202     25200     25206
     25205     25202     25200     25207     25205     25202     25200     25208
     25215     25213     25211     25217     25215     25213     25211     25218
     25215     25213     25211     25219     25216     25213     25211     25217
     25216     25213     25211     25218     25216     25213     25211     25219
     25226     25224     25222     25228     25226     25224     25222     25229
     25226     25224     25222     25230     25227     25224     25222     25228
     25227     25224     25222     25229     25227     25224     25222     25230
     25237     25235     25233     25239     25237     25235     25233     25240
     25237     25235     25233     25241     25238     25235     25233     25239
     25238     25235     25233     25240     25238     25235     25233     25241
     25248     25246     25244     25250     25248     25246     25244     25251
     25248     25246     25244     25252     25249     25246     25244     25250
     25249     25246     25244     25251     25249     25246     25244     25252
     25259     25257     25255     25261     25259     25257     25255     25262
     25259     25257     25255     25263     25260     25257     25255     25261
     25260     25257     25255     25262     25260     25257     25255     25263
     25270     25268     25266     25272     25270     25268     25266     25273
     25270     25268     25266     25274     25271     25268     25266     25272
     25271     25268     25266     25273     25271     25268     25266     25274
     25281     25279     25277     25283     25281     25279     25277     25284
     25281     25279     25277     25285     25282     25279     25277     25283
     25282     25279     25277     25284     25282     25279     25277     25285
     25292     25290     25288     25294     25292     25290     25288     25295
     25292     25290     25288     25296     25293     25290     25288     25294
     25293     25290     25288     25295     25293     25290     25288     25296
     25303     25301     25299     25305     25303     25301     25299     25306
     25303     25301     25299     25307     25304     25301     25299     25305
     25304     25301     25299     25306     25304     25301     25299     25307
     25314     25312     25310     25316     25314     25312     25310     25317
     25314     25312     25310     25318     25315     25312     25310     25316
     25315     25312     25310     25317     25315     25312     25310     25318
     25325     25323     25321     25327     25325     25323     25321     25328
     25325     25323     25321     25329     25326     25323     25321     25327
     25326     25323     25321     25328     25326     25323     25321     25329
     25336     25334     25332     25338     25336     25334     25332     25339
     25336     25334     25332     25340     25337     25334     25332     25338
     25337     25334     25332     25339     25337     25334     25332     25340
     25347     25345     25343     25349     25347     25345     25343     25350
     25347     25345     25343     25351     25348     25345     25343     25349
     25348     25345     25343     25350     25348     25345     25343     25351
     25358     25356     25354     25360     25358     25356     25354     25361
     25358     25356     25354     25362     25359     25356     25354     25360
     25359     25356     25354     25361     25359     25356     25354     25362
     25369     25367     25365     25371     25369     25367     25365     25372
     25369     25367     25365     25373     25370     25367     25365     25371
     25370     25367     25365     25372     25370     25367     25365     25373
     25380     25378     25376     25382     25380     25378     25376     25383
     25380     25378     25376     25384     25381     25378     25376     25382
     25381     25378     25376     25383     25381     25378     25376     25384
     25391     25389     25387     25393     25391     25389     25387     25394
     25391     25389     25387     25395     25392     25389     25387     25393
     25392     25389     25387     25394     25392     25389     25387     25395
     25402     25400     25398     25404     25402     25400     25398     25405
     25402     25400     25398     25406     25403     25400     25398     25404
     25403     25400     25398     25405     25403     25400     25398     25406
     25413     25411     25409     25415     25413     25411     25409     25416
     25413     25411     25409     25417     25414     25411     25409     25415
     25414     25411     25409     25416     25414     25411     25409     25417
     25424     25422     25420     25426     25424     25422     25420     25427
     25424     25422     25420     25428     25425     25422     25420     25426
     25425     25422     25420     25427     25425     25422     25420     25428
     25435     25433     25431     25437     25435     25433     25431     25438
     25435     25433     25431     25439     25436     25433     25431     25437
     25436     25433     25431     25438     25436     25433     25431     25439
     25446     25444     25442     25448     25446     25444     25442     25449
     25446     25444     25442     25450     25447     25444     25442     25448
     25447     25444     25442     25449     25447     25444     25442     25450
     25457     25455     25453     25459     25457     25455     25453     25460
     25457     25455     25453     25461     25458     25455     25453     25459
     25458     25455     25453     25460     25458     25455     25453     25461
     25468     25466     25464     25470     25468     25466     25464     25471
     25468     25466     25464     25472     25469     25466     25464     25470
     25469     25466     25464     25471     25469     25466     25464     25472
     25479     25477     25475     25481     25479     25477     25475     25482
     25479     25477     25475     25483     25480     25477     25475     25481
     25480     25477     25475     25482     25480     25477     25475     25483
     25490     25488     25486     25492     25490     25488     25486     25493
     25490     25488     25486     25494     25491     25488     25486     25492
     25491     25488     25486     25493     25491     25488     25486     25494
     25501     25499     25497     25503     25501     25499     25497     25504
     25501     25499     25497     25505     25502     25499     25497     25503
     25502     25499     25497     25504     25502     25499     25497     25505
     25512     25510     25508     25514     25512     25510     25508     25515
     25512     25510     25508     25516     25513     25510     25508     25514
     25513     25510     25508     25515     25513     25510     25508     25516
     25523     25521     25519     25525     25523     25521     25519     25526
     25523     25521     25519     25527     25524     25521     25519     25525
     25524     25521     25519     25526     25524     25521     25519     25527
     25534     25532     25530     25536     25534     25532     25530     25537
     25534     25532     25530     25538     25535     25532     25530     25536
     25535     25532     25530     25537     25535     25532     25530     25538
     25545     25543     25541     25547     25545     25543     25541     25548
     25545     25543     25541     25549     25546     25543     25541     25547
     25546     25543     25541     25548     25546     25543     25541     25549
     25556     25554     25552     25558     25556     25554     25552     25559
     25556     25554     25552     25560     25557     25554     25552     25558
     25557     25554     25552     25559     25557     25554     25552     25560
     25567     25565     25563     25569     25567     25565     25563     25570
     25567     25565     25563     25571     25568     25565     25563     25569
     25568     25565     25563     25570     25568     25565     25563     25571
     25578     25576     25574     25580     25578     25576     25574     25581
     25578     25576     25574     25582     25579     25576     25574     25580
     25579     25576     25574     25581     25579     25576     25574     25582
     25589     25587     25585     25591     25589     25587     25585     25592
     25589     25587     25585     25593     25590     25587     25585     25591
     25590     25587     25585     25592     25590     25587     25585     25593
     25600     25598     25596     25602     25600     25598     25596     25603
     25600     25598     25596     25604     25601     25598     25596     25602
     25601     25598     25596     25603     25601     25598     25596     25604
     25611     25609     25607     25613     25611     25609     25607     25614
     25611     25609     25607     25615     25612     25609     25607     25613
     25612     25609     25607     25614     25612     25609     25607     25615
     25622     25620     25618     25624     25622     25620     25618     25625
     25622     25620     25618     25626     25623     25620     25618     25624
     25623     25620     25618     25625     25623     25620     25618     25626
     25633     25631     25629     25635     25633     25631     25629     25636
     25633     25631     25629     25637     25634     25631     25629     25635
     25634     25631     25629     25636     25634     25631     25629     25637
     25644     25642     25640     25646     25644     25642     25640     25647
     25644     25642     25640     25648     25645     25642     25640     25646
     25645     25642     25640     25647     25645     25642     25640     25648
     25655     25653     25651     25657     25655     25653     25651     25658
     25655     25653     25651     25659     25656     25653     25651     25657
     25656     25653     25651     25658     25656     25653     25651     25659
     25666     25664     25662     25668     25666     25664     25662     25669
     25666     25664     25662     25670     25667     25664     25662     25668
     25667     25664     25662     25669     25667     25664     25662     25670
     25677     25675     25673     25679     25677     25675     25673     25680
     25677     25675     25673     25681     25678     25675     25673     25679
     25678     25675     25673     25680     25678     25675     25673     25681
     25688     25686     25684     25690     25688     25686     25684     25691
     25688     25686     25684     25692     25689     25686     25684     25690
     25689     25686     25684     25691     25689     25686     25684     25692
     25699     25697     25695     25701     25699     25697     25695     25702
     25699     25697     25695     25703     25700     25697     25695     25701
     25700     25697     25695     25702     25700     25697     25695     25703
     25710     25708     25706     25712     25710     25708     25706     25713
     25710     25708     25706     25714     25711     25708     25706     25712
     25711     25708     25706     25713     25711     25708     25706     25714
     25721     25719     25717     25723     25721     25719     25717     25724
     25721     25719     25717     25725     25722     25719     25717     25723
     25722     25719     25717     25724     25722     25719     25717     25725
     25732     25730     25728     25734     25732     25730     25728     25735
     25732     25730     25728     25736     25733     25730     25728     25734
     25733     25730     25728     25735     25733     25730     25728     25736
     25743     25741     25739     25745     25743     25741     25739     25746
     25743     25741     25739     25747     25744     25741     25739     25745
     25744     25741     25739     25746     25744     25741     25739     25747
     25754     25752     25750     25756     25754     25752     25750     25757
     25754     25752     25750     25758     25755     25752     25750     25756
     25755     25752     25750     25757     25755     25752     25750     25758
     25765     25763     25761     25767     25765     25763     25761     25768
     25765     25763     25761     25769     25766     25763     25761     25767
     25766     25763     25761     25768     25766     25763     25761     25769
     25776     25774     25772     25778     25776     25774     25772     25779
     25776     25774     25772     25780     25777     25774     25772     25778
     25777     25774     25772     25779     25777     25774     25772     25780
     25787     25785     25783     25789     25787     25785     25783     25790
     25787     25785     25783     25791     25788     25785     25783     25789
     25788     25785     25783     25790     25788     25785     25783     25791
     25798     25796     25794     25800     25798     25796     25794     25801
     25798     25796     25794     25802     25799     25796     25794     25800
     25799     25796     25794     25801     25799     25796     25794     25802
     25809     25807     25805     25811     25809     25807     25805     25812
     25809     25807     25805     25813     25810     25807     25805     25811
     25810     25807     25805     25812     25810     25807     25805     25813
     25820     25818     25816     25822     25820     25818     25816     25823
     25820     25818     25816     25824     25821     25818     25816     25822
     25821     25818     25816     25823     25821     25818     25816     25824
     25831     25829     25827     25833     25831     25829     25827     25834
     25831     25829     25827     25835     25832     25829     25827     25833
     25832     25829     25827     25834     25832     25829     25827     25835
     25842     25840     25838     25844     25842     25840     25838     25845
     25842     25840     25838     25846     25843     25840     25838     25844
     25843     25840     25838     25845     25843     25840     25838     25846
     25853     25851     25849     25855     25853     25851     25849     25856
     25853     25851     25849     25857     25854     25851     25849     25855
     25854     25851     25849     25856     25854     25851     25849     25857
     25864     25862     25860     25866     25864     25862     25860     25867
     25864     25862     25860     25868     25865     25862     25860     25866
     25865     25862     25860     25867     25865     25862     25860     25868
     25875     25873     25871     25877     25875     25873     25871     25878
     25875     25873     25871     25879     25876     25873     25871     25877
     25876     25873     25871     25878     25876     25873     25871     25879
     25886     25884     25882     25888     25886     25884     25882     25889
     25886     25884     25882     25890     25887     25884     25882     25888
     25887     25884     25882     25889     25887     25884     25882     25890
     25897     25895     25893     25899     25897     25895     25893     25900
     25897     25895     25893     25901     25898     25895     25893     25899
     25898     25895     25893     25900     25898     25895     25893     25901
     25908     25906     25904     25910     25908     25906     25904     25911
     25908     25906     25904     25912     25909     25906     25904     25910
     25909     25906     25904     25911     25909     25906     25904     25912
     25919     25917     25915     25921     25919     25917     25915     25922
     25919     25917     25915     25923     25920     25917     25915     25921
     25920     25917     25915     25922     25920     25917     25915     25923
     25930     25928     25926     25932     25930     25928     25926     25933
     25930     25928     25926     25934     25931     25928     25926     25932
     25931     25928     25926     25933     25931     25928     25926     25934
     25941     25939     25937     25943     25941     25939     25937     25944
     25941     25939     25937     25945     25942     25939     25937     25943
     25942     25939     25937     25944     25942     25939     25937     25945
     25952     25950     25948     25954     25952     25950     25948     25955
     25952     25950     25948     25956     25953     25950     25948     25954
     25953     25950     25948     25955     25953     25950     25948     25956
     25963     25961     25959     25965     25963     25961     25959     25966
     25963     25961     25959     25967     25964     25961     25959     25965
     25964     25961     25959     25966     25964     25961     25959     25967
     25974     25972     25970     25976     25974     25972     25970     25977
     25974     25972     25970     25978     25975     25972     25970     25976
     25975     25972     25970     25977     25975     25972     25970     25978
     25985     25983     25981     25987     25985     25983     25981     25988
     25985     25983     25981     25989     25986     25983     25981     25987
     25986     25983     25981     25988     25986     25983     25981     25989
     25996     25994     25992     25998     25996     25994     25992     25999
     25996     25994     25992     26000     25997     25994     25992     25998
     25997     25994     25992     25999     25997     25994     25992     26000
     26007     26005     26003     26009     26007     26005     26003     26010
     26007     26005     26003     26011     26008     26005     26003     26009
     26008     26005     26003     26010     26008     26005     26003     26011
     26018     26016     26014     26020     26018     26016     26014     26021
     26018     26016     26014     26022     26019     26016     26014     26020
     26019     26016     26014     26021     26019     26016     26014     26022
     26029     26027     26025     26031     26029     26027     26025     26032
     26029     26027     26025     26033     26030     26027     26025     26031
     26030     26027     26025     26032     26030     26027     26025     26033
     26040     26038     26036     26042     26040     26038     26036     26043
     26040     26038     26036     26044     26041     26038     26036     26042
     26041     26038     26036     26043     26041     26038     26036     26044
     26051     26049     26047     26053     26051     26049     26047     26054
     26051     26049     26047     26055     26052     26049     26047     26053
     26052     26049     26047     26054     26052     26049     26047     26055
     26062     26060     26058     26064     26062     26060     26058     26065
     26062     26060     26058     26066     26063     26060     26058     26064
     26063     26060     26058     26065     26063     26060     26058     26066
     26073     26071     26069     26075     26073     26071     26069     26076
     26073     26071     26069     26077     26074     26071     26069     26075
     26074     26071     26069     26076     26074     26071     26069     26077
     26084     26082     26080     26086     26084     26082     26080     26087
     26084     26082     26080     26088     26085     26082     26080     26086
     26085     26082     26080     26087     26085     26082     26080     26088
     26095     26093     26091     26097     26095     26093     26091     26098
     26095     26093     26091     26099     26096     26093     26091     26097
     26096     26093     26091     26098     26096     26093     26091     26099
     26106     26104     26102     26108     26106     26104     26102     26109
     26106     26104     26102     26110     26107     26104     26102     26108
     26107     26104     26102     26109     26107     26104     26102     26110
     26117     26115     26113     26119     26117     26115     26113     26120
     26117     26115     26113     26121     26118     26115     26113     26119
     26118     26115     26113     26120     26118     26115     26113     26121
     26128     26126     26124     26130     26128     26126     26124     26131
     26128     26126     26124     26132     26129     26126     26124     26130
     26129     26126     26124     26131     26129     26126     26124     26132
     26139     26137     26135     26141     26139     26137     26135     26142
     26139     26137     26135     26143     26140     26137     26135     26141
     26140     26137     26135     26142     26140     26137     26135     26143
     26150     26148     26146     26152     26150     26148     26146     26153
     26150     26148     26146     26154     26151     26148     26146     26152
     26151     26148     26146     26153     26151     26148     26146     26154
     26161     26159     26157     26163     26161     26159     26157     26164
     26161     26159     26157     26165     26162     26159     26157     26163
     26162     26159     26157     26164     26162     26159     26157     26165
     26172     26170     26168     26174     26172     26170     26168     26175
     26172     26170     26168     26176     26173     26170     26168     26174
     26173     26170     26168     26175     26173     26170     26168     26176
     26183     26181     26179     26185     26183     26181     26179     26186
     26183     26181     26179     26187     26184     26181     26179     26185
     26184     26181     26179     26186     26184     26181     26179     26187
     26194     26192     26190     26196     26194     26192     26190     26197
     26194     26192     26190     26198     26195     26192     26190     26196
     26195     26192     26190     26197     26195     26192     26190     26198
     26205     26203     26201     26207     26205     26203     26201     26208
     26205     26203     26201     26209     26206     26203     26201     26207
     26206     26203     26201     26208     26206     26203     26201     26209
     26216     26214     26212     26218     26216     26214     26212     26219
     26216     26214     26212     26220     26217     26214     26212     26218
     26217     26214     26212     26219     26217     26214     26212     26220
     26227     26225     26223     26229     26227     26225     26223     26230
     26227     26225     26223     26231     26228     26225     26223     26229
     26228     26225     26223     26230     26228     26225     26223     26231
     26238     26236     26234     26240     26238     26236     26234     26241
     26238     26236     26234     26242     26239     26236     26234     26240
     26239     26236     26234     26241     26239     26236     26234     26242
     26249     26247     26245     26251     26249     26247     26245     26252
     26249     26247     26245     26253     26250     26247     26245     26251
     26250     26247     26245     26252     26250     26247     26245     26253
     26260     26258     26256     26262     26260     26258     26256     26263
     26260     26258     26256     26264     26261     26258     26256     26262
     26261     26258     26256     26263     26261     26258     26256     26264
     26271     26269     26267     26273     26271     26269     26267     26274
     26271     26269     26267     26275     26272     26269     26267     26273
     26272     26269     26267     26274     26272     26269     26267     26275
     26282     26280     26278     26284     26282     26280     26278     26285
     26282     26280     26278     26286     26283     26280     26278     26284
     26283     26280     26278     26285     26283     26280     26278     26286
     26293     26291     26289     26295     26293     26291     26289     26296
     26293     26291     26289     26297     26294     26291     26289     26295
     26294     26291     26289     26296     26294     26291     26289     26297
     26304     26302     26300     26306     26304     26302     26300     26307
     26304     26302     26300     26308     26305     26302     26300     26306
     26305     26302     26300     26307     26305     26302     26300     26308
     26315     26313     26311     26317     26315     26313     26311     26318
     26315     26313     26311     26319     26316     26313     26311     26317
     26316     26313     26311     26318     26316     26313     26311     26319
     26326     26324     26322     26328     26326     26324     26322     26329
     26326     26324     26322     26330     26327     26324     26322     26328
     26327     26324     26322     26329     26327     26324     26322     26330
     26337     26335     26333     26339     26337     26335     26333     26340
     26337     26335     26333     26341     26338     26335     26333     26339
     26338     26335     26333     26340     26338     26335     26333     26341
     26348     26346     26344     26350     26348     26346     26344     26351
     26348     26346     26344     26352     26349     26346     26344     26350
     26349     26346     26344     26351     26349     26346     26344     26352
     26359     26357     26355     26361     26359     26357     26355     26362
     26359     26357     26355     26363     26360     26357     26355     26361
     26360     26357     26355     26362     26360     26357     26355     26363
     26370     26368     26366     26372     26370     26368     26366     26373
     26370     26368     26366     26374     26371     26368     26366     26372
     26371     26368     26366     26373     26371     26368     26366     26374
     26381     26379     26377     26383     26381     26379     26377     26384
     26381     26379     26377     26385     26382     26379     26377     26383
     26382     26379     26377     26384     26382     26379     26377     26385
     26392     26390     26388     26394     26392     26390     26388     26395
     26392     26390     26388     26396     26393     26390     26388     26394
     26393     26390     26388     26395     26393     26390     26388     26396
     26403     26401     26399     26405     26403     26401     26399     26406
     26403     26401     26399     26407     26404     26401     26399     26405
     26404     26401     26399     26406     26404     26401     26399     26407
     26414     26412     26410     26416     26414     26412     26410     26417
     26414     26412     26410     26418     26415     26412     26410     26416
     26415     26412     26410     26417     26415     26412     26410     26418
     26425     26423     26421     26427     26425     26423     26421     26428
     26425     26423     26421     26429     26426     26423     26421     26427
     26426     26423     26421     26428     26426     26423     26421     26429
     26436     26434     26432     26438     26436     26434     26432     26439
     26436     26434     26432     26440     26437     26434     26432     26438
     26437     26434     26432     26439     26437     26434     26432     26440
     26447     26445     26443     26449     26447     26445     26443     26450
     26447     26445     26443     26451     26448     26445     26443     26449
     26448     26445     26443     26450     26448     26445     26443     26451
     26458     26456     26454     26460     26458     26456     26454     26461
     26458     26456     26454     26462     26459     26456     26454     26460
     26459     26456     26454     26461     26459     26456     26454     26462
     26469     26467     26465     26471     26469     26467     26465     26472
     26469     26467     26465     26473     26470     26467     26465     26471
     26470     26467     26465     26472     26470     26467     26465     26473
     26480     26478     26476     26482     26480     26478     26476     26483
     26480     26478     26476     26484     26481     26478     26476     26482
     26481     26478     26476     26483     26481     26478     26476     26484
     26491     26489     26487     26493     26491     26489     26487     26494
     26491     26489     26487     26495     26492     26489     26487     26493
     26492     26489     26487     26494     26492     26489     26487     26495
     26502     26500     26498     26504     26502     26500     26498     26505
     26502     26500     26498     26506     26503     26500     26498     26504
     26503     26500     26498     26505     26503     26500     26498     26506
     26513     26511     26509     26515     26513     26511     26509     26516
     26513     26511     26509     26517     26514     26511     26509     26515
     26514     26511     26509     26516     26514     26511     26509     26517
     26524     26522     26520     26526     26524     26522     26520     26527
     26524     26522     26520     26528     26525     26522     26520     26526
     26525     26522     26520     26527     26525     26522     26520     26528
     26535     26533     26531     26537     26535     26533     26531     26538
     26535     26533     26531     26539     26536     26533     26531     26537
     26536     26533     26531     26538     26536     26533     26531     26539
     26546     26544     26542     26548     26546     26544     26542     26549
     26546     26544     26542     26550     26547     26544     26542     26548
     26547     26544     26542     26549     26547     26544     26542     26550
     26557     26555     26553     26559     26557     26555     26553     26560
     26557     26555     26553     26561     26558     26555     26553     26559
     26558     26555     26553     26560     26558     26555     26553     26561
     26568     26566     26564     26570     26568     26566     26564     26571
     26568     26566     26564     26572     26569     26566     26564     26570
     26569     26566     26564     26571     26569     26566     26564     26572
     26579     26577     26575     26581     26579     26577     26575     26582
     26579     26577     26575     26583     26580     26577     26575     26581
     26580     26577     26575     26582     26580     26577     26575     26583
     26590     26588     26586     26592     26590     26588     26586     26593
     26590     26588     26586     26594     26591     26588     26586     26592
     26591     26588     26586     26593     26591     26588     26586     26594
     26601     26599     26597     26603     26601     26599     26597     26604
     26601     26599     26597     26605     26602     26599     26597     26603
     26602     26599     26597     26604     26602     26599     26597     26605
     26612     26610     26608     26614     26612     26610     26608     26615
     26612     26610     26608     26616     26613     26610     26608     26614
     26613     26610     26608     26615     26613     26610     26608     26616
     26623     26621     26619     26625     26623     26621     26619     26626
     26623     26621     26619     26627     26624     26621     26619     26625
     26624     26621     26619     26626     26624     26621     26619     26627
     26634     26632     26630     26636     26634     26632     26630     26637
     26634     26632     26630     26638     26635     26632     26630     26636
     26635     26632     26630     26637     26635     26632     26630     26638
     26645     26643     26641     26647     26645     26643     26641     26648
     26645     26643     26641     26649     26646     26643     26641     26647
     26646     26643     26641     26648     26646     26643     26641     26649
     26656     26654     26652     26658     26656     26654     26652     26659
     26656     26654     26652     26660     26657     26654     26652     26658
     26657     26654     26652     26659     26657     26654     26652     26660
     26667     26665     26663     26669     26667     26665     26663     26670
     26667     26665     26663     26671     26668     26665     26663     26669
     26668     26665     26663     26670     26668     26665     26663     26671
     26678     26676     26674     26680     26678     26676     26674     26681
     26678     26676     26674     26682     26679     26676     26674     26680
     26679     26676     26674     26681     26679     26676     26674     26682
     26689     26687     26685     26691     26689     26687     26685     26692
     26689     26687     26685     26693     26690     26687     26685     26691
     26690     26687     26685     26692     26690     26687     26685     26693
     26700     26698     26696     26702     26700     26698     26696     26703
     26700     26698     26696     26704     26701     26698     26696     26702
     26701     26698     26696     26703     26701     26698     26696     26704
     26711     26709     26707     26713     26711     26709     26707     26714
     26711     26709     26707     26715     26712     26709     26707     26713
     26712     26709     26707     26714     26712     26709     26707     26715
     26722     26720     26718     26724     26722     26720     26718     26725
     26722     26720     26718     26726     26723     26720     26718     26724
     26723     26720     26718     26725     26723     26720     26718     26726
     26733     26731     26729     26735     26733     26731     26729     26736
     26733     26731     26729     26737     26734     26731     26729     26735
     26734     26731     26729     26736     26734     26731     26729     26737
     26744     26742     26740     26746     26744     26742     26740     26747
     26744     26742     26740     26748     26745     26742     26740     26746
     26745     26742     26740     26747     26745     26742     26740     26748
     26755     26753     26751     26757     26755     26753     26751     26758
     26755     26753     26751     26759     26756     26753     26751     26757
     26756     26753     26751     26758     26756     26753     26751     26759
     26766     26764     26762     26768     26766     26764     26762     26769
     26766     26764     26762     26770     26767     26764     26762     26768
     26767     26764     26762     26769     26767     26764     26762     26770
     26777     26775     26773     26779     26777     26775     26773     26780
     26777     26775     26773     26781     26778     26775     26773     26779
     26778     26775     26773     26780     26778     26775     26773     26781
     26788     26786     26784     26790     26788     26786     26784     26791
     26788     26786     26784     26792     26789     26786     26784     26790
     26789     26786     26784     26791     26789     26786     26784     26792
     26799     26797     26795     26801     26799     26797     26795     26802
     26799     26797     26795     26803     26800     26797     26795     26801
     26800     26797     26795     26802     26800     26797     26795     26803
     26810     26808     26806     26812     26810     26808     26806     26813
     26810     26808     26806     26814     26811     26808     26806     26812
     26811     26808     26806     26813     26811     26808     26806     26814
     26821     26819     26817     26823     26821     26819     26817     26824
     26821     26819     26817     26825     26822     26819     26817     26823
     26822     26819     26817     26824     26822     26819     26817     26825
     26832     26830     26828     26834     26832     26830     26828     26835
     26832     26830     26828     26836     26833     26830     26828     26834
     26833     26830     26828     26835     26833     26830     26828     26836
     26843     26841     26839     26845     26843     26841     26839     26846
     26843     26841     26839     26847     26844     26841     26839     26845
     26844     26841     26839     26846     26844     26841     26839     26847
     26854     26852     26850     26856     26854     26852     26850     26857
     26854     26852     26850     26858     26855     26852     26850     26856
     26855     26852     26850     26857     26855     26852     26850     26858
     26865     26863     26861     26867     26865     26863     26861     26868
     26865     26863     26861     26869     26866     26863     26861     26867
     26866     26863     26861     26868     26866     26863     26861     26869
     26876     26874     26872     26878     26876     26874     26872     26879
     26876     26874     26872     26880     26877     26874     26872     26878
     26877     26874     26872     26879     26877     26874     26872     26880
     26887     26885     26883     26889     26887     26885     26883     26890
     26887     26885     26883     26891     26888     26885     26883     26889
     26888     26885     26883     26890     26888     26885     26883     26891
     26898     26896     26894     26900     26898     26896     26894     26901
     26898     26896     26894     26902     26899     26896     26894     26900
     26899     26896     26894     26901     26899     26896     26894     26902
     26909     26907     26905     26911     26909     26907     26905     26912
     26909     26907     26905     26913     26910     26907     26905     26911
     26910     26907     26905     26912     26910     26907     26905     26913
     26920     26918     26916     26922     26920     26918     26916     26923
     26920     26918     26916     26924     26921     26918     26916     26922
     26921     26918     26916     26923     26921     26918     26916     26924
     26931     26929     26927     26933     26931     26929     26927     26934
     26931     26929     26927     26935     26932     26929     26927     26933
     26932     26929     26927     26934     26932     26929     26927     26935
     26942     26940     26938     26944     26942     26940     26938     26945
     26942     26940     26938     26946     26943     26940     26938     26944
     26943     26940     26938     26945     26943     26940     26938     26946
     26953     26951     26949     26955     26953     26951     26949     26956
     26953     26951     26949     26957     26954     26951     26949     26955
     26954     26951     26949     26956     26954     26951     26949     26957
     26964     26962     26960     26966     26964     26962     26960     26967
     26964     26962     26960     26968     26965     26962     26960     26966
     26965     26962     26960     26967     26965     26962     26960     26968
     26975     26973     26971     26977     26975     26973     26971     26978
     26975     26973     26971     26979     26976     26973     26971     26977
     26976     26973     26971     26978     26976     26973     26971     26979
     26986     26984     26982     26988     26986     26984     26982     26989
     26986     26984     26982     26990     26987     26984     26982     26988
     26987     26984     26982     26989     26987     26984     26982     26990
     26997     26995     26993     26999     26997     26995     26993     27000
     26997     26995     26993     27001     26998     26995     26993     26999
     26998     26995     26993     27000     26998     26995     26993     27001
     27008     27006     27004     27010     27008     27006     27004     27011
     27008     27006     27004     27012     27009     27006     27004     27010
     27009     27006     27004     27011     27009     27006     27004     27012
     27019     27017     27015     27021     27019     27017     27015     27022
     27019     27017     27015     27023     27020     27017     27015     27021
     27020     27017     27015     27022     27020     27017     27015     27023
     27030     27028     27026     27032     27030     27028     27026     27033
     27030     27028     27026     27034     27031     27028     27026     27032
     27031     27028     27026     27033     27031     27028     27026     27034
     27041     27039     27037     27043     27041     27039     27037     27044
     27041     27039     27037     27045     27042     27039     27037     27043
     27042     27039     27037     27044     27042     27039     27037     27045
     27052     27050     27048     27054     27052     27050     27048     27055
     27052     27050     27048     27056     27053     27050     27048     27054
     27053     27050     27048     27055     27053     27050     27048     27056
     27063     27061     27059     27065     27063     27061     27059     27066
     27063     27061     27059     27067     27064     27061     27059     27065
     27064     27061     27059     27066     27064     27061     27059     27067
     27074     27072     27070     27076     27074     27072     27070     27077
     27074     27072     27070     27078     27075     27072     27070     27076
     27075     27072     27070     27077     27075     27072     27070     27078
     27085     27083     27081     27087     27085     27083     27081     27088
     27085     27083     27081     27089     27086     27083     27081     27087
     27086     27083     27081     27088     27086     27083     27081     27089
     27096     27094     27092     27098     27096     27094     27092     27099
     27096     27094     27092     27100     27097     27094     27092     27098
     27097     27094     27092     27099     27097     27094     27092     27100
     27107     27105     27103     27109     27107     27105     27103     27110
     27107     27105     27103     27111     27108     27105     27103     27109
     27108     27105     27103     27110     27108     27105     27103     27111
     27118     27116     27114     27120     27118     27116     27114     27121
     27118     27116     27114     27122     27119     27116     27114     27120
     27119     27116     27114     27121     27119     27116     27114     27122
     27129     27127     27125     27131     27129     27127     27125     27132
     27129     27127     27125     27133     27130     27127     27125     27131
     27130     27127     27125     27132     27130     27127     27125     27133
     27140     27138     27136     27142     27140     27138     27136     27143
     27140     27138     27136     27144     27141     27138     27136     27142
     27141     27138     27136     27143     27141     27138     27136     27144
     27151     27149     27147     27153     27151     27149     27147     27154
     27151     27149     27147     27155     27152     27149     27147     27153
     27152     27149     27147     27154     27152     27149     27147     27155
     27162     27160     27158     27164     27162     27160     27158     27165
     27162     27160     27158     27166     27163     27160     27158     27164
     27163     27160     27158     27165     27163     27160     27158     27166
     27173     27171     27169     27175     27173     27171     27169     27176
     27173     27171     27169     27177     27174     27171     27169     27175
     27174     27171     27169     27176     27174     27171     27169     27177
     27184     27182     27180     27186     27184     27182     27180     27187
     27184     27182     27180     27188     27185     27182     27180     27186
     27185     27182     27180     27187     27185     27182     27180     27188
     27195     27193     27191     27197     27195     27193     27191     27198
     27195     27193     27191     27199     27196     27193     27191     27197
     27196     27193     27191     27198     27196     27193     27191     27199
     27206     27204     27202     27208     27206     27204     27202     27209
     27206     27204     27202     27210     27207     27204     27202     27208
     27207     27204     27202     27209     27207     27204     27202     27210
     27217     27215     27213     27219     27217     27215     27213     27220
     27217     27215     27213     27221     27218     27215     27213     27219
     27218     27215     27213     27220     27218     27215     27213     27221
     27228     27226     27224     27230     27228     27226     27224     27231
     27228     27226     27224     27232     27229     27226     27224     27230
     27229     27226     27224     27231     27229     27226     27224     27232
     27239     27237     27235     27241     27239     27237     27235     27242
     27239     27237     27235     27243     27240     27237     27235     27241
     27240     27237     27235     27242     27240     27237     27235     27243
     27250     27248     27246     27252     27250     27248     27246     27253
     27250     27248     27246     27254     27251     27248     27246     27252
     27251     27248     27246     27253     27251     27248     27246     27254
     27261     27259     27257     27263     27261     27259     27257     27264
     27261     27259     27257     27265     27262     27259     27257     27263
     27262     27259     27257     27264     27262     27259     27257     27265
     27272     27270     27268     27274     27272     27270     27268     27275
     27272     27270     27268     27276     27273     27270     27268     27274
     27273     27270     27268     27275     27273     27270     27268     27276
     27283     27281     27279     27285     27283     27281     27279     27286
     27283     27281     27279     27287     27284     27281     27279     27285
     27284     27281     27279     27286     27284     27281     27279     27287
     27294     27292     27290     27296     27294     27292     27290     27297
     27294     27292     27290     27298     27295     27292     27290     27296
     27295     27292     27290     27297     27295     27292     27290     27298
     27305     27303     27301     27307     27305     27303     27301     27308
     27305     27303     27301     27309     27306     27303     27301     27307
     27306     27303     27301     27308     27306     27303     27301     27309
     27316     27314     27312     27318     27316     27314     27312     27319
     27316     27314     27312     27320     27317     27314     27312     27318
     27317     27314     27312     27319     27317     27314     27312     27320
     27327     27325     27323     27329     27327     27325     27323     27330
     27327     27325     27323     27331     27328     27325     27323     27329
     27328     27325     27323     27330     27328     27325     27323     27331
     27338     27336     27334     27340     27338     27336     27334     27341
     27338     27336     27334     27342     27339     27336     27334     27340
     27339     27336     27334     27341     27339     27336     27334     27342
     27349     27347     27345     27351     27349     27347     27345     27352
     27349     27347     27345     27353     27350     27347     27345     27351
     27350     27347     27345     27352     27350     27347     27345     27353
     27360     27358     27356     27362     27360     27358     27356     27363
     27360     27358     27356     27364     27361     27358     27356     27362
     27361     27358     27356     27363     27361     27358     27356     27364
     27371     27369     27367     27373     27371     27369     27367     27374
     27371     27369     27367     27375     27372     27369     27367     27373
     27372     27369     27367     27374     27372     27369     27367     27375
     27382     27380     27378     27384     27382     27380     27378     27385
     27382     27380     27378     27386     27383     27380     27378     27384
     27383     27380     27378     27385     27383     27380     27378     27386
     27393     27391     27389     27395     27393     27391     27389     27396
     27393     27391     27389     27397     27394     27391     27389     27395
     27394     27391     27389     27396     27394     27391     27389     27397
     27404     27402     27400     27406     27404     27402     27400     27407
     27404     27402     27400     27408     27405     27402     27400     27406
     27405     27402     27400     27407     27405     27402     27400     27408
     27415     27413     27411     27417     27415     27413     27411     27418
     27415     27413     27411     27419     27416     27413     27411     27417
     27416     27413     27411     27418     27416     27413     27411     27419
     27426     27424     27422     27428     27426     27424     27422     27429
     27426     27424     27422     27430     27427     27424     27422     27428
     27427     27424     27422     27429     27427     27424     27422     27430
     27437     27435     27433     27439     27437     27435     27433     27440
     27437     27435     27433     27441     27438     27435     27433     27439
     27438     27435     27433     27440     27438     27435     27433     27441
     27448     27446     27444     27450     27448     27446     27444     27451
     27448     27446     27444     27452     27449     27446     27444     27450
     27449     27446     27444     27451     27449     27446     27444     27452
     27459     27457     27455     27461     27459     27457     27455     27462
     27459     27457     27455     27463     27460     27457     27455     27461
     27460     27457     27455     27462     27460     27457     27455     27463
     27470     27468     27466     27472     27470     27468     27466     27473
     27470     27468     27466     27474     27471     27468     27466     27472
     27471     27468     27466     27473     27471     27468     27466     27474
     27481     27479     27477     27483     27481     27479     27477     27484
     27481     27479     27477     27485     27482     27479     27477     27483
     27482     27479     27477     27484     27482     27479     27477     27485
     27492     27490     27488     27494     27492     27490     27488     27495
     27492     27490     27488     27496     27493     27490     27488     27494
     27493     27490     27488     27495     27493     27490     27488     27496
     27503     27501     27499     27505     27503     27501     27499     27506
     27503     27501     27499     27507     27504     27501     27499     27505
     27504     27501     27499     27506     27504     27501     27499     27507
     27514     27512     27510     27516     27514     27512     27510     27517
     27514     27512     27510     27518     27515     27512     27510     27516
     27515     27512     27510     27517     27515     27512     27510     27518
     27525     27523     27521     27527     27525     27523     27521     27528
     27525     27523     27521     27529     27526     27523     27521     27527
     27526     27523     27521     27528     27526     27523     27521     27529
     27536     27534     27532     27538     27536     27534     27532     27539
     27536     27534     27532     27540     27537     27534     27532     27538
     27537     27534     27532     27539     27537     27534     27532     27540
     27547     27545     27543     27549     27547     27545     27543     27550
     27547     27545     27543     27551     27548     27545     27543     27549
     27548     27545     27543     27550     27548     27545     27543     27551
     27558     27556     27554     27560     27558     27556     27554     27561
     27558     27556     27554     27562     27559     27556     27554     27560
     27559     27556     27554     27561     27559     27556     27554     27562
     27569     27567     27565     27571     27569     27567     27565     27572
     27569     27567     27565     27573     27570     27567     27565     27571
     27570     27567     27565     27572     27570     27567     27565     27573
     27580     27578     27576     27582     27580     27578     27576     27583
     27580     27578     27576     27584     27581     27578     27576     27582
     27581     27578     27576     27583     27581     27578     27576     27584
     27591     27589     27587     27593     27591     27589     27587     27594
     27591     27589     27587     27595     27592     27589     27587     27593
     27592     27589     27587     27594     27592     27589     27587     27595
     27602     27600     27598     27604     27602     27600     27598     27605
     27602     27600     27598     27606     27603     27600     27598     27604
     27603     27600     27598     27605     27603     27600     27598     27606
     27613     27611     27609     27615     27613     27611     27609     27616
     27613     27611     27609     27617     27614     27611     27609     27615
     27614     27611     27609     27616     27614     27611     27609     27617
     27624     27622     27620     27626     27624     27622     27620     27627
     27624     27622     27620     27628     27625     27622     27620     27626
     27625     27622     27620     27627     27625     27622     27620     27628
     27635     27633     27631     27637     27635     27633     27631     27638
     27635     27633     27631     27639     27636     27633     27631     27637
     27636     27633     27631     27638     27636     27633     27631     27639
     27646     27644     27642     27648     27646     27644     27642     27649
     27646     27644     27642     27650     27647     27644     27642     27648
     27647     27644     27642     27649     27647     27644     27642     27650
     27657     27655     27653     27659     27657     27655     27653     27660
     27657     27655     27653     27661     27658     27655     27653     27659
     27658     27655     27653     27660     27658     27655     27653     27661
     27668     27666     27664     27670     27668     27666     27664     27671
     27668     27666     27664     27672     27669     27666     27664     27670
     27669     27666     27664     27671     27669     27666     27664     27672
     27679     27677     27675     27681     27679     27677     27675     27682
     27679     27677     27675     27683     27680     27677     27675     27681
     27680     27677     27675     27682     27680     27677     27675     27683
     27690     27688     27686     27692     27690     27688     27686     27693
     27690     27688     27686     27694     27691     27688     27686     27692
     27691     27688     27686     27693     27691     27688     27686     27694
     27701     27699     27697     27703     27701     27699     27697     27704
     27701     27699     27697     27705     27702     27699     27697     27703
     27702     27699     27697     27704     27702     27699     27697     27705
     27712     27710     27708     27714     27712     27710     27708     27715
     27712     27710     27708     27716     27713     27710     27708     27714
     27713     27710     27708     27715     27713     27710     27708     27716
     27723     27721     27719     27725     27723     27721     27719     27726
     27723     27721     27719     27727     27724     27721     27719     27725
     27724     27721     27719     27726     27724     27721     27719     27727
     27734     27732     27730     27736     27734     27732     27730     27737
     27734     27732     27730     27738     27735     27732     27730     27736
     27735     27732     27730     27737     27735     27732     27730     27738
     27745     27743     27741     27747     27745     27743     27741     27748
     27745     27743     27741     27749     27746     27743     27741     27747
     27746     27743     27741     27748     27746     27743     27741     27749
     27756     27754     27752     27758     27756     27754     27752     27759
     27756     27754     27752     27760     27757     27754     27752     27758
     27757     27754     27752     27759     27757     27754     27752     27760
     27767     27765     27763     27769     27767     27765     27763     27770
     27767     27765     27763     27771     27768     27765     27763     27769
     27768     27765     27763     27770     27768     27765     27763     27771
     27778     27776     27774     27780     27778     27776     27774     27781
     27778     27776     27774     27782     27779     27776     27774     27780
     27779     27776     27774     27781     27779     27776     27774     27782
     27789     27787     27785     27791     27789     27787     27785     27792
     27789     27787     27785     27793     27790     27787     27785     27791
     27790     27787     27785     27792     27790     27787     27785     27793
     27800     27798     27796     27802     27800     27798     27796     27803
     27800     27798     27796     27804     27801     27798     27796     27802
     27801     27798     27796     27803     27801     27798     27796     27804
     27811     27809     27807     27813     27811     27809     27807     27814
     27811     27809     27807     27815     27812     27809     27807     27813
     27812     27809     27807     27814     27812     27809     27807     27815
     27822     27820     27818     27824     27822     27820     27818     27825
     27822     27820     27818     27826     27823     27820     27818     27824
     27823     27820     27818     27825     27823     27820     27818     27826
     27833     27831     27829     27835     27833     27831     27829     27836
     27833     27831     27829     27837     27834     27831     27829     27835
     27834     27831     27829     27836     27834     27831     27829     27837
     27844     27842     27840     27846     27844     27842     27840     27847
     27844     27842     27840     27848     27845     27842     27840     27846
     27845     27842     27840     27847     27845     27842     27840     27848
     27855     27853     27851     27857     27855     27853     27851     27858
     27855     27853     27851     27859     27856     27853     27851     27857
     27856     27853     27851     27858     27856     27853     27851     27859
     27866     27864     27862     27868     27866     27864     27862     27869
     27866     27864     27862     27870     27867     27864     27862     27868
     27867     27864     27862     27869     27867     27864     27862     27870
     27877     27875     27873     27879     27877     27875     27873     27880
     27877     27875     27873     27881     27878     27875     27873     27879
     27878     27875     27873     27880     27878     27875     27873     27881
     27888     27886     27884     27890     27888     27886     27884     27891
     27888     27886     27884     27892     27889     27886     27884     27890
     27889     27886     27884     27891     27889     27886     27884     27892
     27899     27897     27895     27901     27899     27897     27895     27902
     27899     27897     27895     27903     27900     27897     27895     27901
     27900     27897     27895     27902     27900     27897     27895     27903
     27910     27908     27906     27912     27910     27908     27906     27913
     27910     27908     27906     27914     27911     27908     27906     27912
     27911     27908     27906     27913     27911     27908     27906     27914
     27921     27919     27917     27923     27921     27919     27917     27924
     27921     27919     27917     27925     27922     27919     27917     27923
     27922     27919     27917     27924     27922     27919     27917     27925
     27932     27930     27928     27934     27932     27930     27928     27935
     27932     27930     27928     27936     27933     27930     27928     27934
     27933     27930     27928     27935     27933     27930     27928     27936
     27943     27941     27939     27945     27943     27941     27939     27946
     27943     27941     27939     27947     27944     27941     27939     27945
     27944     27941     27939     27946     27944     27941     27939     27947
     27954     27952     27950     27956     27954     27952     27950     27957
     27954     27952     27950     27958     27955     27952     27950     27956
     27955     27952     27950     27957     27955     27952     27950     27958
     27965     27963     27961     27967     27965     27963     27961     27968
     27965     27963     27961     27969     27966     27963     27961     27967
     27966     27963     27961     27968     27966     27963     27961     27969
     27976     27974     27972     27978     27976     27974     27972     27979
     27976     27974     27972     27980     27977     27974     27972     27978
     27977     27974     27972     27979     27977     27974     27972     27980
     27987     27985     27983     27989     27987     27985     27983     27990
     27987     27985     27983     27991     27988     27985     27983     27989
     27988     27985     27983     27990     27988     27985     27983     27991
     27998     27996     27994     28000     27998     27996     27994     28001
     27998     27996     27994     28002     27999     27996     27994     28000
     27999     27996     27994     28001     27999     27996     27994     28002
     28009     28007     28005     28011     28009     28007     28005     28012
     28009     28007     28005     28013     28010     28007     28005     28011
     28010     28007     28005     28012     28010     28007     28005     28013
     28020     28018     28016     28022     28020     28018     28016     28023
     28020     28018     28016     28024     28021     28018     28016     28022
     28021     28018     28016     28023     28021     28018     28016     28024
     28031     28029     28027     28033     28031     28029     28027     28034
     28031     28029     28027     28035     28032     28029     28027     28033
     28032     28029     28027     28034     28032     28029     28027     28035
     28042     28040     28038     28044     28042     28040     28038     28045
     28042     28040     28038     28046     28043     28040     28038     28044
     28043     28040     28038     28045     28043     28040     28038     28046
     28053     28051     28049     28055     28053     28051     28049     28056
     28053     28051     28049     28057     28054     28051     28049     28055
     28054     28051     28049     28056     28054     28051     28049     28057
     28064     28062     28060     28066     28064     28062     28060     28067
     28064     28062     28060     28068     28065     28062     28060     28066
     28065     28062     28060     28067     28065     28062     28060     28068
     28075     28073     28071     28077     28075     28073     28071     28078
     28075     28073     28071     28079     28076     28073     28071     28077
     28076     28073     28071     28078     28076     28073     28071     28079
     28086     28084     28082     28088     28086     28084     28082     28089
     28086     28084     28082     28090     28087     28084     28082     28088
     28087     28084     28082     28089     28087     28084     28082     28090
     28097     28095     28093     28099     28097     28095     28093     28100
     28097     28095     28093     28101     28098     28095     28093     28099
     28098     28095     28093     28100     28098     28095     28093     28101
     28108     28106     28104     28110     28108     28106     28104     28111
     28108     28106     28104     28112     28109     28106     28104     28110
     28109     28106     28104     28111     28109     28106     28104     28112
     28119     28117     28115     28121     28119     28117     28115     28122
     28119     28117     28115     28123     28120     28117     28115     28121
     28120     28117     28115     28122     28120     28117     28115     28123
     28130     28128     28126     28132     28130     28128     28126     28133
     28130     28128     28126     28134     28131     28128     28126     28132
     28131     28128     28126     28133     28131     28128     28126     28134
     28141     28139     28137     28143     28141     28139     28137     28144
     28141     28139     28137     28145     28142     28139     28137     28143
     28142     28139     28137     28144     28142     28139     28137     28145
     28152     28150     28148     28154     28152     28150     28148     28155
     28152     28150     28148     28156     28153     28150     28148     28154
     28153     28150     28148     28155     28153     28150     28148     28156
     28163     28161     28159     28165     28163     28161     28159     28166
     28163     28161     28159     28167     28164     28161     28159     28165
     28164     28161     28159     28166     28164     28161     28159     28167
     28174     28172     28170     28176     28174     28172     28170     28177
     28174     28172     28170     28178     28175     28172     28170     28176
     28175     28172     28170     28177     28175     28172     28170     28178
     28185     28183     28181     28187     28185     28183     28181     28188
     28185     28183     28181     28189     28186     28183     28181     28187
     28186     28183     28181     28188     28186     28183     28181     28189
     28196     28194     28192     28198     28196     28194     28192     28199
     28196     28194     28192     28200     28197     28194     28192     28198
     28197     28194     28192     28199     28197     28194     28192     28200
     28207     28205     28203     28209     28207     28205     28203     28210
     28207     28205     28203     28211     28208     28205     28203     28209
     28208     28205     28203     28210     28208     28205     28203     28211
     28218     28216     28214     28220     28218     28216     28214     28221
     28218     28216     28214     28222     28219     28216     28214     28220
     28219     28216     28214     28221     28219     28216     28214     28222
     28229     28227     28225     28231     28229     28227     28225     28232
     28229     28227     28225     28233     28230     28227     28225     28231
     28230     28227     28225     28232     28230     28227     28225     28233
     28240     28238     28236     28242     28240     28238     28236     28243
     28240     28238     28236     28244     28241     28238     28236     28242
     28241     28238     28236     28243     28241     28238     28236     28244
     28251     28249     28247     28253     28251     28249     28247     28254
     28251     28249     28247     28255     28252     28249     28247     28253
     28252     28249     28247     28254     28252     28249     28247     28255
     28262     28260     28258     28264     28262     28260     28258     28265
     28262     28260     28258     28266     28263     28260     28258     28264
     28263     28260     28258     28265     28263     28260     28258     28266
     28273     28271     28269     28275     28273     28271     28269     28276
     28273     28271     28269     28277     28274     28271     28269     28275
     28274     28271     28269     28276     28274     28271     28269     28277
     28284     28282     28280     28286     28284     28282     28280     28287
     28284     28282     28280     28288     28285     28282     28280     28286
     28285     28282     28280     28287     28285     28282     28280     28288
     28295     28293     28291     28297     28295     28293     28291     28298
     28295     28293     28291     28299     28296     28293     28291     28297
     28296     28293     28291     28298     28296     28293     28291     28299
     28306     28304     28302     28308     28306     28304     28302     28309
     28306     28304     28302     28310     28307     28304     28302     28308
     28307     28304     28302     28309     28307     28304     28302     28310
     28317     28315     28313     28319     28317     28315     28313     28320
     28317     28315     28313     28321     28318     28315     28313     28319
     28318     28315     28313     28320     28318     28315     28313     28321
     28328     28326     28324     28330     28328     28326     28324     28331
     28328     28326     28324     28332     28329     28326     28324     28330
     28329     28326     28324     28331     28329     28326     28324     28332
     28339     28337     28335     28341     28339     28337     28335     28342
     28339     28337     28335     28343     28340     28337     28335     28341
     28340     28337     28335     28342     28340     28337     28335     28343
     28350     28348     28346     28352     28350     28348     28346     28353
     28350     28348     28346     28354     28351     28348     28346     28352
     28351     28348     28346     28353     28351     28348     28346     28354
     28361     28359     28357     28363     28361     28359     28357     28364
     28361     28359     28357     28365     28362     28359     28357     28363
     28362     28359     28357     28364     28362     28359     28357     28365
     28372     28370     28368     28374     28372     28370     28368     28375
     28372     28370     28368     28376     28373     28370     28368     28374
     28373     28370     28368     28375     28373     28370     28368     28376
     28383     28381     28379     28385     28383     28381     28379     28386
     28383     28381     28379     28387     28384     28381     28379     28385
     28384     28381     28379     28386     28384     28381     28379     28387
     28394     28392     28390     28396     28394     28392     28390     28397
     28394     28392     28390     28398     28395     28392     28390     28396
     28395     28392     28390     28397     28395     28392     28390     28398
     28405     28403     28401     28407     28405     28403     28401     28408
     28405     28403     28401     28409     28406     28403     28401     28407
     28406     28403     28401     28408     28406     28403     28401     28409
     28416     28414     28412     28418     28416     28414     28412     28419
     28416     28414     28412     28420     28417     28414     28412     28418
     28417     28414     28412     28419     28417     28414     28412     28420
     28427     28425     28423     28429     28427     28425     28423     28430
     28427     28425     28423     28431     28428     28425     28423     28429
     28428     28425     28423     28430     28428     28425     28423     28431
     28438     28436     28434     28440     28438     28436     28434     28441
     28438     28436     28434     28442     28439     28436     28434     28440
     28439     28436     28434     28441     28439     28436     28434     28442
     28449     28447     28445     28451     28449     28447     28445     28452
     28449     28447     28445     28453     28450     28447     28445     28451
     28450     28447     28445     28452     28450     28447     28445     28453
     28460     28458     28456     28462     28460     28458     28456     28463
     28460     28458     28456     28464     28461     28458     28456     28462
     28461     28458     28456     28463     28461     28458     28456     28464
     28471     28469     28467     28473     28471     28469     28467     28474
     28471     28469     28467     28475     28472     28469     28467     28473
     28472     28469     28467     28474     28472     28469     28467     28475
     28482     28480     28478     28484     28482     28480     28478     28485
     28482     28480     28478     28486     28483     28480     28478     28484
     28483     28480     28478     28485     28483     28480     28478     28486
     28493     28491     28489     28495     28493     28491     28489     28496
     28493     28491     28489     28497     28494     28491     28489     28495
     28494     28491     28489     28496     28494     28491     28489     28497
     28504     28502     28500     28506     28504     28502     28500     28507
     28504     28502     28500     28508     28505     28502     28500     28506
     28505     28502     28500     28507     28505     28502     28500     28508
     28515     28513     28511     28517     28515     28513     28511     28518
     28515     28513     28511     28519     28516     28513     28511     28517
     28516     28513     28511     28518     28516     28513     28511     28519
     28526     28524     28522     28528     28526     28524     28522     28529
     28526     28524     28522     28530     28527     28524     28522     28528
     28527     28524     28522     28529     28527     28524     28522     28530
     28537     28535     28533     28539     28537     28535     28533     28540
     28537     28535     28533     28541     28538     28535     28533     28539
     28538     28535     28533     28540     28538     28535     28533     28541
     28548     28546     28544     28550     28548     28546     28544     28551
     28548     28546     28544     28552     28549     28546     28544     28550
     28549     28546     28544     28551     28549     28546     28544     28552
     28559     28557     28555     28561     28559     28557     28555     28562
     28559     28557     28555     28563     28560     28557     28555     28561
     28560     28557     28555     28562     28560     28557     28555     28563
     28570     28568     28566     28572     28570     28568     28566     28573
     28570     28568     28566     28574     28571     28568     28566     28572
     28571     28568     28566     28573     28571     28568     28566     28574
     28581     28579     28577     28583     28581     28579     28577     28584
     28581     28579     28577     28585     28582     28579     28577     28583
     28582     28579     28577     28584     28582     28579     28577     28585
     28592     28590     28588     28594     28592     28590     28588     28595
     28592     28590     28588     28596     28593     28590     28588     28594
     28593     28590     28588     28595     28593     28590     28588     28596
     28603     28601     28599     28605     28603     28601     28599     28606
     28603     28601     28599     28607     28604     28601     28599     28605
     28604     28601     28599     28606     28604     28601     28599     28607
     28614     28612     28610     28616     28614     28612     28610     28617
     28614     28612     28610     28618     28615     28612     28610     28616
     28615     28612     28610     28617     28615     28612     28610     28618
     28625     28623     28621     28627     28625     28623     28621     28628
     28625     28623     28621     28629     28626     28623     28621     28627
     28626     28623     28621     28628     28626     28623     28621     28629
     28636     28634     28632     28638     28636     28634     28632     28639
     28636     28634     28632     28640     28637     28634     28632     28638
     28637     28634     28632     28639     28637     28634     28632     28640
     28647     28645     28643     28649     28647     28645     28643     28650
     28647     28645     28643     28651     28648     28645     28643     28649
     28648     28645     28643     28650     28648     28645     28643     28651
     28658     28656     28654     28660     28658     28656     28654     28661
     28658     28656     28654     28662     28659     28656     28654     28660
     28659     28656     28654     28661     28659     28656     28654     28662
     28669     28667     28665     28671     28669     28667     28665     28672
     28669     28667     28665     28673     28670     28667     28665     28671
     28670     28667     28665     28672     28670     28667     28665     28673
     28680     28678     28676     28682     28680     28678     28676     28683
     28680     28678     28676     28684     28681     28678     28676     28682
     28681     28678     28676     28683     28681     28678     28676     28684
     28691     28689     28687     28693     28691     28689     28687     28694
     28691     28689     28687     28695     28692     28689     28687     28693
     28692     28689     28687     28694     28692     28689     28687     28695
     28702     28700     28698     28704     28702     28700     28698     28705
     28702     28700     28698     28706     28703     28700     28698     28704
     28703     28700     28698     28705     28703     28700     28698     28706
     28713     28711     28709     28715     28713     28711     28709     28716
     28713     28711     28709     28717     28714     28711     28709     28715
     28714     28711     28709     28716     28714     28711     28709     28717
     28724     28722     28720     28726     28724     28722     28720     28727
     28724     28722     28720     28728     28725     28722     28720     28726
     28725     28722     28720     28727     28725     28722     28720     28728
     28735     28733     28731     28737     28735     28733     28731     28738
     28735     28733     28731     28739     28736     28733     28731     28737
     28736     28733     28731     28738     28736     28733     28731     28739
     28746     28744     28742     28748     28746     28744     28742     28749
     28746     28744     28742     28750     28747     28744     28742     28748
     28747     28744     28742     28749     28747     28744     28742     28750
     28757     28755     28753     28759     28757     28755     28753     28760
     28757     28755     28753     28761     28758     28755     28753     28759
     28758     28755     28753     28760     28758     28755     28753     28761
     28768     28766     28764     28770     28768     28766     28764     28771
     28768     28766     28764     28772     28769     28766     28764     28770
     28769     28766     28764     28771     28769     28766     28764     28772
     28779     28777     28775     28781     28779     28777     28775     28782
     28779     28777     28775     28783     28780     28777     28775     28781
     28780     28777     28775     28782     28780     28777     28775     28783
     28790     28788     28786     28792     28790     28788     28786     28793
     28790     28788     28786     28794     28791     28788     28786     28792
     28791     28788     28786     28793     28791     28788     28786     28794
     28801     28799     28797     28803     28801     28799     28797     28804
     28801     28799     28797     28805     28802     28799     28797     28803
     28802     28799     28797     28804     28802     28799     28797     28805
     28812     28810     28808     28814     28812     28810     28808     28815
     28812     28810     28808     28816     28813     28810     28808     28814
     28813     28810     28808     28815     28813     28810     28808     28816
     28823     28821     28819     28825     28823     28821     28819     28826
     28823     28821     28819     28827     28824     28821     28819     28825
     28824     28821     28819     28826     28824     28821     28819     28827
     28834     28832     28830     28836     28834     28832     28830     28837
     28834     28832     28830     28838     28835     28832     28830     28836
     28835     28832     28830     28837     28835     28832     28830     28838
     28845     28843     28841     28847     28845     28843     28841     28848
     28845     28843     28841     28849     28846     28843     28841     28847
     28846     28843     28841     28848     28846     28843     28841     28849
     28856     28854     28852     28858     28856     28854     28852     28859
     28856     28854     28852     28860     28857     28854     28852     28858
     28857     28854     28852     28859     28857     28854     28852     28860
     28867     28865     28863     28869     28867     28865     28863     28870
     28867     28865     28863     28871     28868     28865     28863     28869
     28868     28865     28863     28870     28868     28865     28863     28871
     28878     28876     28874     28880     28878     28876     28874     28881
     28878     28876     28874     28882     28879     28876     28874     28880
     28879     28876     28874     28881     28879     28876     28874     28882
     28889     28887     28885     28891     28889     28887     28885     28892
     28889     28887     28885     28893     28890     28887     28885     28891
     28890     28887     28885     28892     28890     28887     28885     28893
     28900     28898     28896     28902     28900     28898     28896     28903
     28900     28898     28896     28904     28901     28898     28896     28902
     28901     28898     28896     28903     28901     28898     28896     28904
     28911     28909     28907     28913     28911     28909     28907     28914
     28911     28909     28907     28915     28912     28909     28907     28913
     28912     28909     28907     28914     28912     28909     28907     28915
     28922     28920     28918     28924     28922     28920     28918     28925
     28922     28920     28918     28926     28923     28920     28918     28924
     28923     28920     28918     28925     28923     28920     28918     28926
     28933     28931     28929     28935     28933     28931     28929     28936
     28933     28931     28929     28937     28934     28931     28929     28935
     28934     28931     28929     28936     28934     28931     28929     28937
     28944     28942     28940     28946     28944     28942     28940     28947
     28944     28942     28940     28948     28945     28942     28940     28946
     28945     28942     28940     28947     28945     28942     28940     28948
     28955     28953     28951     28957     28955     28953     28951     28958
     28955     28953     28951     28959     28956     28953     28951     28957
     28956     28953     28951     28958     28956     28953     28951     28959
     28966     28964     28962     28968     28966     28964     28962     28969
     28966     28964     28962     28970     28967     28964     28962     28968
     28967     28964     28962     28969     28967     28964     28962     28970
     28977     28975     28973     28979     28977     28975     28973     28980
     28977     28975     28973     28981     28978     28975     28973     28979
     28978     28975     28973     28980     28978     28975     28973     28981
     28988     28986     28984     28990     28988     28986     28984     28991
     28988     28986     28984     28992     28989     28986     28984     28990
     28989     28986     28984     28991     28989     28986     28984     28992
     28999     28997     28995     29001     28999     28997     28995     29002
     28999     28997     28995     29003     29000     28997     28995     29001
     29000     28997     28995     29002     29000     28997     28995     29003
     29010     29008     29006     29012     29010     29008     29006     29013
     29010     29008     29006     29014     29011     29008     29006     29012
     29011     29008     29006     29013     29011     29008     29006     29014
     29021     29019     29017     29023     29021     29019     29017     29024
     29021     29019     29017     29025     29022     29019     29017     29023
     29022     29019     29017     29024     29022     29019     29017     29025
     29032     29030     29028     29034     29032     29030     29028     29035
     29032     29030     29028     29036     29033     29030     29028     29034
     29033     29030     29028     29035     29033     29030     29028     29036
     29043     29041     29039     29045     29043     29041     29039     29046
     29043     29041     29039     29047     29044     29041     29039     29045
     29044     29041     29039     29046     29044     29041     29039     29047
     29054     29052     29050     29056     29054     29052     29050     29057
     29054     29052     29050     29058     29055     29052     29050     29056
     29055     29052     29050     29057     29055     29052     29050     29058
     29065     29063     29061     29067     29065     29063     29061     29068
     29065     29063     29061     29069     29066     29063     29061     29067
     29066     29063     29061     29068     29066     29063     29061     29069
     29076     29074     29072     29078     29076     29074     29072     29079
     29076     29074     29072     29080     29077     29074     29072     29078
     29077     29074     29072     29079     29077     29074     29072     29080
     29087     29085     29083     29089     29087     29085     29083     29090
     29087     29085     29083     29091     29088     29085     29083     29089
     29088     29085     29083     29090     29088     29085     29083     29091
     29098     29096     29094     29100     29098     29096     29094     29101
     29098     29096     29094     29102     29099     29096     29094     29100
     29099     29096     29094     29101     29099     29096     29094     29102
     29109     29107     29105     29111     29109     29107     29105     29112
     29109     29107     29105     29113     29110     29107     29105     29111
     29110     29107     29105     29112     29110     29107     29105     29113
     29120     29118     29116     29122     29120     29118     29116     29123
     29120     29118     29116     29124     29121     29118     29116     29122
     29121     29118     29116     29123     29121     29118     29116     29124
     29131     29129     29127     29133     29131     29129     29127     29134
     29131     29129     29127     29135     29132     29129     29127     29133
     29132     29129     29127     29134     29132     29129     29127     29135
     29142     29140     29138     29144     29142     29140     29138     29145
     29142     29140     29138     29146     29143     29140     29138     29144
     29143     29140     29138     29145     29143     29140     29138     29146
     29153     29151     29149     29155     29153     29151     29149     29156
     29153     29151     29149     29157     29154     29151     29149     29155
     29154     29151     29149     29156     29154     29151     29149     29157
     29164     29162     29160     29166     29164     29162     29160     29167
     29164     29162     29160     29168     29165     29162     29160     29166
     29165     29162     29160     29167     29165     29162     29160     29168
     29175     29173     29171     29177     29175     29173     29171     29178
     29175     29173     29171     29179     29176     29173     29171     29177
     29176     29173     29171     29178     29176     29173     29171     29179
     29186     29184     29182     29188     29186     29184     29182     29189
     29186     29184     29182     29190     29187     29184     29182     29188
     29187     29184     29182     29189     29187     29184     29182     29190
     29197     29195     29193     29199     29197     29195     29193     29200
     29197     29195     29193     29201     29198     29195     29193     29199
     29198     29195     29193     29200     29198     29195     29193     29201
     29208     29206     29204     29210     29208     29206     29204     29211
     29208     29206     29204     29212     29209     29206     29204     29210
     29209     29206     29204     29211     29209     29206     29204     29212
     29219     29217     29215     29221     29219     29217     29215     29222
     29219     29217     29215     29223     29220     29217     29215     29221
     29220     29217     29215     29222     29220     29217     29215     29223
     29230     29228     29226     29232     29230     29228     29226     29233
     29230     29228     29226     29234     29231     29228     29226     29232
     29231     29228     29226     29233     29231     29228     29226     29234
     29241     29239     29237     29243     29241     29239     29237     29244
     29241     29239     29237     29245     29242     29239     29237     29243
     29242     29239     29237     29244     29242     29239     29237     29245
     29252     29250     29248     29254     29252     29250     29248     29255
     29252     29250     29248     29256     29253     29250     29248     29254
     29253     29250     29248     29255     29253     29250     29248     29256
     29263     29261     29259     29265     29263     29261     29259     29266
     29263     29261     29259     29267     29264     29261     29259     29265
     29264     29261     29259     29266     29264     29261     29259     29267
     29274     29272     29270     29276     29274     29272     29270     29277
     29274     29272     29270     29278     29275     29272     29270     29276
     29275     29272     29270     29277     29275     29272     29270     29278
     29285     29283     29281     29287     29285     29283     29281     29288
     29285     29283     29281     29289     29286     29283     29281     29287
     29286     29283     29281     29288     29286     29283     29281     29289
     29296     29294     29292     29298     29296     29294     29292     29299
     29296     29294     29292     29300     29297     29294     29292     29298
     29297     29294     29292     29299     29297     29294     29292     29300
     29307     29305     29303     29309     29307     29305     29303     29310
     29307     29305     29303     29311     29308     29305     29303     29309
     29308     29305     29303     29310     29308     29305     29303     29311
     29318     29316     29314     29320     29318     29316     29314     29321
     29318     29316     29314     29322     29319     29316     29314     29320
     29319     29316     29314     29321     29319     29316     29314     29322
     29329     29327     29325     29331     29329     29327     29325     29332
     29329     29327     29325     29333     29330     29327     29325     29331
     29330     29327     29325     29332     29330     29327     29325     29333
     29340     29338     29336     29342     29340     29338     29336     29343
     29340     29338     29336     29344     29341     29338     29336     29342
     29341     29338     29336     29343     29341     29338     29336     29344
     29351     29349     29347     29353     29351     29349     29347     29354
     29351     29349     29347     29355     29352     29349     29347     29353
     29352     29349     29347     29354     29352     29349     29347     29355
     29362     29360     29358     29364     29362     29360     29358     29365
     29362     29360     29358     29366     29363     29360     29358     29364
     29363     29360     29358     29365     29363     29360     29358     29366
     29373     29371     29369     29375     29373     29371     29369     29376
     29373     29371     29369     29377     29374     29371     29369     29375
     29374     29371     29369     29376     29374     29371     29369     29377
     29384     29382     29380     29386     29384     29382     29380     29387
     29384     29382     29380     29388     29385     29382     29380     29386
     29385     29382     29380     29387     29385     29382     29380     29388
     29395     29393     29391     29397     29395     29393     29391     29398
     29395     29393     29391     29399     29396     29393     29391     29397
     29396     29393     29391     29398     29396     29393     29391     29399
     29406     29404     29402     29408     29406     29404     29402     29409
     29406     29404     29402     29410     29407     29404     29402     29408
     29407     29404     29402     29409     29407     29404     29402     29410
     29417     29415     29413     29419     29417     29415     29413     29420
     29417     29415     29413     29421     29418     29415     29413     29419
     29418     29415     29413     29420     29418     29415     29413     29421
     29428     29426     29424     29430     29428     29426     29424     29431
     29428     29426     29424     29432     29429     29426     29424     29430
     29429     29426     29424     29431     29429     29426     29424     29432
     29439     29437     29435     29441     29439     29437     29435     29442
     29439     29437     29435     29443     29440     29437     29435     29441
     29440     29437     29435     29442     29440     29437     29435     29443
     29450     29448     29446     29452     29450     29448     29446     29453
     29450     29448     29446     29454     29451     29448     29446     29452
     29451     29448     29446     29453     29451     29448     29446     29454
     29461     29459     29457     29463     29461     29459     29457     29464
     29461     29459     29457     29465     29462     29459     29457     29463
     29462     29459     29457     29464     29462     29459     29457     29465
     29472     29470     29468     29474     29472     29470     29468     29475
     29472     29470     29468     29476     29473     29470     29468     29474
     29473     29470     29468     29475     29473     29470     29468     29476
     29483     29481     29479     29485     29483     29481     29479     29486
     29483     29481     29479     29487     29484     29481     29479     29485
     29484     29481     29479     29486     29484     29481     29479     29487
     29494     29492     29490     29496     29494     29492     29490     29497
     29494     29492     29490     29498     29495     29492     29490     29496
     29495     29492     29490     29497     29495     29492     29490     29498
     29505     29503     29501     29507     29505     29503     29501     29508
     29505     29503     29501     29509     29506     29503     29501     29507
     29506     29503     29501     29508     29506     29503     29501     29509
     29516     29514     29512     29518     29516     29514     29512     29519
     29516     29514     29512     29520     29517     29514     29512     29518
     29517     29514     29512     29519     29517     29514     29512     29520
     29527     29525     29523     29529     29527     29525     29523     29530
     29527     29525     29523     29531     29528     29525     29523     29529
     29528     29525     29523     29530     29528     29525     29523     29531
     29538     29536     29534     29540     29538     29536     29534     29541
     29538     29536     29534     29542     29539     29536     29534     29540
     29539     29536     29534     29541     29539     29536     29534     29542
     29549     29547     29545     29551     29549     29547     29545     29552
     29549     29547     29545     29553     29550     29547     29545     29551
     29550     29547     29545     29552     29550     29547     29545     29553
     29560     29558     29556     29562     29560     29558     29556     29563
     29560     29558     29556     29564     29561     29558     29556     29562
     29561     29558     29556     29563     29561     29558     29556     29564
     29571     29569     29567     29573     29571     29569     29567     29574
     29571     29569     29567     29575     29572     29569     29567     29573
     29572     29569     29567     29574     29572     29569     29567     29575
     29582     29580     29578     29584     29582     29580     29578     29585
     29582     29580     29578     29586     29583     29580     29578     29584
     29583     29580     29578     29585     29583     29580     29578     29586
     29593     29591     29589     29595     29593     29591     29589     29596
     29593     29591     29589     29597     29594     29591     29589     29595
     29594     29591     29589     29596     29594     29591     29589     29597
     29604     29602     29600     29606     29604     29602     29600     29607
     29604     29602     29600     29608     29605     29602     29600     29606
     29605     29602     29600     29607     29605     29602     29600     29608
     29615     29613     29611     29617     29615     29613     29611     29618
     29615     29613     29611     29619     29616     29613     29611     29617
     29616     29613     29611     29618     29616     29613     29611     29619
     29626     29624     29622     29628     29626     29624     29622     29629
     29626     29624     29622     29630     29627     29624     29622     29628
     29627     29624     29622     29629     29627     29624     29622     29630
     29637     29635     29633     29639     29637     29635     29633     29640
     29637     29635     29633     29641     29638     29635     29633     29639
     29638     29635     29633     29640     29638     29635     29633     29641
     29648     29646     29644     29650     29648     29646     29644     29651
     29648     29646     29644     29652     29649     29646     29644     29650
     29649     29646     29644     29651     29649     29646     29644     29652
     29659     29657     29655     29661     29659     29657     29655     29662
     29659     29657     29655     29663     29660     29657     29655     29661
     29660     29657     29655     29662     29660     29657     29655     29663
     29670     29668     29666     29672     29670     29668     29666     29673
     29670     29668     29666     29674     29671     29668     29666     29672
     29671     29668     29666     29673     29671     29668     29666     29674
     29681     29679     29677     29683     29681     29679     29677     29684
     29681     29679     29677     29685     29682     29679     29677     29683
     29682     29679     29677     29684     29682     29679     29677     29685
     29692     29690     29688     29694     29692     29690     29688     29695
     29692     29690     29688     29696     29693     29690     29688     29694
     29693     29690     29688     29695     29693     29690     29688     29696
     29703     29701     29699     29705     29703     29701     29699     29706
     29703     29701     29699     29707     29704     29701     29699     29705
     29704     29701     29699     29706     29704     29701     29699     29707
     29714     29712     29710     29716     29714     29712     29710     29717
     29714     29712     29710     29718     29715     29712     29710     29716
     29715     29712     29710     29717     29715     29712     29710     29718
     29725     29723     29721     29727     29725     29723     29721     29728
     29725     29723     29721     29729     29726     29723     29721     29727
     29726     29723     29721     29728     29726     29723     29721     29729
     29736     29734     29732     29738     29736     29734     29732     29739
     29736     29734     29732     29740     29737     29734     29732     29738
     29737     29734     29732     29739     29737     29734     29732     29740
     29747     29745     29743     29749     29747     29745     29743     29750
     29747     29745     29743     29751     29748     29745     29743     29749
     29748     29745     29743     29750     29748     29745     29743     29751
     29758     29756     29754     29760     29758     29756     29754     29761
     29758     29756     29754     29762     29759     29756     29754     29760
     29759     29756     29754     29761     29759     29756     29754     29762
     29769     29767     29765     29771     29769     29767     29765     29772
     29769     29767     29765     29773     29770     29767     29765     29771
     29770     29767     29765     29772     29770     29767     29765     29773
     29780     29778     29776     29782     29780     29778     29776     29783
     29780     29778     29776     29784     29781     29778     29776     29782
     29781     29778     29776     29783     29781     29778     29776     29784
     29791     29789     29787     29793     29791     29789     29787     29794
     29791     29789     29787     29795     29792     29789     29787     29793
     29792     29789     29787     29794     29792     29789     29787     29795
     29802     29800     29798     29804     29802     29800     29798     29805
     29802     29800     29798     29806     29803     29800     29798     29804
     29803     29800     29798     29805     29803     29800     29798     29806
     29813     29811     29809     29815     29813     29811     29809     29816
     29813     29811     29809     29817     29814     29811     29809     29815
     29814     29811     29809     29816     29814     29811     29809     29817
     29824     29822     29820     29826     29824     29822     29820     29827
     29824     29822     29820     29828     29825     29822     29820     29826
     29825     29822     29820     29827     29825     29822     29820     29828
     29835     29833     29831     29837     29835     29833     29831     29838
     29835     29833     29831     29839     29836     29833     29831     29837
     29836     29833     29831     29838     29836     29833     29831     29839
     29846     29844     29842     29848     29846     29844     29842     29849
     29846     29844     29842     29850     29847     29844     29842     29848
     29847     29844     29842     29849     29847     29844     29842     29850
     29857     29855     29853     29859     29857     29855     29853     29860
     29857     29855     29853     29861     29858     29855     29853     29859
     29858     29855     29853     29860     29858     29855     29853     29861
     29868     29866     29864     29870     29868     29866     29864     29871
     29868     29866     29864     29872     29869     29866     29864     29870
     29869     29866     29864     29871     29869     29866     29864     29872
     29879     29877     29875     29881     29879     29877     29875     29882
     29879     29877     29875     29883     29880     29877     29875     29881
     29880     29877     29875     29882     29880     29877     29875     29883
     29890     29888     29886     29892     29890     29888     29886     29893
     29890     29888     29886     29894     29891     29888     29886     29892
     29891     29888     29886     29893     29891     29888     29886     29894
     29901     29899     29897     29903     29901     29899     29897     29904
     29901     29899     29897     29905     29902     29899     29897     29903
     29902     29899     29897     29904     29902     29899     29897     29905
     29912     29910     29908     29914     29912     29910     29908     29915
     29912     29910     29908     29916     29913     29910     29908     29914
     29913     29910     29908     29915     29913     29910     29908     29916
     29923     29921     29919     29925     29923     29921     29919     29926
     29923     29921     29919     29927     29924     29921     29919     29925
     29924     29921     29919     29926     29924     29921     29919     29927
     29934     29932     29930     29936     29934     29932     29930     29937
     29934     29932     29930     29938     29935     29932     29930     29936
     29935     29932     29930     29937     29935     29932     29930     29938
     29945     29943     29941     29947     29945     29943     29941     29948
     29945     29943     29941     29949     29946     29943     29941     29947
     29946     29943     29941     29948     29946     29943     29941     29949
     29956     29954     29952     29958     29956     29954     29952     29959
     29956     29954     29952     29960     29957     29954     29952     29958
     29957     29954     29952     29959     29957     29954     29952     29960
     29967     29965     29963     29969     29967     29965     29963     29970
     29967     29965     29963     29971     29968     29965     29963     29969
     29968     29965     29963     29970     29968     29965     29963     29971
     29978     29976     29974     29980     29978     29976     29974     29981
     29978     29976     29974     29982     29979     29976     29974     29980
     29979     29976     29974     29981     29979     29976     29974     29982
     29989     29987     29985     29991     29989     29987     29985     29992
     29989     29987     29985     29993     29990     29987     29985     29991
     29990     29987     29985     29992     29990     29987     29985     29993
     30000     29998     29996     30002     30000     29998     29996     30003
     30000     29998     29996     30004     30001     29998     29996     30002
     30001     29998     29996     30003     30001     29998     29996     30004
     30011     30009     30007     30013     30011     30009     30007     30014
     30011     30009     30007     30015     30012     30009     30007     30013
     30012     30009     30007     30014     30012     30009     30007     30015
     30022     30020     30018     30024     30022     30020     30018     30025
     30022     30020     30018     30026     30023     30020     30018     30024
     30023     30020     30018     30025     30023     30020     30018     30026
     30033     30031     30029     30035     30033     30031     30029     30036
     30033     30031     30029     30037     30034     30031     30029     30035
     30034     30031     30029     30036     30034     30031     30029     30037
     30044     30042     30040     30046     30044     30042     30040     30047
     30044     30042     30040     30048     30045     30042     30040     30046
     30045     30042     30040     30047     30045     30042     30040     30048
     30055     30053     30051     30057     30055     30053     30051     30058
     30055     30053     30051     30059     30056     30053     30051     30057
     30056     30053     30051     30058     30056     30053     30051     30059
     30066     30064     30062     30068     30066     30064     30062     30069
     30066     30064     30062     30070     30067     30064     30062     30068
     30067     30064     30062     30069     30067     30064     30062     30070
     30077     30075     30073     30079     30077     30075     30073     30080
     30077     30075     30073     30081     30078     30075     30073     30079
     30078     30075     30073     30080     30078     30075     30073     30081
     30088     30086     30084     30090     30088     30086     30084     30091
     30088     30086     30084     30092     30089     30086     30084     30090
     30089     30086     30084     30091     30089     30086     30084     30092
     30099     30097     30095     30101     30099     30097     30095     30102
     30099     30097     30095     30103     30100     30097     30095     30101
     30100     30097     30095     30102     30100     30097     30095     30103
     30110     30108     30106     30112     30110     30108     30106     30113
     30110     30108     30106     30114     30111     30108     30106     30112
     30111     30108     30106     30113     30111     30108     30106     30114
     30121     30119     30117     30123     30121     30119     30117     30124
     30121     30119     30117     30125     30122     30119     30117     30123
     30122     30119     30117     30124     30122     30119     30117     30125
     30132     30130     30128     30134     30132     30130     30128     30135
     30132     30130     30128     30136     30133     30130     30128     30134
     30133     30130     30128     30135     30133     30130     30128     30136
     30143     30141     30139     30145     30143     30141     30139     30146
     30143     30141     30139     30147     30144     30141     30139     30145
     30144     30141     30139     30146     30144     30141     30139     30147
     30154     30152     30150     30156     30154     30152     30150     30157
     30154     30152     30150     30158     30155     30152     30150     30156
     30155     30152     30150     30157     30155     30152     30150     30158
     30165     30163     30161     30167     30165     30163     30161     30168
     30165     30163     30161     30169     30166     30163     30161     30167
     30166     30163     30161     30168     30166     30163     30161     30169
     30176     30174     30172     30178     30176     30174     30172     30179
     30176     30174     30172     30180     30177     30174     30172     30178
     30177     30174     30172     30179     30177     30174     30172     30180
     30187     30185     30183     30189     30187     30185     30183     30190
     30187     30185     30183     30191     30188     30185     30183     30189
     30188     30185     30183     30190     30188     30185     30183     30191
     30198     30196     30194     30200     30198     30196     30194     30201
     30198     30196     30194     30202     30199     30196     30194     30200
     30199     30196     30194     30201     30199     30196     30194     30202
     30209     30207     30205     30211     30209     30207     30205     30212
     30209     30207     30205     30213     30210     30207     30205     30211
     30210     30207     30205     30212     30210     30207     30205     30213
     30220     30218     30216     30222     30220     30218     30216     30223
     30220     30218     30216     30224     30221     30218     30216     30222
     30221     30218     30216     30223     30221     30218     30216     30224
     30231     30229     30227     30233     30231     30229     30227     30234
     30231     30229     30227     30235     30232     30229     30227     30233
     30232     30229     30227     30234     30232     30229     30227     30235
     30242     30240     30238     30244     30242     30240     30238     30245
     30242     30240     30238     30246     30243     30240     30238     30244
     30243     30240     30238     30245     30243     30240     30238     30246
     30253     30251     30249     30255     30253     30251     30249     30256
     30253     30251     30249     30257     30254     30251     30249     30255
     30254     30251     30249     30256     30254     30251     30249     30257
     30264     30262     30260     30266     30264     30262     30260     30267
     30264     30262     30260     30268     30265     30262     30260     30266
     30265     30262     30260     30267     30265     30262     30260     30268
     30275     30273     30271     30277     30275     30273     30271     30278
     30275     30273     30271     30279     30276     30273     30271     30277
     30276     30273     30271     30278     30276     30273     30271     30279
     30286     30284     30282     30288     30286     30284     30282     30289
     30286     30284     30282     30290     30287     30284     30282     30288
     30287     30284     30282     30289     30287     30284     30282     30290
     30297     30295     30293     30299     30297     30295     30293     30300
     30297     30295     30293     30301     30298     30295     30293     30299
     30298     30295     30293     30300     30298     30295     30293     30301
     30308     30306     30304     30310     30308     30306     30304     30311
     30308     30306     30304     30312     30309     30306     30304     30310
     30309     30306     30304     30311     30309     30306     30304     30312
     30319     30317     30315     30321     30319     30317     30315     30322
     30319     30317     30315     30323     30320     30317     30315     30321
     30320     30317     30315     30322     30320     30317     30315     30323
     30330     30328     30326     30332     30330     30328     30326     30333
     30330     30328     30326     30334     30331     30328     30326     30332
     30331     30328     30326     30333     30331     30328     30326     30334
     30341     30339     30337     30343     30341     30339     30337     30344
     30341     30339     30337     30345     30342     30339     30337     30343
     30342     30339     30337     30344     30342     30339     30337     30345
     30352     30350     30348     30354     30352     30350     30348     30355
     30352     30350     30348     30356     30353     30350     30348     30354
     30353     30350     30348     30355     30353     30350     30348     30356
     30363     30361     30359     30365     30363     30361     30359     30366
     30363     30361     30359     30367     30364     30361     30359     30365
     30364     30361     30359     30366     30364     30361     30359     30367
     30374     30372     30370     30376     30374     30372     30370     30377
     30374     30372     30370     30378     30375     30372     30370     30376
     30375     30372     30370     30377     30375     30372     30370     30378
     30385     30383     30381     30387     30385     30383     30381     30388
     30385     30383     30381     30389     30386     30383     30381     30387
     30386     30383     30381     30388     30386     30383     30381     30389
     30396     30394     30392     30398     30396     30394     30392     30399
     30396     30394     30392     30400     30397     30394     30392     30398
     30397     30394     30392     30399     30397     30394     30392     30400
     30407     30405     30403     30409     30407     30405     30403     30410
     30407     30405     30403     30411     30408     30405     30403     30409
     30408     30405     30403     30410     30408     30405     30403     30411
     30418     30416     30414     30420     30418     30416     30414     30421
     30418     30416     30414     30422     30419     30416     30414     30420
     30419     30416     30414     30421     30419     30416     30414     30422
     30429     30427     30425     30431     30429     30427     30425     30432
     30429     30427     30425     30433     30430     30427     30425     30431
     30430     30427     30425     30432     30430     30427     30425     30433
     30440     30438     30436     30442     30440     30438     30436     30443
     30440     30438     30436     30444     30441     30438     30436     30442
     30441     30438     30436     30443     30441     30438     30436     30444
     30451     30449     30447     30453     30451     30449     30447     30454
     30451     30449     30447     30455     30452     30449     30447     30453
     30452     30449     30447     30454     30452     30449     30447     30455
     30462     30460     30458     30464     30462     30460     30458     30465
     30462     30460     30458     30466     30463     30460     30458     30464
     30463     30460     30458     30465     30463     30460     30458     30466
     30473     30471     30469     30475     30473     30471     30469     30476
     30473     30471     30469     30477     30474     30471     30469     30475
     30474     30471     30469     30476     30474     30471     30469     30477
     30484     30482     30480     30486     30484     30482     30480     30487
     30484     30482     30480     30488     30485     30482     30480     30486
     30485     30482     30480     30487     30485     30482     30480     30488
     30495     30493     30491     30497     30495     30493     30491     30498
     30495     30493     30491     30499     30496     30493     30491     30497
     30496     30493     30491     30498     30496     30493     30491     30499
     30506     30504     30502     30508     30506     30504     30502     30509
     30506     30504     30502     30510     30507     30504     30502     30508
     30507     30504     30502     30509     30507     30504     30502     30510
     30517     30515     30513     30519     30517     30515     30513     30520
     30517     30515     30513     30521     30518     30515     30513     30519
     30518     30515     30513     30520     30518     30515     30513     30521
     30528     30526     30524     30530     30528     30526     30524     30531
     30528     30526     30524     30532     30529     30526     30524     30530
     30529     30526     30524     30531     30529     30526     30524     30532
     30539     30537     30535     30541     30539     30537     30535     30542
     30539     30537     30535     30543     30540     30537     30535     30541
     30540     30537     30535     30542     30540     30537     30535     30543
     30550     30548     30546     30552     30550     30548     30546     30553
     30550     30548     30546     30554     30551     30548     30546     30552
     30551     30548     30546     30553     30551     30548     30546     30554
     30561     30559     30557     30563     30561     30559     30557     30564
     30561     30559     30557     30565     30562     30559     30557     30563
     30562     30559     30557     30564     30562     30559     30557     30565
     30572     30570     30568     30574     30572     30570     30568     30575
     30572     30570     30568     30576     30573     30570     30568     30574
     30573     30570     30568     30575     30573     30570     30568     30576
     30583     30581     30579     30585     30583     30581     30579     30586
     30583     30581     30579     30587     30584     30581     30579     30585
     30584     30581     30579     30586     30584     30581     30579     30587
     30594     30592     30590     30596     30594     30592     30590     30597
     30594     30592     30590     30598     30595     30592     30590     30596
     30595     30592     30590     30597     30595     30592     30590     30598
     30605     30603     30601     30607     30605     30603     30601     30608
     30605     30603     30601     30609     30606     30603     30601     30607
     30606     30603     30601     30608     30606     30603     30601     30609
     30616     30614     30612     30618     30616     30614     30612     30619
     30616     30614     30612     30620     30617     30614     30612     30618
     30617     30614     30612     30619     30617     30614     30612     30620
     30627     30625     30623     30629     30627     30625     30623     30630
     30627     30625     30623     30631     30628     30625     30623     30629
     30628     30625     30623     30630     30628     30625     30623     30631
     30638     30636     30634     30640     30638     30636     30634     30641
     30638     30636     30634     30642     30639     30636     30634     30640
     30639     30636     30634     30641     30639     30636     30634     30642
     30649     30647     30645     30651     30649     30647     30645     30652
     30649     30647     30645     30653     30650     30647     30645     30651
     30650     30647     30645     30652     30650     30647     30645     30653
     30660     30658     30656     30662     30660     30658     30656     30663
     30660     30658     30656     30664     30661     30658     30656     30662
     30661     30658     30656     30663     30661     30658     30656     30664
     30671     30669     30667     30673     30671     30669     30667     30674
     30671     30669     30667     30675     30672     30669     30667     30673
     30672     30669     30667     30674     30672     30669     30667     30675
     30682     30680     30678     30684     30682     30680     30678     30685
     30682     30680     30678     30686     30683     30680     30678     30684
     30683     30680     30678     30685     30683     30680     30678     30686
     30693     30691     30689     30695     30693     30691     30689     30696
     30693     30691     30689     30697     30694     30691     30689     30695
     30694     30691     30689     30696     30694     30691     30689     30697
     30704     30702     30700     30706     30704     30702     30700     30707
     30704     30702     30700     30708     30705     30702     30700     30706
     30705     30702     30700     30707     30705     30702     30700     30708
     30715     30713     30711     30717     30715     30713     30711     30718
     30715     30713     30711     30719     30716     30713     30711     30717
     30716     30713     30711     30718     30716     30713     30711     30719
     30726     30724     30722     30728     30726     30724     30722     30729
     30726     30724     30722     30730     30727     30724     30722     30728
     30727     30724     30722     30729     30727     30724     30722     30730
     30737     30735     30733     30739     30737     30735     30733     30740
     30737     30735     30733     30741     30738     30735     30733     30739
     30738     30735     30733     30740     30738     30735     30733     30741
     30748     30746     30744     30750     30748     30746     30744     30751
     30748     30746     30744     30752     30749     30746     30744     30750
     30749     30746     30744     30751     30749     30746     30744     30752
     30759     30757     30755     30761     30759     30757     30755     30762
     30759     30757     30755     30763     30760     30757     30755     30761
     30760     30757     30755     30762     30760     30757     30755     30763
     30770     30768     30766     30772     30770     30768     30766     30773
     30770     30768     30766     30774     30771     30768     30766     30772
     30771     30768     30766     30773     30771     30768     30766     30774
     30781     30779     30777     30783     30781     30779     30777     30784
     30781     30779     30777     30785     30782     30779     30777     30783
     30782     30779     30777     30784     30782     30779     30777     30785
     30792     30790     30788     30794     30792     30790     30788     30795
     30792     30790     30788     30796     30793     30790     30788     30794
     30793     30790     30788     30795     30793     30790     30788     30796
     30803     30801     30799     30805     30803     30801     30799     30806
     30803     30801     30799     30807     30804     30801     30799     30805
     30804     30801     30799     30806     30804     30801     30799     30807
     30814     30812     30810     30816     30814     30812     30810     30817
     30814     30812     30810     30818     30815     30812     30810     30816
     30815     30812     30810     30817     30815     30812     30810     30818
     30825     30823     30821     30827     30825     30823     30821     30828
     30825     30823     30821     30829     30826     30823     30821     30827
     30826     30823     30821     30828     30826     30823     30821     30829
     30836     30834     30832     30838     30836     30834     30832     30839
     30836     30834     30832     30840     30837     30834     30832     30838
     30837     30834     30832     30839     30837     30834     30832     30840
     30847     30845     30843     30849     30847     30845     30843     30850
     30847     30845     30843     30851     30848     30845     30843     30849
     30848     30845     30843     30850     30848     30845     30843     30851
     30858     30856     30854     30860     30858     30856     30854     30861
     30858     30856     30854     30862     30859     30856     30854     30860
     30859     30856     30854     30861     30859     30856     30854     30862
     30869     30867     30865     30871     30869     30867     30865     30872
     30869     30867     30865     30873     30870     30867     30865     30871
     30870     30867     30865     30872     30870     30867     30865     30873
     30880     30878     30876     30882     30880     30878     30876     30883
     30880     30878     30876     30884     30881     30878     30876     30882
     30881     30878     30876     30883     30881     30878     30876     30884
     30891     30889     30887     30893     30891     30889     30887     30894
     30891     30889     30887     30895     30892     30889     30887     30893
     30892     30889     30887     30894     30892     30889     30887     30895
     30902     30900     30898     30904     30902     30900     30898     30905
     30902     30900     30898     30906     30903     30900     30898     30904
     30903     30900     30898     30905     30903     30900     30898     30906
     30913     30911     30909     30915     30913     30911     30909     30916
     30913     30911     30909     30917     30914     30911     30909     30915
     30914     30911     30909     30916     30914     30911     30909     30917
     30924     30922     30920     30926     30924     30922     30920     30927
     30924     30922     30920     30928     30925     30922     30920     30926
     30925     30922     30920     30927     30925     30922     30920     30928
     30935     30933     30931     30937     30935     30933     30931     30938
     30935     30933     30931     30939     30936     30933     30931     30937
     30936     30933     30931     30938     30936     30933     30931     30939
     30946     30944     30942     30948     30946     30944     30942     30949
     30946     30944     30942     30950     30947     30944     30942     30948
     30947     30944     30942     30949     30947     30944     30942     30950
     30957     30955     30953     30959     30957     30955     30953     30960
     30957     30955     30953     30961     30958     30955     30953     30959
     30958     30955     30953     30960     30958     30955     30953     30961
     30968     30966     30964     30970     30968     30966     30964     30971
     30968     30966     30964     30972     30969     30966     30964     30970
     30969     30966     30964     30971     30969     30966     30964     30972
     30979     30977     30975     30981     30979     30977     30975     30982
     30979     30977     30975     30983     30980     30977     30975     30981
     30980     30977     30975     30982     30980     30977     30975     30983
     30990     30988     30986     30992     30990     30988     30986     30993
     30990     30988     30986     30994     30991     30988     30986     30992
     30991     30988     30986     30993     30991     30988     30986     30994
     31001     30999     30997     31003     31001     30999     30997     31004
     31001     30999     30997     31005     31002     30999     30997     31003
     31002     30999     30997     31004     31002     30999     30997     31005
     31012     31010     31008     31014     31012     31010     31008     31015
     31012     31010     31008     31016     31013     31010     31008     31014
     31013     31010     31008     31015     31013     31010     31008     31016
     31023     31021     31019     31025     31023     31021     31019     31026
     31023     31021     31019     31027     31024     31021     31019     31025
     31024     31021     31019     31026     31024     31021     31019     31027
     31034     31032     31030     31036     31034     31032     31030     31037
     31034     31032     31030     31038     31035     31032     31030     31036
     31035     31032     31030     31037     31035     31032     31030     31038
     31045     31043     31041     31047     31045     31043     31041     31048
     31045     31043     31041     31049     31046     31043     31041     31047
     31046     31043     31041     31048     31046     31043     31041     31049
     31056     31054     31052     31058     31056     31054     31052     31059
     31056     31054     31052     31060     31057     31054     31052     31058
     31057     31054     31052     31059     31057     31054     31052     31060
     31067     31065     31063     31069     31067     31065     31063     31070
     31067     31065     31063     31071     31068     31065     31063     31069
     31068     31065     31063     31070     31068     31065     31063     31071
     31078     31076     31074     31080     31078     31076     31074     31081
     31078     31076     31074     31082     31079     31076     31074     31080
     31079     31076     31074     31081     31079     31076     31074     31082
     31089     31087     31085     31091     31089     31087     31085     31092
     31089     31087     31085     31093     31090     31087     31085     31091
     31090     31087     31085     31092     31090     31087     31085     31093
     31100     31098     31096     31102     31100     31098     31096     31103
     31100     31098     31096     31104     31101     31098     31096     31102
     31101     31098     31096     31103     31101     31098     31096     31104
     31111     31109     31107     31113     31111     31109     31107     31114
     31111     31109     31107     31115     31112     31109     31107     31113
     31112     31109     31107     31114     31112     31109     31107     31115
     31122     31120     31118     31124     31122     31120     31118     31125
     31122     31120     31118     31126     31123     31120     31118     31124
     31123     31120     31118     31125     31123     31120     31118     31126
     31133     31131     31129     31135     31133     31131     31129     31136
     31133     31131     31129     31137     31134     31131     31129     31135
     31134     31131     31129     31136     31134     31131     31129     31137
     31144     31142     31140     31146     31144     31142     31140     31147
     31144     31142     31140     31148     31145     31142     31140     31146
     31145     31142     31140     31147     31145     31142     31140     31148
     31155     31153     31151     31157     31155     31153     31151     31158
     31155     31153     31151     31159     31156     31153     31151     31157
     31156     31153     31151     31158     31156     31153     31151     31159
     31166     31164     31162     31168     31166     31164     31162     31169
     31166     31164     31162     31170     31167     31164     31162     31168
     31167     31164     31162     31169     31167     31164     31162     31170
     31177     31175     31173     31179     31177     31175     31173     31180
     31177     31175     31173     31181     31178     31175     31173     31179
     31178     31175     31173     31180     31178     31175     31173     31181
     31188     31186     31184     31190     31188     31186     31184     31191
     31188     31186     31184     31192     31189     31186     31184     31190
     31189     31186     31184     31191     31189     31186     31184     31192
     31199     31197     31195     31201     31199     31197     31195     31202
     31199     31197     31195     31203     31200     31197     31195     31201
     31200     31197     31195     31202     31200     31197     31195     31203
     31210     31208     31206     31212     31210     31208     31206     31213
     31210     31208     31206     31214     31211     31208     31206     31212
     31211     31208     31206     31213     31211     31208     31206     31214
     31221     31219     31217     31223     31221     31219     31217     31224
     31221     31219     31217     31225     31222     31219     31217     31223
     31222     31219     31217     31224     31222     31219     31217     31225
     31232     31230     31228     31234     31232     31230     31228     31235
     31232     31230     31228     31236     31233     31230     31228     31234
     31233     31230     31228     31235     31233     31230     31228     31236
     31243     31241     31239     31245     31243     31241     31239     31246
     31243     31241     31239     31247     31244     31241     31239     31245
     31244     31241     31239     31246     31244     31241     31239     31247
     31254     31252     31250     31256     31254     31252     31250     31257
     31254     31252     31250     31258     31255     31252     31250     31256
     31255     31252     31250     31257     31255     31252     31250     31258
     31265     31263     31261     31267     31265     31263     31261     31268
     31265     31263     31261     31269     31266     31263     31261     31267
     31266     31263     31261     31268     31266     31263     31261     31269
     31276     31274     31272     31278     31276     31274     31272     31279
     31276     31274     31272     31280     31277     31274     31272     31278
     31277     31274     31272     31279     31277     31274     31272     31280
     31287     31285     31283     31289     31287     31285     31283     31290
     31287     31285     31283     31291     31288     31285     31283     31289
     31288     31285     31283     31290     31288     31285     31283     31291
     31298     31296     31294     31300     31298     31296     31294     31301
     31298     31296     31294     31302     31299     31296     31294     31300
     31299     31296     31294     31301     31299     31296     31294     31302
     31309     31307     31305     31311     31309     31307     31305     31312
     31309     31307     31305     31313     31310     31307     31305     31311
     31310     31307     31305     31312     31310     31307     31305     31313
     31320     31318     31316     31322     31320     31318     31316     31323
     31320     31318     31316     31324     31321     31318     31316     31322
     31321     31318     31316     31323     31321     31318     31316     31324
     31331     31329     31327     31333     31331     31329     31327     31334
     31331     31329     31327     31335     31332     31329     31327     31333
     31332     31329     31327     31334     31332     31329     31327     31335
     31342     31340     31338     31344     31342     31340     31338     31345
     31342     31340     31338     31346     31343     31340     31338     31344
     31343     31340     31338     31345     31343     31340     31338     31346
     31353     31351     31349     31355     31353     31351     31349     31356
     31353     31351     31349     31357     31354     31351     31349     31355
     31354     31351     31349     31356     31354     31351     31349     31357
     31364     31362     31360     31366     31364     31362     31360     31367
     31364     31362     31360     31368     31365     31362     31360     31366
     31365     31362     31360     31367     31365     31362     31360     31368
     31375     31373     31371     31377     31375     31373     31371     31378
     31375     31373     31371     31379     31376     31373     31371     31377
     31376     31373     31371     31378     31376     31373     31371     31379
     31386     31384     31382     31388     31386     31384     31382     31389
     31386     31384     31382     31390     31387     31384     31382     31388
     31387     31384     31382     31389     31387     31384     31382     31390
     31397     31395     31393     31399     31397     31395     31393     31400
     31397     31395     31393     31401     31398     31395     31393     31399
     31398     31395     31393     31400     31398     31395     31393     31401
     31408     31406     31404     31410     31408     31406     31404     31411
     31408     31406     31404     31412     31409     31406     31404     31410
     31409     31406     31404     31411     31409     31406     31404     31412
     31419     31417     31415     31421     31419     31417     31415     31422
     31419     31417     31415     31423     31420     31417     31415     31421
     31420     31417     31415     31422     31420     31417     31415     31423
     31430     31428     31426     31432     31430     31428     31426     31433
     31430     31428     31426     31434     31431     31428     31426     31432
     31431     31428     31426     31433     31431     31428     31426     31434
     31441     31439     31437     31443     31441     31439     31437     31444
     31441     31439     31437     31445     31442     31439     31437     31443
     31442     31439     31437     31444     31442     31439     31437     31445
     31452     31450     31448     31454     31452     31450     31448     31455
     31452     31450     31448     31456     31453     31450     31448     31454
     31453     31450     31448     31455     31453     31450     31448     31456
     31463     31461     31459     31465     31463     31461     31459     31466
     31463     31461     31459     31467     31464     31461     31459     31465
     31464     31461     31459     31466     31464     31461     31459     31467
     31474     31472     31470     31476     31474     31472     31470     31477
     31474     31472     31470     31478     31475     31472     31470     31476
     31475     31472     31470     31477     31475     31472     31470     31478
     31485     31483     31481     31487     31485     31483     31481     31488
     31485     31483     31481     31489     31486     31483     31481     31487
     31486     31483     31481     31488     31486     31483     31481     31489
     31496     31494     31492     31498     31496     31494     31492     31499
     31496     31494     31492     31500     31497     31494     31492     31498
     31497     31494     31492     31499     31497     31494     31492     31500
     31507     31505     31503     31509     31507     31505     31503     31510
     31507     31505     31503     31511     31508     31505     31503     31509
     31508     31505     31503     31510     31508     31505     31503     31511
     31518     31516     31514     31520     31518     31516     31514     31521
     31518     31516     31514     31522     31519     31516     31514     31520
     31519     31516     31514     31521     31519     31516     31514     31522
     31529     31527     31525     31531     31529     31527     31525     31532
     31529     31527     31525     31533     31530     31527     31525     31531
     31530     31527     31525     31532     31530     31527     31525     31533
     31540     31538     31536     31542     31540     31538     31536     31543
     31540     31538     31536     31544     31541     31538     31536     31542
     31541     31538     31536     31543     31541     31538     31536     31544
     31551     31549     31547     31553     31551     31549     31547     31554
     31551     31549     31547     31555     31552     31549     31547     31553
     31552     31549     31547     31554     31552     31549     31547     31555
     31562     31560     31558     31564     31562     31560     31558     31565
     31562     31560     31558     31566     31563     31560     31558     31564
     31563     31560     31558     31565     31563     31560     31558     31566
     31573     31571     31569     31575     31573     31571     31569     31576
     31573     31571     31569     31577     31574     31571     31569     31575
     31574     31571     31569     31576     31574     31571     31569     31577
     31584     31582     31580     31586     31584     31582     31580     31587
     31584     31582     31580     31588     31585     31582     31580     31586
     31585     31582     31580     31587     31585     31582     31580     31588
     31595     31593     31591     31597     31595     31593     31591     31598
     31595     31593     31591     31599     31596     31593     31591     31597
     31596     31593     31591     31598     31596     31593     31591     31599
     31606     31604     31602     31608     31606     31604     31602     31609
     31606     31604     31602     31610     31607     31604     31602     31608
     31607     31604     31602     31609     31607     31604     31602     31610
     31617     31615     31613     31619     31617     31615     31613     31620
     31617     31615     31613     31621     31618     31615     31613     31619
     31618     31615     31613     31620     31618     31615     31613     31621
     31628     31626     31624     31630     31628     31626     31624     31631
     31628     31626     31624     31632     31629     31626     31624     31630
     31629     31626     31624     31631     31629     31626     31624     31632
     31639     31637     31635     31641     31639     31637     31635     31642
     31639     31637     31635     31643     31640     31637     31635     31641
     31640     31637     31635     31642     31640     31637     31635     31643
     31650     31648     31646     31652     31650     31648     31646     31653
     31650     31648     31646     31654     31651     31648     31646     31652
     31651     31648     31646     31653     31651     31648     31646     31654
     31661     31659     31657     31663     31661     31659     31657     31664
     31661     31659     31657     31665     31662     31659     31657     31663
     31662     31659     31657     31664     31662     31659     31657     31665
     31672     31670     31668     31674     31672     31670     31668     31675
     31672     31670     31668     31676     31673     31670     31668     31674
     31673     31670     31668     31675     31673     31670     31668     31676
     31683     31681     31679     31685     31683     31681     31679     31686
     31683     31681     31679     31687     31684     31681     31679     31685
     31684     31681     31679     31686     31684     31681     31679     31687
     31694     31692     31690     31696     31694     31692     31690     31697
     31694     31692     31690     31698     31695     31692     31690     31696
     31695     31692     31690     31697     31695     31692     31690     31698
     31705     31703     31701     31707     31705     31703     31701     31708
     31705     31703     31701     31709     31706     31703     31701     31707
     31706     31703     31701     31708     31706     31703     31701     31709
     31716     31714     31712     31718     31716     31714     31712     31719
     31716     31714     31712     31720     31717     31714     31712     31718
     31717     31714     31712     31719     31717     31714     31712     31720
     31727     31725     31723     31729     31727     31725     31723     31730
     31727     31725     31723     31731     31728     31725     31723     31729
     31728     31725     31723     31730     31728     31725     31723     31731
     31738     31736     31734     31740     31738     31736     31734     31741
     31738     31736     31734     31742     31739     31736     31734     31740
     31739     31736     31734     31741     31739     31736     31734     31742
     31749     31747     31745     31751     31749     31747     31745     31752
     31749     31747     31745     31753     31750     31747     31745     31751
     31750     31747     31745     31752     31750     31747     31745     31753
     31760     31758     31756     31762     31760     31758     31756     31763
     31760     31758     31756     31764     31761     31758     31756     31762
     31761     31758     31756     31763     31761     31758     31756     31764
     31771     31769     31767     31773     31771     31769     31767     31774
     31771     31769     31767     31775     31772     31769     31767     31773
     31772     31769     31767     31774     31772     31769     31767     31775
     31782     31780     31778     31784     31782     31780     31778     31785
     31782     31780     31778     31786     31783     31780     31778     31784
     31783     31780     31778     31785     31783     31780     31778     31786
     31793     31791     31789     31795     31793     31791     31789     31796
     31793     31791     31789     31797     31794     31791     31789     31795
     31794     31791     31789     31796     31794     31791     31789     31797
     31804     31802     31800     31806     31804     31802     31800     31807
     31804     31802     31800     31808     31805     31802     31800     31806
     31805     31802     31800     31807     31805     31802     31800     31808
     31815     31813     31811     31817     31815     31813     31811     31818
     31815     31813     31811     31819     31816     31813     31811     31817
     31816     31813     31811     31818     31816     31813     31811     31819
     31826     31824     31822     31828     31826     31824     31822     31829
     31826     31824     31822     31830     31827     31824     31822     31828
     31827     31824     31822     31829     31827     31824     31822     31830
     31837     31835     31833     31839     31837     31835     31833     31840
     31837     31835     31833     31841     31838     31835     31833     31839
     31838     31835     31833     31840     31838     31835     31833     31841
     31848     31846     31844     31850     31848     31846     31844     31851
     31848     31846     31844     31852     31849     31846     31844     31850
     31849     31846     31844     31851     31849     31846     31844     31852
     31859     31857     31855     31861     31859     31857     31855     31862
     31859     31857     31855     31863     31860     31857     31855     31861
     31860     31857     31855     31862     31860     31857     31855     31863
     31870     31868     31866     31872     31870     31868     31866     31873
     31870     31868     31866     31874     31871     31868     31866     31872
     31871     31868     31866     31873     31871     31868     31866     31874
     31881     31879     31877     31883     31881     31879     31877     31884
     31881     31879     31877     31885     31882     31879     31877     31883
     31882     31879     31877     31884     31882     31879     31877     31885
     31892     31890     31888     31894     31892     31890     31888     31895
     31892     31890     31888     31896     31893     31890     31888     31894
     31893     31890     31888     31895     31893     31890     31888     31896
     31903     31901     31899     31905     31903     31901     31899     31906
     31903     31901     31899     31907     31904     31901     31899     31905
     31904     31901     31899     31906     31904     31901     31899     31907
     31914     31912     31910     31916     31914     31912     31910     31917
     31914     31912     31910     31918     31915     31912     31910     31916
     31915     31912     31910     31917     31915     31912     31910     31918
     31925     31923     31921     31927     31925     31923     31921     31928
     31925     31923     31921     31929     31926     31923     31921     31927
     31926     31923     31921     31928     31926     31923     31921     31929
     31936     31934     31932     31938     31936     31934     31932     31939
     31936     31934     31932     31940     31937     31934     31932     31938
     31937     31934     31932     31939     31937     31934     31932     31940
     31947     31945     31943     31949     31947     31945     31943     31950
     31947     31945     31943     31951     31948     31945     31943     31949
     31948     31945     31943     31950     31948     31945     31943     31951
     31958     31956     31954     31960     31958     31956     31954     31961
     31958     31956     31954     31962     31959     31956     31954     31960
     31959     31956     31954     31961     31959     31956     31954     31962
     31969     31967     31965     31971     31969     31967     31965     31972
     31969     31967     31965     31973     31970     31967     31965     31971
     31970     31967     31965     31972     31970     31967     31965     31973
     31980     31978     31976     31982     31980     31978     31976     31983
     31980     31978     31976     31984     31981     31978     31976     31982
     31981     31978     31976     31983     31981     31978     31976     31984
     31991     31989     31987     31993     31991     31989     31987     31994
     31991     31989     31987     31995     31992     31989     31987     31993
     31992     31989     31987     31994     31992     31989     31987     31995
     32002     32000     31998     32004     32002     32000     31998     32005
     32002     32000     31998     32006     32003     32000     31998     32004
     32003     32000     31998     32005     32003     32000     31998     32006
     32013     32011     32009     32015     32013     32011     32009     32016
     32013     32011     32009     32017     32014     32011     32009     32015
     32014     32011     32009     32016     32014     32011     32009     32017
     32024     32022     32020     32026     32024     32022     32020     32027
     32024     32022     32020     32028     32025     32022     32020     32026
     32025     32022     32020     32027     32025     32022     32020     32028
     32035     32033     32031     32037     32035     32033     32031     32038
     32035     32033     32031     32039     32036     32033     32031     32037
     32036     32033     32031     32038     32036     32033     32031     32039
     32046     32044     32042     32048     32046     32044     32042     32049
     32046     32044     32042     32050     32047     32044     32042     32048
     32047     32044     32042     32049     32047     32044     32042     32050
     32057     32055     32053     32059     32057     32055     32053     32060
     32057     32055     32053     32061     32058     32055     32053     32059
     32058     32055     32053     32060     32058     32055     32053     32061
     32068     32066     32064     32070     32068     32066     32064     32071
     32068     32066     32064     32072     32069     32066     32064     32070
     32069     32066     32064     32071     32069     32066     32064     32072
     32079     32077     32075     32081     32079     32077     32075     32082
     32079     32077     32075     32083     32080     32077     32075     32081
     32080     32077     32075     32082     32080     32077     32075     32083
     32090     32088     32086     32092     32090     32088     32086     32093
     32090     32088     32086     32094     32091     32088     32086     32092
     32091     32088     32086     32093     32091     32088     32086     32094
     32101     32099     32097     32103     32101     32099     32097     32104
     32101     32099     32097     32105     32102     32099     32097     32103
     32102     32099     32097     32104     32102     32099     32097     32105
     32112     32110     32108     32114     32112     32110     32108     32115
     32112     32110     32108     32116     32113     32110     32108     32114
     32113     32110     32108     32115     32113     32110     32108     32116
     32123     32121     32119     32125     32123     32121     32119     32126
     32123     32121     32119     32127     32124     32121     32119     32125
     32124     32121     32119     32126     32124     32121     32119     32127
     32134     32132     32130     32136     32134     32132     32130     32137
     32134     32132     32130     32138     32135     32132     32130     32136
     32135     32132     32130     32137     32135     32132     32130     32138
     32145     32143     32141     32147     32145     32143     32141     32148
     32145     32143     32141     32149     32146     32143     32141     32147
     32146     32143     32141     32148     32146     32143     32141     32149
     32156     32154     32152     32158     32156     32154     32152     32159
     32156     32154     32152     32160     32157     32154     32152     32158
     32157     32154     32152     32159     32157     32154     32152     32160
     32167     32165     32163     32169     32167     32165     32163     32170
     32167     32165     32163     32171     32168     32165     32163     32169
     32168     32165     32163     32170     32168     32165     32163     32171
     32178     32176     32174     32180     32178     32176     32174     32181
     32178     32176     32174     32182     32179     32176     32174     32180
     32179     32176     32174     32181     32179     32176     32174     32182
     32189     32187     32185     32191     32189     32187     32185     32192
     32189     32187     32185     32193     32190     32187     32185     32191
     32190     32187     32185     32192     32190     32187     32185     32193
     32200     32198     32196     32202     32200     32198     32196     32203
     32200     32198     32196     32204     32201     32198     32196     32202
     32201     32198     32196     32203     32201     32198     32196     32204
     32211     32209     32207     32213     32211     32209     32207     32214
     32211     32209     32207     32215     32212     32209     32207     32213
     32212     32209     32207     32214     32212     32209     32207     32215
     32222     32220     32218     32224     32222     32220     32218     32225
     32222     32220     32218     32226     32223     32220     32218     32224
     32223     32220     32218     32225     32223     32220     32218     32226
     32233     32231     32229     32235     32233     32231     32229     32236
     32233     32231     32229     32237     32234     32231     32229     32235
     32234     32231     32229     32236     32234     32231     32229     32237
     32244     32242     32240     32246     32244     32242     32240     32247
     32244     32242     32240     32248     32245     32242     32240     32246
     32245     32242     32240     32247     32245     32242     32240     32248
     32255     32253     32251     32257     32255     32253     32251     32258
     32255     32253     32251     32259     32256     32253     32251     32257
     32256     32253     32251     32258     32256     32253     32251     32259
     32266     32264     32262     32268     32266     32264     32262     32269
     32266     32264     32262     32270     32267     32264     32262     32268
     32267     32264     32262     32269     32267     32264     32262     32270
     32277     32275     32273     32279     32277     32275     32273     32280
     32277     32275     32273     32281     32278     32275     32273     32279
     32278     32275     32273     32280     32278     32275     32273     32281
     32288     32286     32284     32290     32288     32286     32284     32291
     32288     32286     32284     32292     32289     32286     32284     32290
     32289     32286     32284     32291     32289     32286     32284     32292
     32299     32297     32295     32301     32299     32297     32295     32302
     32299     32297     32295     32303     32300     32297     32295     32301
     32300     32297     32295     32302     32300     32297     32295     32303
     32310     32308     32306     32312     32310     32308     32306     32313
     32310     32308     32306     32314     32311     32308     32306     32312
     32311     32308     32306     32313     32311     32308     32306     32314
     32321     32319     32317     32323     32321     32319     32317     32324
     32321     32319     32317     32325     32322     32319     32317     32323
     32322     32319     32317     32324     32322     32319     32317     32325
     32332     32330     32328     32334     32332     32330     32328     32335
     32332     32330     32328     32336     32333     32330     32328     32334
     32333     32330     32328     32335     32333     32330     32328     32336
     32343     32341     32339     32345     32343     32341     32339     32346
     32343     32341     32339     32347     32344     32341     32339     32345
     32344     32341     32339     32346     32344     32341     32339     32347
     32354     32352     32350     32356     32354     32352     32350     32357
     32354     32352     32350     32358     32355     32352     32350     32356
     32355     32352     32350     32357     32355     32352     32350     32358
     32365     32363     32361     32367     32365     32363     32361     32368
     32365     32363     32361     32369     32366     32363     32361     32367
     32366     32363     32361     32368     32366     32363     32361     32369
     32376     32374     32372     32378     32376     32374     32372     32379
     32376     32374     32372     32380     32377     32374     32372     32378
     32377     32374     32372     32379     32377     32374     32372     32380
     32387     32385     32383     32389     32387     32385     32383     32390
     32387     32385     32383     32391     32388     32385     32383     32389
     32388     32385     32383     32390     32388     32385     32383     32391
     32398     32396     32394     32400     32398     32396     32394     32401
     32398     32396     32394     32402     32399     32396     32394     32400
     32399     32396     32394     32401     32399     32396     32394     32402
     32409     32407     32405     32411     32409     32407     32405     32412
     32409     32407     32405     32413     32410     32407     32405     32411
     32410     32407     32405     32412     32410     32407     32405     32413
     32420     32418     32416     32422     32420     32418     32416     32423
     32420     32418     32416     32424     32421     32418     32416     32422
     32421     32418     32416     32423     32421     32418     32416     32424
     32431     32429     32427     32433     32431     32429     32427     32434
     32431     32429     32427     32435     32432     32429     32427     32433
     32432     32429     32427     32434     32432     32429     32427     32435
     32442     32440     32438     32444     32442     32440     32438     32445
     32442     32440     32438     32446     32443     32440     32438     32444
     32443     32440     32438     32445     32443     32440     32438     32446
     32453     32451     32449     32455     32453     32451     32449     32456
     32453     32451     32449     32457     32454     32451     32449     32455
     32454     32451     32449     32456     32454     32451     32449     32457
     32464     32462     32460     32466     32464     32462     32460     32467
     32464     32462     32460     32468     32465     32462     32460     32466
     32465     32462     32460     32467     32465     32462     32460     32468
     32475     32473     32471     32477     32475     32473     32471     32478
     32475     32473     32471     32479     32476     32473     32471     32477
     32476     32473     32471     32478     32476     32473     32471     32479
     32486     32484     32482     32488     32486     32484     32482     32489
     32486     32484     32482     32490     32487     32484     32482     32488
     32487     32484     32482     32489     32487     32484     32482     32490
     32497     32495     32493     32499     32497     32495     32493     32500
     32497     32495     32493     32501     32498     32495     32493     32499
     32498     32495     32493     32500     32498     32495     32493     32501
     32508     32506     32504     32510     32508     32506     32504     32511
     32508     32506     32504     32512     32509     32506     32504     32510
     32509     32506     32504     32511     32509     32506     32504     32512
     32519     32517     32515     32521     32519     32517     32515     32522
     32519     32517     32515     32523     32520     32517     32515     32521
     32520     32517     32515     32522     32520     32517     32515     32523
     32530     32528     32526     32532     32530     32528     32526     32533
     32530     32528     32526     32534     32531     32528     32526     32532
     32531     32528     32526     32533     32531     32528     32526     32534
     32541     32539     32537     32543     32541     32539     32537     32544
     32541     32539     32537     32545     32542     32539     32537     32543
     32542     32539     32537     32544     32542     32539     32537     32545
     32552     32550     32548     32554     32552     32550     32548     32555
     32552     32550     32548     32556     32553     32550     32548     32554
     32553     32550     32548     32555     32553     32550     32548     32556
     32563     32561     32559     32565     32563     32561     32559     32566
     32563     32561     32559     32567     32564     32561     32559     32565
     32564     32561     32559     32566     32564     32561     32559     32567
     32574     32572     32570     32576     32574     32572     32570     32577
     32574     32572     32570     32578     32575     32572     32570     32576
     32575     32572     32570     32577     32575     32572     32570     32578
     32585     32583     32581     32587     32585     32583     32581     32588
     32585     32583     32581     32589     32586     32583     32581     32587
     32586     32583     32581     32588     32586     32583     32581     32589
     32596     32594     32592     32598     32596     32594     32592     32599
     32596     32594     32592     32600     32597     32594     32592     32598
     32597     32594     32592     32599     32597     32594     32592     32600
     32607     32605     32603     32609     32607     32605     32603     32610
     32607     32605     32603     32611     32608     32605     32603     32609
     32608     32605     32603     32610     32608     32605     32603     32611
     32618     32616     32614     32620     32618     32616     32614     32621
     32618     32616     32614     32622     32619     32616     32614     32620
     32619     32616     32614     32621     32619     32616     32614     32622
     32629     32627     32625     32631     32629     32627     32625     32632
     32629     32627     32625     32633     32630     32627     32625     32631
     32630     32627     32625     32632     32630     32627     32625     32633
     32640     32638     32636     32642     32640     32638     32636     32643
     32640     32638     32636     32644     32641     32638     32636     32642
     32641     32638     32636     32643     32641     32638     32636     32644
     32651     32649     32647     32653     32651     32649     32647     32654
     32651     32649     32647     32655     32652     32649     32647     32653
     32652     32649     32647     32654     32652     32649     32647     32655
     32662     32660     32658     32664     32662     32660     32658     32665
     32662     32660     32658     32666     32663     32660     32658     32664
     32663     32660     32658     32665     32663     32660     32658     32666
     32673     32671     32669     32675     32673     32671     32669     32676
     32673     32671     32669     32677     32674     32671     32669     32675
     32674     32671     32669     32676     32674     32671     32669     32677
     32684     32682     32680     32686     32684     32682     32680     32687
     32684     32682     32680     32688     32685     32682     32680     32686
     32685     32682     32680     32687     32685     32682     32680     32688
     32695     32693     32691     32697     32695     32693     32691     32698
     32695     32693     32691     32699     32696     32693     32691     32697
     32696     32693     32691     32698     32696     32693     32691     32699
     32706     32704     32702     32708     32706     32704     32702     32709
     32706     32704     32702     32710     32707     32704     32702     32708
     32707     32704     32702     32709     32707     32704     32702     32710
     32717     32715     32713     32719     32717     32715     32713     32720
     32717     32715     32713     32721     32718     32715     32713     32719
     32718     32715     32713     32720     32718     32715     32713     32721
     32728     32726     32724     32730     32728     32726     32724     32731
     32728     32726     32724     32732     32729     32726     32724     32730
     32729     32726     32724     32731     32729     32726     32724     32732
     32739     32737     32735     32741     32739     32737     32735     32742
     32739     32737     32735     32743     32740     32737     32735     32741
     32740     32737     32735     32742     32740     32737     32735     32743
     32750     32748     32746     32752     32750     32748     32746     32753
     32750     32748     32746     32754     32751     32748     32746     32752
     32751     32748     32746     32753     32751     32748     32746     32754
     32761     32759     32757     32763     32761     32759     32757     32764
     32761     32759     32757     32765     32762     32759     32757     32763
     32762     32759     32757     32764     32762     32759     32757     32765
     32772     32770     32768     32774     32772     32770     32768     32775
     32772     32770     32768     32776     32773     32770     32768     32774
     32773     32770     32768     32775     32773     32770     32768     32776
     32783     32781     32779     32785     32783     32781     32779     32786
     32783     32781     32779     32787     32784     32781     32779     32785
     32784     32781     32779     32786     32784     32781     32779     32787
     32794     32792     32790     32796     32794     32792     32790     32797
     32794     32792     32790     32798     32795     32792     32790     32796
     32795     32792     32790     32797     32795     32792     32790     32798
     32805     32803     32801     32807     32805     32803     32801     32808
     32805     32803     32801     32809     32806     32803     32801     32807
     32806     32803     32801     32808     32806     32803     32801     32809
     32816     32814     32812     32818     32816     32814     32812     32819
     32816     32814     32812     32820     32817     32814     32812     32818
     32817     32814     32812     32819     32817     32814     32812     32820
     32827     32825     32823     32829     32827     32825     32823     32830
     32827     32825     32823     32831     32828     32825     32823     32829
     32828     32825     32823     32830     32828     32825     32823     32831
     32838     32836     32834     32840     32838     32836     32834     32841
     32838     32836     32834     32842     32839     32836     32834     32840
     32839     32836     32834     32841     32839     32836     32834     32842
     32849     32847     32845     32851     32849     32847     32845     32852
     32849     32847     32845     32853     32850     32847     32845     32851
     32850     32847     32845     32852     32850     32847     32845     32853
     32860     32858     32856     32862     32860     32858     32856     32863
     32860     32858     32856     32864     32861     32858     32856     32862
     32861     32858     32856     32863     32861     32858     32856     32864
     32871     32869     32867     32873     32871     32869     32867     32874
     32871     32869     32867     32875     32872     32869     32867     32873
     32872     32869     32867     32874     32872     32869     32867     32875
     32882     32880     32878     32884     32882     32880     32878     32885
     32882     32880     32878     32886     32883     32880     32878     32884
     32883     32880     32878     32885     32883     32880     32878     32886
     32893     32891     32889     32895     32893     32891     32889     32896
     32893     32891     32889     32897     32894     32891     32889     32895
     32894     32891     32889     32896     32894     32891     32889     32897
     32904     32902     32900     32906     32904     32902     32900     32907
     32904     32902     32900     32908     32905     32902     32900     32906
     32905     32902     32900     32907     32905     32902     32900     32908
     32915     32913     32911     32917     32915     32913     32911     32918
     32915     32913     32911     32919     32916     32913     32911     32917
     32916     32913     32911     32918     32916     32913     32911     32919
     32926     32924     32922     32928     32926     32924     32922     32929
     32926     32924     32922     32930     32927     32924     32922     32928
     32927     32924     32922     32929     32927     32924     32922     32930
     32937     32935     32933     32939     32937     32935     32933     32940
     32937     32935     32933     32941     32938     32935     32933     32939
     32938     32935     32933     32940     32938     32935     32933     32941
     32948     32946     32944     32950     32948     32946     32944     32951
     32948     32946     32944     32952     32949     32946     32944     32950
     32949     32946     32944     32951     32949     32946     32944     32952
     32959     32957     32955     32961     32959     32957     32955     32962
     32959     32957     32955     32963     32960     32957     32955     32961
     32960     32957     32955     32962     32960     32957     32955     32963
     32970     32968     32966     32972     32970     32968     32966     32973
     32970     32968     32966     32974     32971     32968     32966     32972
     32971     32968     32966     32973     32971     32968     32966     32974
     32981     32979     32977     32983     32981     32979     32977     32984
     32981     32979     32977     32985     32982     32979     32977     32983
     32982     32979     32977     32984     32982     32979     32977     32985
     32992     32990     32988     32994     32992     32990     32988     32995
     32992     32990     32988     32996     32993     32990     32988     32994
     32993     32990     32988     32995     32993     32990     32988     32996
     33003     33001     32999     33005     33003     33001     32999     33006
     33003     33001     32999     33007     33004     33001     32999     33005
     33004     33001     32999     33006     33004     33001     32999     33007
     33014     33012     33010     33016     33014     33012     33010     33017
     33014     33012     33010     33018     33015     33012     33010     33016
     33015     33012     33010     33017     33015     33012     33010     33018
     33025     33023     33021     33027     33025     33023     33021     33028
     33025     33023     33021     33029     33026     33023     33021     33027
     33026     33023     33021     33028     33026     33023     33021     33029
     33036     33034     33032     33038     33036     33034     33032     33039
     33036     33034     33032     33040     33037     33034     33032     33038
     33037     33034     33032     33039     33037     33034     33032     33040
     33047     33045     33043     33049     33047     33045     33043     33050
     33047     33045     33043     33051     33048     33045     33043     33049
     33048     33045     33043     33050     33048     33045     33043     33051
     33058     33056     33054     33060     33058     33056     33054     33061
     33058     33056     33054     33062     33059     33056     33054     33060
     33059     33056     33054     33061     33059     33056     33054     33062
     33069     33067     33065     33071     33069     33067     33065     33072
     33069     33067     33065     33073     33070     33067     33065     33071
     33070     33067     33065     33072     33070     33067     33065     33073
     33080     33078     33076     33082     33080     33078     33076     33083
     33080     33078     33076     33084     33081     33078     33076     33082
     33081     33078     33076     33083     33081     33078     33076     33084
     33091     33089     33087     33093     33091     33089     33087     33094
     33091     33089     33087     33095     33092     33089     33087     33093
     33092     33089     33087     33094     33092     33089     33087     33095
     33102     33100     33098     33104     33102     33100     33098     33105
     33102     33100     33098     33106     33103     33100     33098     33104
     33103     33100     33098     33105     33103     33100     33098     33106
     33113     33111     33109     33115     33113     33111     33109     33116
     33113     33111     33109     33117     33114     33111     33109     33115
     33114     33111     33109     33116     33114     33111     33109     33117
     33124     33122     33120     33126     33124     33122     33120     33127
     33124     33122     33120     33128     33125     33122     33120     33126
     33125     33122     33120     33127     33125     33122     33120     33128
     33135     33133     33131     33137     33135     33133     33131     33138
     33135     33133     33131     33139     33136     33133     33131     33137
     33136     33133     33131     33138     33136     33133     33131     33139
     33146     33144     33142     33148     33146     33144     33142     33149
     33146     33144     33142     33150     33147     33144     33142     33148
     33147     33144     33142     33149     33147     33144     33142     33150
     33157     33155     33153     33159     33157     33155     33153     33160
     33157     33155     33153     33161     33158     33155     33153     33159
     33158     33155     33153     33160     33158     33155     33153     33161
     33168     33166     33164     33170     33168     33166     33164     33171
     33168     33166     33164     33172     33169     33166     33164     33170
     33169     33166     33164     33171     33169     33166     33164     33172
     33179     33177     33175     33181     33179     33177     33175     33182
     33179     33177     33175     33183     33180     33177     33175     33181
     33180     33177     33175     33182     33180     33177     33175     33183
     33190     33188     33186     33192     33190     33188     33186     33193
     33190     33188     33186     33194     33191     33188     33186     33192
     33191     33188     33186     33193     33191     33188     33186     33194
     33201     33199     33197     33203     33201     33199     33197     33204
     33201     33199     33197     33205     33202     33199     33197     33203
     33202     33199     33197     33204     33202     33199     33197     33205
     33212     33210     33208     33214     33212     33210     33208     33215
     33212     33210     33208     33216     33213     33210     33208     33214
     33213     33210     33208     33215     33213     33210     33208     33216
     33223     33221     33219     33225     33223     33221     33219     33226
     33223     33221     33219     33227     33224     33221     33219     33225
     33224     33221     33219     33226     33224     33221     33219     33227
     33234     33232     33230     33236     33234     33232     33230     33237
     33234     33232     33230     33238     33235     33232     33230     33236
     33235     33232     33230     33237     33235     33232     33230     33238
     33245     33243     33241     33247     33245     33243     33241     33248
     33245     33243     33241     33249     33246     33243     33241     33247
     33246     33243     33241     33248     33246     33243     33241     33249
     33256     33254     33252     33258     33256     33254     33252     33259
     33256     33254     33252     33260     33257     33254     33252     33258
     33257     33254     33252     33259     33257     33254     33252     33260
     33267     33265     33263     33269     33267     33265     33263     33270
     33267     33265     33263     33271     33268     33265     33263     33269
     33268     33265     33263     33270     33268     33265     33263     33271
     33278     33276     33274     33280     33278     33276     33274     33281
     33278     33276     33274     33282     33279     33276     33274     33280
     33279     33276     33274     33281     33279     33276     33274     33282
     33289     33287     33285     33291     33289     33287     33285     33292
     33289     33287     33285     33293     33290     33287     33285     33291
     33290     33287     33285     33292     33290     33287     33285     33293
     33300     33298     33296     33302     33300     33298     33296     33303
     33300     33298     33296     33304     33301     33298     33296     33302
     33301     33298     33296     33303     33301     33298     33296     33304
     33311     33309     33307     33313     33311     33309     33307     33314
     33311     33309     33307     33315     33312     33309     33307     33313
     33312     33309     33307     33314     33312     33309     33307     33315
     33322     33320     33318     33324     33322     33320     33318     33325
     33322     33320     33318     33326     33323     33320     33318     33324
     33323     33320     33318     33325     33323     33320     33318     33326
     33333     33331     33329     33335     33333     33331     33329     33336
     33333     33331     33329     33337     33334     33331     33329     33335
     33334     33331     33329     33336     33334     33331     33329     33337
     33344     33342     33340     33346     33344     33342     33340     33347
     33344     33342     33340     33348     33345     33342     33340     33346
     33345     33342     33340     33347     33345     33342     33340     33348
     33355     33353     33351     33357     33355     33353     33351     33358
     33355     33353     33351     33359     33356     33353     33351     33357
     33356     33353     33351     33358     33356     33353     33351     33359
     33366     33364     33362     33368     33366     33364     33362     33369
     33366     33364     33362     33370     33367     33364     33362     33368
     33367     33364     33362     33369     33367     33364     33362     33370
     33377     33375     33373     33379     33377     33375     33373     33380
     33377     33375     33373     33381     33378     33375     33373     33379
     33378     33375     33373     33380     33378     33375     33373     33381
     33388     33386     33384     33390     33388     33386     33384     33391
     33388     33386     33384     33392     33389     33386     33384     33390
     33389     33386     33384     33391     33389     33386     33384     33392
     33399     33397     33395     33401     33399     33397     33395     33402
     33399     33397     33395     33403     33400     33397     33395     33401
     33400     33397     33395     33402     33400     33397     33395     33403
     33410     33408     33406     33412     33410     33408     33406     33413
     33410     33408     33406     33414     33411     33408     33406     33412
     33411     33408     33406     33413     33411     33408     33406     33414
     33421     33419     33417     33423     33421     33419     33417     33424
     33421     33419     33417     33425     33422     33419     33417     33423
     33422     33419     33417     33424     33422     33419     33417     33425
     33432     33430     33428     33434     33432     33430     33428     33435
     33432     33430     33428     33436     33433     33430     33428     33434
     33433     33430     33428     33435     33433     33430     33428     33436
     33443     33441     33439     33445     33443     33441     33439     33446
     33443     33441     33439     33447     33444     33441     33439     33445
     33444     33441     33439     33446     33444     33441     33439     33447
     33454     33452     33450     33456     33454     33452     33450     33457
     33454     33452     33450     33458     33455     33452     33450     33456
     33455     33452     33450     33457     33455     33452     33450     33458
     33465     33463     33461     33467     33465     33463     33461     33468
     33465     33463     33461     33469     33466     33463     33461     33467
     33466     33463     33461     33468     33466     33463     33461     33469
     33476     33474     33472     33478     33476     33474     33472     33479
     33476     33474     33472     33480     33477     33474     33472     33478
     33477     33474     33472     33479     33477     33474     33472     33480
     33487     33485     33483     33489     33487     33485     33483     33490
     33487     33485     33483     33491     33488     33485     33483     33489
     33488     33485     33483     33490     33488     33485     33483     33491
     33498     33496     33494     33500     33498     33496     33494     33501
     33498     33496     33494     33502     33499     33496     33494     33500
     33499     33496     33494     33501     33499     33496     33494     33502
     33509     33507     33505     33511     33509     33507     33505     33512
     33509     33507     33505     33513     33510     33507     33505     33511
     33510     33507     33505     33512     33510     33507     33505     33513
     33520     33518     33516     33522     33520     33518     33516     33523
     33520     33518     33516     33524     33521     33518     33516     33522
     33521     33518     33516     33523     33521     33518     33516     33524
     33531     33529     33527     33533     33531     33529     33527     33534
     33531     33529     33527     33535     33532     33529     33527     33533
     33532     33529     33527     33534     33532     33529     33527     33535
     33542     33540     33538     33544     33542     33540     33538     33545
     33542     33540     33538     33546     33543     33540     33538     33544
     33543     33540     33538     33545     33543     33540     33538     33546
     33553     33551     33549     33555     33553     33551     33549     33556
     33553     33551     33549     33557     33554     33551     33549     33555
     33554     33551     33549     33556     33554     33551     33549     33557
     33564     33562     33560     33566     33564     33562     33560     33567
     33564     33562     33560     33568     33565     33562     33560     33566
     33565     33562     33560     33567     33565     33562     33560     33568
     33575     33573     33571     33577     33575     33573     33571     33578
     33575     33573     33571     33579     33576     33573     33571     33577
     33576     33573     33571     33578     33576     33573     33571     33579
     33586     33584     33582     33588     33586     33584     33582     33589
     33586     33584     33582     33590     33587     33584     33582     33588
     33587     33584     33582     33589     33587     33584     33582     33590
     33597     33595     33593     33599     33597     33595     33593     33600
     33597     33595     33593     33601     33598     33595     33593     33599
     33598     33595     33593     33600     33598     33595     33593     33601
     33608     33606     33604     33610     33608     33606     33604     33611
     33608     33606     33604     33612     33609     33606     33604     33610
     33609     33606     33604     33611     33609     33606     33604     33612
     33619     33617     33615     33621     33619     33617     33615     33622
     33619     33617     33615     33623     33620     33617     33615     33621
     33620     33617     33615     33622     33620     33617     33615     33623
     33630     33628     33626     33632     33630     33628     33626     33633
     33630     33628     33626     33634     33631     33628     33626     33632
     33631     33628     33626     33633     33631     33628     33626     33634
     33641     33639     33637     33643     33641     33639     33637     33644
     33641     33639     33637     33645     33642     33639     33637     33643
     33642     33639     33637     33644     33642     33639     33637     33645
     33652     33650     33648     33654     33652     33650     33648     33655
     33652     33650     33648     33656     33653     33650     33648     33654
     33653     33650     33648     33655     33653     33650     33648     33656
     33663     33661     33659     33665     33663     33661     33659     33666
     33663     33661     33659     33667     33664     33661     33659     33665
     33664     33661     33659     33666     33664     33661     33659     33667
     33674     33672     33670     33676     33674     33672     33670     33677
     33674     33672     33670     33678     33675     33672     33670     33676
     33675     33672     33670     33677     33675     33672     33670     33678
     33685     33683     33681     33687     33685     33683     33681     33688
     33685     33683     33681     33689     33686     33683     33681     33687
     33686     33683     33681     33688     33686     33683     33681     33689
     33696     33694     33692     33698     33696     33694     33692     33699
     33696     33694     33692     33700     33697     33694     33692     33698
     33697     33694     33692     33699     33697     33694     33692     33700
     33707     33705     33703     33709     33707     33705     33703     33710
     33707     33705     33703     33711     33708     33705     33703     33709
     33708     33705     33703     33710     33708     33705     33703     33711
     33718     33716     33714     33720     33718     33716     33714     33721
     33718     33716     33714     33722     33719     33716     33714     33720
     33719     33716     33714     33721     33719     33716     33714     33722
     33729     33727     33725     33731     33729     33727     33725     33732
     33729     33727     33725     33733     33730     33727     33725     33731
     33730     33727     33725     33732     33730     33727     33725     33733
     33740     33738     33736     33742     33740     33738     33736     33743
     33740     33738     33736     33744     33741     33738     33736     33742
     33741     33738     33736     33743     33741     33738     33736     33744
     33751     33749     33747     33753     33751     33749     33747     33754
     33751     33749     33747     33755     33752     33749     33747     33753
     33752     33749     33747     33754     33752     33749     33747     33755
     33762     33760     33758     33764     33762     33760     33758     33765
     33762     33760     33758     33766     33763     33760     33758     33764
     33763     33760     33758     33765     33763     33760     33758     33766
     33773     33771     33769     33775     33773     33771     33769     33776
     33773     33771     33769     33777     33774     33771     33769     33775
     33774     33771     33769     33776     33774     33771     33769     33777
     33784     33782     33780     33786     33784     33782     33780     33787
     33784     33782     33780     33788     33785     33782     33780     33786
     33785     33782     33780     33787     33785     33782     33780     33788
     33795     33793     33791     33797     33795     33793     33791     33798
     33795     33793     33791     33799     33796     33793     33791     33797
     33796     33793     33791     33798     33796     33793     33791     33799
     33806     33804     33802     33808     33806     33804     33802     33809
     33806     33804     33802     33810     33807     33804     33802     33808
     33807     33804     33802     33809     33807     33804     33802     33810
     33817     33815     33813     33819     33817     33815     33813     33820
     33817     33815     33813     33821     33818     33815     33813     33819
     33818     33815     33813     33820     33818     33815     33813     33821
     33828     33826     33824     33830     33828     33826     33824     33831
     33828     33826     33824     33832     33829     33826     33824     33830
     33829     33826     33824     33831     33829     33826     33824     33832
     33839     33837     33835     33841     33839     33837     33835     33842
     33839     33837     33835     33843     33840     33837     33835     33841
     33840     33837     33835     33842     33840     33837     33835     33843
     33850     33848     33846     33852     33850     33848     33846     33853
     33850     33848     33846     33854     33851     33848     33846     33852
     33851     33848     33846     33853     33851     33848     33846     33854
     33861     33859     33857     33863     33861     33859     33857     33864
     33861     33859     33857     33865     33862     33859     33857     33863
     33862     33859     33857     33864     33862     33859     33857     33865
     33872     33870     33868     33874     33872     33870     33868     33875
     33872     33870     33868     33876     33873     33870     33868     33874
     33873     33870     33868     33875     33873     33870     33868     33876
     33883     33881     33879     33885     33883     33881     33879     33886
     33883     33881     33879     33887     33884     33881     33879     33885
     33884     33881     33879     33886     33884     33881     33879     33887
     33894     33892     33890     33896     33894     33892     33890     33897
     33894     33892     33890     33898     33895     33892     33890     33896
     33895     33892     33890     33897     33895     33892     33890     33898
     33905     33903     33901     33907     33905     33903     33901     33908
     33905     33903     33901     33909     33906     33903     33901     33907
     33906     33903     33901     33908     33906     33903     33901     33909
     33916     33914     33912     33918     33916     33914     33912     33919
     33916     33914     33912     33920     33917     33914     33912     33918
     33917     33914     33912     33919     33917     33914     33912     33920
     33927     33925     33923     33929     33927     33925     33923     33930
     33927     33925     33923     33931     33928     33925     33923     33929
     33928     33925     33923     33930     33928     33925     33923     33931
     33938     33936     33934     33940     33938     33936     33934     33941
     33938     33936     33934     33942     33939     33936     33934     33940
     33939     33936     33934     33941     33939     33936     33934     33942
     33949     33947     33945     33951     33949     33947     33945     33952
     33949     33947     33945     33953     33950     33947     33945     33951
     33950     33947     33945     33952     33950     33947     33945     33953
     33960     33958     33956     33962     33960     33958     33956     33963
     33960     33958     33956     33964     33961     33958     33956     33962
     33961     33958     33956     33963     33961     33958     33956     33964
     33971     33969     33967     33973     33971     33969     33967     33974
     33971     33969     33967     33975     33972     33969     33967     33973
     33972     33969     33967     33974     33972     33969     33967     33975
     33982     33980     33978     33984     33982     33980     33978     33985
     33982     33980     33978     33986     33983     33980     33978     33984
     33983     33980     33978     33985     33983     33980     33978     33986
     33993     33991     33989     33995     33993     33991     33989     33996
     33993     33991     33989     33997     33994     33991     33989     33995
     33994     33991     33989     33996     33994     33991     33989     33997
     34004     34002     34000     34006     34004     34002     34000     34007
     34004     34002     34000     34008     34005     34002     34000     34006
     34005     34002     34000     34007     34005     34002     34000     34008
     34015     34013     34011     34017     34015     34013     34011     34018
     34015     34013     34011     34019     34016     34013     34011     34017
     34016     34013     34011     34018     34016     34013     34011     34019
     34026     34024     34022     34028     34026     34024     34022     34029
     34026     34024     34022     34030     34027     34024     34022     34028
     34027     34024     34022     34029     34027     34024     34022     34030
     34037     34035     34033     34039     34037     34035     34033     34040
     34037     34035     34033     34041     34038     34035     34033     34039
     34038     34035     34033     34040     34038     34035     34033     34041
     34048     34046     34044     34050     34048     34046     34044     34051
     34048     34046     34044     34052     34049     34046     34044     34050
     34049     34046     34044     34051     34049     34046     34044     34052
     34059     34057     34055     34061     34059     34057     34055     34062
     34059     34057     34055     34063     34060     34057     34055     34061
     34060     34057     34055     34062     34060     34057     34055     34063
     34070     34068     34066     34072     34070     34068     34066     34073
     34070     34068     34066     34074     34071     34068     34066     34072
     34071     34068     34066     34073     34071     34068     34066     34074
     34081     34079     34077     34083     34081     34079     34077     34084
     34081     34079     34077     34085     34082     34079     34077     34083
     34082     34079     34077     34084     34082     34079     34077     34085
     34092     34090     34088     34094     34092     34090     34088     34095
     34092     34090     34088     34096     34093     34090     34088     34094
     34093     34090     34088     34095     34093     34090     34088     34096
     34103     34101     34099     34105     34103     34101     34099     34106
     34103     34101     34099     34107     34104     34101     34099     34105
     34104     34101     34099     34106     34104     34101     34099     34107
     34114     34112     34110     34116     34114     34112     34110     34117
     34114     34112     34110     34118     34115     34112     34110     34116
     34115     34112     34110     34117     34115     34112     34110     34118
     34125     34123     34121     34127     34125     34123     34121     34128
     34125     34123     34121     34129     34126     34123     34121     34127
     34126     34123     34121     34128     34126     34123     34121     34129
     34136     34134     34132     34138     34136     34134     34132     34139
     34136     34134     34132     34140     34137     34134     34132     34138
     34137     34134     34132     34139     34137     34134     34132     34140
     34147     34145     34143     34149     34147     34145     34143     34150
     34147     34145     34143     34151     34148     34145     34143     34149
     34148     34145     34143     34150     34148     34145     34143     34151
     34158     34156     34154     34160     34158     34156     34154     34161
     34158     34156     34154     34162     34159     34156     34154     34160
     34159     34156     34154     34161     34159     34156     34154     34162
     34169     34167     34165     34171     34169     34167     34165     34172
     34169     34167     34165     34173     34170     34167     34165     34171
     34170     34167     34165     34172     34170     34167     34165     34173
     34180     34178     34176     34182     34180     34178     34176     34183
     34180     34178     34176     34184     34181     34178     34176     34182
     34181     34178     34176     34183     34181     34178     34176     34184
     34191     34189     34187     34193     34191     34189     34187     34194
     34191     34189     34187     34195     34192     34189     34187     34193
     34192     34189     34187     34194     34192     34189     34187     34195
     34202     34200     34198     34204     34202     34200     34198     34205
     34202     34200     34198     34206     34203     34200     34198     34204
     34203     34200     34198     34205     34203     34200     34198     34206
     34213     34211     34209     34215     34213     34211     34209     34216
     34213     34211     34209     34217     34214     34211     34209     34215
     34214     34211     34209     34216     34214     34211     34209     34217
     34224     34222     34220     34226     34224     34222     34220     34227
     34224     34222     34220     34228     34225     34222     34220     34226
     34225     34222     34220     34227     34225     34222     34220     34228
     34235     34233     34231     34237     34235     34233     34231     34238
     34235     34233     34231     34239     34236     34233     34231     34237
     34236     34233     34231     34238     34236     34233     34231     34239
     34246     34244     34242     34248     34246     34244     34242     34249
     34246     34244     34242     34250     34247     34244     34242     34248
     34247     34244     34242     34249     34247     34244     34242     34250
     34257     34255     34253     34259     34257     34255     34253     34260
     34257     34255     34253     34261     34258     34255     34253     34259
     34258     34255     34253     34260     34258     34255     34253     34261
     34268     34266     34264     34270     34268     34266     34264     34271
     34268     34266     34264     34272     34269     34266     34264     34270
     34269     34266     34264     34271     34269     34266     34264     34272
     34279     34277     34275     34281     34279     34277     34275     34282
     34279     34277     34275     34283     34280     34277     34275     34281
     34280     34277     34275     34282     34280     34277     34275     34283
     34290     34288     34286     34292     34290     34288     34286     34293
     34290     34288     34286     34294     34291     34288     34286     34292
     34291     34288     34286     34293     34291     34288     34286     34294
     34301     34299     34297     34303     34301     34299     34297     34304
     34301     34299     34297     34305     34302     34299     34297     34303
     34302     34299     34297     34304     34302     34299     34297     34305
     34312     34310     34308     34314     34312     34310     34308     34315
     34312     34310     34308     34316     34313     34310     34308     34314
     34313     34310     34308     34315     34313     34310     34308     34316
     34323     34321     34319     34325     34323     34321     34319     34326
     34323     34321     34319     34327     34324     34321     34319     34325
     34324     34321     34319     34326     34324     34321     34319     34327
     34334     34332     34330     34336     34334     34332     34330     34337
     34334     34332     34330     34338     34335     34332     34330     34336
     34335     34332     34330     34337     34335     34332     34330     34338
     34345     34343     34341     34347     34345     34343     34341     34348
     34345     34343     34341     34349     34346     34343     34341     34347
     34346     34343     34341     34348     34346     34343     34341     34349
     34356     34354     34352     34358     34356     34354     34352     34359
     34356     34354     34352     34360     34357     34354     34352     34358
     34357     34354     34352     34359     34357     34354     34352     34360
     34367     34365     34363     34369     34367     34365     34363     34370
     34367     34365     34363     34371     34368     34365     34363     34369
     34368     34365     34363     34370     34368     34365     34363     34371
     34378     34376     34374     34380     34378     34376     34374     34381
     34378     34376     34374     34382     34379     34376     34374     34380
     34379     34376     34374     34381     34379     34376     34374     34382
     34389     34387     34385     34391     34389     34387     34385     34392
     34389     34387     34385     34393     34390     34387     34385     34391
     34390     34387     34385     34392     34390     34387     34385     34393
     34400     34398     34396     34402     34400     34398     34396     34403
     34400     34398     34396     34404     34401     34398     34396     34402
     34401     34398     34396     34403     34401     34398     34396     34404
     34411     34409     34407     34413     34411     34409     34407     34414
     34411     34409     34407     34415     34412     34409     34407     34413
     34412     34409     34407     34414     34412     34409     34407     34415
     34422     34420     34418     34424     34422     34420     34418     34425
     34422     34420     34418     34426     34423     34420     34418     34424
     34423     34420     34418     34425     34423     34420     34418     34426
     34433     34431     34429     34435     34433     34431     34429     34436
     34433     34431     34429     34437     34434     34431     34429     34435
     34434     34431     34429     34436     34434     34431     34429     34437
     34444     34442     34440     34446     34444     34442     34440     34447
     34444     34442     34440     34448     34445     34442     34440     34446
     34445     34442     34440     34447     34445     34442     34440     34448
     34455     34453     34451     34457     34455     34453     34451     34458
     34455     34453     34451     34459     34456     34453     34451     34457
     34456     34453     34451     34458     34456     34453     34451     34459
     34466     34464     34462     34468     34466     34464     34462     34469
     34466     34464     34462     34470     34467     34464     34462     34468
     34467     34464     34462     34469     34467     34464     34462     34470
     34477     34475     34473     34479     34477     34475     34473     34480
     34477     34475     34473     34481     34478     34475     34473     34479
     34478     34475     34473     34480     34478     34475     34473     34481
     34488     34486     34484     34490     34488     34486     34484     34491
     34488     34486     34484     34492     34489     34486     34484     34490
     34489     34486     34484     34491     34489     34486     34484     34492
     34499     34497     34495     34501     34499     34497     34495     34502
     34499     34497     34495     34503     34500     34497     34495     34501
     34500     34497     34495     34502     34500     34497     34495     34503
     34510     34508     34506     34512     34510     34508     34506     34513
     34510     34508     34506     34514     34511     34508     34506     34512
     34511     34508     34506     34513     34511     34508     34506     34514
     34521     34519     34517     34523     34521     34519     34517     34524
     34521     34519     34517     34525     34522     34519     34517     34523
     34522     34519     34517     34524     34522     34519     34517     34525
     34532     34530     34528     34534     34532     34530     34528     34535
     34532     34530     34528     34536     34533     34530     34528     34534
     34533     34530     34528     34535     34533     34530     34528     34536
     34543     34541     34539     34545     34543     34541     34539     34546
     34543     34541     34539     34547     34544     34541     34539     34545
     34544     34541     34539     34546     34544     34541     34539     34547
     34554     34552     34550     34556     34554     34552     34550     34557
     34554     34552     34550     34558     34555     34552     34550     34556
     34555     34552     34550     34557     34555     34552     34550     34558
     34565     34563     34561     34567     34565     34563     34561     34568
     34565     34563     34561     34569     34566     34563     34561     34567
     34566     34563     34561     34568     34566     34563     34561     34569
     34576     34574     34572     34578     34576     34574     34572     34579
     34576     34574     34572     34580     34577     34574     34572     34578
     34577     34574     34572     34579     34577     34574     34572     34580
     34587     34585     34583     34589     34587     34585     34583     34590
     34587     34585     34583     34591     34588     34585     34583     34589
     34588     34585     34583     34590     34588     34585     34583     34591
     34598     34596     34594     34600     34598     34596     34594     34601
     34598     34596     34594     34602     34599     34596     34594     34600
     34599     34596     34594     34601     34599     34596     34594     34602
     34609     34607     34605     34611     34609     34607     34605     34612
     34609     34607     34605     34613     34610     34607     34605     34611
     34610     34607     34605     34612     34610     34607     34605     34613
     34620     34618     34616     34622     34620     34618     34616     34623
     34620     34618     34616     34624     34621     34618     34616     34622
     34621     34618     34616     34623     34621     34618     34616     34624
     34631     34629     34627     34633     34631     34629     34627     34634
     34631     34629     34627     34635     34632     34629     34627     34633
     34632     34629     34627     34634     34632     34629     34627     34635
     34642     34640     34638     34644     34642     34640     34638     34645
     34642     34640     34638     34646     34643     34640     34638     34644
     34643     34640     34638     34645     34643     34640     34638     34646
     34653     34651     34649     34655     34653     34651     34649     34656
     34653     34651     34649     34657     34654     34651     34649     34655
     34654     34651     34649     34656     34654     34651     34649     34657
     34664     34662     34660     34666     34664     34662     34660     34667
     34664     34662     34660     34668     34665     34662     34660     34666
     34665     34662     34660     34667     34665     34662     34660     34668
     34675     34673     34671     34677     34675     34673     34671     34678
     34675     34673     34671     34679     34676     34673     34671     34677
     34676     34673     34671     34678     34676     34673     34671     34679
     34686     34684     34682     34688     34686     34684     34682     34689
     34686     34684     34682     34690     34687     34684     34682     34688
     34687     34684     34682     34689     34687     34684     34682     34690
     34697     34695     34693     34699     34697     34695     34693     34700
     34697     34695     34693     34701     34698     34695     34693     34699
     34698     34695     34693     34700     34698     34695     34693     34701
     34708     34706     34704     34710     34708     34706     34704     34711
     34708     34706     34704     34712     34709     34706     34704     34710
     34709     34706     34704     34711     34709     34706     34704     34712
     34719     34717     34715     34721     34719     34717     34715     34722
     34719     34717     34715     34723     34720     34717     34715     34721
     34720     34717     34715     34722     34720     34717     34715     34723
     34730     34728     34726     34732     34730     34728     34726     34733
     34730     34728     34726     34734     34731     34728     34726     34732
     34731     34728     34726     34733     34731     34728     34726     34734
     34741     34739     34737     34743     34741     34739     34737     34744
     34741     34739     34737     34745     34742     34739     34737     34743
     34742     34739     34737     34744     34742     34739     34737     34745
     34752     34750     34748     34754     34752     34750     34748     34755
     34752     34750     34748     34756     34753     34750     34748     34754
     34753     34750     34748     34755     34753     34750     34748     34756
     34763     34761     34759     34765     34763     34761     34759     34766
     34763     34761     34759     34767     34764     34761     34759     34765
     34764     34761     34759     34766     34764     34761     34759     34767
     34774     34772     34770     34776     34774     34772     34770     34777
     34774     34772     34770     34778     34775     34772     34770     34776
     34775     34772     34770     34777     34775     34772     34770     34778
     34785     34783     34781     34787     34785     34783     34781     34788
     34785     34783     34781     34789     34786     34783     34781     34787
     34786     34783     34781     34788     34786     34783     34781     34789
     34796     34794     34792     34798     34796     34794     34792     34799
     34796     34794     34792     34800     34797     34794     34792     34798
     34797     34794     34792     34799     34797     34794     34792     34800
     34807     34805     34803     34809     34807     34805     34803     34810
     34807     34805     34803     34811     34808     34805     34803     34809
     34808     34805     34803     34810     34808     34805     34803     34811
     34818     34816     34814     34820     34818     34816     34814     34821
     34818     34816     34814     34822     34819     34816     34814     34820
     34819     34816     34814     34821     34819     34816     34814     34822
     34829     34827     34825     34831     34829     34827     34825     34832
     34829     34827     34825     34833     34830     34827     34825     34831
     34830     34827     34825     34832     34830     34827     34825     34833
     34840     34838     34836     34842     34840     34838     34836     34843
     34840     34838     34836     34844     34841     34838     34836     34842
     34841     34838     34836     34843     34841     34838     34836     34844
     34851     34849     34847     34853     34851     34849     34847     34854
     34851     34849     34847     34855     34852     34849     34847     34853
     34852     34849     34847     34854     34852     34849     34847     34855
     34862     34860     34858     34864     34862     34860     34858     34865
     34862     34860     34858     34866     34863     34860     34858     34864
     34863     34860     34858     34865     34863     34860     34858     34866
     34873     34871     34869     34875     34873     34871     34869     34876
     34873     34871     34869     34877     34874     34871     34869     34875
     34874     34871     34869     34876     34874     34871     34869     34877
     34884     34882     34880     34886     34884     34882     34880     34887
     34884     34882     34880     34888     34885     34882     34880     34886
     34885     34882     34880     34887     34885     34882     34880     34888
     34895     34893     34891     34897     34895     34893     34891     34898
     34895     34893     34891     34899     34896     34893     34891     34897
     34896     34893     34891     34898     34896     34893     34891     34899
     34906     34904     34902     34908     34906     34904     34902     34909
     34906     34904     34902     34910     34907     34904     34902     34908
     34907     34904     34902     34909     34907     34904     34902     34910
     34917     34915     34913     34919     34917     34915     34913     34920
     34917     34915     34913     34921     34918     34915     34913     34919
     34918     34915     34913     34920     34918     34915     34913     34921
     34928     34926     34924     34930     34928     34926     34924     34931
     34928     34926     34924     34932     34929     34926     34924     34930
     34929     34926     34924     34931     34929     34926     34924     34932
     34939     34937     34935     34941     34939     34937     34935     34942
     34939     34937     34935     34943     34940     34937     34935     34941
     34940     34937     34935     34942     34940     34937     34935     34943
     34950     34948     34946     34952     34950     34948     34946     34953
     34950     34948     34946     34954     34951     34948     34946     34952
     34951     34948     34946     34953     34951     34948     34946     34954
     34961     34959     34957     34963     34961     34959     34957     34964
     34961     34959     34957     34965     34962     34959     34957     34963
     34962     34959     34957     34964     34962     34959     34957     34965
     34972     34970     34968     34974     34972     34970     34968     34975
     34972     34970     34968     34976     34973     34970     34968     34974
     34973     34970     34968     34975     34973     34970     34968     34976
     34983     34981     34979     34985     34983     34981     34979     34986
     34983     34981     34979     34987     34984     34981     34979     34985
     34984     34981     34979     34986     34984     34981     34979     34987
     34994     34992     34990     34996     34994     34992     34990     34997
     34994     34992     34990     34998     34995     34992     34990     34996
     34995     34992     34990     34997     34995     34992     34990     34998
     35005     35003     35001     35007     35005     35003     35001     35008
     35005     35003     35001     35009     35006     35003     35001     35007
     35006     35003     35001     35008     35006     35003     35001     35009
     35016     35014     35012     35018     35016     35014     35012     35019
     35016     35014     35012     35020     35017     35014     35012     35018
     35017     35014     35012     35019     35017     35014     35012     35020
     35027     35025     35023     35029     35027     35025     35023     35030
     35027     35025     35023     35031     35028     35025     35023     35029
     35028     35025     35023     35030     35028     35025     35023     35031
     35038     35036     35034     35040     35038     35036     35034     35041
     35038     35036     35034     35042     35039     35036     35034     35040
     35039     35036     35034     35041     35039     35036     35034     35042
     35049     35047     35045     35051     35049     35047     35045     35052
     35049     35047     35045     35053     35050     35047     35045     35051
     35050     35047     35045     35052     35050     35047     35045     35053
     35060     35058     35056     35062     35060     35058     35056     35063
     35060     35058     35056     35064     35061     35058     35056     35062
     35061     35058     35056     35063     35061     35058     35056     35064
     35071     35069     35067     35073     35071     35069     35067     35074
     35071     35069     35067     35075     35072     35069     35067     35073
     35072     35069     35067     35074     35072     35069     35067     35075
     35082     35080     35078     35084     35082     35080     35078     35085
     35082     35080     35078     35086     35083     35080     35078     35084
     35083     35080     35078     35085     35083     35080     35078     35086
     35093     35091     35089     35095     35093     35091     35089     35096
     35093     35091     35089     35097     35094     35091     35089     35095
     35094     35091     35089     35096     35094     35091     35089     35097
     35104     35102     35100     35106     35104     35102     35100     35107
     35104     35102     35100     35108     35105     35102     35100     35106
     35105     35102     35100     35107     35105     35102     35100     35108
     35115     35113     35111     35117     35115     35113     35111     35118
     35115     35113     35111     35119     35116     35113     35111     35117
     35116     35113     35111     35118     35116     35113     35111     35119
     35126     35124     35122     35128     35126     35124     35122     35129
     35126     35124     35122     35130     35127     35124     35122     35128
     35127     35124     35122     35129     35127     35124     35122     35130
     35137     35135     35133     35139     35137     35135     35133     35140
     35137     35135     35133     35141     35138     35135     35133     35139
     35138     35135     35133     35140     35138     35135     35133     35141
     35148     35146     35144     35150     35148     35146     35144     35151
     35148     35146     35144     35152     35149     35146     35144     35150
     35149     35146     35144     35151     35149     35146     35144     35152
     35159     35157     35155     35161     35159     35157     35155     35162
     35159     35157     35155     35163     35160     35157     35155     35161
     35160     35157     35155     35162     35160     35157     35155     35163
     35170     35168     35166     35172     35170     35168     35166     35173
     35170     35168     35166     35174     35171     35168     35166     35172
     35171     35168     35166     35173     35171     35168     35166     35174
     35181     35179     35177     35183     35181     35179     35177     35184
     35181     35179     35177     35185     35182     35179     35177     35183
     35182     35179     35177     35184     35182     35179     35177     35185
     35192     35190     35188     35194     35192     35190     35188     35195
     35192     35190     35188     35196     35193     35190     35188     35194
     35193     35190     35188     35195     35193     35190     35188     35196
     35203     35201     35199     35205     35203     35201     35199     35206
     35203     35201     35199     35207     35204     35201     35199     35205
     35204     35201     35199     35206     35204     35201     35199     35207
     35214     35212     35210     35216     35214     35212     35210     35217
     35214     35212     35210     35218     35215     35212     35210     35216
     35215     35212     35210     35217     35215     35212     35210     35218
     35225     35223     35221     35227     35225     35223     35221     35228
     35225     35223     35221     35229     35226     35223     35221     35227
     35226     35223     35221     35228     35226     35223     35221     35229
     35236     35234     35232     35238     35236     35234     35232     35239
     35236     35234     35232     35240     35237     35234     35232     35238
     35237     35234     35232     35239     35237     35234     35232     35240
     35247     35245     35243     35249     35247     35245     35243     35250
     35247     35245     35243     35251     35248     35245     35243     35249
     35248     35245     35243     35250     35248     35245     35243     35251
     35258     35256     35254     35260     35258     35256     35254     35261
     35258     35256     35254     35262     35259     35256     35254     35260
     35259     35256     35254     35261     35259     35256     35254     35262
     35269     35267     35265     35271     35269     35267     35265     35272
     35269     35267     35265     35273     35270     35267     35265     35271
     35270     35267     35265     35272     35270     35267     35265     35273
     35280     35278     35276     35282     35280     35278     35276     35283
     35280     35278     35276     35284     35281     35278     35276     35282
     35281     35278     35276     35283     35281     35278     35276     35284
     35291     35289     35287     35293     35291     35289     35287     35294
     35291     35289     35287     35295     35292     35289     35287     35293
     35292     35289     35287     35294     35292     35289     35287     35295
     35302     35300     35298     35304     35302     35300     35298     35305
     35302     35300     35298     35306     35303     35300     35298     35304
     35303     35300     35298     35305     35303     35300     35298     35306
     35313     35311     35309     35315     35313     35311     35309     35316
     35313     35311     35309     35317     35314     35311     35309     35315
     35314     35311     35309     35316     35314     35311     35309     35317
     35324     35322     35320     35326     35324     35322     35320     35327
     35324     35322     35320     35328     35325     35322     35320     35326
     35325     35322     35320     35327     35325     35322     35320     35328
     35335     35333     35331     35337     35335     35333     35331     35338
     35335     35333     35331     35339     35336     35333     35331     35337
     35336     35333     35331     35338     35336     35333     35331     35339
     35346     35344     35342     35348     35346     35344     35342     35349
     35346     35344     35342     35350     35347     35344     35342     35348
     35347     35344     35342     35349     35347     35344     35342     35350
     35357     35355     35353     35359     35357     35355     35353     35360
     35357     35355     35353     35361     35358     35355     35353     35359
     35358     35355     35353     35360     35358     35355     35353     35361
     35368     35366     35364     35370     35368     35366     35364     35371
     35368     35366     35364     35372     35369     35366     35364     35370
     35369     35366     35364     35371     35369     35366     35364     35372
     35379     35377     35375     35381     35379     35377     35375     35382
     35379     35377     35375     35383     35380     35377     35375     35381
     35380     35377     35375     35382     35380     35377     35375     35383
     35390     35388     35386     35392     35390     35388     35386     35393
     35390     35388     35386     35394     35391     35388     35386     35392
     35391     35388     35386     35393     35391     35388     35386     35394
     35401     35399     35397     35403     35401     35399     35397     35404
     35401     35399     35397     35405     35402     35399     35397     35403
     35402     35399     35397     35404     35402     35399     35397     35405
     35412     35410     35408     35414     35412     35410     35408     35415
     35412     35410     35408     35416     35413     35410     35408     35414
     35413     35410     35408     35415     35413     35410     35408     35416
     35423     35421     35419     35425     35423     35421     35419     35426
     35423     35421     35419     35427     35424     35421     35419     35425
     35424     35421     35419     35426     35424     35421     35419     35427
     35434     35432     35430     35436     35434     35432     35430     35437
     35434     35432     35430     35438     35435     35432     35430     35436
     35435     35432     35430     35437     35435     35432     35430     35438
     35445     35443     35441     35447     35445     35443     35441     35448
     35445     35443     35441     35449     35446     35443     35441     35447
     35446     35443     35441     35448     35446     35443     35441     35449
     35456     35454     35452     35458     35456     35454     35452     35459
     35456     35454     35452     35460     35457     35454     35452     35458
     35457     35454     35452     35459     35457     35454     35452     35460
     35467     35465     35463     35469     35467     35465     35463     35470
     35467     35465     35463     35471     35468     35465     35463     35469
     35468     35465     35463     35470     35468     35465     35463     35471
     35478     35476     35474     35480     35478     35476     35474     35481
     35478     35476     35474     35482     35479     35476     35474     35480
     35479     35476     35474     35481     35479     35476     35474     35482
     35489     35487     35485     35491     35489     35487     35485     35492
     35489     35487     35485     35493     35490     35487     35485     35491
     35490     35487     35485     35492     35490     35487     35485     35493
     35500     35498     35496     35502     35500     35498     35496     35503
     35500     35498     35496     35504     35501     35498     35496     35502
     35501     35498     35496     35503     35501     35498     35496     35504
     35511     35509     35507     35513     35511     35509     35507     35514
     35511     35509     35507     35515     35512     35509     35507     35513
     35512     35509     35507     35514     35512     35509     35507     35515
     35522     35520     35518     35524     35522     35520     35518     35525
     35522     35520     35518     35526     35523     35520     35518     35524
     35523     35520     35518     35525     35523     35520     35518     35526
     35533     35531     35529     35535     35533     35531     35529     35536
     35533     35531     35529     35537     35534     35531     35529     35535
     35534     35531     35529     35536     35534     35531     35529     35537
     35544     35542     35540     35546     35544     35542     35540     35547
     35544     35542     35540     35548     35545     35542     35540     35546
     35545     35542     35540     35547     35545     35542     35540     35548
     35555     35553     35551     35557     35555     35553     35551     35558
     35555     35553     35551     35559     35556     35553     35551     35557
     35556     35553     35551     35558     35556     35553     35551     35559
     35566     35564     35562     35568     35566     35564     35562     35569
     35566     35564     35562     35570     35567     35564     35562     35568
     35567     35564     35562     35569     35567     35564     35562     35570
     35577     35575     35573     35579     35577     35575     35573     35580
     35577     35575     35573     35581     35578     35575     35573     35579
     35578     35575     35573     35580     35578     35575     35573     35581
     35588     35586     35584     35590     35588     35586     35584     35591
     35588     35586     35584     35592     35589     35586     35584     35590
     35589     35586     35584     35591     35589     35586     35584     35592
     35599     35597     35595     35601     35599     35597     35595     35602
     35599     35597     35595     35603     35600     35597     35595     35601
     35600     35597     35595     35602     35600     35597     35595     35603
     35610     35608     35606     35612     35610     35608     35606     35613
     35610     35608     35606     35614     35611     35608     35606     35612
     35611     35608     35606     35613     35611     35608     35606     35614
     35621     35619     35617     35623     35621     35619     35617     35624
     35621     35619     35617     35625     35622     35619     35617     35623
     35622     35619     35617     35624     35622     35619     35617     35625
     35632     35630     35628     35634     35632     35630     35628     35635
     35632     35630     35628     35636     35633     35630     35628     35634
     35633     35630     35628     35635     35633     35630     35628     35636
     35643     35641     35639     35645     35643     35641     35639     35646
     35643     35641     35639     35647     35644     35641     35639     35645
     35644     35641     35639     35646     35644     35641     35639     35647
     35654     35652     35650     35656     35654     35652     35650     35657
     35654     35652     35650     35658     35655     35652     35650     35656
     35655     35652     35650     35657     35655     35652     35650     35658
     35665     35663     35661     35667     35665     35663     35661     35668
     35665     35663     35661     35669     35666     35663     35661     35667
     35666     35663     35661     35668     35666     35663     35661     35669
     35676     35674     35672     35678     35676     35674     35672     35679
     35676     35674     35672     35680     35677     35674     35672     35678
     35677     35674     35672     35679     35677     35674     35672     35680
     35687     35685     35683     35689     35687     35685     35683     35690
     35687     35685     35683     35691     35688     35685     35683     35689
     35688     35685     35683     35690     35688     35685     35683     35691
     35698     35696     35694     35700     35698     35696     35694     35701
     35698     35696     35694     35702     35699     35696     35694     35700
     35699     35696     35694     35701     35699     35696     35694     35702
     35709     35707     35705     35711     35709     35707     35705     35712
     35709     35707     35705     35713     35710     35707     35705     35711
     35710     35707     35705     35712     35710     35707     35705     35713
     35720     35718     35716     35722     35720     35718     35716     35723
     35720     35718     35716     35724     35721     35718     35716     35722
     35721     35718     35716     35723     35721     35718     35716     35724
     35731     35729     35727     35733     35731     35729     35727     35734
     35731     35729     35727     35735     35732     35729     35727     35733
     35732     35729     35727     35734     35732     35729     35727     35735
     35742     35740     35738     35744     35742     35740     35738     35745
     35742     35740     35738     35746     35743     35740     35738     35744
     35743     35740     35738     35745     35743     35740     35738     35746
     35753     35751     35749     35755     35753     35751     35749     35756
     35753     35751     35749     35757     35754     35751     35749     35755
     35754     35751     35749     35756     35754     35751     35749     35757
     35764     35762     35760     35766     35764     35762     35760     35767
     35764     35762     35760     35768     35765     35762     35760     35766
     35765     35762     35760     35767     35765     35762     35760     35768
     35775     35773     35771     35777     35775     35773     35771     35778
     35775     35773     35771     35779     35776     35773     35771     35777
     35776     35773     35771     35778     35776     35773     35771     35779
     35786     35784     35782     35788     35786     35784     35782     35789
     35786     35784     35782     35790     35787     35784     35782     35788
     35787     35784     35782     35789     35787     35784     35782     35790
     35797     35795     35793     35799     35797     35795     35793     35800
     35797     35795     35793     35801     35798     35795     35793     35799
     35798     35795     35793     35800     35798     35795     35793     35801
     35808     35806     35804     35810     35808     35806     35804     35811
     35808     35806     35804     35812     35809     35806     35804     35810
     35809     35806     35804     35811     35809     35806     35804     35812
     35819     35817     35815     35821     35819     35817     35815     35822
     35819     35817     35815     35823     35820     35817     35815     35821
     35820     35817     35815     35822     35820     35817     35815     35823
     35830     35828     35826     35832     35830     35828     35826     35833
     35830     35828     35826     35834     35831     35828     35826     35832
     35831     35828     35826     35833     35831     35828     35826     35834
     35841     35839     35837     35843     35841     35839     35837     35844
     35841     35839     35837     35845     35842     35839     35837     35843
     35842     35839     35837     35844     35842     35839     35837     35845
     35852     35850     35848     35854     35852     35850     35848     35855
     35852     35850     35848     35856     35853     35850     35848     35854
     35853     35850     35848     35855     35853     35850     35848     35856
     35863     35861     35859     35865     35863     35861     35859     35866
     35863     35861     35859     35867     35864     35861     35859     35865
     35864     35861     35859     35866     35864     35861     35859     35867
     35874     35872     35870     35876     35874     35872     35870     35877
     35874     35872     35870     35878     35875     35872     35870     35876
     35875     35872     35870     35877     35875     35872     35870     35878
     35885     35883     35881     35887     35885     35883     35881     35888
     35885     35883     35881     35889     35886     35883     35881     35887
     35886     35883     35881     35888     35886     35883     35881     35889
     35896     35894     35892     35898     35896     35894     35892     35899
     35896     35894     35892     35900     35897     35894     35892     35898
     35897     35894     35892     35899     35897     35894     35892     35900
     35907     35905     35903     35909     35907     35905     35903     35910
     35907     35905     35903     35911     35908     35905     35903     35909
     35908     35905     35903     35910     35908     35905     35903     35911
     35918     35916     35914     35920     35918     35916     35914     35921
     35918     35916     35914     35922     35919     35916     35914     35920
     35919     35916     35914     35921     35919     35916     35914     35922
     35929     35927     35925     35931     35929     35927     35925     35932
     35929     35927     35925     35933     35930     35927     35925     35931
     35930     35927     35925     35932     35930     35927     35925     35933
     35940     35938     35936     35942     35940     35938     35936     35943
     35940     35938     35936     35944     35941     35938     35936     35942
     35941     35938     35936     35943     35941     35938     35936     35944
     35951     35949     35947     35953     35951     35949     35947     35954
     35951     35949     35947     35955     35952     35949     35947     35953
     35952     35949     35947     35954     35952     35949     35947     35955
     35962     35960     35958     35964     35962     35960     35958     35965
     35962     35960     35958     35966     35963     35960     35958     35964
     35963     35960     35958     35965     35963     35960     35958     35966
     35973     35971     35969     35975     35973     35971     35969     35976
     35973     35971     35969     35977     35974     35971     35969     35975
     35974     35971     35969     35976     35974     35971     35969     35977
     35984     35982     35980     35986     35984     35982     35980     35987
     35984     35982     35980     35988     35985     35982     35980     35986
     35985     35982     35980     35987     35985     35982     35980     35988
     35995     35993     35991     35997     35995     35993     35991     35998
     35995     35993     35991     35999     35996     35993     35991     35997
     35996     35993     35991     35998     35996     35993     35991     35999
     36006     36004     36002     36008     36006     36004     36002     36009
     36006     36004     36002     36010     36007     36004     36002     36008
     36007     36004     36002     36009     36007     36004     36002     36010
     36017     36015     36013     36019     36017     36015     36013     36020
     36017     36015     36013     36021     36018     36015     36013     36019
     36018     36015     36013     36020     36018     36015     36013     36021
     36028     36026     36024     36030     36028     36026     36024     36031
     36028     36026     36024     36032     36029     36026     36024     36030
     36029     36026     36024     36031     36029     36026     36024     36032
     36039     36037     36035     36041     36039     36037     36035     36042
     36039     36037     36035     36043     36040     36037     36035     36041
     36040     36037     36035     36042     36040     36037     36035     36043
     36050     36048     36046     36052     36050     36048     36046     36053
     36050     36048     36046     36054     36051     36048     36046     36052
     36051     36048     36046     36053     36051     36048     36046     36054
     36061     36059     36057     36063     36061     36059     36057     36064
     36061     36059     36057     36065     36062     36059     36057     36063
     36062     36059     36057     36064     36062     36059     36057     36065
     36072     36070     36068     36074     36072     36070     36068     36075
     36072     36070     36068     36076     36073     36070     36068     36074
     36073     36070     36068     36075     36073     36070     36068     36076
     36083     36081     36079     36085     36083     36081     36079     36086
     36083     36081     36079     36087     36084     36081     36079     36085
     36084     36081     36079     36086     36084     36081     36079     36087
     36094     36092     36090     36096     36094     36092     36090     36097
     36094     36092     36090     36098     36095     36092     36090     36096
     36095     36092     36090     36097     36095     36092     36090     36098
     36105     36103     36101     36107     36105     36103     36101     36108
     36105     36103     36101     36109     36106     36103     36101     36107
     36106     36103     36101     36108     36106     36103     36101     36109
     36116     36114     36112     36118     36116     36114     36112     36119
     36116     36114     36112     36120     36117     36114     36112     36118
     36117     36114     36112     36119     36117     36114     36112     36120
     36127     36125     36123     36129     36127     36125     36123     36130
     36127     36125     36123     36131     36128     36125     36123     36129
     36128     36125     36123     36130     36128     36125     36123     36131
     36138     36136     36134     36140     36138     36136     36134     36141
     36138     36136     36134     36142     36139     36136     36134     36140
     36139     36136     36134     36141     36139     36136     36134     36142
     36149     36147     36145     36151     36149     36147     36145     36152
     36149     36147     36145     36153     36150     36147     36145     36151
     36150     36147     36145     36152     36150     36147     36145     36153
     36160     36158     36156     36162     36160     36158     36156     36163
     36160     36158     36156     36164     36161     36158     36156     36162
     36161     36158     36156     36163     36161     36158     36156     36164
     36171     36169     36167     36173     36171     36169     36167     36174
     36171     36169     36167     36175     36172     36169     36167     36173
     36172     36169     36167     36174     36172     36169     36167     36175
     36182     36180     36178     36184     36182     36180     36178     36185
     36182     36180     36178     36186     36183     36180     36178     36184
     36183     36180     36178     36185     36183     36180     36178     36186
     36193     36191     36189     36195     36193     36191     36189     36196
     36193     36191     36189     36197     36194     36191     36189     36195
     36194     36191     36189     36196     36194     36191     36189     36197
     36204     36202     36200     36206     36204     36202     36200     36207
     36204     36202     36200     36208     36205     36202     36200     36206
     36205     36202     36200     36207     36205     36202     36200     36208
     36215     36213     36211     36217     36215     36213     36211     36218
     36215     36213     36211     36219     36216     36213     36211     36217
     36216     36213     36211     36218     36216     36213     36211     36219
     36226     36224     36222     36228     36226     36224     36222     36229
     36226     36224     36222     36230     36227     36224     36222     36228
     36227     36224     36222     36229     36227     36224     36222     36230
     36237     36235     36233     36239     36237     36235     36233     36240
     36237     36235     36233     36241     36238     36235     36233     36239
     36238     36235     36233     36240     36238     36235     36233     36241
     36248     36246     36244     36250     36248     36246     36244     36251
     36248     36246     36244     36252     36249     36246     36244     36250
     36249     36246     36244     36251     36249     36246     36244     36252
     36259     36257     36255     36261     36259     36257     36255     36262
     36259     36257     36255     36263     36260     36257     36255     36261
     36260     36257     36255     36262     36260     36257     36255     36263
     36270     36268     36266     36272     36270     36268     36266     36273
     36270     36268     36266     36274     36271     36268     36266     36272
     36271     36268     36266     36273     36271     36268     36266     36274
     36281     36279     36277     36283     36281     36279     36277     36284
     36281     36279     36277     36285     36282     36279     36277     36283
     36282     36279     36277     36284     36282     36279     36277     36285
     36292     36290     36288     36294     36292     36290     36288     36295
     36292     36290     36288     36296     36293     36290     36288     36294
     36293     36290     36288     36295     36293     36290     36288     36296
     36303     36301     36299     36305     36303     36301     36299     36306
     36303     36301     36299     36307     36304     36301     36299     36305
     36304     36301     36299     36306     36304     36301     36299     36307
     36314     36312     36310     36316     36314     36312     36310     36317
     36314     36312     36310     36318     36315     36312     36310     36316
     36315     36312     36310     36317     36315     36312     36310     36318
     36325     36323     36321     36327     36325     36323     36321     36328
     36325     36323     36321     36329     36326     36323     36321     36327
     36326     36323     36321     36328     36326     36323     36321     36329
     36336     36334     36332     36338     36336     36334     36332     36339
     36336     36334     36332     36340     36337     36334     36332     36338
     36337     36334     36332     36339     36337     36334     36332     36340
     36347     36345     36343     36349     36347     36345     36343     36350
     36347     36345     36343     36351     36348     36345     36343     36349
     36348     36345     36343     36350     36348     36345     36343     36351
     36358     36356     36354     36360     36358     36356     36354     36361
     36358     36356     36354     36362     36359     36356     36354     36360
     36359     36356     36354     36361     36359     36356     36354     36362
     36369     36367     36365     36371     36369     36367     36365     36372
     36369     36367     36365     36373     36370     36367     36365     36371
     36370     36367     36365     36372     36370     36367     36365     36373
     36380     36378     36376     36382     36380     36378     36376     36383
     36380     36378     36376     36384     36381     36378     36376     36382
     36381     36378     36376     36383     36381     36378     36376     36384
     36391     36389     36387     36393     36391     36389     36387     36394
     36391     36389     36387     36395     36392     36389     36387     36393
     36392     36389     36387     36394     36392     36389     36387     36395
     36402     36400     36398     36404     36402     36400     36398     36405
     36402     36400     36398     36406     36403     36400     36398     36404
     36403     36400     36398     36405     36403     36400     36398     36406
     36413     36411     36409     36415     36413     36411     36409     36416
     36413     36411     36409     36417     36414     36411     36409     36415
     36414     36411     36409     36416     36414     36411     36409     36417
     36424     36422     36420     36426     36424     36422     36420     36427
     36424     36422     36420     36428     36425     36422     36420     36426
     36425     36422     36420     36427     36425     36422     36420     36428
     36435     36433     36431     36437     36435     36433     36431     36438
     36435     36433     36431     36439     36436     36433     36431     36437
     36436     36433     36431     36438     36436     36433     36431     36439
     36446     36444     36442     36448     36446     36444     36442     36449
     36446     36444     36442     36450     36447     36444     36442     36448
     36447     36444     36442     36449     36447     36444     36442     36450
     36457     36455     36453     36459     36457     36455     36453     36460
     36457     36455     36453     36461     36458     36455     36453     36459
     36458     36455     36453     36460     36458     36455     36453     36461
     36468     36466     36464     36470     36468     36466     36464     36471
     36468     36466     36464     36472     36469     36466     36464     36470
     36469     36466     36464     36471     36469     36466     36464     36472
     36479     36477     36475     36481     36479     36477     36475     36482
     36479     36477     36475     36483     36480     36477     36475     36481
     36480     36477     36475     36482     36480     36477     36475     36483
     36490     36488     36486     36492     36490     36488     36486     36493
     36490     36488     36486     36494     36491     36488     36486     36492
     36491     36488     36486     36493     36491     36488     36486     36494
     36501     36499     36497     36503     36501     36499     36497     36504
     36501     36499     36497     36505     36502     36499     36497     36503
     36502     36499     36497     36504     36502     36499     36497     36505
     36512     36510     36508     36514     36512     36510     36508     36515
     36512     36510     36508     36516     36513     36510     36508     36514
     36513     36510     36508     36515     36513     36510     36508     36516
     36523     36521     36519     36525     36523     36521     36519     36526
     36523     36521     36519     36527     36524     36521     36519     36525
     36524     36521     36519     36526     36524     36521     36519     36527
     36534     36532     36530     36536     36534     36532     36530     36537
     36534     36532     36530     36538     36535     36532     36530     36536
     36535     36532     36530     36537     36535     36532     36530     36538
     36545     36543     36541     36547     36545     36543     36541     36548
     36545     36543     36541     36549     36546     36543     36541     36547
     36546     36543     36541     36548     36546     36543     36541     36549
     36556     36554     36552     36558     36556     36554     36552     36559
     36556     36554     36552     36560     36557     36554     36552     36558
     36557     36554     36552     36559     36557     36554     36552     36560
     36567     36565     36563     36569     36567     36565     36563     36570
     36567     36565     36563     36571     36568     36565     36563     36569
     36568     36565     36563     36570     36568     36565     36563     36571
     36578     36576     36574     36580     36578     36576     36574     36581
     36578     36576     36574     36582     36579     36576     36574     36580
     36579     36576     36574     36581     36579     36576     36574     36582
     36589     36587     36585     36591     36589     36587     36585     36592
     36589     36587     36585     36593     36590     36587     36585     36591
     36590     36587     36585     36592     36590     36587     36585     36593
     36600     36598     36596     36602     36600     36598     36596     36603
     36600     36598     36596     36604     36601     36598     36596     36602
     36601     36598     36596     36603     36601     36598     36596     36604
     36611     36609     36607     36613     36611     36609     36607     36614
     36611     36609     36607     36615     36612     36609     36607     36613
     36612     36609     36607     36614     36612     36609     36607     36615
     36622     36620     36618     36624     36622     36620     36618     36625
     36622     36620     36618     36626     36623     36620     36618     36624
     36623     36620     36618     36625     36623     36620     36618     36626
     36633     36631     36629     36635     36633     36631     36629     36636
     36633     36631     36629     36637     36634     36631     36629     36635
     36634     36631     36629     36636     36634     36631     36629     36637
     36644     36642     36640     36646     36644     36642     36640     36647
     36644     36642     36640     36648     36645     36642     36640     36646
     36645     36642     36640     36647     36645     36642     36640     36648
     36655     36653     36651     36657     36655     36653     36651     36658
     36655     36653     36651     36659     36656     36653     36651     36657
     36656     36653     36651     36658     36656     36653     36651     36659
     36666     36664     36662     36668     36666     36664     36662     36669
     36666     36664     36662     36670     36667     36664     36662     36668
     36667     36664     36662     36669     36667     36664     36662     36670
     36677     36675     36673     36679     36677     36675     36673     36680
     36677     36675     36673     36681     36678     36675     36673     36679
     36678     36675     36673     36680     36678     36675     36673     36681
     36688     36686     36684     36690     36688     36686     36684     36691
     36688     36686     36684     36692     36689     36686     36684     36690
     36689     36686     36684     36691     36689     36686     36684     36692
     36699     36697     36695     36701     36699     36697     36695     36702
     36699     36697     36695     36703     36700     36697     36695     36701
     36700     36697     36695     36702     36700     36697     36695     36703
     36710     36708     36706     36712     36710     36708     36706     36713
     36710     36708     36706     36714     36711     36708     36706     36712
     36711     36708     36706     36713     36711     36708     36706     36714
     36721     36719     36717     36723     36721     36719     36717     36724
     36721     36719     36717     36725     36722     36719     36717     36723
     36722     36719     36717     36724     36722     36719     36717     36725
     36732     36730     36728     36734     36732     36730     36728     36735
     36732     36730     36728     36736     36733     36730     36728     36734
     36733     36730     36728     36735     36733     36730     36728     36736
     36743     36741     36739     36745     36743     36741     36739     36746
     36743     36741     36739     36747     36744     36741     36739     36745
     36744     36741     36739     36746     36744     36741     36739     36747
     36754     36752     36750     36756     36754     36752     36750     36757
     36754     36752     36750     36758     36755     36752     36750     36756
     36755     36752     36750     36757     36755     36752     36750     36758
     36765     36763     36761     36767     36765     36763     36761     36768
     36765     36763     36761     36769     36766     36763     36761     36767
     36766     36763     36761     36768     36766     36763     36761     36769
     36776     36774     36772     36778     36776     36774     36772     36779
     36776     36774     36772     36780     36777     36774     36772     36778
     36777     36774     36772     36779     36777     36774     36772     36780
     36787     36785     36783     36789     36787     36785     36783     36790
     36787     36785     36783     36791     36788     36785     36783     36789
     36788     36785     36783     36790     36788     36785     36783     36791
     36798     36796     36794     36800     36798     36796     36794     36801
     36798     36796     36794     36802     36799     36796     36794     36800
     36799     36796     36794     36801     36799     36796     36794     36802
     36809     36807     36805     36811     36809     36807     36805     36812
     36809     36807     36805     36813     36810     36807     36805     36811
     36810     36807     36805     36812     36810     36807     36805     36813
     36820     36818     36816     36822     36820     36818     36816     36823
     36820     36818     36816     36824     36821     36818     36816     36822
     36821     36818     36816     36823     36821     36818     36816     36824
     36831     36829     36827     36833     36831     36829     36827     36834
     36831     36829     36827     36835     36832     36829     36827     36833
     36832     36829     36827     36834     36832     36829     36827     36835
     36842     36840     36838     36844     36842     36840     36838     36845
     36842     36840     36838     36846     36843     36840     36838     36844
     36843     36840     36838     36845     36843     36840     36838     36846
     36853     36851     36849     36855     36853     36851     36849     36856
     36853     36851     36849     36857     36854     36851     36849     36855
     36854     36851     36849     36856     36854     36851     36849     36857
     36864     36862     36860     36866     36864     36862     36860     36867
     36864     36862     36860     36868     36865     36862     36860     36866
     36865     36862     36860     36867     36865     36862     36860     36868
     36875     36873     36871     36877     36875     36873     36871     36878
     36875     36873     36871     36879     36876     36873     36871     36877
     36876     36873     36871     36878     36876     36873     36871     36879
     36886     36884     36882     36888     36886     36884     36882     36889
     36886     36884     36882     36890     36887     36884     36882     36888
     36887     36884     36882     36889     36887     36884     36882     36890
     36897     36895     36893     36899     36897     36895     36893     36900
     36897     36895     36893     36901     36898     36895     36893     36899
     36898     36895     36893     36900     36898     36895     36893     36901
     36908     36906     36904     36910     36908     36906     36904     36911
     36908     36906     36904     36912     36909     36906     36904     36910
     36909     36906     36904     36911     36909     36906     36904     36912
     36919     36917     36915     36921     36919     36917     36915     36922
     36919     36917     36915     36923     36920     36917     36915     36921
     36920     36917     36915     36922     36920     36917     36915     36923
     36930     36928     36926     36932     36930     36928     36926     36933
     36930     36928     36926     36934     36931     36928     36926     36932
     36931     36928     36926     36933     36931     36928     36926     36934
     36941     36939     36937     36943     36941     36939     36937     36944
     36941     36939     36937     36945     36942     36939     36937     36943
     36942     36939     36937     36944     36942     36939     36937     36945
     36952     36950     36948     36954     36952     36950     36948     36955
     36952     36950     36948     36956     36953     36950     36948     36954
     36953     36950     36948     36955     36953     36950     36948     36956
     36963     36961     36959     36965     36963     36961     36959     36966
     36963     36961     36959     36967     36964     36961     36959     36965
     36964     36961     36959     36966     36964     36961     36959     36967
     36974     36972     36970     36976     36974     36972     36970     36977
     36974     36972     36970     36978     36975     36972     36970     36976
     36975     36972     36970     36977     36975     36972     36970     36978
     36985     36983     36981     36987     36985     36983     36981     36988
     36985     36983     36981     36989     36986     36983     36981     36987
     36986     36983     36981     36988     36986     36983     36981     36989
     36996     36994     36992     36998     36996     36994     36992     36999
     36996     36994     36992     37000     36997     36994     36992     36998
     36997     36994     36992     36999     36997     36994     36992     37000
     37007     37005     37003     37009     37007     37005     37003     37010
     37007     37005     37003     37011     37008     37005     37003     37009
     37008     37005     37003     37010     37008     37005     37003     37011
     37018     37016     37014     37020     37018     37016     37014     37021
     37018     37016     37014     37022     37019     37016     37014     37020
     37019     37016     37014     37021     37019     37016     37014     37022
     37029     37027     37025     37031     37029     37027     37025     37032
     37029     37027     37025     37033     37030     37027     37025     37031
     37030     37027     37025     37032     37030     37027     37025     37033
     37040     37038     37036     37042     37040     37038     37036     37043
     37040     37038     37036     37044     37041     37038     37036     37042
     37041     37038     37036     37043     37041     37038     37036     37044
     37051     37049     37047     37053     37051     37049     37047     37054
     37051     37049     37047     37055     37052     37049     37047     37053
     37052     37049     37047     37054     37052     37049     37047     37055
     37062     37060     37058     37064     37062     37060     37058     37065
     37062     37060     37058     37066     37063     37060     37058     37064
     37063     37060     37058     37065     37063     37060     37058     37066
     37073     37071     37069     37075     37073     37071     37069     37076
     37073     37071     37069     37077     37074     37071     37069     37075
     37074     37071     37069     37076     37074     37071     37069     37077
     37084     37082     37080     37086     37084     37082     37080     37087
     37084     37082     37080     37088     37085     37082     37080     37086
     37085     37082     37080     37087     37085     37082     37080     37088
     37095     37093     37091     37097     37095     37093     37091     37098
     37095     37093     37091     37099     37096     37093     37091     37097
     37096     37093     37091     37098     37096     37093     37091     37099
     37106     37104     37102     37108     37106     37104     37102     37109
     37106     37104     37102     37110     37107     37104     37102     37108
     37107     37104     37102     37109     37107     37104     37102     37110
     37117     37115     37113     37119     37117     37115     37113     37120
     37117     37115     37113     37121     37118     37115     37113     37119
     37118     37115     37113     37120     37118     37115     37113     37121
     37128     37126     37124     37130     37128     37126     37124     37131
     37128     37126     37124     37132     37129     37126     37124     37130
     37129     37126     37124     37131     37129     37126     37124     37132
     37139     37137     37135     37141     37139     37137     37135     37142
     37139     37137     37135     37143     37140     37137     37135     37141
     37140     37137     37135     37142     37140     37137     37135     37143
     37150     37148     37146     37152     37150     37148     37146     37153
     37150     37148     37146     37154     37151     37148     37146     37152
     37151     37148     37146     37153     37151     37148     37146     37154
     37161     37159     37157     37163     37161     37159     37157     37164
     37161     37159     37157     37165     37162     37159     37157     37163
     37162     37159     37157     37164     37162     37159     37157     37165
     37172     37170     37168     37174     37172     37170     37168     37175
     37172     37170     37168     37176     37173     37170     37168     37174
     37173     37170     37168     37175     37173     37170     37168     37176
     37183     37181     37179     37185     37183     37181     37179     37186
     37183     37181     37179     37187     37184     37181     37179     37185
     37184     37181     37179     37186     37184     37181     37179     37187
     37194     37192     37190     37196     37194     37192     37190     37197
     37194     37192     37190     37198     37195     37192     37190     37196
     37195     37192     37190     37197     37195     37192     37190     37198
     37205     37203     37201     37207     37205     37203     37201     37208
     37205     37203     37201     37209     37206     37203     37201     37207
     37206     37203     37201     37208     37206     37203     37201     37209
     37216     37214     37212     37218     37216     37214     37212     37219
     37216     37214     37212     37220     37217     37214     37212     37218
     37217     37214     37212     37219     37217     37214     37212     37220
     37227     37225     37223     37229     37227     37225     37223     37230
     37227     37225     37223     37231     37228     37225     37223     37229
     37228     37225     37223     37230     37228     37225     37223     37231
     37238     37236     37234     37240     37238     37236     37234     37241
     37238     37236     37234     37242     37239     37236     37234     37240
     37239     37236     37234     37241     37239     37236     37234     37242
     37249     37247     37245     37251     37249     37247     37245     37252
     37249     37247     37245     37253     37250     37247     37245     37251
     37250     37247     37245     37252     37250     37247     37245     37253
     37260     37258     37256     37262     37260     37258     37256     37263
     37260     37258     37256     37264     37261     37258     37256     37262
     37261     37258     37256     37263     37261     37258     37256     37264
     37271     37269     37267     37273     37271     37269     37267     37274
     37271     37269     37267     37275     37272     37269     37267     37273
     37272     37269     37267     37274     37272     37269     37267     37275
     37282     37280     37278     37284     37282     37280     37278     37285
     37282     37280     37278     37286     37283     37280     37278     37284
     37283     37280     37278     37285     37283     37280     37278     37286
     37293     37291     37289     37295     37293     37291     37289     37296
     37293     37291     37289     37297     37294     37291     37289     37295
     37294     37291     37289     37296     37294     37291     37289     37297
     37304     37302     37300     37306     37304     37302     37300     37307
     37304     37302     37300     37308     37305     37302     37300     37306
     37305     37302     37300     37307     37305     37302     37300     37308
     37315     37313     37311     37317     37315     37313     37311     37318
     37315     37313     37311     37319     37316     37313     37311     37317
     37316     37313     37311     37318     37316     37313     37311     37319
     37326     37324     37322     37328     37326     37324     37322     37329
     37326     37324     37322     37330     37327     37324     37322     37328
     37327     37324     37322     37329     37327     37324     37322     37330
     37337     37335     37333     37339     37337     37335     37333     37340
     37337     37335     37333     37341     37338     37335     37333     37339
     37338     37335     37333     37340     37338     37335     37333     37341
     37348     37346     37344     37350     37348     37346     37344     37351
     37348     37346     37344     37352     37349     37346     37344     37350
     37349     37346     37344     37351     37349     37346     37344     37352
     37359     37357     37355     37361     37359     37357     37355     37362
     37359     37357     37355     37363     37360     37357     37355     37361
     37360     37357     37355     37362     37360     37357     37355     37363
     37370     37368     37366     37372     37370     37368     37366     37373
     37370     37368     37366     37374     37371     37368     37366     37372
     37371     37368     37366     37373     37371     37368     37366     37374
     37381     37379     37377     37383     37381     37379     37377     37384
     37381     37379     37377     37385     37382     37379     37377     37383
     37382     37379     37377     37384     37382     37379     37377     37385
     37392     37390     37388     37394     37392     37390     37388     37395
     37392     37390     37388     37396     37393     37390     37388     37394
     37393     37390     37388     37395     37393     37390     37388     37396
     37403     37401     37399     37405     37403     37401     37399     37406
     37403     37401     37399     37407     37404     37401     37399     37405
     37404     37401     37399     37406     37404     37401     37399     37407
     37414     37412     37410     37416     37414     37412     37410     37417
     37414     37412     37410     37418     37415     37412     37410     37416
     37415     37412     37410     37417     37415     37412     37410     37418
     37425     37423     37421     37427     37425     37423     37421     37428
     37425     37423     37421     37429     37426     37423     37421     37427
     37426     37423     37421     37428     37426     37423     37421     37429
     37436     37434     37432     37438     37436     37434     37432     37439
     37436     37434     37432     37440     37437     37434     37432     37438
     37437     37434     37432     37439     37437     37434     37432     37440
     37447     37445     37443     37449     37447     37445     37443     37450
     37447     37445     37443     37451     37448     37445     37443     37449
     37448     37445     37443     37450     37448     37445     37443     37451
     37458     37456     37454     37460     37458     37456     37454     37461
     37458     37456     37454     37462     37459     37456     37454     37460
     37459     37456     37454     37461     37459     37456     37454     37462
     37469     37467     37465     37471     37469     37467     37465     37472
     37469     37467     37465     37473     37470     37467     37465     37471
     37470     37467     37465     37472     37470     37467     37465     37473
     37480     37478     37476     37482     37480     37478     37476     37483
     37480     37478     37476     37484     37481     37478     37476     37482
     37481     37478     37476     37483     37481     37478     37476     37484
     37491     37489     37487     37493     37491     37489     37487     37494
     37491     37489     37487     37495     37492     37489     37487     37493
     37492     37489     37487     37494     37492     37489     37487     37495
     37502     37500     37498     37504     37502     37500     37498     37505
     37502     37500     37498     37506     37503     37500     37498     37504
     37503     37500     37498     37505     37503     37500     37498     37506
     37513     37511     37509     37515     37513     37511     37509     37516
     37513     37511     37509     37517     37514     37511     37509     37515
     37514     37511     37509     37516     37514     37511     37509     37517
     37524     37522     37520     37526     37524     37522     37520     37527
     37524     37522     37520     37528     37525     37522     37520     37526
     37525     37522     37520     37527     37525     37522     37520     37528
     37535     37533     37531     37537     37535     37533     37531     37538
     37535     37533     37531     37539     37536     37533     37531     37537
     37536     37533     37531     37538     37536     37533     37531     37539
     37546     37544     37542     37548     37546     37544     37542     37549
     37546     37544     37542     37550     37547     37544     37542     37548
     37547     37544     37542     37549     37547     37544     37542     37550
     37557     37555     37553     37559     37557     37555     37553     37560
     37557     37555     37553     37561     37558     37555     37553     37559
     37558     37555     37553     37560     37558     37555     37553     37561
     37568     37566     37564     37570     37568     37566     37564     37571
     37568     37566     37564     37572     37569     37566     37564     37570
     37569     37566     37564     37571     37569     37566     37564     37572
     37579     37577     37575     37581     37579     37577     37575     37582
     37579     37577     37575     37583     37580     37577     37575     37581
     37580     37577     37575     37582     37580     37577     37575     37583
     37590     37588     37586     37592     37590     37588     37586     37593
     37590     37588     37586     37594     37591     37588     37586     37592
     37591     37588     37586     37593     37591     37588     37586     37594
     37601     37599     37597     37603     37601     37599     37597     37604
     37601     37599     37597     37605     37602     37599     37597     37603
     37602     37599     37597     37604     37602     37599     37597     37605
     37612     37610     37608     37614     37612     37610     37608     37615
     37612     37610     37608     37616     37613     37610     37608     37614
     37613     37610     37608     37615     37613     37610     37608     37616
     37623     37621     37619     37625     37623     37621     37619     37626
     37623     37621     37619     37627     37624     37621     37619     37625
     37624     37621     37619     37626     37624     37621     37619     37627
     37634     37632     37630     37636     37634     37632     37630     37637
     37634     37632     37630     37638     37635     37632     37630     37636
     37635     37632     37630     37637     37635     37632     37630     37638
     37645     37643     37641     37647     37645     37643     37641     37648
     37645     37643     37641     37649     37646     37643     37641     37647
     37646     37643     37641     37648     37646     37643     37641     37649
     37656     37654     37652     37658     37656     37654     37652     37659
     37656     37654     37652     37660     37657     37654     37652     37658
     37657     37654     37652     37659     37657     37654     37652     37660
     37667     37665     37663     37669     37667     37665     37663     37670
     37667     37665     37663     37671     37668     37665     37663     37669
     37668     37665     37663     37670     37668     37665     37663     37671
     37678     37676     37674     37680     37678     37676     37674     37681
     37678     37676     37674     37682     37679     37676     37674     37680
     37679     37676     37674     37681     37679     37676     37674     37682
     37689     37687     37685     37691     37689     37687     37685     37692
     37689     37687     37685     37693     37690     37687     37685     37691
     37690     37687     37685     37692     37690     37687     37685     37693
     37700     37698     37696     37702     37700     37698     37696     37703
     37700     37698     37696     37704     37701     37698     37696     37702
     37701     37698     37696     37703     37701     37698     37696     37704
     37711     37709     37707     37713     37711     37709     37707     37714
     37711     37709     37707     37715     37712     37709     37707     37713
     37712     37709     37707     37714     37712     37709     37707     37715
     37722     37720     37718     37724     37722     37720     37718     37725
     37722     37720     37718     37726     37723     37720     37718     37724
     37723     37720     37718     37725     37723     37720     37718     37726
     37733     37731     37729     37735     37733     37731     37729     37736
     37733     37731     37729     37737     37734     37731     37729     37735
     37734     37731     37729     37736     37734     37731     37729     37737
     37744     37742     37740     37746     37744     37742     37740     37747
     37744     37742     37740     37748     37745     37742     37740     37746
     37745     37742     37740     37747     37745     37742     37740     37748
     37755     37753     37751     37757     37755     37753     37751     37758
     37755     37753     37751     37759     37756     37753     37751     37757
     37756     37753     37751     37758     37756     37753     37751     37759
     37766     37764     37762     37768     37766     37764     37762     37769
     37766     37764     37762     37770     37767     37764     37762     37768
     37767     37764     37762     37769     37767     37764     37762     37770
     37777     37775     37773     37779     37777     37775     37773     37780
     37777     37775     37773     37781     37778     37775     37773     37779
     37778     37775     37773     37780     37778     37775     37773     37781
     37788     37786     37784     37790     37788     37786     37784     37791
     37788     37786     37784     37792     37789     37786     37784     37790
     37789     37786     37784     37791     37789     37786     37784     37792
     37799     37797     37795     37801     37799     37797     37795     37802
     37799     37797     37795     37803     37800     37797     37795     37801
     37800     37797     37795     37802     37800     37797     37795     37803
     37810     37808     37806     37812     37810     37808     37806     37813
     37810     37808     37806     37814     37811     37808     37806     37812
     37811     37808     37806     37813     37811     37808     37806     37814
     37821     37819     37817     37823     37821     37819     37817     37824
     37821     37819     37817     37825     37822     37819     37817     37823
     37822     37819     37817     37824     37822     37819     37817     37825
     37832     37830     37828     37834     37832     37830     37828     37835
     37832     37830     37828     37836     37833     37830     37828     37834
     37833     37830     37828     37835     37833     37830     37828     37836
     37843     37841     37839     37845     37843     37841     37839     37846
     37843     37841     37839     37847     37844     37841     37839     37845
     37844     37841     37839     37846     37844     37841     37839     37847
     37854     37852     37850     37856     37854     37852     37850     37857
     37854     37852     37850     37858     37855     37852     37850     37856
     37855     37852     37850     37857     37855     37852     37850     37858
     37865     37863     37861     37867     37865     37863     37861     37868
     37865     37863     37861     37869     37866     37863     37861     37867
     37866     37863     37861     37868     37866     37863     37861     37869
     37876     37874     37872     37878     37876     37874     37872     37879
     37876     37874     37872     37880     37877     37874     37872     37878
     37877     37874     37872     37879     37877     37874     37872     37880
     37887     37885     37883     37889     37887     37885     37883     37890
     37887     37885     37883     37891     37888     37885     37883     37889
     37888     37885     37883     37890     37888     37885     37883     37891
     37898     37896     37894     37900     37898     37896     37894     37901
     37898     37896     37894     37902     37899     37896     37894     37900
     37899     37896     37894     37901     37899     37896     37894     37902
     37909     37907     37905     37911     37909     37907     37905     37912
     37909     37907     37905     37913     37910     37907     37905     37911
     37910     37907     37905     37912     37910     37907     37905     37913
     37920     37918     37916     37922     37920     37918     37916     37923
     37920     37918     37916     37924     37921     37918     37916     37922
     37921     37918     37916     37923     37921     37918     37916     37924
     37931     37929     37927     37933     37931     37929     37927     37934
     37931     37929     37927     37935     37932     37929     37927     37933
     37932     37929     37927     37934     37932     37929     37927     37935
     37942     37940     37938     37944     37942     37940     37938     37945
     37942     37940     37938     37946     37943     37940     37938     37944
     37943     37940     37938     37945     37943     37940     37938     37946
     37953     37951     37949     37955     37953     37951     37949     37956
     37953     37951     37949     37957     37954     37951     37949     37955
     37954     37951     37949     37956     37954     37951     37949     37957
     37964     37962     37960     37966     37964     37962     37960     37967
     37964     37962     37960     37968     37965     37962     37960     37966
     37965     37962     37960     37967     37965     37962     37960     37968
     37975     37973     37971     37977     37975     37973     37971     37978
     37975     37973     37971     37979     37976     37973     37971     37977
     37976     37973     37971     37978     37976     37973     37971     37979
     37986     37984     37982     37988     37986     37984     37982     37989
     37986     37984     37982     37990     37987     37984     37982     37988
     37987     37984     37982     37989     37987     37984     37982     37990
     37997     37995     37993     37999     37997     37995     37993     38000
     37997     37995     37993     38001     37998     37995     37993     37999
     37998     37995     37993     38000     37998     37995     37993     38001
     38008     38006     38004     38010     38008     38006     38004     38011
     38008     38006     38004     38012     38009     38006     38004     38010
     38009     38006     38004     38011     38009     38006     38004     38012
     38019     38017     38015     38021     38019     38017     38015     38022
     38019     38017     38015     38023     38020     38017     38015     38021
     38020     38017     38015     38022     38020     38017     38015     38023
     38030     38028     38026     38032     38030     38028     38026     38033
     38030     38028     38026     38034     38031     38028     38026     38032
     38031     38028     38026     38033     38031     38028     38026     38034
     38041     38039     38037     38043     38041     38039     38037     38044
     38041     38039     38037     38045     38042     38039     38037     38043
     38042     38039     38037     38044     38042     38039     38037     38045
     38052     38050     38048     38054     38052     38050     38048     38055
     38052     38050     38048     38056     38053     38050     38048     38054
     38053     38050     38048     38055     38053     38050     38048     38056
     38063     38061     38059     38065     38063     38061     38059     38066
     38063     38061     38059     38067     38064     38061     38059     38065
     38064     38061     38059     38066     38064     38061     38059     38067
     38074     38072     38070     38076     38074     38072     38070     38077
     38074     38072     38070     38078     38075     38072     38070     38076
     38075     38072     38070     38077     38075     38072     38070     38078
     38085     38083     38081     38087     38085     38083     38081     38088
     38085     38083     38081     38089     38086     38083     38081     38087
     38086     38083     38081     38088     38086     38083     38081     38089
     38096     38094     38092     38098     38096     38094     38092     38099
     38096     38094     38092     38100     38097     38094     38092     38098
     38097     38094     38092     38099     38097     38094     38092     38100
     38107     38105     38103     38109     38107     38105     38103     38110
     38107     38105     38103     38111     38108     38105     38103     38109
     38108     38105     38103     38110     38108     38105     38103     38111
     38118     38116     38114     38120     38118     38116     38114     38121
     38118     38116     38114     38122     38119     38116     38114     38120
     38119     38116     38114     38121     38119     38116     38114     38122
     38129     38127     38125     38131     38129     38127     38125     38132
     38129     38127     38125     38133     38130     38127     38125     38131
     38130     38127     38125     38132     38130     38127     38125     38133
     38140     38138     38136     38142     38140     38138     38136     38143
     38140     38138     38136     38144     38141     38138     38136     38142
     38141     38138     38136     38143     38141     38138     38136     38144
     38151     38149     38147     38153     38151     38149     38147     38154
     38151     38149     38147     38155     38152     38149     38147     38153
     38152     38149     38147     38154     38152     38149     38147     38155
     38162     38160     38158     38164     38162     38160     38158     38165
     38162     38160     38158     38166     38163     38160     38158     38164
     38163     38160     38158     38165     38163     38160     38158     38166
     38173     38171     38169     38175     38173     38171     38169     38176
     38173     38171     38169     38177     38174     38171     38169     38175
     38174     38171     38169     38176     38174     38171     38169     38177
     38184     38182     38180     38186     38184     38182     38180     38187
     38184     38182     38180     38188     38185     38182     38180     38186
     38185     38182     38180     38187     38185     38182     38180     38188
     38195     38193     38191     38197     38195     38193     38191     38198
     38195     38193     38191     38199     38196     38193     38191     38197
     38196     38193     38191     38198     38196     38193     38191     38199
     38206     38204     38202     38208     38206     38204     38202     38209
     38206     38204     38202     38210     38207     38204     38202     38208
     38207     38204     38202     38209     38207     38204     38202     38210
     38217     38215     38213     38219     38217     38215     38213     38220
     38217     38215     38213     38221     38218     38215     38213     38219
     38218     38215     38213     38220     38218     38215     38213     38221
     38228     38226     38224     38230     38228     38226     38224     38231
     38228     38226     38224     38232     38229     38226     38224     38230
     38229     38226     38224     38231     38229     38226     38224     38232
     38239     38237     38235     38241     38239     38237     38235     38242
     38239     38237     38235     38243     38240     38237     38235     38241
     38240     38237     38235     38242     38240     38237     38235     38243
     38250     38248     38246     38252     38250     38248     38246     38253
     38250     38248     38246     38254     38251     38248     38246     38252
     38251     38248     38246     38253     38251     38248     38246     38254
     38261     38259     38257     38263     38261     38259     38257     38264
     38261     38259     38257     38265     38262     38259     38257     38263
     38262     38259     38257     38264     38262     38259     38257     38265
     38272     38270     38268     38274     38272     38270     38268     38275
     38272     38270     38268     38276     38273     38270     38268     38274
     38273     38270     38268     38275     38273     38270     38268     38276
     38283     38281     38279     38285     38283     38281     38279     38286
     38283     38281     38279     38287     38284     38281     38279     38285
     38284     38281     38279     38286     38284     38281     38279     38287
     38294     38292     38290     38296     38294     38292     38290     38297
     38294     38292     38290     38298     38295     38292     38290     38296
     38295     38292     38290     38297     38295     38292     38290     38298
     38305     38303     38301     38307     38305     38303     38301     38308
     38305     38303     38301     38309     38306     38303     38301     38307
     38306     38303     38301     38308     38306     38303     38301     38309
     38316     38314     38312     38318     38316     38314     38312     38319
     38316     38314     38312     38320     38317     38314     38312     38318
     38317     38314     38312     38319     38317     38314     38312     38320
     38327     38325     38323     38329     38327     38325     38323     38330
     38327     38325     38323     38331     38328     38325     38323     38329
     38328     38325     38323     38330     38328     38325     38323     38331
     38338     38336     38334     38340     38338     38336     38334     38341
     38338     38336     38334     38342     38339     38336     38334     38340
     38339     38336     38334     38341     38339     38336     38334     38342
     38349     38347     38345     38351     38349     38347     38345     38352
     38349     38347     38345     38353     38350     38347     38345     38351
     38350     38347     38345     38352     38350     38347     38345     38353
     38360     38358     38356     38362     38360     38358     38356     38363
     38360     38358     38356     38364     38361     38358     38356     38362
     38361     38358     38356     38363     38361     38358     38356     38364
     38371     38369     38367     38373     38371     38369     38367     38374
     38371     38369     38367     38375     38372     38369     38367     38373
     38372     38369     38367     38374     38372     38369     38367     38375
     38382     38380     38378     38384     38382     38380     38378     38385
     38382     38380     38378     38386     38383     38380     38378     38384
     38383     38380     38378     38385     38383     38380     38378     38386
     38393     38391     38389     38395     38393     38391     38389     38396
     38393     38391     38389     38397     38394     38391     38389     38395
     38394     38391     38389     38396     38394     38391     38389     38397
     38404     38402     38400     38406     38404     38402     38400     38407
     38404     38402     38400     38408     38405     38402     38400     38406
     38405     38402     38400     38407     38405     38402     38400     38408
     38415     38413     38411     38417     38415     38413     38411     38418
     38415     38413     38411     38419     38416     38413     38411     38417
     38416     38413     38411     38418     38416     38413     38411     38419
     38426     38424     38422     38428     38426     38424     38422     38429
     38426     38424     38422     38430     38427     38424     38422     38428
     38427     38424     38422     38429     38427     38424     38422     38430
     38437     38435     38433     38439     38437     38435     38433     38440
     38437     38435     38433     38441     38438     38435     38433     38439
     38438     38435     38433     38440     38438     38435     38433     38441
     38448     38446     38444     38450     38448     38446     38444     38451
     38448     38446     38444     38452     38449     38446     38444     38450
     38449     38446     38444     38451     38449     38446     38444     38452
     38459     38457     38455     38461     38459     38457     38455     38462
     38459     38457     38455     38463     38460     38457     38455     38461
     38460     38457     38455     38462     38460     38457     38455     38463
     38470     38468     38466     38472     38470     38468     38466     38473
     38470     38468     38466     38474     38471     38468     38466     38472
     38471     38468     38466     38473     38471     38468     38466     38474
     38481     38479     38477     38483     38481     38479     38477     38484
     38481     38479     38477     38485     38482     38479     38477     38483
     38482     38479     38477     38484     38482     38479     38477     38485
     38492     38490     38488     38494     38492     38490     38488     38495
     38492     38490     38488     38496     38493     38490     38488     38494
     38493     38490     38488     38495     38493     38490     38488     38496
     38503     38501     38499     38505     38503     38501     38499     38506
     38503     38501     38499     38507     38504     38501     38499     38505
     38504     38501     38499     38506     38504     38501     38499     38507
     38514     38512     38510     38516     38514     38512     38510     38517
     38514     38512     38510     38518     38515     38512     38510     38516
     38515     38512     38510     38517     38515     38512     38510     38518
     38525     38523     38521     38527     38525     38523     38521     38528
     38525     38523     38521     38529     38526     38523     38521     38527
     38526     38523     38521     38528     38526     38523     38521     38529
     38536     38534     38532     38538     38536     38534     38532     38539
     38536     38534     38532     38540     38537     38534     38532     38538
     38537     38534     38532     38539     38537     38534     38532     38540
     38547     38545     38543     38549     38547     38545     38543     38550
     38547     38545     38543     38551     38548     38545     38543     38549
     38548     38545     38543     38550     38548     38545     38543     38551
     38558     38556     38554     38560     38558     38556     38554     38561
     38558     38556     38554     38562     38559     38556     38554     38560
     38559     38556     38554     38561     38559     38556     38554     38562
     38569     38567     38565     38571     38569     38567     38565     38572
     38569     38567     38565     38573     38570     38567     38565     38571
     38570     38567     38565     38572     38570     38567     38565     38573
     38580     38578     38576     38582     38580     38578     38576     38583
     38580     38578     38576     38584     38581     38578     38576     38582
     38581     38578     38576     38583     38581     38578     38576     38584
     38591     38589     38587     38593     38591     38589     38587     38594
     38591     38589     38587     38595     38592     38589     38587     38593
     38592     38589     38587     38594     38592     38589     38587     38595
     38602     38600     38598     38604     38602     38600     38598     38605
     38602     38600     38598     38606     38603     38600     38598     38604
     38603     38600     38598     38605     38603     38600     38598     38606
     38613     38611     38609     38615     38613     38611     38609     38616
     38613     38611     38609     38617     38614     38611     38609     38615
     38614     38611     38609     38616     38614     38611     38609     38617
     38624     38622     38620     38626     38624     38622     38620     38627
     38624     38622     38620     38628     38625     38622     38620     38626
     38625     38622     38620     38627     38625     38622     38620     38628
     38635     38633     38631     38637     38635     38633     38631     38638
     38635     38633     38631     38639     38636     38633     38631     38637
     38636     38633     38631     38638     38636     38633     38631     38639
     38646     38644     38642     38648     38646     38644     38642     38649
     38646     38644     38642     38650     38647     38644     38642     38648
     38647     38644     38642     38649     38647     38644     38642     38650
     38657     38655     38653     38659     38657     38655     38653     38660
     38657     38655     38653     38661     38658     38655     38653     38659
     38658     38655     38653     38660     38658     38655     38653     38661
     38668     38666     38664     38670     38668     38666     38664     38671
     38668     38666     38664     38672     38669     38666     38664     38670
     38669     38666     38664     38671     38669     38666     38664     38672
     38679     38677     38675     38681     38679     38677     38675     38682
     38679     38677     38675     38683     38680     38677     38675     38681
     38680     38677     38675     38682     38680     38677     38675     38683
     38690     38688     38686     38692     38690     38688     38686     38693
     38690     38688     38686     38694     38691     38688     38686     38692
     38691     38688     38686     38693     38691     38688     38686     38694
     38701     38699     38697     38703     38701     38699     38697     38704
     38701     38699     38697     38705     38702     38699     38697     38703
     38702     38699     38697     38704     38702     38699     38697     38705
     38712     38710     38708     38714     38712     38710     38708     38715
     38712     38710     38708     38716     38713     38710     38708     38714
     38713     38710     38708     38715     38713     38710     38708     38716
     38723     38721     38719     38725     38723     38721     38719     38726
     38723     38721     38719     38727     38724     38721     38719     38725
     38724     38721     38719     38726     38724     38721     38719     38727
     38734     38732     38730     38736     38734     38732     38730     38737
     38734     38732     38730     38738     38735     38732     38730     38736
     38735     38732     38730     38737     38735     38732     38730     38738
     38745     38743     38741     38747     38745     38743     38741     38748
     38745     38743     38741     38749     38746     38743     38741     38747
     38746     38743     38741     38748     38746     38743     38741     38749
     38756     38754     38752     38758     38756     38754     38752     38759
     38756     38754     38752     38760     38757     38754     38752     38758
     38757     38754     38752     38759     38757     38754     38752     38760
     38767     38765     38763     38769     38767     38765     38763     38770
     38767     38765     38763     38771     38768     38765     38763     38769
     38768     38765     38763     38770     38768     38765     38763     38771
     38778     38776     38774     38780     38778     38776     38774     38781
     38778     38776     38774     38782     38779     38776     38774     38780
     38779     38776     38774     38781     38779     38776     38774     38782
     38789     38787     38785     38791     38789     38787     38785     38792
     38789     38787     38785     38793     38790     38787     38785     38791
     38790     38787     38785     38792     38790     38787     38785     38793
     38800     38798     38796     38802     38800     38798     38796     38803
     38800     38798     38796     38804     38801     38798     38796     38802
     38801     38798     38796     38803     38801     38798     38796     38804
     38811     38809     38807     38813     38811     38809     38807     38814
     38811     38809     38807     38815     38812     38809     38807     38813
     38812     38809     38807     38814     38812     38809     38807     38815
     38822     38820     38818     38824     38822     38820     38818     38825
     38822     38820     38818     38826     38823     38820     38818     38824
     38823     38820     38818     38825     38823     38820     38818     38826
     38833     38831     38829     38835     38833     38831     38829     38836
     38833     38831     38829     38837     38834     38831     38829     38835
     38834     38831     38829     38836     38834     38831     38829     38837
     38844     38842     38840     38846     38844     38842     38840     38847
     38844     38842     38840     38848     38845     38842     38840     38846
     38845     38842     38840     38847     38845     38842     38840     38848
     38855     38853     38851     38857     38855     38853     38851     38858
     38855     38853     38851     38859     38856     38853     38851     38857
     38856     38853     38851     38858     38856     38853     38851     38859
     38866     38864     38862     38868     38866     38864     38862     38869
     38866     38864     38862     38870     38867     38864     38862     38868
     38867     38864     38862     38869     38867     38864     38862     38870
     38877     38875     38873     38879     38877     38875     38873     38880
     38877     38875     38873     38881     38878     38875     38873     38879
     38878     38875     38873     38880     38878     38875     38873     38881
     38888     38886     38884     38890     38888     38886     38884     38891
     38888     38886     38884     38892     38889     38886     38884     38890
     38889     38886     38884     38891     38889     38886     38884     38892
     38899     38897     38895     38901     38899     38897     38895     38902
     38899     38897     38895     38903     38900     38897     38895     38901
     38900     38897     38895     38902     38900     38897     38895     38903
     38910     38908     38906     38912     38910     38908     38906     38913
     38910     38908     38906     38914     38911     38908     38906     38912
     38911     38908     38906     38913     38911     38908     38906     38914
     38921     38919     38917     38923     38921     38919     38917     38924
     38921     38919     38917     38925     38922     38919     38917     38923
     38922     38919     38917     38924     38922     38919     38917     38925
     38932     38930     38928     38934     38932     38930     38928     38935
     38932     38930     38928     38936     38933     38930     38928     38934
     38933     38930     38928     38935     38933     38930     38928     38936
     38943     38941     38939     38945     38943     38941     38939     38946
     38943     38941     38939     38947     38944     38941     38939     38945
     38944     38941     38939     38946     38944     38941     38939     38947
     38954     38952     38950     38956     38954     38952     38950     38957
     38954     38952     38950     38958     38955     38952     38950     38956
     38955     38952     38950     38957     38955     38952     38950     38958
     38965     38963     38961     38967     38965     38963     38961     38968
     38965     38963     38961     38969     38966     38963     38961     38967
     38966     38963     38961     38968     38966     38963     38961     38969
     38976     38974     38972     38978     38976     38974     38972     38979
     38976     38974     38972     38980     38977     38974     38972     38978
     38977     38974     38972     38979     38977     38974     38972     38980
     38987     38985     38983     38989     38987     38985     38983     38990
     38987     38985     38983     38991     38988     38985     38983     38989
     38988     38985     38983     38990     38988     38985     38983     38991
     38998     38996     38994     39000     38998     38996     38994     39001
     38998     38996     38994     39002     38999     38996     38994     39000
     38999     38996     38994     39001     38999     38996     38994     39002
     39009     39007     39005     39011     39009     39007     39005     39012
     39009     39007     39005     39013     39010     39007     39005     39011
     39010     39007     39005     39012     39010     39007     39005     39013
     39020     39018     39016     39022     39020     39018     39016     39023
     39020     39018     39016     39024     39021     39018     39016     39022
     39021     39018     39016     39023     39021     39018     39016     39024
     39031     39029     39027     39033     39031     39029     39027     39034
     39031     39029     39027     39035     39032     39029     39027     39033
     39032     39029     39027     39034     39032     39029     39027     39035
     39042     39040     39038     39044     39042     39040     39038     39045
     39042     39040     39038     39046     39043     39040     39038     39044
     39043     39040     39038     39045     39043     39040     39038     39046
     39053     39051     39049     39055     39053     39051     39049     39056
     39053     39051     39049     39057     39054     39051     39049     39055
     39054     39051     39049     39056     39054     39051     39049     39057
     39064     39062     39060     39066     39064     39062     39060     39067
     39064     39062     39060     39068     39065     39062     39060     39066
     39065     39062     39060     39067     39065     39062     39060     39068
     39075     39073     39071     39077     39075     39073     39071     39078
     39075     39073     39071     39079     39076     39073     39071     39077
     39076     39073     39071     39078     39076     39073     39071     39079
     39086     39084     39082     39088     39086     39084     39082     39089
     39086     39084     39082     39090     39087     39084     39082     39088
     39087     39084     39082     39089     39087     39084     39082     39090
     39097     39095     39093     39099     39097     39095     39093     39100
     39097     39095     39093     39101     39098     39095     39093     39099
     39098     39095     39093     39100     39098     39095     39093     39101
     39108     39106     39104     39110     39108     39106     39104     39111
     39108     39106     39104     39112     39109     39106     39104     39110
     39109     39106     39104     39111     39109     39106     39104     39112
     39119     39117     39115     39121     39119     39117     39115     39122
     39119     39117     39115     39123     39120     39117     39115     39121
     39120     39117     39115     39122     39120     39117     39115     39123
     39130     39128     39126     39132     39130     39128     39126     39133
     39130     39128     39126     39134     39131     39128     39126     39132
     39131     39128     39126     39133     39131     39128     39126     39134
     39141     39139     39137     39143     39141     39139     39137     39144
     39141     39139     39137     39145     39142     39139     39137     39143
     39142     39139     39137     39144     39142     39139     39137     39145
     39152     39150     39148     39154     39152     39150     39148     39155
     39152     39150     39148     39156     39153     39150     39148     39154
     39153     39150     39148     39155     39153     39150     39148     39156
     39163     39161     39159     39165     39163     39161     39159     39166
     39163     39161     39159     39167     39164     39161     39159     39165
     39164     39161     39159     39166     39164     39161     39159     39167
     39174     39172     39170     39176     39174     39172     39170     39177
     39174     39172     39170     39178     39175     39172     39170     39176
     39175     39172     39170     39177     39175     39172     39170     39178
     39185     39183     39181     39187     39185     39183     39181     39188
     39185     39183     39181     39189     39186     39183     39181     39187
     39186     39183     39181     39188     39186     39183     39181     39189
     39196     39194     39192     39198     39196     39194     39192     39199
     39196     39194     39192     39200     39197     39194     39192     39198
     39197     39194     39192     39199     39197     39194     39192     39200
     39207     39205     39203     39209     39207     39205     39203     39210
     39207     39205     39203     39211     39208     39205     39203     39209
     39208     39205     39203     39210     39208     39205     39203     39211
     39218     39216     39214     39220     39218     39216     39214     39221
     39218     39216     39214     39222     39219     39216     39214     39220
     39219     39216     39214     39221     39219     39216     39214     39222
     39229     39227     39225     39231     39229     39227     39225     39232
     39229     39227     39225     39233     39230     39227     39225     39231
     39230     39227     39225     39232     39230     39227     39225     39233
     39240     39238     39236     39242     39240     39238     39236     39243
     39240     39238     39236     39244     39241     39238     39236     39242
     39241     39238     39236     39243     39241     39238     39236     39244
     39251     39249     39247     39253     39251     39249     39247     39254
     39251     39249     39247     39255     39252     39249     39247     39253
     39252     39249     39247     39254     39252     39249     39247     39255
     39262     39260     39258     39264     39262     39260     39258     39265
     39262     39260     39258     39266     39263     39260     39258     39264
     39263     39260     39258     39265     39263     39260     39258     39266
     39273     39271     39269     39275     39273     39271     39269     39276
     39273     39271     39269     39277     39274     39271     39269     39275
     39274     39271     39269     39276     39274     39271     39269     39277
     39284     39282     39280     39286     39284     39282     39280     39287
     39284     39282     39280     39288     39285     39282     39280     39286
     39285     39282     39280     39287     39285     39282     39280     39288
     39295     39293     39291     39297     39295     39293     39291     39298
     39295     39293     39291     39299     39296     39293     39291     39297
     39296     39293     39291     39298     39296     39293     39291     39299
     39306     39304     39302     39308     39306     39304     39302     39309
     39306     39304     39302     39310     39307     39304     39302     39308
     39307     39304     39302     39309     39307     39304     39302     39310
     39317     39315     39313     39319     39317     39315     39313     39320
     39317     39315     39313     39321     39318     39315     39313     39319
     39318     39315     39313     39320     39318     39315     39313     39321
     39328     39326     39324     39330     39328     39326     39324     39331
     39328     39326     39324     39332     39329     39326     39324     39330
     39329     39326     39324     39331     39329     39326     39324     39332
     39339     39337     39335     39341     39339     39337     39335     39342
     39339     39337     39335     39343     39340     39337     39335     39341
     39340     39337     39335     39342     39340     39337     39335     39343
     39350     39348     39346     39352     39350     39348     39346     39353
     39350     39348     39346     39354     39351     39348     39346     39352
     39351     39348     39346     39353     39351     39348     39346     39354
     39361     39359     39357     39363     39361     39359     39357     39364
     39361     39359     39357     39365     39362     39359     39357     39363
     39362     39359     39357     39364     39362     39359     39357     39365
     39372     39370     39368     39374     39372     39370     39368     39375
     39372     39370     39368     39376     39373     39370     39368     39374
     39373     39370     39368     39375     39373     39370     39368     39376
     39383     39381     39379     39385     39383     39381     39379     39386
     39383     39381     39379     39387     39384     39381     39379     39385
     39384     39381     39379     39386     39384     39381     39379     39387
     39394     39392     39390     39396     39394     39392     39390     39397
     39394     39392     39390     39398     39395     39392     39390     39396
     39395     39392     39390     39397     39395     39392     39390     39398
     39405     39403     39401     39407     39405     39403     39401     39408
     39405     39403     39401     39409     39406     39403     39401     39407
     39406     39403     39401     39408     39406     39403     39401     39409
     39416     39414     39412     39418     39416     39414     39412     39419
     39416     39414     39412     39420     39417     39414     39412     39418
     39417     39414     39412     39419     39417     39414     39412     39420
     39427     39425     39423     39429     39427     39425     39423     39430
     39427     39425     39423     39431     39428     39425     39423     39429
     39428     39425     39423     39430     39428     39425     39423     39431
     39438     39436     39434     39440     39438     39436     39434     39441
     39438     39436     39434     39442     39439     39436     39434     39440
     39439     39436     39434     39441     39439     39436     39434     39442
     39449     39447     39445     39451     39449     39447     39445     39452
     39449     39447     39445     39453     39450     39447     39445     39451
     39450     39447     39445     39452     39450     39447     39445     39453
     39460     39458     39456     39462     39460     39458     39456     39463
     39460     39458     39456     39464     39461     39458     39456     39462
     39461     39458     39456     39463     39461     39458     39456     39464
     39471     39469     39467     39473     39471     39469     39467     39474
     39471     39469     39467     39475     39472     39469     39467     39473
     39472     39469     39467     39474     39472     39469     39467     39475
     39482     39480     39478     39484     39482     39480     39478     39485
     39482     39480     39478     39486     39483     39480     39478     39484
     39483     39480     39478     39485     39483     39480     39478     39486
     39493     39491     39489     39495     39493     39491     39489     39496
     39493     39491     39489     39497     39494     39491     39489     39495
     39494     39491     39489     39496     39494     39491     39489     39497
     39504     39502     39500     39506     39504     39502     39500     39507
     39504     39502     39500     39508     39505     39502     39500     39506
     39505     39502     39500     39507     39505     39502     39500     39508
     39515     39513     39511     39517     39515     39513     39511     39518
     39515     39513     39511     39519     39516     39513     39511     39517
     39516     39513     39511     39518     39516     39513     39511     39519
     39526     39524     39522     39528     39526     39524     39522     39529
     39526     39524     39522     39530     39527     39524     39522     39528
     39527     39524     39522     39529     39527     39524     39522     39530
     39537     39535     39533     39539     39537     39535     39533     39540
     39537     39535     39533     39541     39538     39535     39533     39539
     39538     39535     39533     39540     39538     39535     39533     39541
     39548     39546     39544     39550     39548     39546     39544     39551
     39548     39546     39544     39552     39549     39546     39544     39550
     39549     39546     39544     39551     39549     39546     39544     39552
     39559     39557     39555     39561     39559     39557     39555     39562
     39559     39557     39555     39563     39560     39557     39555     39561
     39560     39557     39555     39562     39560     39557     39555     39563
     39570     39568     39566     39572     39570     39568     39566     39573
     39570     39568     39566     39574     39571     39568     39566     39572
     39571     39568     39566     39573     39571     39568     39566     39574
     39581     39579     39577     39583     39581     39579     39577     39584
     39581     39579     39577     39585     39582     39579     39577     39583
     39582     39579     39577     39584     39582     39579     39577     39585
     39592     39590     39588     39594     39592     39590     39588     39595
     39592     39590     39588     39596     39593     39590     39588     39594
     39593     39590     39588     39595     39593     39590     39588     39596
     39603     39601     39599     39605     39603     39601     39599     39606
     39603     39601     39599     39607     39604     39601     39599     39605
     39604     39601     39599     39606     39604     39601     39599     39607
     39614     39612     39610     39616     39614     39612     39610     39617
     39614     39612     39610     39618     39615     39612     39610     39616
     39615     39612     39610     39617     39615     39612     39610     39618
     39625     39623     39621     39627     39625     39623     39621     39628
     39625     39623     39621     39629     39626     39623     39621     39627
     39626     39623     39621     39628     39626     39623     39621     39629
     39636     39634     39632     39638     39636     39634     39632     39639
     39636     39634     39632     39640     39637     39634     39632     39638
     39637     39634     39632     39639     39637     39634     39632     39640
     39647     39645     39643     39649     39647     39645     39643     39650
     39647     39645     39643     39651     39648     39645     39643     39649
     39648     39645     39643     39650     39648     39645     39643     39651
     39658     39656     39654     39660     39658     39656     39654     39661
     39658     39656     39654     39662     39659     39656     39654     39660
     39659     39656     39654     39661     39659     39656     39654     39662
     39669     39667     39665     39671     39669     39667     39665     39672
     39669     39667     39665     39673     39670     39667     39665     39671
     39670     39667     39665     39672     39670     39667     39665     39673
     39680     39678     39676     39682     39680     39678     39676     39683
     39680     39678     39676     39684     39681     39678     39676     39682
     39681     39678     39676     39683     39681     39678     39676     39684
     39691     39689     39687     39693     39691     39689     39687     39694
     39691     39689     39687     39695     39692     39689     39687     39693
     39692     39689     39687     39694     39692     39689     39687     39695
     39702     39700     39698     39704     39702     39700     39698     39705
     39702     39700     39698     39706     39703     39700     39698     39704
     39703     39700     39698     39705     39703     39700     39698     39706
     39713     39711     39709     39715     39713     39711     39709     39716
     39713     39711     39709     39717     39714     39711     39709     39715
     39714     39711     39709     39716     39714     39711     39709     39717
     39724     39722     39720     39726     39724     39722     39720     39727
     39724     39722     39720     39728     39725     39722     39720     39726
     39725     39722     39720     39727     39725     39722     39720     39728
     39735     39733     39731     39737     39735     39733     39731     39738
     39735     39733     39731     39739     39736     39733     39731     39737
     39736     39733     39731     39738     39736     39733     39731     39739
     39746     39744     39742     39748     39746     39744     39742     39749
     39746     39744     39742     39750     39747     39744     39742     39748
     39747     39744     39742     39749     39747     39744     39742     39750
     39757     39755     39753     39759     39757     39755     39753     39760
     39757     39755     39753     39761     39758     39755     39753     39759
     39758     39755     39753     39760     39758     39755     39753     39761
     39768     39766     39764     39770     39768     39766     39764     39771
     39768     39766     39764     39772     39769     39766     39764     39770
     39769     39766     39764     39771     39769     39766     39764     39772
     39779     39777     39775     39781     39779     39777     39775     39782
     39779     39777     39775     39783     39780     39777     39775     39781
     39780     39777     39775     39782     39780     39777     39775     39783
     39790     39788     39786     39792     39790     39788     39786     39793
     39790     39788     39786     39794     39791     39788     39786     39792
     39791     39788     39786     39793     39791     39788     39786     39794
     39801     39799     39797     39803     39801     39799     39797     39804
     39801     39799     39797     39805     39802     39799     39797     39803
     39802     39799     39797     39804     39802     39799     39797     39805
     39812     39810     39808     39814     39812     39810     39808     39815
     39812     39810     39808     39816     39813     39810     39808     39814
     39813     39810     39808     39815     39813     39810     39808     39816
     39823     39821     39819     39825     39823     39821     39819     39826
     39823     39821     39819     39827     39824     39821     39819     39825
     39824     39821     39819     39826     39824     39821     39819     39827
     39834     39832     39830     39836     39834     39832     39830     39837
     39834     39832     39830     39838     39835     39832     39830     39836
     39835     39832     39830     39837     39835     39832     39830     39838
     39845     39843     39841     39847     39845     39843     39841     39848
     39845     39843     39841     39849     39846     39843     39841     39847
     39846     39843     39841     39848     39846     39843     39841     39849
     39856     39854     39852     39858     39856     39854     39852     39859
     39856     39854     39852     39860     39857     39854     39852     39858
     39857     39854     39852     39859     39857     39854     39852     39860
     39867     39865     39863     39869     39867     39865     39863     39870
     39867     39865     39863     39871     39868     39865     39863     39869
     39868     39865     39863     39870     39868     39865     39863     39871
     39878     39876     39874     39880     39878     39876     39874     39881
     39878     39876     39874     39882     39879     39876     39874     39880
     39879     39876     39874     39881     39879     39876     39874     39882
     39889     39887     39885     39891     39889     39887     39885     39892
     39889     39887     39885     39893     39890     39887     39885     39891
     39890     39887     39885     39892     39890     39887     39885     39893
     39900     39898     39896     39902     39900     39898     39896     39903
     39900     39898     39896     39904     39901     39898     39896     39902
     39901     39898     39896     39903     39901     39898     39896     39904
     39911     39909     39907     39913     39911     39909     39907     39914
     39911     39909     39907     39915     39912     39909     39907     39913
     39912     39909     39907     39914     39912     39909     39907     39915
     39922     39920     39918     39924     39922     39920     39918     39925
     39922     39920     39918     39926     39923     39920     39918     39924
     39923     39920     39918     39925     39923     39920     39918     39926
     39933     39931     39929     39935     39933     39931     39929     39936
     39933     39931     39929     39937     39934     39931     39929     39935
     39934     39931     39929     39936     39934     39931     39929     39937
     39944     39942     39940     39946     39944     39942     39940     39947
     39944     39942     39940     39948     39945     39942     39940     39946
     39945     39942     39940     39947     39945     39942     39940     39948
     39955     39953     39951     39957     39955     39953     39951     39958
     39955     39953     39951     39959     39956     39953     39951     39957
     39956     39953     39951     39958     39956     39953     39951     39959
     39966     39964     39962     39968     39966     39964     39962     39969
     39966     39964     39962     39970     39967     39964     39962     39968
     39967     39964     39962     39969     39967     39964     39962     39970
     39977     39975     39973     39979     39977     39975     39973     39980
     39977     39975     39973     39981     39978     39975     39973     39979
     39978     39975     39973     39980     39978     39975     39973     39981
     39988     39986     39984     39990     39988     39986     39984     39991
     39988     39986     39984     39992     39989     39986     39984     39990
     39989     39986     39984     39991     39989     39986     39984     39992
     39999     39997     39995     40001     39999     39997     39995     40002
     39999     39997     39995     40003     40000     39997     39995     40001
     40000     39997     39995     40002     40000     39997     39995     40003
     40010     40008     40006     40012     40010     40008     40006     40013
     40010     40008     40006     40014     40011     40008     40006     40012
     40011     40008     40006     40013     40011     40008     40006     40014
     40021     40019     40017     40023     40021     40019     40017     40024
     40021     40019     40017     40025     40022     40019     40017     40023
     40022     40019     40017     40024     40022     40019     40017     40025
     40032     40030     40028     40034     40032     40030     40028     40035
     40032     40030     40028     40036     40033     40030     40028     40034
     40033     40030     40028     40035     40033     40030     40028     40036
     40043     40041     40039     40045     40043     40041     40039     40046
     40043     40041     40039     40047     40044     40041     40039     40045
     40044     40041     40039     40046     40044     40041     40039     40047
     40054     40052     40050     40056     40054     40052     40050     40057
     40054     40052     40050     40058     40055     40052     40050     40056
     40055     40052     40050     40057     40055     40052     40050     40058
     40065     40063     40061     40067     40065     40063     40061     40068
     40065     40063     40061     40069     40066     40063     40061     40067
     40066     40063     40061     40068     40066     40063     40061     40069
     40076     40074     40072     40078     40076     40074     40072     40079
     40076     40074     40072     40080     40077     40074     40072     40078
     40077     40074     40072     40079     40077     40074     40072     40080
     40087     40085     40083     40089     40087     40085     40083     40090
     40087     40085     40083     40091     40088     40085     40083     40089
     40088     40085     40083     40090     40088     40085     40083     40091
     40098     40096     40094     40100     40098     40096     40094     40101
     40098     40096     40094     40102     40099     40096     40094     40100
     40099     40096     40094     40101     40099     40096     40094     40102
     40109     40107     40105     40111     40109     40107     40105     40112
     40109     40107     40105     40113     40110     40107     40105     40111
     40110     40107     40105     40112     40110     40107     40105     40113
     40120     40118     40116     40122     40120     40118     40116     40123
     40120     40118     40116     40124     40121     40118     40116     40122
     40121     40118     40116     40123     40121     40118     40116     40124
     40131     40129     40127     40133     40131     40129     40127     40134
     40131     40129     40127     40135     40132     40129     40127     40133
     40132     40129     40127     40134     40132     40129     40127     40135
     40142     40140     40138     40144     40142     40140     40138     40145
     40142     40140     40138     40146     40143     40140     40138     40144
     40143     40140     40138     40145     40143     40140     40138     40146
     40153     40151     40149     40155     40153     40151     40149     40156
     40153     40151     40149     40157     40154     40151     40149     40155
     40154     40151     40149     40156     40154     40151     40149     40157
     40164     40162     40160     40166     40164     40162     40160     40167
     40164     40162     40160     40168     40165     40162     40160     40166
     40165     40162     40160     40167     40165     40162     40160     40168
     40175     40173     40171     40177     40175     40173     40171     40178
     40175     40173     40171     40179     40176     40173     40171     40177
     40176     40173     40171     40178     40176     40173     40171     40179
     40186     40184     40182     40188     40186     40184     40182     40189
     40186     40184     40182     40190     40187     40184     40182     40188
     40187     40184     40182     40189     40187     40184     40182     40190
     40197     40195     40193     40199     40197     40195     40193     40200
     40197     40195     40193     40201     40198     40195     40193     40199
     40198     40195     40193     40200     40198     40195     40193     40201
     40208     40206     40204     40210     40208     40206     40204     40211
     40208     40206     40204     40212     40209     40206     40204     40210
     40209     40206     40204     40211     40209     40206     40204     40212
     40219     40217     40215     40221     40219     40217     40215     40222
     40219     40217     40215     40223     40220     40217     40215     40221
     40220     40217     40215     40222     40220     40217     40215     40223
     40230     40228     40226     40232     40230     40228     40226     40233
     40230     40228     40226     40234     40231     40228     40226     40232
     40231     40228     40226     40233     40231     40228     40226     40234
     40241     40239     40237     40243     40241     40239     40237     40244
     40241     40239     40237     40245     40242     40239     40237     40243
     40242     40239     40237     40244     40242     40239     40237     40245
     40252     40250     40248     40254     40252     40250     40248     40255
     40252     40250     40248     40256     40253     40250     40248     40254
     40253     40250     40248     40255     40253     40250     40248     40256
     40263     40261     40259     40265     40263     40261     40259     40266
     40263     40261     40259     40267     40264     40261     40259     40265
     40264     40261     40259     40266     40264     40261     40259     40267
     40274     40272     40270     40276     40274     40272     40270     40277
     40274     40272     40270     40278     40275     40272     40270     40276
     40275     40272     40270     40277     40275     40272     40270     40278
     40285     40283     40281     40287     40285     40283     40281     40288
     40285     40283     40281     40289     40286     40283     40281     40287
     40286     40283     40281     40288     40286     40283     40281     40289
     40296     40294     40292     40298     40296     40294     40292     40299
     40296     40294     40292     40300     40297     40294     40292     40298
     40297     40294     40292     40299     40297     40294     40292     40300
     40307     40305     40303     40309     40307     40305     40303     40310
     40307     40305     40303     40311     40308     40305     40303     40309
     40308     40305     40303     40310     40308     40305     40303     40311
     40318     40316     40314     40320     40318     40316     40314     40321
     40318     40316     40314     40322     40319     40316     40314     40320
     40319     40316     40314     40321     40319     40316     40314     40322
     40329     40327     40325     40331     40329     40327     40325     40332
     40329     40327     40325     40333     40330     40327     40325     40331
     40330     40327     40325     40332     40330     40327     40325     40333
     40340     40338     40336     40342     40340     40338     40336     40343
     40340     40338     40336     40344     40341     40338     40336     40342
     40341     40338     40336     40343     40341     40338     40336     40344
     40351     40349     40347     40353     40351     40349     40347     40354
     40351     40349     40347     40355     40352     40349     40347     40353
     40352     40349     40347     40354     40352     40349     40347     40355
     40362     40360     40358     40364     40362     40360     40358     40365
     40362     40360     40358     40366     40363     40360     40358     40364
     40363     40360     40358     40365     40363     40360     40358     40366
     40373     40371     40369     40375     40373     40371     40369     40376
     40373     40371     40369     40377     40374     40371     40369     40375
     40374     40371     40369     40376     40374     40371     40369     40377
     40384     40382     40380     40386     40384     40382     40380     40387
     40384     40382     40380     40388     40385     40382     40380     40386
     40385     40382     40380     40387     40385     40382     40380     40388
     40395     40393     40391     40397     40395     40393     40391     40398
     40395     40393     40391     40399     40396     40393     40391     40397
     40396     40393     40391     40398     40396     40393     40391     40399
     40406     40404     40402     40408     40406     40404     40402     40409
     40406     40404     40402     40410     40407     40404     40402     40408
     40407     40404     40402     40409     40407     40404     40402     40410
     40417     40415     40413     40419     40417     40415     40413     40420
     40417     40415     40413     40421     40418     40415     40413     40419
     40418     40415     40413     40420     40418     40415     40413     40421
     40428     40426     40424     40430     40428     40426     40424     40431
     40428     40426     40424     40432     40429     40426     40424     40430
     40429     40426     40424     40431     40429     40426     40424     40432
     40439     40437     40435     40441     40439     40437     40435     40442
     40439     40437     40435     40443     40440     40437     40435     40441
     40440     40437     40435     40442     40440     40437     40435     40443
     40450     40448     40446     40452     40450     40448     40446     40453
     40450     40448     40446     40454     40451     40448     40446     40452
     40451     40448     40446     40453     40451     40448     40446     40454
     40461     40459     40457     40463     40461     40459     40457     40464
     40461     40459     40457     40465     40462     40459     40457     40463
     40462     40459     40457     40464     40462     40459     40457     40465
     40472     40470     40468     40474     40472     40470     40468     40475
     40472     40470     40468     40476     40473     40470     40468     40474
     40473     40470     40468     40475     40473     40470     40468     40476
     40483     40481     40479     40485     40483     40481     40479     40486
     40483     40481     40479     40487     40484     40481     40479     40485
     40484     40481     40479     40486     40484     40481     40479     40487
     40494     40492     40490     40496     40494     40492     40490     40497
     40494     40492     40490     40498     40495     40492     40490     40496
     40495     40492     40490     40497     40495     40492     40490     40498
     40505     40503     40501     40507     40505     40503     40501     40508
     40505     40503     40501     40509     40506     40503     40501     40507
     40506     40503     40501     40508     40506     40503     40501     40509
     40516     40514     40512     40518     40516     40514     40512     40519
     40516     40514     40512     40520     40517     40514     40512     40518
     40517     40514     40512     40519     40517     40514     40512     40520
     40527     40525     40523     40529     40527     40525     40523     40530
     40527     40525     40523     40531     40528     40525     40523     40529
     40528     40525     40523     40530     40528     40525     40523     40531
     40538     40536     40534     40540     40538     40536     40534     40541
     40538     40536     40534     40542     40539     40536     40534     40540
     40539     40536     40534     40541     40539     40536     40534     40542
     40549     40547     40545     40551     40549     40547     40545     40552
     40549     40547     40545     40553     40550     40547     40545     40551
     40550     40547     40545     40552     40550     40547     40545     40553
     40560     40558     40556     40562     40560     40558     40556     40563
     40560     40558     40556     40564     40561     40558     40556     40562
     40561     40558     40556     40563     40561     40558     40556     40564
     40571     40569     40567     40573     40571     40569     40567     40574
     40571     40569     40567     40575     40572     40569     40567     40573
     40572     40569     40567     40574     40572     40569     40567     40575
     40582     40580     40578     40584     40582     40580     40578     40585
     40582     40580     40578     40586     40583     40580     40578     40584
     40583     40580     40578     40585     40583     40580     40578     40586
     40593     40591     40589     40595     40593     40591     40589     40596
     40593     40591     40589     40597     40594     40591     40589     40595
     40594     40591     40589     40596     40594     40591     40589     40597
     40604     40602     40600     40606     40604     40602     40600     40607
     40604     40602     40600     40608     40605     40602     40600     40606
     40605     40602     40600     40607     40605     40602     40600     40608
     40615     40613     40611     40617     40615     40613     40611     40618
     40615     40613     40611     40619     40616     40613     40611     40617
     40616     40613     40611     40618     40616     40613     40611     40619
     40626     40624     40622     40628     40626     40624     40622     40629
     40626     40624     40622     40630     40627     40624     40622     40628
     40627     40624     40622     40629     40627     40624     40622     40630
     40637     40635     40633     40639     40637     40635     40633     40640
     40637     40635     40633     40641     40638     40635     40633     40639
     40638     40635     40633     40640     40638     40635     40633     40641
     40648     40646     40644     40650     40648     40646     40644     40651
     40648     40646     40644     40652     40649     40646     40644     40650
     40649     40646     40644     40651     40649     40646     40644     40652
     40659     40657     40655     40661     40659     40657     40655     40662
     40659     40657     40655     40663     40660     40657     40655     40661
     40660     40657     40655     40662     40660     40657     40655     40663
     40670     40668     40666     40672     40670     40668     40666     40673
     40670     40668     40666     40674     40671     40668     40666     40672
     40671     40668     40666     40673     40671     40668     40666     40674
     40681     40679     40677     40683     40681     40679     40677     40684
     40681     40679     40677     40685     40682     40679     40677     40683
     40682     40679     40677     40684     40682     40679     40677     40685
     40692     40690     40688     40694     40692     40690     40688     40695
     40692     40690     40688     40696     40693     40690     40688     40694
     40693     40690     40688     40695     40693     40690     40688     40696
     40703     40701     40699     40705     40703     40701     40699     40706
     40703     40701     40699     40707     40704     40701     40699     40705
     40704     40701     40699     40706     40704     40701     40699     40707
     40714     40712     40710     40716     40714     40712     40710     40717
     40714     40712     40710     40718     40715     40712     40710     40716
     40715     40712     40710     40717     40715     40712     40710     40718
     40725     40723     40721     40727     40725     40723     40721     40728
     40725     40723     40721     40729     40726     40723     40721     40727
     40726     40723     40721     40728     40726     40723     40721     40729
     40736     40734     40732     40738     40736     40734     40732     40739
     40736     40734     40732     40740     40737     40734     40732     40738
     40737     40734     40732     40739     40737     40734     40732     40740
     40747     40745     40743     40749     40747     40745     40743     40750
     40747     40745     40743     40751     40748     40745     40743     40749
     40748     40745     40743     40750     40748     40745     40743     40751
     40758     40756     40754     40760     40758     40756     40754     40761
     40758     40756     40754     40762     40759     40756     40754     40760
     40759     40756     40754     40761     40759     40756     40754     40762
     40769     40767     40765     40771     40769     40767     40765     40772
     40769     40767     40765     40773     40770     40767     40765     40771
     40770     40767     40765     40772     40770     40767     40765     40773
     40780     40778     40776     40782     40780     40778     40776     40783
     40780     40778     40776     40784     40781     40778     40776     40782
     40781     40778     40776     40783     40781     40778     40776     40784
     40791     40789     40787     40793     40791     40789     40787     40794
     40791     40789     40787     40795     40792     40789     40787     40793
     40792     40789     40787     40794     40792     40789     40787     40795
     40802     40800     40798     40804     40802     40800     40798     40805
     40802     40800     40798     40806     40803     40800     40798     40804
     40803     40800     40798     40805     40803     40800     40798     40806
     40813     40811     40809     40815     40813     40811     40809     40816
     40813     40811     40809     40817     40814     40811     40809     40815
     40814     40811     40809     40816     40814     40811     40809     40817
     40824     40822     40820     40826     40824     40822     40820     40827
     40824     40822     40820     40828     40825     40822     40820     40826
     40825     40822     40820     40827     40825     40822     40820     40828
     40835     40833     40831     40837     40835     40833     40831     40838
     40835     40833     40831     40839     40836     40833     40831     40837
     40836     40833     40831     40838     40836     40833     40831     40839
     40846     40844     40842     40848     40846     40844     40842     40849
     40846     40844     40842     40850     40847     40844     40842     40848
     40847     40844     40842     40849     40847     40844     40842     40850
     40857     40855     40853     40859     40857     40855     40853     40860
     40857     40855     40853     40861     40858     40855     40853     40859
     40858     40855     40853     40860     40858     40855     40853     40861
     40868     40866     40864     40870     40868     40866     40864     40871
     40868     40866     40864     40872     40869     40866     40864     40870
     40869     40866     40864     40871     40869     40866     40864     40872
     40879     40877     40875     40881     40879     40877     40875     40882
     40879     40877     40875     40883     40880     40877     40875     40881
     40880     40877     40875     40882     40880     40877     40875     40883
     40890     40888     40886     40892     40890     40888     40886     40893
     40890     40888     40886     40894     40891     40888     40886     40892
     40891     40888     40886     40893     40891     40888     40886     40894
     40901     40899     40897     40903     40901     40899     40897     40904
     40901     40899     40897     40905     40902     40899     40897     40903
     40902     40899     40897     40904     40902     40899     40897     40905
     40912     40910     40908     40914     40912     40910     40908     40915
     40912     40910     40908     40916     40913     40910     40908     40914
     40913     40910     40908     40915     40913     40910     40908     40916
     40923     40921     40919     40925     40923     40921     40919     40926
     40923     40921     40919     40927     40924     40921     40919     40925
     40924     40921     40919     40926     40924     40921     40919     40927
     40934     40932     40930     40936     40934     40932     40930     40937
     40934     40932     40930     40938     40935     40932     40930     40936
     40935     40932     40930     40937     40935     40932     40930     40938
     40945     40943     40941     40947     40945     40943     40941     40948
     40945     40943     40941     40949     40946     40943     40941     40947
     40946     40943     40941     40948     40946     40943     40941     40949
     40956     40954     40952     40958     40956     40954     40952     40959
     40956     40954     40952     40960     40957     40954     40952     40958
     40957     40954     40952     40959     40957     40954     40952     40960
     40967     40965     40963     40969     40967     40965     40963     40970
     40967     40965     40963     40971     40968     40965     40963     40969
     40968     40965     40963     40970     40968     40965     40963     40971
     40978     40976     40974     40980     40978     40976     40974     40981
     40978     40976     40974     40982     40979     40976     40974     40980
     40979     40976     40974     40981     40979     40976     40974     40982
     40989     40987     40985     40991     40989     40987     40985     40992
     40989     40987     40985     40993     40990     40987     40985     40991
     40990     40987     40985     40992     40990     40987     40985     40993
     41000     40998     40996     41002     41000     40998     40996     41003
     41000     40998     40996     41004     41001     40998     40996     41002
     41001     40998     40996     41003     41001     40998     40996     41004
     41011     41009     41007     41013     41011     41009     41007     41014
     41011     41009     41007     41015     41012     41009     41007     41013
     41012     41009     41007     41014     41012     41009     41007     41015
     41022     41020     41018     41024     41022     41020     41018     41025
     41022     41020     41018     41026     41023     41020     41018     41024
     41023     41020     41018     41025     41023     41020     41018     41026
     41033     41031     41029     41035     41033     41031     41029     41036
     41033     41031     41029     41037     41034     41031     41029     41035
     41034     41031     41029     41036     41034     41031     41029     41037
     41044     41042     41040     41046     41044     41042     41040     41047
     41044     41042     41040     41048     41045     41042     41040     41046
     41045     41042     41040     41047     41045     41042     41040     41048
     41055     41053     41051     41057     41055     41053     41051     41058
     41055     41053     41051     41059     41056     41053     41051     41057
     41056     41053     41051     41058     41056     41053     41051     41059
     41066     41064     41062     41068     41066     41064     41062     41069
     41066     41064     41062     41070     41067     41064     41062     41068
     41067     41064     41062     41069     41067     41064     41062     41070
     41077     41075     41073     41079     41077     41075     41073     41080
     41077     41075     41073     41081     41078     41075     41073     41079
     41078     41075     41073     41080     41078     41075     41073     41081
     41088     41086     41084     41090     41088     41086     41084     41091
     41088     41086     41084     41092     41089     41086     41084     41090
     41089     41086     41084     41091     41089     41086     41084     41092
     41099     41097     41095     41101     41099     41097     41095     41102
     41099     41097     41095     41103     41100     41097     41095     41101
     41100     41097     41095     41102     41100     41097     41095     41103
     41110     41108     41106     41112     41110     41108     41106     41113
     41110     41108     41106     41114     41111     41108     41106     41112
     41111     41108     41106     41113     41111     41108     41106     41114
     41121     41119     41117     41123     41121     41119     41117     41124
     41121     41119     41117     41125     41122     41119     41117     41123
     41122     41119     41117     41124     41122     41119     41117     41125
     41132     41130     41128     41134     41132     41130     41128     41135
     41132     41130     41128     41136     41133     41130     41128     41134
     41133     41130     41128     41135     41133     41130     41128     41136
     41143     41141     41139     41145     41143     41141     41139     41146
     41143     41141     41139     41147     41144     41141     41139     41145
     41144     41141     41139     41146     41144     41141     41139     41147
     41154     41152     41150     41156     41154     41152     41150     41157
     41154     41152     41150     41158     41155     41152     41150     41156
     41155     41152     41150     41157     41155     41152     41150     41158
     41165     41163     41161     41167     41165     41163     41161     41168
     41165     41163     41161     41169     41166     41163     41161     41167
     41166     41163     41161     41168     41166     41163     41161     41169
     41176     41174     41172     41178     41176     41174     41172     41179
     41176     41174     41172     41180     41177     41174     41172     41178
     41177     41174     41172     41179     41177     41174     41172     41180
     41187     41185     41183     41189     41187     41185     41183     41190
     41187     41185     41183     41191     41188     41185     41183     41189
     41188     41185     41183     41190     41188     41185     41183     41191
     41198     41196     41194     41200     41198     41196     41194     41201
     41198     41196     41194     41202     41199     41196     41194     41200
     41199     41196     41194     41201     41199     41196     41194     41202
     41209     41207     41205     41211     41209     41207     41205     41212
     41209     41207     41205     41213     41210     41207     41205     41211
     41210     41207     41205     41212     41210     41207     41205     41213
     41220     41218     41216     41222     41220     41218     41216     41223
     41220     41218     41216     41224     41221     41218     41216     41222
     41221     41218     41216     41223     41221     41218     41216     41224
     41231     41229     41227     41233     41231     41229     41227     41234
     41231     41229     41227     41235     41232     41229     41227     41233
     41232     41229     41227     41234     41232     41229     41227     41235
     41242     41240     41238     41244     41242     41240     41238     41245
     41242     41240     41238     41246     41243     41240     41238     41244
     41243     41240     41238     41245     41243     41240     41238     41246
     41253     41251     41249     41255     41253     41251     41249     41256
     41253     41251     41249     41257     41254     41251     41249     41255
     41254     41251     41249     41256     41254     41251     41249     41257
     41264     41262     41260     41266     41264     41262     41260     41267
     41264     41262     41260     41268     41265     41262     41260     41266
     41265     41262     41260     41267     41265     41262     41260     41268
     41275     41273     41271     41277     41275     41273     41271     41278
     41275     41273     41271     41279     41276     41273     41271     41277
     41276     41273     41271     41278     41276     41273     41271     41279
     41286     41284     41282     41288     41286     41284     41282     41289
     41286     41284     41282     41290     41287     41284     41282     41288
     41287     41284     41282     41289     41287     41284     41282     41290
     41297     41295     41293     41299     41297     41295     41293     41300
     41297     41295     41293     41301     41298     41295     41293     41299
     41298     41295     41293     41300     41298     41295     41293     41301
     41308     41306     41304     41310     41308     41306     41304     41311
     41308     41306     41304     41312     41309     41306     41304     41310
     41309     41306     41304     41311     41309     41306     41304     41312
     41319     41317     41315     41321     41319     41317     41315     41322
     41319     41317     41315     41323     41320     41317     41315     41321
     41320     41317     41315     41322     41320     41317     41315     41323
     41330     41328     41326     41332     41330     41328     41326     41333
     41330     41328     41326     41334     41331     41328     41326     41332
     41331     41328     41326     41333     41331     41328     41326     41334
     41341     41339     41337     41343     41341     41339     41337     41344
     41341     41339     41337     41345     41342     41339     41337     41343
     41342     41339     41337     41344     41342     41339     41337     41345
     41352     41350     41348     41354     41352     41350     41348     41355
     41352     41350     41348     41356     41353     41350     41348     41354
     41353     41350     41348     41355     41353     41350     41348     41356
     41363     41361     41359     41365     41363     41361     41359     41366
     41363     41361     41359     41367     41364     41361     41359     41365
     41364     41361     41359     41366     41364     41361     41359     41367
     41374     41372     41370     41376     41374     41372     41370     41377
     41374     41372     41370     41378     41375     41372     41370     41376
     41375     41372     41370     41377     41375     41372     41370     41378
     41385     41383     41381     41387     41385     41383     41381     41388
     41385     41383     41381     41389     41386     41383     41381     41387
     41386     41383     41381     41388     41386     41383     41381     41389
     41396     41394     41392     41398     41396     41394     41392     41399
     41396     41394     41392     41400     41397     41394     41392     41398
     41397     41394     41392     41399     41397     41394     41392     41400
     41407     41405     41403     41409     41407     41405     41403     41410
     41407     41405     41403     41411     41408     41405     41403     41409
     41408     41405     41403     41410     41408     41405     41403     41411
     41418     41416     41414     41420     41418     41416     41414     41421
     41418     41416     41414     41422     41419     41416     41414     41420
     41419     41416     41414     41421     41419     41416     41414     41422
     41429     41427     41425     41431     41429     41427     41425     41432
     41429     41427     41425     41433     41430     41427     41425     41431
     41430     41427     41425     41432     41430     41427     41425     41433
     41440     41438     41436     41442     41440     41438     41436     41443
     41440     41438     41436     41444     41441     41438     41436     41442
     41441     41438     41436     41443     41441     41438     41436     41444
     41451     41449     41447     41453     41451     41449     41447     41454
     41451     41449     41447     41455     41452     41449     41447     41453
     41452     41449     41447     41454     41452     41449     41447     41455
     41462     41460     41458     41464     41462     41460     41458     41465
     41462     41460     41458     41466     41463     41460     41458     41464
     41463     41460     41458     41465     41463     41460     41458     41466
     41473     41471     41469     41475     41473     41471     41469     41476
     41473     41471     41469     41477     41474     41471     41469     41475
     41474     41471     41469     41476     41474     41471     41469     41477
     41484     41482     41480     41486     41484     41482     41480     41487
     41484     41482     41480     41488     41485     41482     41480     41486
     41485     41482     41480     41487     41485     41482     41480     41488
     41495     41493     41491     41497     41495     41493     41491     41498
     41495     41493     41491     41499     41496     41493     41491     41497
     41496     41493     41491     41498     41496     41493     41491     41499
     41506     41504     41502     41508     41506     41504     41502     41509
     41506     41504     41502     41510     41507     41504     41502     41508
     41507     41504     41502     41509     41507     41504     41502     41510
     41517     41515     41513     41519     41517     41515     41513     41520
     41517     41515     41513     41521     41518     41515     41513     41519
     41518     41515     41513     41520     41518     41515     41513     41521
     41528     41526     41524     41530     41528     41526     41524     41531
     41528     41526     41524     41532     41529     41526     41524     41530
     41529     41526     41524     41531     41529     41526     41524     41532
     41539     41537     41535     41541     41539     41537     41535     41542
     41539     41537     41535     41543     41540     41537     41535     41541
     41540     41537     41535     41542     41540     41537     41535     41543
     41550     41548     41546     41552     41550     41548     41546     41553
     41550     41548     41546     41554     41551     41548     41546     41552
     41551     41548     41546     41553     41551     41548     41546     41554
     41561     41559     41557     41563     41561     41559     41557     41564
     41561     41559     41557     41565     41562     41559     41557     41563
     41562     41559     41557     41564     41562     41559     41557     41565
     41572     41570     41568     41574     41572     41570     41568     41575
     41572     41570     41568     41576     41573     41570     41568     41574
     41573     41570     41568     41575     41573     41570     41568     41576
     41583     41581     41579     41585     41583     41581     41579     41586
     41583     41581     41579     41587     41584     41581     41579     41585
     41584     41581     41579     41586     41584     41581     41579     41587
     41594     41592     41590     41596     41594     41592     41590     41597
     41594     41592     41590     41598     41595     41592     41590     41596
     41595     41592     41590     41597     41595     41592     41590     41598
     41605     41603     41601     41607     41605     41603     41601     41608
     41605     41603     41601     41609     41606     41603     41601     41607
     41606     41603     41601     41608     41606     41603     41601     41609
     41616     41614     41612     41618     41616     41614     41612     41619
     41616     41614     41612     41620     41617     41614     41612     41618
     41617     41614     41612     41619     41617     41614     41612     41620
     41627     41625     41623     41629     41627     41625     41623     41630
     41627     41625     41623     41631     41628     41625     41623     41629
     41628     41625     41623     41630     41628     41625     41623     41631
     41638     41636     41634     41640     41638     41636     41634     41641
     41638     41636     41634     41642     41639     41636     41634     41640
     41639     41636     41634     41641     41639     41636     41634     41642
     41649     41647     41645     41651     41649     41647     41645     41652
     41649     41647     41645     41653     41650     41647     41645     41651
     41650     41647     41645     41652     41650     41647     41645     41653
     41660     41658     41656     41662     41660     41658     41656     41663
     41660     41658     41656     41664     41661     41658     41656     41662
     41661     41658     41656     41663     41661     41658     41656     41664
     41671     41669     41667     41673     41671     41669     41667     41674
     41671     41669     41667     41675     41672     41669     41667     41673
     41672     41669     41667     41674     41672     41669     41667     41675
     41682     41680     41678     41684     41682     41680     41678     41685
     41682     41680     41678     41686     41683     41680     41678     41684
     41683     41680     41678     41685     41683     41680     41678     41686
     41693     41691     41689     41695     41693     41691     41689     41696
     41693     41691     41689     41697     41694     41691     41689     41695
     41694     41691     41689     41696     41694     41691     41689     41697
     41704     41702     41700     41706     41704     41702     41700     41707
     41704     41702     41700     41708     41705     41702     41700     41706
     41705     41702     41700     41707     41705     41702     41700     41708
     41715     41713     41711     41717     41715     41713     41711     41718
     41715     41713     41711     41719     41716     41713     41711     41717
     41716     41713     41711     41718     41716     41713     41711     41719
     41726     41724     41722     41728     41726     41724     41722     41729
     41726     41724     41722     41730     41727     41724     41722     41728
     41727     41724     41722     41729     41727     41724     41722     41730
     41737     41735     41733     41739     41737     41735     41733     41740
     41737     41735     41733     41741     41738     41735     41733     41739
     41738     41735     41733     41740     41738     41735     41733     41741
     41748     41746     41744     41750     41748     41746     41744     41751
     41748     41746     41744     41752     41749     41746     41744     41750
     41749     41746     41744     41751     41749     41746     41744     41752
     41759     41757     41755     41761     41759     41757     41755     41762
     41759     41757     41755     41763     41760     41757     41755     41761
     41760     41757     41755     41762     41760     41757     41755     41763
     41770     41768     41766     41772     41770     41768     41766     41773
     41770     41768     41766     41774     41771     41768     41766     41772
     41771     41768     41766     41773     41771     41768     41766     41774
     41781     41779     41777     41783     41781     41779     41777     41784
     41781     41779     41777     41785     41782     41779     41777     41783
     41782     41779     41777     41784     41782     41779     41777     41785
     41792     41790     41788     41794     41792     41790     41788     41795
     41792     41790     41788     41796     41793     41790     41788     41794
     41793     41790     41788     41795     41793     41790     41788     41796
     41803     41801     41799     41805     41803     41801     41799     41806
     41803     41801     41799     41807     41804     41801     41799     41805
     41804     41801     41799     41806     41804     41801     41799     41807
     41814     41812     41810     41816     41814     41812     41810     41817
     41814     41812     41810     41818     41815     41812     41810     41816
     41815     41812     41810     41817     41815     41812     41810     41818
     41825     41823     41821     41827     41825     41823     41821     41828
     41825     41823     41821     41829     41826     41823     41821     41827
     41826     41823     41821     41828     41826     41823     41821     41829
     41836     41834     41832     41838     41836     41834     41832     41839
     41836     41834     41832     41840     41837     41834     41832     41838
     41837     41834     41832     41839     41837     41834     41832     41840
     41847     41845     41843     41849     41847     41845     41843     41850
     41847     41845     41843     41851     41848     41845     41843     41849
     41848     41845     41843     41850     41848     41845     41843     41851
     41858     41856     41854     41860     41858     41856     41854     41861
     41858     41856     41854     41862     41859     41856     41854     41860
     41859     41856     41854     41861     41859     41856     41854     41862
     41869     41867     41865     41871     41869     41867     41865     41872
     41869     41867     41865     41873     41870     41867     41865     41871
     41870     41867     41865     41872     41870     41867     41865     41873
     41880     41878     41876     41882     41880     41878     41876     41883
     41880     41878     41876     41884     41881     41878     41876     41882
     41881     41878     41876     41883     41881     41878     41876     41884
     41891     41889     41887     41893     41891     41889     41887     41894
     41891     41889     41887     41895     41892     41889     41887     41893
     41892     41889     41887     41894     41892     41889     41887     41895
     41902     41900     41898     41904     41902     41900     41898     41905
     41902     41900     41898     41906     41903     41900     41898     41904
     41903     41900     41898     41905     41903     41900     41898     41906
     41913     41911     41909     41915     41913     41911     41909     41916
     41913     41911     41909     41917     41914     41911     41909     41915
     41914     41911     41909     41916     41914     41911     41909     41917
     41924     41922     41920     41926     41924     41922     41920     41927
     41924     41922     41920     41928     41925     41922     41920     41926
     41925     41922     41920     41927     41925     41922     41920     41928
     41935     41933     41931     41937     41935     41933     41931     41938
     41935     41933     41931     41939     41936     41933     41931     41937
     41936     41933     41931     41938     41936     41933     41931     41939
     41946     41944     41942     41948     41946     41944     41942     41949
     41946     41944     41942     41950     41947     41944     41942     41948
     41947     41944     41942     41949     41947     41944     41942     41950
     41957     41955     41953     41959     41957     41955     41953     41960
     41957     41955     41953     41961     41958     41955     41953     41959
     41958     41955     41953     41960     41958     41955     41953     41961
     41968     41966     41964     41970     41968     41966     41964     41971
     41968     41966     41964     41972     41969     41966     41964     41970
     41969     41966     41964     41971     41969     41966     41964     41972
     41979     41977     41975     41981     41979     41977     41975     41982
     41979     41977     41975     41983     41980     41977     41975     41981
     41980     41977     41975     41982     41980     41977     41975     41983
     41990     41988     41986     41992     41990     41988     41986     41993
     41990     41988     41986     41994     41991     41988     41986     41992
     41991     41988     41986     41993     41991     41988     41986     41994
     42001     41999     41997     42003     42001     41999     41997     42004
     42001     41999     41997     42005     42002     41999     41997     42003
     42002     41999     41997     42004     42002     41999     41997     42005
     42012     42010     42008     42014     42012     42010     42008     42015
     42012     42010     42008     42016     42013     42010     42008     42014
     42013     42010     42008     42015     42013     42010     42008     42016
     42023     42021     42019     42025     42023     42021     42019     42026
     42023     42021     42019     42027     42024     42021     42019     42025
     42024     42021     42019     42026     42024     42021     42019     42027
     42034     42032     42030     42036     42034     42032     42030     42037
     42034     42032     42030     42038     42035     42032     42030     42036
     42035     42032     42030     42037     42035     42032     42030     42038
     42045     42043     42041     42047     42045     42043     42041     42048
     42045     42043     42041     42049     42046     42043     42041     42047
     42046     42043     42041     42048     42046     42043     42041     42049
     42056     42054     42052     42058     42056     42054     42052     42059
     42056     42054     42052     42060     42057     42054     42052     42058
     42057     42054     42052     42059     42057     42054     42052     42060
     42067     42065     42063     42069     42067     42065     42063     42070
     42067     42065     42063     42071     42068     42065     42063     42069
     42068     42065     42063     42070     42068     42065     42063     42071
     42078     42076     42074     42080     42078     42076     42074     42081
     42078     42076     42074     42082     42079     42076     42074     42080
     42079     42076     42074     42081     42079     42076     42074     42082
     42089     42087     42085     42091     42089     42087     42085     42092
     42089     42087     42085     42093     42090     42087     42085     42091
     42090     42087     42085     42092     42090     42087     42085     42093
     42100     42098     42096     42102     42100     42098     42096     42103
     42100     42098     42096     42104     42101     42098     42096     42102
     42101     42098     42096     42103     42101     42098     42096     42104
     42111     42109     42107     42113     42111     42109     42107     42114
     42111     42109     42107     42115     42112     42109     42107     42113
     42112     42109     42107     42114     42112     42109     42107     42115
     42122     42120     42118     42124     42122     42120     42118     42125
     42122     42120     42118     42126     42123     42120     42118     42124
     42123     42120     42118     42125     42123     42120     42118     42126
     42133     42131     42129     42135     42133     42131     42129     42136
     42133     42131     42129     42137     42134     42131     42129     42135
     42134     42131     42129     42136     42134     42131     42129     42137
     42144     42142     42140     42146     42144     42142     42140     42147
     42144     42142     42140     42148     42145     42142     42140     42146
     42145     42142     42140     42147     42145     42142     42140     42148
     42155     42153     42151     42157     42155     42153     42151     42158
     42155     42153     42151     42159     42156     42153     42151     42157
     42156     42153     42151     42158     42156     42153     42151     42159
     42166     42164     42162     42168     42166     42164     42162     42169
     42166     42164     42162     42170     42167     42164     42162     42168
     42167     42164     42162     42169     42167     42164     42162     42170
     42177     42175     42173     42179     42177     42175     42173     42180
     42177     42175     42173     42181     42178     42175     42173     42179
     42178     42175     42173     42180     42178     42175     42173     42181
     42188     42186     42184     42190     42188     42186     42184     42191
     42188     42186     42184     42192     42189     42186     42184     42190
     42189     42186     42184     42191     42189     42186     42184     42192
     42199     42197     42195     42201     42199     42197     42195     42202
     42199     42197     42195     42203     42200     42197     42195     42201
     42200     42197     42195     42202     42200     42197     42195     42203
     42210     42208     42206     42212     42210     42208     42206     42213
     42210     42208     42206     42214     42211     42208     42206     42212
     42211     42208     42206     42213     42211     42208     42206     42214
     42221     42219     42217     42223     42221     42219     42217     42224
     42221     42219     42217     42225     42222     42219     42217     42223
     42222     42219     42217     42224     42222     42219     42217     42225
     42232     42230     42228     42234     42232     42230     42228     42235
     42232     42230     42228     42236     42233     42230     42228     42234
     42233     42230     42228     42235     42233     42230     42228     42236
     42243     42241     42239     42245     42243     42241     42239     42246
     42243     42241     42239     42247     42244     42241     42239     42245
     42244     42241     42239     42246     42244     42241     42239     42247
     42254     42252     42250     42256     42254     42252     42250     42257
     42254     42252     42250     42258     42255     42252     42250     42256
     42255     42252     42250     42257     42255     42252     42250     42258
     42265     42263     42261     42267     42265     42263     42261     42268
     42265     42263     42261     42269     42266     42263     42261     42267
     42266     42263     42261     42268     42266     42263     42261     42269
     42276     42274     42272     42278     42276     42274     42272     42279
     42276     42274     42272     42280     42277     42274     42272     42278
     42277     42274     42272     42279     42277     42274     42272     42280
     42287     42285     42283     42289     42287     42285     42283     42290
     42287     42285     42283     42291     42288     42285     42283     42289
     42288     42285     42283     42290     42288     42285     42283     42291
     42298     42296     42294     42300     42298     42296     42294     42301
     42298     42296     42294     42302     42299     42296     42294     42300
     42299     42296     42294     42301     42299     42296     42294     42302
     42309     42307     42305     42311     42309     42307     42305     42312
     42309     42307     42305     42313     42310     42307     42305     42311
     42310     42307     42305     42312     42310     42307     42305     42313
     42320     42318     42316     42322     42320     42318     42316     42323
     42320     42318     42316     42324     42321     42318     42316     42322
     42321     42318     42316     42323     42321     42318     42316     42324
     42331     42329     42327     42333     42331     42329     42327     42334
     42331     42329     42327     42335     42332     42329     42327     42333
     42332     42329     42327     42334     42332     42329     42327     42335
     42342     42340     42338     42344     42342     42340     42338     42345
     42342     42340     42338     42346     42343     42340     42338     42344
     42343     42340     42338     42345     42343     42340     42338     42346
     42353     42351     42349     42355     42353     42351     42349     42356
     42353     42351     42349     42357     42354     42351     42349     42355
     42354     42351     42349     42356     42354     42351     42349     42357
     42364     42362     42360     42366     42364     42362     42360     42367
     42364     42362     42360     42368     42365     42362     42360     42366
     42365     42362     42360     42367     42365     42362     42360     42368
     42375     42373     42371     42377     42375     42373     42371     42378
     42375     42373     42371     42379     42376     42373     42371     42377
     42376     42373     42371     42378     42376     42373     42371     42379
     42386     42384     42382     42388     42386     42384     42382     42389
     42386     42384     42382     42390     42387     42384     42382     42388
     42387     42384     42382     42389     42387     42384     42382     42390
     42397     42395     42393     42399     42397     42395     42393     42400
     42397     42395     42393     42401     42398     42395     42393     42399
     42398     42395     42393     42400     42398     42395     42393     42401
     42408     42406     42404     42410     42408     42406     42404     42411
     42408     42406     42404     42412     42409     42406     42404     42410
     42409     42406     42404     42411     42409     42406     42404     42412
     42419     42417     42415     42421     42419     42417     42415     42422
     42419     42417     42415     42423     42420     42417     42415     42421
     42420     42417     42415     42422     42420     42417     42415     42423
     42430     42428     42426     42432     42430     42428     42426     42433
     42430     42428     42426     42434     42431     42428     42426     42432
     42431     42428     42426     42433     42431     42428     42426     42434
     42441     42439     42437     42443     42441     42439     42437     42444
     42441     42439     42437     42445     42442     42439     42437     42443
     42442     42439     42437     42444     42442     42439     42437     42445
     42452     42450     42448     42454     42452     42450     42448     42455
     42452     42450     42448     42456     42453     42450     42448     42454
     42453     42450     42448     42455     42453     42450     42448     42456
     42463     42461     42459     42465     42463     42461     42459     42466
     42463     42461     42459     42467     42464     42461     42459     42465
     42464     42461     42459     42466     42464     42461     42459     42467
     42474     42472     42470     42476     42474     42472     42470     42477
     42474     42472     42470     42478     42475     42472     42470     42476
     42475     42472     42470     42477     42475     42472     42470     42478
     42485     42483     42481     42487     42485     42483     42481     42488
     42485     42483     42481     42489     42486     42483     42481     42487
     42486     42483     42481     42488     42486     42483     42481     42489
     42496     42494     42492     42498     42496     42494     42492     42499
     42496     42494     42492     42500     42497     42494     42492     42498
     42497     42494     42492     42499     42497     42494     42492     42500
     42507     42505     42503     42509     42507     42505     42503     42510
     42507     42505     42503     42511     42508     42505     42503     42509
     42508     42505     42503     42510     42508     42505     42503     42511
     42518     42516     42514     42520     42518     42516     42514     42521
     42518     42516     42514     42522     42519     42516     42514     42520
     42519     42516     42514     42521     42519     42516     42514     42522
     42529     42527     42525     42531     42529     42527     42525     42532
     42529     42527     42525     42533     42530     42527     42525     42531
     42530     42527     42525     42532     42530     42527     42525     42533
     42540     42538     42536     42542     42540     42538     42536     42543
     42540     42538     42536     42544     42541     42538     42536     42542
     42541     42538     42536     42543     42541     42538     42536     42544
     42551     42549     42547     42553     42551     42549     42547     42554
     42551     42549     42547     42555     42552     42549     42547     42553
     42552     42549     42547     42554     42552     42549     42547     42555
     42562     42560     42558     42564     42562     42560     42558     42565
     42562     42560     42558     42566     42563     42560     42558     42564
     42563     42560     42558     42565     42563     42560     42558     42566
     42573     42571     42569     42575     42573     42571     42569     42576
     42573     42571     42569     42577     42574     42571     42569     42575
     42574     42571     42569     42576     42574     42571     42569     42577
     42584     42582     42580     42586     42584     42582     42580     42587
     42584     42582     42580     42588     42585     42582     42580     42586
     42585     42582     42580     42587     42585     42582     42580     42588
     42595     42593     42591     42597     42595     42593     42591     42598
     42595     42593     42591     42599     42596     42593     42591     42597
     42596     42593     42591     42598     42596     42593     42591     42599
     42606     42604     42602     42608     42606     42604     42602     42609
     42606     42604     42602     42610     42607     42604     42602     42608
     42607     42604     42602     42609     42607     42604     42602     42610
     42617     42615     42613     42619     42617     42615     42613     42620
     42617     42615     42613     42621     42618     42615     42613     42619
     42618     42615     42613     42620     42618     42615     42613     42621
     42628     42626     42624     42630     42628     42626     42624     42631
     42628     42626     42624     42632     42629     42626     42624     42630
     42629     42626     42624     42631     42629     42626     42624     42632
     42639     42637     42635     42641     42639     42637     42635     42642
     42639     42637     42635     42643     42640     42637     42635     42641
     42640     42637     42635     42642     42640     42637     42635     42643
     42650     42648     42646     42652     42650     42648     42646     42653
     42650     42648     42646     42654     42651     42648     42646     42652
     42651     42648     42646     42653     42651     42648     42646     42654
     42661     42659     42657     42663     42661     42659     42657     42664
     42661     42659     42657     42665     42662     42659     42657     42663
     42662     42659     42657     42664     42662     42659     42657     42665
     42672     42670     42668     42674     42672     42670     42668     42675
     42672     42670     42668     42676     42673     42670     42668     42674
     42673     42670     42668     42675     42673     42670     42668     42676
     42683     42681     42679     42685     42683     42681     42679     42686
     42683     42681     42679     42687     42684     42681     42679     42685
     42684     42681     42679     42686     42684     42681     42679     42687
     42694     42692     42690     42696     42694     42692     42690     42697
     42694     42692     42690     42698     42695     42692     42690     42696
     42695     42692     42690     42697     42695     42692     42690     42698
     42705     42703     42701     42707     42705     42703     42701     42708
     42705     42703     42701     42709     42706     42703     42701     42707
     42706     42703     42701     42708     42706     42703     42701     42709
     42716     42714     42712     42718     42716     42714     42712     42719
     42716     42714     42712     42720     42717     42714     42712     42718
     42717     42714     42712     42719     42717     42714     42712     42720
     42727     42725     42723     42729     42727     42725     42723     42730
     42727     42725     42723     42731     42728     42725     42723     42729
     42728     42725     42723     42730     42728     42725     42723     42731
     42738     42736     42734     42740     42738     42736     42734     42741
     42738     42736     42734     42742     42739     42736     42734     42740
     42739     42736     42734     42741     42739     42736     42734     42742
     42749     42747     42745     42751     42749     42747     42745     42752
     42749     42747     42745     42753     42750     42747     42745     42751
     42750     42747     42745     42752     42750     42747     42745     42753
     42760     42758     42756     42762     42760     42758     42756     42763
     42760     42758     42756     42764     42761     42758     42756     42762
     42761     42758     42756     42763     42761     42758     42756     42764
     42771     42769     42767     42773     42771     42769     42767     42774
     42771     42769     42767     42775     42772     42769     42767     42773
     42772     42769     42767     42774     42772     42769     42767     42775
     42782     42780     42778     42784     42782     42780     42778     42785
     42782     42780     42778     42786     42783     42780     42778     42784
     42783     42780     42778     42785     42783     42780     42778     42786
     42793     42791     42789     42795     42793     42791     42789     42796
     42793     42791     42789     42797     42794     42791     42789     42795
     42794     42791     42789     42796     42794     42791     42789     42797
     42804     42802     42800     42806     42804     42802     42800     42807
     42804     42802     42800     42808     42805     42802     42800     42806
     42805     42802     42800     42807     42805     42802     42800     42808
     42815     42813     42811     42817     42815     42813     42811     42818
     42815     42813     42811     42819     42816     42813     42811     42817
     42816     42813     42811     42818     42816     42813     42811     42819
     42826     42824     42822     42828     42826     42824     42822     42829
     42826     42824     42822     42830     42827     42824     42822     42828
     42827     42824     42822     42829     42827     42824     42822     42830
     42837     42835     42833     42839     42837     42835     42833     42840
     42837     42835     42833     42841     42838     42835     42833     42839
     42838     42835     42833     42840     42838     42835     42833     42841
     42848     42846     42844     42850     42848     42846     42844     42851
     42848     42846     42844     42852     42849     42846     42844     42850
     42849     42846     42844     42851     42849     42846     42844     42852
     42859     42857     42855     42861     42859     42857     42855     42862
     42859     42857     42855     42863     42860     42857     42855     42861
     42860     42857     42855     42862     42860     42857     42855     42863
     42870     42868     42866     42872     42870     42868     42866     42873
     42870     42868     42866     42874     42871     42868     42866     42872
     42871     42868     42866     42873     42871     42868     42866     42874
     42881     42879     42877     42883     42881     42879     42877     42884
     42881     42879     42877     42885     42882     42879     42877     42883
     42882     42879     42877     42884     42882     42879     42877     42885
     42892     42890     42888     42894     42892     42890     42888     42895
     42892     42890     42888     42896     42893     42890     42888     42894
     42893     42890     42888     42895     42893     42890     42888     42896
     42903     42901     42899     42905     42903     42901     42899     42906
     42903     42901     42899     42907     42904     42901     42899     42905
     42904     42901     42899     42906     42904     42901     42899     42907
     42914     42912     42910     42916     42914     42912     42910     42917
     42914     42912     42910     42918     42915     42912     42910     42916
     42915     42912     42910     42917     42915     42912     42910     42918
     42925     42923     42921     42927     42925     42923     42921     42928
     42925     42923     42921     42929     42926     42923     42921     42927
     42926     42923     42921     42928     42926     42923     42921     42929
     42936     42934     42932     42938     42936     42934     42932     42939
     42936     42934     42932     42940     42937     42934     42932     42938
     42937     42934     42932     42939     42937     42934     42932     42940
     42947     42945     42943     42949     42947     42945     42943     42950
     42947     42945     42943     42951     42948     42945     42943     42949
     42948     42945     42943     42950     42948     42945     42943     42951
     42958     42956     42954     42960     42958     42956     42954     42961
     42958     42956     42954     42962     42959     42956     42954     42960
     42959     42956     42954     42961     42959     42956     42954     42962
     42969     42967     42965     42971     42969     42967     42965     42972
     42969     42967     42965     42973     42970     42967     42965     42971
     42970     42967     42965     42972     42970     42967     42965     42973
     42980     42978     42976     42982     42980     42978     42976     42983
     42980     42978     42976     42984     42981     42978     42976     42982
     42981     42978     42976     42983     42981     42978     42976     42984
     42991     42989     42987     42993     42991     42989     42987     42994
     42991     42989     42987     42995     42992     42989     42987     42993
     42992     42989     42987     42994     42992     42989     42987     42995
     43002     43000     42998     43004     43002     43000     42998     43005
     43002     43000     42998     43006     43003     43000     42998     43004
     43003     43000     42998     43005     43003     43000     42998     43006
     43013     43011     43009     43015     43013     43011     43009     43016
     43013     43011     43009     43017     43014     43011     43009     43015
     43014     43011     43009     43016     43014     43011     43009     43017
     43024     43022     43020     43026     43024     43022     43020     43027
     43024     43022     43020     43028     43025     43022     43020     43026
     43025     43022     43020     43027     43025     43022     43020     43028
     43035     43033     43031     43037     43035     43033     43031     43038
     43035     43033     43031     43039     43036     43033     43031     43037
     43036     43033     43031     43038     43036     43033     43031     43039
     43046     43044     43042     43048     43046     43044     43042     43049
     43046     43044     43042     43050     43047     43044     43042     43048
     43047     43044     43042     43049     43047     43044     43042     43050
     43057     43055     43053     43059     43057     43055     43053     43060
     43057     43055     43053     43061     43058     43055     43053     43059
     43058     43055     43053     43060     43058     43055     43053     43061
     43068     43066     43064     43070     43068     43066     43064     43071
     43068     43066     43064     43072     43069     43066     43064     43070
     43069     43066     43064     43071     43069     43066     43064     43072
     43079     43077     43075     43081     43079     43077     43075     43082
     43079     43077     43075     43083     43080     43077     43075     43081
     43080     43077     43075     43082     43080     43077     43075     43083
     43090     43088     43086     43092     43090     43088     43086     43093
     43090     43088     43086     43094     43091     43088     43086     43092
     43091     43088     43086     43093     43091     43088     43086     43094
     43101     43099     43097     43103     43101     43099     43097     43104
     43101     43099     43097     43105     43102     43099     43097     43103
     43102     43099     43097     43104     43102     43099     43097     43105
     43112     43110     43108     43114     43112     43110     43108     43115
     43112     43110     43108     43116     43113     43110     43108     43114
     43113     43110     43108     43115     43113     43110     43108     43116
     43123     43121     43119     43125     43123     43121     43119     43126
     43123     43121     43119     43127     43124     43121     43119     43125
     43124     43121     43119     43126     43124     43121     43119     43127
     43134     43132     43130     43136     43134     43132     43130     43137
     43134     43132     43130     43138     43135     43132     43130     43136
     43135     43132     43130     43137     43135     43132     43130     43138
     43145     43143     43141     43147     43145     43143     43141     43148
     43145     43143     43141     43149     43146     43143     43141     43147
     43146     43143     43141     43148     43146     43143     43141     43149
     43156     43154     43152     43158     43156     43154     43152     43159
     43156     43154     43152     43160     43157     43154     43152     43158
     43157     43154     43152     43159     43157     43154     43152     43160
     43167     43165     43163     43169     43167     43165     43163     43170
     43167     43165     43163     43171     43168     43165     43163     43169
     43168     43165     43163     43170     43168     43165     43163     43171
     43178     43176     43174     43180     43178     43176     43174     43181
     43178     43176     43174     43182     43179     43176     43174     43180
     43179     43176     43174     43181     43179     43176     43174     43182
     43189     43187     43185     43191     43189     43187     43185     43192
     43189     43187     43185     43193     43190     43187     43185     43191
     43190     43187     43185     43192     43190     43187     43185     43193
     43200     43198     43196     43202     43200     43198     43196     43203
     43200     43198     43196     43204     43201     43198     43196     43202
     43201     43198     43196     43203     43201     43198     43196     43204
     43211     43209     43207     43213     43211     43209     43207     43214
     43211     43209     43207     43215     43212     43209     43207     43213
     43212     43209     43207     43214     43212     43209     43207     43215
     43222     43220     43218     43224     43222     43220     43218     43225
     43222     43220     43218     43226     43223     43220     43218     43224
     43223     43220     43218     43225     43223     43220     43218     43226
     43233     43231     43229     43235     43233     43231     43229     43236
     43233     43231     43229     43237     43234     43231     43229     43235
     43234     43231     43229     43236     43234     43231     43229     43237
     43244     43242     43240     43246     43244     43242     43240     43247
     43244     43242     43240     43248     43245     43242     43240     43246
     43245     43242     43240     43247     43245     43242     43240     43248
     43255     43253     43251     43257     43255     43253     43251     43258
     43255     43253     43251     43259     43256     43253     43251     43257
     43256     43253     43251     43258     43256     43253     43251     43259
     43266     43264     43262     43268     43266     43264     43262     43269
     43266     43264     43262     43270     43267     43264     43262     43268
     43267     43264     43262     43269     43267     43264     43262     43270
     43277     43275     43273     43279     43277     43275     43273     43280
     43277     43275     43273     43281     43278     43275     43273     43279
     43278     43275     43273     43280     43278     43275     43273     43281
     43288     43286     43284     43290     43288     43286     43284     43291
     43288     43286     43284     43292     43289     43286     43284     43290
     43289     43286     43284     43291     43289     43286     43284     43292
     43299     43297     43295     43301     43299     43297     43295     43302
     43299     43297     43295     43303     43300     43297     43295     43301
     43300     43297     43295     43302     43300     43297     43295     43303
     43310     43308     43306     43312     43310     43308     43306     43313
     43310     43308     43306     43314     43311     43308     43306     43312
     43311     43308     43306     43313     43311     43308     43306     43314
     43321     43319     43317     43323     43321     43319     43317     43324
     43321     43319     43317     43325     43322     43319     43317     43323
     43322     43319     43317     43324     43322     43319     43317     43325
     43332     43330     43328     43334     43332     43330     43328     43335
     43332     43330     43328     43336     43333     43330     43328     43334
     43333     43330     43328     43335     43333     43330     43328     43336
     43343     43341     43339     43345     43343     43341     43339     43346
     43343     43341     43339     43347     43344     43341     43339     43345
     43344     43341     43339     43346     43344     43341     43339     43347
     43354     43352     43350     43356     43354     43352     43350     43357
     43354     43352     43350     43358     43355     43352     43350     43356
     43355     43352     43350     43357     43355     43352     43350     43358
     43365     43363     43361     43367     43365     43363     43361     43368
     43365     43363     43361     43369     43366     43363     43361     43367
     43366     43363     43361     43368     43366     43363     43361     43369
     43376     43374     43372     43378     43376     43374     43372     43379
     43376     43374     43372     43380     43377     43374     43372     43378
     43377     43374     43372     43379     43377     43374     43372     43380
     43387     43385     43383     43389     43387     43385     43383     43390
     43387     43385     43383     43391     43388     43385     43383     43389
     43388     43385     43383     43390     43388     43385     43383     43391
     43398     43396     43394     43400     43398     43396     43394     43401
     43398     43396     43394     43402     43399     43396     43394     43400
     43399     43396     43394     43401     43399     43396     43394     43402
     43409     43407     43405     43411     43409     43407     43405     43412
     43409     43407     43405     43413     43410     43407     43405     43411
     43410     43407     43405     43412     43410     43407     43405     43413
     43420     43418     43416     43422     43420     43418     43416     43423
     43420     43418     43416     43424     43421     43418     43416     43422
     43421     43418     43416     43423     43421     43418     43416     43424
     43431     43429     43427     43433     43431     43429     43427     43434
     43431     43429     43427     43435     43432     43429     43427     43433
     43432     43429     43427     43434     43432     43429     43427     43435
     43442     43440     43438     43444     43442     43440     43438     43445
     43442     43440     43438     43446     43443     43440     43438     43444
     43443     43440     43438     43445     43443     43440     43438     43446
     43453     43451     43449     43455     43453     43451     43449     43456
     43453     43451     43449     43457     43454     43451     43449     43455
     43454     43451     43449     43456     43454     43451     43449     43457
     43464     43462     43460     43466     43464     43462     43460     43467
     43464     43462     43460     43468     43465     43462     43460     43466
     43465     43462     43460     43467     43465     43462     43460     43468
     43475     43473     43471     43477     43475     43473     43471     43478
     43475     43473     43471     43479     43476     43473     43471     43477
     43476     43473     43471     43478     43476     43473     43471     43479
     43486     43484     43482     43488     43486     43484     43482     43489
     43486     43484     43482     43490     43487     43484     43482     43488
     43487     43484     43482     43489     43487     43484     43482     43490
     43497     43495     43493     43499     43497     43495     43493     43500
     43497     43495     43493     43501     43498     43495     43493     43499
     43498     43495     43493     43500     43498     43495     43493     43501
     43508     43506     43504     43510     43508     43506     43504     43511
     43508     43506     43504     43512     43509     43506     43504     43510
     43509     43506     43504     43511     43509     43506     43504     43512
     43519     43517     43515     43521     43519     43517     43515     43522
     43519     43517     43515     43523     43520     43517     43515     43521
     43520     43517     43515     43522     43520     43517     43515     43523
     43530     43528     43526     43532     43530     43528     43526     43533
     43530     43528     43526     43534     43531     43528     43526     43532
     43531     43528     43526     43533     43531     43528     43526     43534
     43541     43539     43537     43543     43541     43539     43537     43544
     43541     43539     43537     43545     43542     43539     43537     43543
     43542     43539     43537     43544     43542     43539     43537     43545
     43552     43550     43548     43554     43552     43550     43548     43555
     43552     43550     43548     43556     43553     43550     43548     43554
     43553     43550     43548     43555     43553     43550     43548     43556
     43563     43561     43559     43565     43563     43561     43559     43566
     43563     43561     43559     43567     43564     43561     43559     43565
     43564     43561     43559     43566     43564     43561     43559     43567
     43574     43572     43570     43576     43574     43572     43570     43577
     43574     43572     43570     43578     43575     43572     43570     43576
     43575     43572     43570     43577     43575     43572     43570     43578
     43585     43583     43581     43587     43585     43583     43581     43588
     43585     43583     43581     43589     43586     43583     43581     43587
     43586     43583     43581     43588     43586     43583     43581     43589
     43596     43594     43592     43598     43596     43594     43592     43599
     43596     43594     43592     43600     43597     43594     43592     43598
     43597     43594     43592     43599     43597     43594     43592     43600
     43607     43605     43603     43609     43607     43605     43603     43610
     43607     43605     43603     43611     43608     43605     43603     43609
     43608     43605     43603     43610     43608     43605     43603     43611
     43618     43616     43614     43620     43618     43616     43614     43621
     43618     43616     43614     43622     43619     43616     43614     43620
     43619     43616     43614     43621     43619     43616     43614     43622
     43629     43627     43625     43631     43629     43627     43625     43632
     43629     43627     43625     43633     43630     43627     43625     43631
     43630     43627     43625     43632     43630     43627     43625     43633
     43640     43638     43636     43642     43640     43638     43636     43643
     43640     43638     43636     43644     43641     43638     43636     43642
     43641     43638     43636     43643     43641     43638     43636     43644
     43651     43649     43647     43653     43651     43649     43647     43654
     43651     43649     43647     43655     43652     43649     43647     43653
     43652     43649     43647     43654     43652     43649     43647     43655
     43662     43660     43658     43664     43662     43660     43658     43665
     43662     43660     43658     43666     43663     43660     43658     43664
     43663     43660     43658     43665     43663     43660     43658     43666
     43673     43671     43669     43675     43673     43671     43669     43676
     43673     43671     43669     43677     43674     43671     43669     43675
     43674     43671     43669     43676     43674     43671     43669     43677
     43684     43682     43680     43686     43684     43682     43680     43687
     43684     43682     43680     43688     43685     43682     43680     43686
     43685     43682     43680     43687     43685     43682     43680     43688
     43695     43693     43691     43697     43695     43693     43691     43698
     43695     43693     43691     43699     43696     43693     43691     43697
     43696     43693     43691     43698     43696     43693     43691     43699
     43706     43704     43702     43708     43706     43704     43702     43709
     43706     43704     43702     43710     43707     43704     43702     43708
     43707     43704     43702     43709     43707     43704     43702     43710
     43717     43715     43713     43719     43717     43715     43713     43720
     43717     43715     43713     43721     43718     43715     43713     43719
     43718     43715     43713     43720     43718     43715     43713     43721
     43728     43726     43724     43730     43728     43726     43724     43731
     43728     43726     43724     43732     43729     43726     43724     43730
     43729     43726     43724     43731     43729     43726     43724     43732
     43739     43737     43735     43741     43739     43737     43735     43742
     43739     43737     43735     43743     43740     43737     43735     43741
     43740     43737     43735     43742     43740     43737     43735     43743
     43750     43748     43746     43752     43750     43748     43746     43753
     43750     43748     43746     43754     43751     43748     43746     43752
     43751     43748     43746     43753     43751     43748     43746     43754
     43761     43759     43757     43763     43761     43759     43757     43764
     43761     43759     43757     43765     43762     43759     43757     43763
     43762     43759     43757     43764     43762     43759     43757     43765
     43772     43770     43768     43774     43772     43770     43768     43775
     43772     43770     43768     43776     43773     43770     43768     43774
     43773     43770     43768     43775     43773     43770     43768     43776
     43783     43781     43779     43785     43783     43781     43779     43786
     43783     43781     43779     43787     43784     43781     43779     43785
     43784     43781     43779     43786     43784     43781     43779     43787
     43794     43792     43790     43796     43794     43792     43790     43797
     43794     43792     43790     43798     43795     43792     43790     43796
     43795     43792     43790     43797     43795     43792     43790     43798
     43805     43803     43801     43807     43805     43803     43801     43808
     43805     43803     43801     43809     43806     43803     43801     43807
     43806     43803     43801     43808     43806     43803     43801     43809
     43816     43814     43812     43818     43816     43814     43812     43819
     43816     43814     43812     43820     43817     43814     43812     43818
     43817     43814     43812     43819     43817     43814     43812     43820
     43827     43825     43823     43829     43827     43825     43823     43830
     43827     43825     43823     43831     43828     43825     43823     43829
     43828     43825     43823     43830     43828     43825     43823     43831
     43838     43836     43834     43840     43838     43836     43834     43841
     43838     43836     43834     43842     43839     43836     43834     43840
     43839     43836     43834     43841     43839     43836     43834     43842
     43849     43847     43845     43851     43849     43847     43845     43852
     43849     43847     43845     43853     43850     43847     43845     43851
     43850     43847     43845     43852     43850     43847     43845     43853
     43860     43858     43856     43862     43860     43858     43856     43863
     43860     43858     43856     43864     43861     43858     43856     43862
     43861     43858     43856     43863     43861     43858     43856     43864
     43871     43869     43867     43873     43871     43869     43867     43874
     43871     43869     43867     43875     43872     43869     43867     43873
     43872     43869     43867     43874     43872     43869     43867     43875
     43882     43880     43878     43884     43882     43880     43878     43885
     43882     43880     43878     43886     43883     43880     43878     43884
     43883     43880     43878     43885     43883     43880     43878     43886
     43893     43891     43889     43895     43893     43891     43889     43896
     43893     43891     43889     43897     43894     43891     43889     43895
     43894     43891     43889     43896     43894     43891     43889     43897
     43904     43902     43900     43906     43904     43902     43900     43907
     43904     43902     43900     43908     43905     43902     43900     43906
     43905     43902     43900     43907     43905     43902     43900     43908
     43915     43913     43911     43917     43915     43913     43911     43918
     43915     43913     43911     43919     43916     43913     43911     43917
     43916     43913     43911     43918     43916     43913     43911     43919
     43926     43924     43922     43928     43926     43924     43922     43929
     43926     43924     43922     43930     43927     43924     43922     43928
     43927     43924     43922     43929     43927     43924     43922     43930
     43937     43935     43933     43939     43937     43935     43933     43940
     43937     43935     43933     43941     43938     43935     43933     43939
     43938     43935     43933     43940     43938     43935     43933     43941
     43948     43946     43944     43950     43948     43946     43944     43951
     43948     43946     43944     43952     43949     43946     43944     43950
     43949     43946     43944     43951     43949     43946     43944     43952
     43959     43957     43955     43961     43959     43957     43955     43962
     43959     43957     43955     43963     43960     43957     43955     43961
     43960     43957     43955     43962     43960     43957     43955     43963
     43970     43968     43966     43972     43970     43968     43966     43973
     43970     43968     43966     43974     43971     43968     43966     43972
     43971     43968     43966     43973     43971     43968     43966     43974
     43981     43979     43977     43983     43981     43979     43977     43984
     43981     43979     43977     43985     43982     43979     43977     43983
     43982     43979     43977     43984     43982     43979     43977     43985
     43992     43990     43988     43994     43992     43990     43988     43995
     43992     43990     43988     43996     43993     43990     43988     43994
     43993     43990     43988     43995     43993     43990     43988     43996
     44003     44001     43999     44005     44003     44001     43999     44006
     44003     44001     43999     44007     44004     44001     43999     44005
     44004     44001     43999     44006     44004     44001     43999     44007
     44014     44012     44010     44016     44014     44012     44010     44017
     44014     44012     44010     44018     44015     44012     44010     44016
     44015     44012     44010     44017     44015     44012     44010     44018
     44025     44023     44021     44027     44025     44023     44021     44028
     44025     44023     44021     44029     44026     44023     44021     44027
     44026     44023     44021     44028     44026     44023     44021     44029
     44036     44034     44032     44038     44036     44034     44032     44039
     44036     44034     44032     44040     44037     44034     44032     44038
     44037     44034     44032     44039     44037     44034     44032     44040
     44047     44045     44043     44049     44047     44045     44043     44050
     44047     44045     44043     44051     44048     44045     44043     44049
     44048     44045     44043     44050     44048     44045     44043     44051
     44058     44056     44054     44060     44058     44056     44054     44061
     44058     44056     44054     44062     44059     44056     44054     44060
     44059     44056     44054     44061     44059     44056     44054     44062
     44069     44067     44065     44071     44069     44067     44065     44072
     44069     44067     44065     44073     44070     44067     44065     44071
     44070     44067     44065     44072     44070     44067     44065     44073
     44080     44078     44076     44082     44080     44078     44076     44083
     44080     44078     44076     44084     44081     44078     44076     44082
     44081     44078     44076     44083     44081     44078     44076     44084
     44091     44089     44087     44093     44091     44089     44087     44094
     44091     44089     44087     44095     44092     44089     44087     44093
     44092     44089     44087     44094     44092     44089     44087     44095
     44102     44100     44098     44104     44102     44100     44098     44105
     44102     44100     44098     44106     44103     44100     44098     44104
     44103     44100     44098     44105     44103     44100     44098     44106
     44113     44111     44109     44115     44113     44111     44109     44116
     44113     44111     44109     44117     44114     44111     44109     44115
     44114     44111     44109     44116     44114     44111     44109     44117
     44124     44122     44120     44126     44124     44122     44120     44127
     44124     44122     44120     44128     44125     44122     44120     44126
     44125     44122     44120     44127     44125     44122     44120     44128
     44135     44133     44131     44137     44135     44133     44131     44138
     44135     44133     44131     44139     44136     44133     44131     44137
     44136     44133     44131     44138     44136     44133     44131     44139
     44146     44144     44142     44148     44146     44144     44142     44149
     44146     44144     44142     44150     44147     44144     44142     44148
     44147     44144     44142     44149     44147     44144     44142     44150
     44157     44155     44153     44159     44157     44155     44153     44160
     44157     44155     44153     44161     44158     44155     44153     44159
     44158     44155     44153     44160     44158     44155     44153     44161
     44168     44166     44164     44170     44168     44166     44164     44171
     44168     44166     44164     44172     44169     44166     44164     44170
     44169     44166     44164     44171     44169     44166     44164     44172
     44179     44177     44175     44181     44179     44177     44175     44182
     44179     44177     44175     44183     44180     44177     44175     44181
     44180     44177     44175     44182     44180     44177     44175     44183
     44190     44188     44186     44192     44190     44188     44186     44193
     44190     44188     44186     44194     44191     44188     44186     44192
     44191     44188     44186     44193     44191     44188     44186     44194
     44201     44199     44197     44203     44201     44199     44197     44204
     44201     44199     44197     44205     44202     44199     44197     44203
     44202     44199     44197     44204     44202     44199     44197     44205
     44212     44210     44208     44214     44212     44210     44208     44215
     44212     44210     44208     44216     44213     44210     44208     44214
     44213     44210     44208     44215     44213     44210     44208     44216
     44223     44221     44219     44225     44223     44221     44219     44226
     44223     44221     44219     44227     44224     44221     44219     44225
     44224     44221     44219     44226     44224     44221     44219     44227
     44234     44232     44230     44236     44234     44232     44230     44237
     44234     44232     44230     44238     44235     44232     44230     44236
     44235     44232     44230     44237     44235     44232     44230     44238
     44245     44243     44241     44247     44245     44243     44241     44248
     44245     44243     44241     44249     44246     44243     44241     44247
     44246     44243     44241     44248     44246     44243     44241     44249
     44256     44254     44252     44258     44256     44254     44252     44259
     44256     44254     44252     44260     44257     44254     44252     44258
     44257     44254     44252     44259     44257     44254     44252     44260
     44267     44265     44263     44269     44267     44265     44263     44270
     44267     44265     44263     44271     44268     44265     44263     44269
     44268     44265     44263     44270     44268     44265     44263     44271
     44278     44276     44274     44280     44278     44276     44274     44281
     44278     44276     44274     44282     44279     44276     44274     44280
     44279     44276     44274     44281     44279     44276     44274     44282
     44289     44287     44285     44291     44289     44287     44285     44292
     44289     44287     44285     44293     44290     44287     44285     44291
     44290     44287     44285     44292     44290     44287     44285     44293
     44300     44298     44296     44302     44300     44298     44296     44303
     44300     44298     44296     44304     44301     44298     44296     44302
     44301     44298     44296     44303     44301     44298     44296     44304
     44311     44309     44307     44313     44311     44309     44307     44314
     44311     44309     44307     44315     44312     44309     44307     44313
     44312     44309     44307     44314     44312     44309     44307     44315
     44322     44320     44318     44324     44322     44320     44318     44325
     44322     44320     44318     44326     44323     44320     44318     44324
     44323     44320     44318     44325     44323     44320     44318     44326
     44333     44331     44329     44335     44333     44331     44329     44336
     44333     44331     44329     44337     44334     44331     44329     44335
     44334     44331     44329     44336     44334     44331     44329     44337
     44344     44342     44340     44346     44344     44342     44340     44347
     44344     44342     44340     44348     44345     44342     44340     44346
     44345     44342     44340     44347     44345     44342     44340     44348
     44355     44353     44351     44357     44355     44353     44351     44358
     44355     44353     44351     44359     44356     44353     44351     44357
     44356     44353     44351     44358     44356     44353     44351     44359
     44366     44364     44362     44368     44366     44364     44362     44369
     44366     44364     44362     44370     44367     44364     44362     44368
     44367     44364     44362     44369     44367     44364     44362     44370
     44377     44375     44373     44379     44377     44375     44373     44380
     44377     44375     44373     44381     44378     44375     44373     44379
     44378     44375     44373     44380     44378     44375     44373     44381
     44388     44386     44384     44390     44388     44386     44384     44391
     44388     44386     44384     44392     44389     44386     44384     44390
     44389     44386     44384     44391     44389     44386     44384     44392
     44399     44397     44395     44401     44399     44397     44395     44402
     44399     44397     44395     44403     44400     44397     44395     44401
     44400     44397     44395     44402     44400     44397     44395     44403
     44410     44408     44406     44412     44410     44408     44406     44413
     44410     44408     44406     44414     44411     44408     44406     44412
     44411     44408     44406     44413     44411     44408     44406     44414
     44421     44419     44417     44423     44421     44419     44417     44424
     44421     44419     44417     44425     44422     44419     44417     44423
     44422     44419     44417     44424     44422     44419     44417     44425
     44432     44430     44428     44434     44432     44430     44428     44435
     44432     44430     44428     44436     44433     44430     44428     44434
     44433     44430     44428     44435     44433     44430     44428     44436
     44443     44441     44439     44445     44443     44441     44439     44446
     44443     44441     44439     44447     44444     44441     44439     44445
     44444     44441     44439     44446     44444     44441     44439     44447
     44454     44452     44450     44456     44454     44452     44450     44457
     44454     44452     44450     44458     44455     44452     44450     44456
     44455     44452     44450     44457     44455     44452     44450     44458
     44465     44463     44461     44467     44465     44463     44461     44468
     44465     44463     44461     44469     44466     44463     44461     44467
     44466     44463     44461     44468     44466     44463     44461     44469
     44476     44474     44472     44478     44476     44474     44472     44479
     44476     44474     44472     44480     44477     44474     44472     44478
     44477     44474     44472     44479     44477     44474     44472     44480
     44487     44485     44483     44489     44487     44485     44483     44490
     44487     44485     44483     44491     44488     44485     44483     44489
     44488     44485     44483     44490     44488     44485     44483     44491
     44498     44496     44494     44500     44498     44496     44494     44501
     44498     44496     44494     44502     44499     44496     44494     44500
     44499     44496     44494     44501     44499     44496     44494     44502
     44509     44507     44505     44511     44509     44507     44505     44512
     44509     44507     44505     44513     44510     44507     44505     44511
     44510     44507     44505     44512     44510     44507     44505     44513
     44520     44518     44516     44522     44520     44518     44516     44523
     44520     44518     44516     44524     44521     44518     44516     44522
     44521     44518     44516     44523     44521     44518     44516     44524
     44531     44529     44527     44533     44531     44529     44527     44534
     44531     44529     44527     44535     44532     44529     44527     44533
     44532     44529     44527     44534     44532     44529     44527     44535
     44542     44540     44538     44544     44542     44540     44538     44545
     44542     44540     44538     44546     44543     44540     44538     44544
     44543     44540     44538     44545     44543     44540     44538     44546
     44553     44551     44549     44555     44553     44551     44549     44556
     44553     44551     44549     44557     44554     44551     44549     44555
     44554     44551     44549     44556     44554     44551     44549     44557
     44564     44562     44560     44566     44564     44562     44560     44567
     44564     44562     44560     44568     44565     44562     44560     44566
     44565     44562     44560     44567     44565     44562     44560     44568
     44575     44573     44571     44577     44575     44573     44571     44578
     44575     44573     44571     44579     44576     44573     44571     44577
     44576     44573     44571     44578     44576     44573     44571     44579
     44586     44584     44582     44588     44586     44584     44582     44589
     44586     44584     44582     44590     44587     44584     44582     44588
     44587     44584     44582     44589     44587     44584     44582     44590
     44597     44595     44593     44599     44597     44595     44593     44600
     44597     44595     44593     44601     44598     44595     44593     44599
     44598     44595     44593     44600     44598     44595     44593     44601
     44608     44606     44604     44610     44608     44606     44604     44611
     44608     44606     44604     44612     44609     44606     44604     44610
     44609     44606     44604     44611     44609     44606     44604     44612
     44619     44617     44615     44621     44619     44617     44615     44622
     44619     44617     44615     44623     44620     44617     44615     44621
     44620     44617     44615     44622     44620     44617     44615     44623
     44630     44628     44626     44632     44630     44628     44626     44633
     44630     44628     44626     44634     44631     44628     44626     44632
     44631     44628     44626     44633     44631     44628     44626     44634
     44641     44639     44637     44643     44641     44639     44637     44644
     44641     44639     44637     44645     44642     44639     44637     44643
     44642     44639     44637     44644     44642     44639     44637     44645
     44652     44650     44648     44654     44652     44650     44648     44655
     44652     44650     44648     44656     44653     44650     44648     44654
     44653     44650     44648     44655     44653     44650     44648     44656
     44663     44661     44659     44665     44663     44661     44659     44666
     44663     44661     44659     44667     44664     44661     44659     44665
     44664     44661     44659     44666     44664     44661     44659     44667
     44674     44672     44670     44676     44674     44672     44670     44677
     44674     44672     44670     44678     44675     44672     44670     44676
     44675     44672     44670     44677     44675     44672     44670     44678
     44685     44683     44681     44687     44685     44683     44681     44688
     44685     44683     44681     44689     44686     44683     44681     44687
     44686     44683     44681     44688     44686     44683     44681     44689
     44696     44694     44692     44698     44696     44694     44692     44699
     44696     44694     44692     44700     44697     44694     44692     44698
     44697     44694     44692     44699     44697     44694     44692     44700
     44707     44705     44703     44709     44707     44705     44703     44710
     44707     44705     44703     44711     44708     44705     44703     44709
     44708     44705     44703     44710     44708     44705     44703     44711
     44718     44716     44714     44720     44718     44716     44714     44721
     44718     44716     44714     44722     44719     44716     44714     44720
     44719     44716     44714     44721     44719     44716     44714     44722
     44729     44727     44725     44731     44729     44727     44725     44732
     44729     44727     44725     44733     44730     44727     44725     44731
     44730     44727     44725     44732     44730     44727     44725     44733
     44740     44738     44736     44742     44740     44738     44736     44743
     44740     44738     44736     44744     44741     44738     44736     44742
     44741     44738     44736     44743     44741     44738     44736     44744
     44751     44749     44747     44753     44751     44749     44747     44754
     44751     44749     44747     44755     44752     44749     44747     44753
     44752     44749     44747     44754     44752     44749     44747     44755
     44762     44760     44758     44764     44762     44760     44758     44765
     44762     44760     44758     44766     44763     44760     44758     44764
     44763     44760     44758     44765     44763     44760     44758     44766
     44773     44771     44769     44775     44773     44771     44769     44776
     44773     44771     44769     44777     44774     44771     44769     44775
     44774     44771     44769     44776     44774     44771     44769     44777
     44784     44782     44780     44786     44784     44782     44780     44787
     44784     44782     44780     44788     44785     44782     44780     44786
     44785     44782     44780     44787     44785     44782     44780     44788
     44795     44793     44791     44797     44795     44793     44791     44798
     44795     44793     44791     44799     44796     44793     44791     44797
     44796     44793     44791     44798     44796     44793     44791     44799
     44806     44804     44802     44808     44806     44804     44802     44809
     44806     44804     44802     44810     44807     44804     44802     44808
     44807     44804     44802     44809     44807     44804     44802     44810
     44817     44815     44813     44819     44817     44815     44813     44820
     44817     44815     44813     44821     44818     44815     44813     44819
     44818     44815     44813     44820     44818     44815     44813     44821
     44828     44826     44824     44830     44828     44826     44824     44831
     44828     44826     44824     44832     44829     44826     44824     44830
     44829     44826     44824     44831     44829     44826     44824     44832
     44839     44837     44835     44841     44839     44837     44835     44842
     44839     44837     44835     44843     44840     44837     44835     44841
     44840     44837     44835     44842     44840     44837     44835     44843
     44850     44848     44846     44852     44850     44848     44846     44853
     44850     44848     44846     44854     44851     44848     44846     44852
     44851     44848     44846     44853     44851     44848     44846     44854
     44861     44859     44857     44863     44861     44859     44857     44864
     44861     44859     44857     44865     44862     44859     44857     44863
     44862     44859     44857     44864     44862     44859     44857     44865
     44872     44870     44868     44874     44872     44870     44868     44875
     44872     44870     44868     44876     44873     44870     44868     44874
     44873     44870     44868     44875     44873     44870     44868     44876
     44883     44881     44879     44885     44883     44881     44879     44886
     44883     44881     44879     44887     44884     44881     44879     44885
     44884     44881     44879     44886     44884     44881     44879     44887
     44894     44892     44890     44896     44894     44892     44890     44897
     44894     44892     44890     44898     44895     44892     44890     44896
     44895     44892     44890     44897     44895     44892     44890     44898
     44905     44903     44901     44907     44905     44903     44901     44908
     44905     44903     44901     44909     44906     44903     44901     44907
     44906     44903     44901     44908     44906     44903     44901     44909
     44916     44914     44912     44918     44916     44914     44912     44919
     44916     44914     44912     44920     44917     44914     44912     44918
     44917     44914     44912     44919     44917     44914     44912     44920
     44927     44925     44923     44929     44927     44925     44923     44930
     44927     44925     44923     44931     44928     44925     44923     44929
     44928     44925     44923     44930     44928     44925     44923     44931
     44938     44936     44934     44940     44938     44936     44934     44941
     44938     44936     44934     44942     44939     44936     44934     44940
     44939     44936     44934     44941     44939     44936     44934     44942
     44949     44947     44945     44951     44949     44947     44945     44952
     44949     44947     44945     44953     44950     44947     44945     44951
     44950     44947     44945     44952     44950     44947     44945     44953
     44960     44958     44956     44962     44960     44958     44956     44963
     44960     44958     44956     44964     44961     44958     44956     44962
     44961     44958     44956     44963     44961     44958     44956     44964
     44971     44969     44967     44973     44971     44969     44967     44974
     44971     44969     44967     44975     44972     44969     44967     44973
     44972     44969     44967     44974     44972     44969     44967     44975
     44982     44980     44978     44984     44982     44980     44978     44985
     44982     44980     44978     44986     44983     44980     44978     44984
     44983     44980     44978     44985     44983     44980     44978     44986
     44993     44991     44989     44995     44993     44991     44989     44996
     44993     44991     44989     44997     44994     44991     44989     44995
     44994     44991     44989     44996     44994     44991     44989     44997
     45004     45002     45000     45006     45004     45002     45000     45007
     45004     45002     45000     45008     45005     45002     45000     45006
     45005     45002     45000     45007     45005     45002     45000     45008
     45015     45013     45011     45017     45015     45013     45011     45018
     45015     45013     45011     45019     45016     45013     45011     45017
     45016     45013     45011     45018     45016     45013     45011     45019
     45026     45024     45022     45028     45026     45024     45022     45029
     45026     45024     45022     45030     45027     45024     45022     45028
     45027     45024     45022     45029     45027     45024     45022     45030
     45037     45035     45033     45039     45037     45035     45033     45040
     45037     45035     45033     45041     45038     45035     45033     45039
     45038     45035     45033     45040     45038     45035     45033     45041
     45048     45046     45044     45050     45048     45046     45044     45051
     45048     45046     45044     45052     45049     45046     45044     45050
     45049     45046     45044     45051     45049     45046     45044     45052
     45059     45057     45055     45061     45059     45057     45055     45062
     45059     45057     45055     45063     45060     45057     45055     45061
     45060     45057     45055     45062     45060     45057     45055     45063
     45070     45068     45066     45072     45070     45068     45066     45073
     45070     45068     45066     45074     45071     45068     45066     45072
     45071     45068     45066     45073     45071     45068     45066     45074
     45081     45079     45077     45083     45081     45079     45077     45084
     45081     45079     45077     45085     45082     45079     45077     45083
     45082     45079     45077     45084     45082     45079     45077     45085
     45092     45090     45088     45094     45092     45090     45088     45095
     45092     45090     45088     45096     45093     45090     45088     45094
     45093     45090     45088     45095     45093     45090     45088     45096
     45103     45101     45099     45105     45103     45101     45099     45106
     45103     45101     45099     45107     45104     45101     45099     45105
     45104     45101     45099     45106     45104     45101     45099     45107
     45114     45112     45110     45116     45114     45112     45110     45117
     45114     45112     45110     45118     45115     45112     45110     45116
     45115     45112     45110     45117     45115     45112     45110     45118
     45125     45123     45121     45127     45125     45123     45121     45128
     45125     45123     45121     45129     45126     45123     45121     45127
     45126     45123     45121     45128     45126     45123     45121     45129
     45136     45134     45132     45138     45136     45134     45132     45139
     45136     45134     45132     45140     45137     45134     45132     45138
     45137     45134     45132     45139     45137     45134     45132     45140
     45147     45145     45143     45149     45147     45145     45143     45150
     45147     45145     45143     45151     45148     45145     45143     45149
     45148     45145     45143     45150     45148     45145     45143     45151
     45158     45156     45154     45160     45158     45156     45154     45161
     45158     45156     45154     45162     45159     45156     45154     45160
     45159     45156     45154     45161     45159     45156     45154     45162
     45169     45167     45165     45171     45169     45167     45165     45172
     45169     45167     45165     45173     45170     45167     45165     45171
     45170     45167     45165     45172     45170     45167     45165     45173
     45180     45178     45176     45182     45180     45178     45176     45183
     45180     45178     45176     45184     45181     45178     45176     45182
     45181     45178     45176     45183     45181     45178     45176     45184
     45191     45189     45187     45193     45191     45189     45187     45194
     45191     45189     45187     45195     45192     45189     45187     45193
     45192     45189     45187     45194     45192     45189     45187     45195
     45202     45200     45198     45204     45202     45200     45198     45205
     45202     45200     45198     45206     45203     45200     45198     45204
     45203     45200     45198     45205     45203     45200     45198     45206
     45213     45211     45209     45215     45213     45211     45209     45216
     45213     45211     45209     45217     45214     45211     45209     45215
     45214     45211     45209     45216     45214     45211     45209     45217
     45224     45222     45220     45226     45224     45222     45220     45227
     45224     45222     45220     45228     45225     45222     45220     45226
     45225     45222     45220     45227     45225     45222     45220     45228
     45235     45233     45231     45237     45235     45233     45231     45238
     45235     45233     45231     45239     45236     45233     45231     45237
     45236     45233     45231     45238     45236     45233     45231     45239
     45246     45244     45242     45248     45246     45244     45242     45249
     45246     45244     45242     45250     45247     45244     45242     45248
     45247     45244     45242     45249     45247     45244     45242     45250
     45257     45255     45253     45259     45257     45255     45253     45260
     45257     45255     45253     45261     45258     45255     45253     45259
     45258     45255     45253     45260     45258     45255     45253     45261
     45268     45266     45264     45270     45268     45266     45264     45271
     45268     45266     45264     45272     45269     45266     45264     45270
     45269     45266     45264     45271     45269     45266     45264     45272
     45279     45277     45275     45281     45279     45277     45275     45282
     45279     45277     45275     45283     45280     45277     45275     45281
     45280     45277     45275     45282     45280     45277     45275     45283
     45290     45288     45286     45292     45290     45288     45286     45293
     45290     45288     45286     45294     45291     45288     45286     45292
     45291     45288     45286     45293     45291     45288     45286     45294
     45301     45299     45297     45303     45301     45299     45297     45304
     45301     45299     45297     45305     45302     45299     45297     45303
     45302     45299     45297     45304     45302     45299     45297     45305
     45312     45310     45308     45314     45312     45310     45308     45315
     45312     45310     45308     45316     45313     45310     45308     45314
     45313     45310     45308     45315     45313     45310     45308     45316
     45323     45321     45319     45325     45323     45321     45319     45326
     45323     45321     45319     45327     45324     45321     45319     45325
     45324     45321     45319     45326     45324     45321     45319     45327
     45334     45332     45330     45336     45334     45332     45330     45337
     45334     45332     45330     45338     45335     45332     45330     45336
     45335     45332     45330     45337     45335     45332     45330     45338
     45345     45343     45341     45347     45345     45343     45341     45348
     45345     45343     45341     45349     45346     45343     45341     45347
     45346     45343     45341     45348     45346     45343     45341     45349
     45356     45354     45352     45358     45356     45354     45352     45359
     45356     45354     45352     45360     45357     45354     45352     45358
     45357     45354     45352     45359     45357     45354     45352     45360
     45367     45365     45363     45369     45367     45365     45363     45370
     45367     45365     45363     45371     45368     45365     45363     45369
     45368     45365     45363     45370     45368     45365     45363     45371
     45378     45376     45374     45380     45378     45376     45374     45381
     45378     45376     45374     45382     45379     45376     45374     45380
     45379     45376     45374     45381     45379     45376     45374     45382
     45389     45387     45385     45391     45389     45387     45385     45392
     45389     45387     45385     45393     45390     45387     45385     45391
     45390     45387     45385     45392     45390     45387     45385     45393
     45400     45398     45396     45402     45400     45398     45396     45403
     45400     45398     45396     45404     45401     45398     45396     45402
     45401     45398     45396     45403     45401     45398     45396     45404
     45411     45409     45407     45413     45411     45409     45407     45414
     45411     45409     45407     45415     45412     45409     45407     45413
     45412     45409     45407     45414     45412     45409     45407     45415
     45422     45420     45418     45424     45422     45420     45418     45425
     45422     45420     45418     45426     45423     45420     45418     45424
     45423     45420     45418     45425     45423     45420     45418     45426
     45433     45431     45429     45435     45433     45431     45429     45436
     45433     45431     45429     45437     45434     45431     45429     45435
     45434     45431     45429     45436     45434     45431     45429     45437
     45444     45442     45440     45446     45444     45442     45440     45447
     45444     45442     45440     45448     45445     45442     45440     45446
     45445     45442     45440     45447     45445     45442     45440     45448
     45455     45453     45451     45457     45455     45453     45451     45458
     45455     45453     45451     45459     45456     45453     45451     45457
     45456     45453     45451     45458     45456     45453     45451     45459
     45466     45464     45462     45468     45466     45464     45462     45469
     45466     45464     45462     45470     45467     45464     45462     45468
     45467     45464     45462     45469     45467     45464     45462     45470
     45477     45475     45473     45479     45477     45475     45473     45480
     45477     45475     45473     45481     45478     45475     45473     45479
     45478     45475     45473     45480     45478     45475     45473     45481
     45488     45486     45484     45490     45488     45486     45484     45491
     45488     45486     45484     45492     45489     45486     45484     45490
     45489     45486     45484     45491     45489     45486     45484     45492
     45499     45497     45495     45501     45499     45497     45495     45502
     45499     45497     45495     45503     45500     45497     45495     45501
     45500     45497     45495     45502     45500     45497     45495     45503
     45510     45508     45506     45512     45510     45508     45506     45513
     45510     45508     45506     45514     45511     45508     45506     45512
     45511     45508     45506     45513     45511     45508     45506     45514
     45521     45519     45517     45523     45521     45519     45517     45524
     45521     45519     45517     45525     45522     45519     45517     45523
     45522     45519     45517     45524     45522     45519     45517     45525
     45532     45530     45528     45534     45532     45530     45528     45535
     45532     45530     45528     45536     45533     45530     45528     45534
     45533     45530     45528     45535     45533     45530     45528     45536
     45543     45541     45539     45545     45543     45541     45539     45546
     45543     45541     45539     45547     45544     45541     45539     45545
     45544     45541     45539     45546     45544     45541     45539     45547
     45554     45552     45550     45556     45554     45552     45550     45557
     45554     45552     45550     45558     45555     45552     45550     45556
     45555     45552     45550     45557     45555     45552     45550     45558
     45565     45563     45561     45567     45565     45563     45561     45568
     45565     45563     45561     45569     45566     45563     45561     45567
     45566     45563     45561     45568     45566     45563     45561     45569
     45576     45574     45572     45578     45576     45574     45572     45579
     45576     45574     45572     45580     45577     45574     45572     45578
     45577     45574     45572     45579     45577     45574     45572     45580
     45587     45585     45583     45589     45587     45585     45583     45590
     45587     45585     45583     45591     45588     45585     45583     45589
     45588     45585     45583     45590     45588     45585     45583     45591
     45598     45596     45594     45600     45598     45596     45594     45601
     45598     45596     45594     45602     45599     45596     45594     45600
     45599     45596     45594     45601     45599     45596     45594     45602
     45609     45607     45605     45611     45609     45607     45605     45612
     45609     45607     45605     45613     45610     45607     45605     45611
     45610     45607     45605     45612     45610     45607     45605     45613
     45620     45618     45616     45622     45620     45618     45616     45623
     45620     45618     45616     45624     45621     45618     45616     45622
     45621     45618     45616     45623     45621     45618     45616     45624
     45631     45629     45627     45633     45631     45629     45627     45634
     45631     45629     45627     45635     45632     45629     45627     45633
     45632     45629     45627     45634     45632     45629     45627     45635
     45642     45640     45638     45644     45642     45640     45638     45645
     45642     45640     45638     45646     45643     45640     45638     45644
     45643     45640     45638     45645     45643     45640     45638     45646
     45653     45651     45649     45655     45653     45651     45649     45656
     45653     45651     45649     45657     45654     45651     45649     45655
     45654     45651     45649     45656     45654     45651     45649     45657
     45664     45662     45660     45666     45664     45662     45660     45667
     45664     45662     45660     45668     45665     45662     45660     45666
     45665     45662     45660     45667     45665     45662     45660     45668
     45675     45673     45671     45677     45675     45673     45671     45678
     45675     45673     45671     45679     45676     45673     45671     45677
     45676     45673     45671     45678     45676     45673     45671     45679
     45686     45684     45682     45688     45686     45684     45682     45689
     45686     45684     45682     45690     45687     45684     45682     45688
     45687     45684     45682     45689     45687     45684     45682     45690
     45697     45695     45693     45699     45697     45695     45693     45700
     45697     45695     45693     45701     45698     45695     45693     45699
     45698     45695     45693     45700     45698     45695     45693     45701
     45708     45706     45704     45710     45708     45706     45704     45711
     45708     45706     45704     45712     45709     45706     45704     45710
     45709     45706     45704     45711     45709     45706     45704     45712
     45719     45717     45715     45721     45719     45717     45715     45722
     45719     45717     45715     45723     45720     45717     45715     45721
     45720     45717     45715     45722     45720     45717     45715     45723
     45730     45728     45726     45732     45730     45728     45726     45733
     45730     45728     45726     45734     45731     45728     45726     45732
     45731     45728     45726     45733     45731     45728     45726     45734
     45741     45739     45737     45743     45741     45739     45737     45744
     45741     45739     45737     45745     45742     45739     45737     45743
     45742     45739     45737     45744     45742     45739     45737     45745
     45752     45750     45748     45754     45752     45750     45748     45755
     45752     45750     45748     45756     45753     45750     45748     45754
     45753     45750     45748     45755     45753     45750     45748     45756
     45763     45761     45759     45765     45763     45761     45759     45766
     45763     45761     45759     45767     45764     45761     45759     45765
     45764     45761     45759     45766     45764     45761     45759     45767
     45774     45772     45770     45776     45774     45772     45770     45777
     45774     45772     45770     45778     45775     45772     45770     45776
     45775     45772     45770     45777     45775     45772     45770     45778
     45785     45783     45781     45787     45785     45783     45781     45788
     45785     45783     45781     45789     45786     45783     45781     45787
     45786     45783     45781     45788     45786     45783     45781     45789
     45796     45794     45792     45798     45796     45794     45792     45799
     45796     45794     45792     45800     45797     45794     45792     45798
     45797     45794     45792     45799     45797     45794     45792     45800
     45807     45805     45803     45809     45807     45805     45803     45810
     45807     45805     45803     45811     45808     45805     45803     45809
     45808     45805     45803     45810     45808     45805     45803     45811
     45818     45816     45814     45820     45818     45816     45814     45821
     45818     45816     45814     45822     45819     45816     45814     45820
     45819     45816     45814     45821     45819     45816     45814     45822
     45829     45827     45825     45831     45829     45827     45825     45832
     45829     45827     45825     45833     45830     45827     45825     45831
     45830     45827     45825     45832     45830     45827     45825     45833
     45840     45838     45836     45842     45840     45838     45836     45843
     45840     45838     45836     45844     45841     45838     45836     45842
     45841     45838     45836     45843     45841     45838     45836     45844
     45851     45849     45847     45853     45851     45849     45847     45854
     45851     45849     45847     45855     45852     45849     45847     45853
     45852     45849     45847     45854     45852     45849     45847     45855
     45862     45860     45858     45864     45862     45860     45858     45865
     45862     45860     45858     45866     45863     45860     45858     45864
     45863     45860     45858     45865     45863     45860     45858     45866
     45873     45871     45869     45875     45873     45871     45869     45876
     45873     45871     45869     45877     45874     45871     45869     45875
     45874     45871     45869     45876     45874     45871     45869     45877
     45884     45882     45880     45886     45884     45882     45880     45887
     45884     45882     45880     45888     45885     45882     45880     45886
     45885     45882     45880     45887     45885     45882     45880     45888
     45895     45893     45891     45897     45895     45893     45891     45898
     45895     45893     45891     45899     45896     45893     45891     45897
     45896     45893     45891     45898     45896     45893     45891     45899
     45906     45904     45902     45908     45906     45904     45902     45909
     45906     45904     45902     45910     45907     45904     45902     45908
     45907     45904     45902     45909     45907     45904     45902     45910
     45917     45915     45913     45919     45917     45915     45913     45920
     45917     45915     45913     45921     45918     45915     45913     45919
     45918     45915     45913     45920     45918     45915     45913     45921
     45928     45926     45924     45930     45928     45926     45924     45931
     45928     45926     45924     45932     45929     45926     45924     45930
     45929     45926     45924     45931     45929     45926     45924     45932
     45939     45937     45935     45941     45939     45937     45935     45942
     45939     45937     45935     45943     45940     45937     45935     45941
     45940     45937     45935     45942     45940     45937     45935     45943
     45950     45948     45946     45952     45950     45948     45946     45953
     45950     45948     45946     45954     45951     45948     45946     45952
     45951     45948     45946     45953     45951     45948     45946     45954
     45961     45959     45957     45963     45961     45959     45957     45964
     45961     45959     45957     45965     45962     45959     45957     45963
     45962     45959     45957     45964     45962     45959     45957     45965
     45972     45970     45968     45974     45972     45970     45968     45975
     45972     45970     45968     45976     45973     45970     45968     45974
     45973     45970     45968     45975     45973     45970     45968     45976
     45983     45981     45979     45985     45983     45981     45979     45986
     45983     45981     45979     45987     45984     45981     45979     45985
     45984     45981     45979     45986     45984     45981     45979     45987
     45994     45992     45990     45996     45994     45992     45990     45997
     45994     45992     45990     45998     45995     45992     45990     45996
     45995     45992     45990     45997     45995     45992     45990     45998
     46005     46003     46001     46007     46005     46003     46001     46008
     46005     46003     46001     46009     46006     46003     46001     46007
     46006     46003     46001     46008     46006     46003     46001     46009
     46016     46014     46012     46018     46016     46014     46012     46019
     46016     46014     46012     46020     46017     46014     46012     46018
     46017     46014     46012     46019     46017     46014     46012     46020
     46027     46025     46023     46029     46027     46025     46023     46030
     46027     46025     46023     46031     46028     46025     46023     46029
     46028     46025     46023     46030     46028     46025     46023     46031
     46038     46036     46034     46040     46038     46036     46034     46041
     46038     46036     46034     46042     46039     46036     46034     46040
     46039     46036     46034     46041     46039     46036     46034     46042
     46049     46047     46045     46051     46049     46047     46045     46052
     46049     46047     46045     46053     46050     46047     46045     46051
     46050     46047     46045     46052     46050     46047     46045     46053
     46060     46058     46056     46062     46060     46058     46056     46063
     46060     46058     46056     46064     46061     46058     46056     46062
     46061     46058     46056     46063     46061     46058     46056     46064
     46071     46069     46067     46073     46071     46069     46067     46074
     46071     46069     46067     46075     46072     46069     46067     46073
     46072     46069     46067     46074     46072     46069     46067     46075
     46082     46080     46078     46084     46082     46080     46078     46085
     46082     46080     46078     46086     46083     46080     46078     46084
     46083     46080     46078     46085     46083     46080     46078     46086
     46093     46091     46089     46095     46093     46091     46089     46096
     46093     46091     46089     46097     46094     46091     46089     46095
     46094     46091     46089     46096     46094     46091     46089     46097
     46104     46102     46100     46106     46104     46102     46100     46107
     46104     46102     46100     46108     46105     46102     46100     46106
     46105     46102     46100     46107     46105     46102     46100     46108
     46115     46113     46111     46117     46115     46113     46111     46118
     46115     46113     46111     46119     46116     46113     46111     46117
     46116     46113     46111     46118     46116     46113     46111     46119
     46126     46124     46122     46128     46126     46124     46122     46129
     46126     46124     46122     46130     46127     46124     46122     46128
     46127     46124     46122     46129     46127     46124     46122     46130
     46137     46135     46133     46139     46137     46135     46133     46140
     46137     46135     46133     46141     46138     46135     46133     46139
     46138     46135     46133     46140     46138     46135     46133     46141
     46148     46146     46144     46150     46148     46146     46144     46151
     46148     46146     46144     46152     46149     46146     46144     46150
     46149     46146     46144     46151     46149     46146     46144     46152
     46159     46157     46155     46161     46159     46157     46155     46162
     46159     46157     46155     46163     46160     46157     46155     46161
     46160     46157     46155     46162     46160     46157     46155     46163
     46170     46168     46166     46172     46170     46168     46166     46173
     46170     46168     46166     46174     46171     46168     46166     46172
     46171     46168     46166     46173     46171     46168     46166     46174
     46181     46179     46177     46183     46181     46179     46177     46184
     46181     46179     46177     46185     46182     46179     46177     46183
     46182     46179     46177     46184     46182     46179     46177     46185
     46192     46190     46188     46194     46192     46190     46188     46195
     46192     46190     46188     46196     46193     46190     46188     46194
     46193     46190     46188     46195     46193     46190     46188     46196
     46203     46201     46199     46205     46203     46201     46199     46206
     46203     46201     46199     46207     46204     46201     46199     46205
     46204     46201     46199     46206     46204     46201     46199     46207
     46214     46212     46210     46216     46214     46212     46210     46217
     46214     46212     46210     46218     46215     46212     46210     46216
     46215     46212     46210     46217     46215     46212     46210     46218
     46225     46223     46221     46227     46225     46223     46221     46228
     46225     46223     46221     46229     46226     46223     46221     46227
     46226     46223     46221     46228     46226     46223     46221     46229
     46236     46234     46232     46238     46236     46234     46232     46239
     46236     46234     46232     46240     46237     46234     46232     46238
     46237     46234     46232     46239     46237     46234     46232     46240
     46247     46245     46243     46249     46247     46245     46243     46250
     46247     46245     46243     46251     46248     46245     46243     46249
     46248     46245     46243     46250     46248     46245     46243     46251
     46258     46256     46254     46260     46258     46256     46254     46261
     46258     46256     46254     46262     46259     46256     46254     46260
     46259     46256     46254     46261     46259     46256     46254     46262
     46269     46267     46265     46271     46269     46267     46265     46272
     46269     46267     46265     46273     46270     46267     46265     46271
     46270     46267     46265     46272     46270     46267     46265     46273
     46280     46278     46276     46282     46280     46278     46276     46283
     46280     46278     46276     46284     46281     46278     46276     46282
     46281     46278     46276     46283     46281     46278     46276     46284
     46291     46289     46287     46293     46291     46289     46287     46294
     46291     46289     46287     46295     46292     46289     46287     46293
     46292     46289     46287     46294     46292     46289     46287     46295
     46302     46300     46298     46304     46302     46300     46298     46305
     46302     46300     46298     46306     46303     46300     46298     46304
     46303     46300     46298     46305     46303     46300     46298     46306
     46313     46311     46309     46315     46313     46311     46309     46316
     46313     46311     46309     46317     46314     46311     46309     46315
     46314     46311     46309     46316     46314     46311     46309     46317
     46324     46322     46320     46326     46324     46322     46320     46327
     46324     46322     46320     46328     46325     46322     46320     46326
     46325     46322     46320     46327     46325     46322     46320     46328
     46335     46333     46331     46337     46335     46333     46331     46338
     46335     46333     46331     46339     46336     46333     46331     46337
     46336     46333     46331     46338     46336     46333     46331     46339
     46346     46344     46342     46348     46346     46344     46342     46349
     46346     46344     46342     46350     46347     46344     46342     46348
     46347     46344     46342     46349     46347     46344     46342     46350
     46357     46355     46353     46359     46357     46355     46353     46360
     46357     46355     46353     46361     46358     46355     46353     46359
     46358     46355     46353     46360     46358     46355     46353     46361
     46368     46366     46364     46370     46368     46366     46364     46371
     46368     46366     46364     46372     46369     46366     46364     46370
     46369     46366     46364     46371     46369     46366     46364     46372
     46379     46377     46375     46381     46379     46377     46375     46382
     46379     46377     46375     46383     46380     46377     46375     46381
     46380     46377     46375     46382     46380     46377     46375     46383
     46390     46388     46386     46392     46390     46388     46386     46393
     46390     46388     46386     46394     46391     46388     46386     46392
     46391     46388     46386     46393     46391     46388     46386     46394
     46401     46399     46397     46403     46401     46399     46397     46404
     46401     46399     46397     46405     46402     46399     46397     46403
     46402     46399     46397     46404     46402     46399     46397     46405
     46412     46410     46408     46414     46412     46410     46408     46415
     46412     46410     46408     46416     46413     46410     46408     46414
     46413     46410     46408     46415     46413     46410     46408     46416
     46423     46421     46419     46425     46423     46421     46419     46426
     46423     46421     46419     46427     46424     46421     46419     46425
     46424     46421     46419     46426     46424     46421     46419     46427
     46434     46432     46430     46436     46434     46432     46430     46437
     46434     46432     46430     46438     46435     46432     46430     46436
     46435     46432     46430     46437     46435     46432     46430     46438
     46445     46443     46441     46447     46445     46443     46441     46448
     46445     46443     46441     46449     46446     46443     46441     46447
     46446     46443     46441     46448     46446     46443     46441     46449
     46456     46454     46452     46458     46456     46454     46452     46459
     46456     46454     46452     46460     46457     46454     46452     46458
     46457     46454     46452     46459     46457     46454     46452     46460
     46467     46465     46463     46469     46467     46465     46463     46470
     46467     46465     46463     46471     46468     46465     46463     46469
     46468     46465     46463     46470     46468     46465     46463     46471
     46478     46476     46474     46480     46478     46476     46474     46481
     46478     46476     46474     46482     46479     46476     46474     46480
     46479     46476     46474     46481     46479     46476     46474     46482
     46489     46487     46485     46491     46489     46487     46485     46492
     46489     46487     46485     46493     46490     46487     46485     46491
     46490     46487     46485     46492     46490     46487     46485     46493
     46500     46498     46496     46502     46500     46498     46496     46503
     46500     46498     46496     46504     46501     46498     46496     46502
     46501     46498     46496     46503     46501     46498     46496     46504
     46511     46509     46507     46513     46511     46509     46507     46514
     46511     46509     46507     46515     46512     46509     46507     46513
     46512     46509     46507     46514     46512     46509     46507     46515
     46522     46520     46518     46524     46522     46520     46518     46525
     46522     46520     46518     46526     46523     46520     46518     46524
     46523     46520     46518     46525     46523     46520     46518     46526
     46533     46531     46529     46535     46533     46531     46529     46536
     46533     46531     46529     46537     46534     46531     46529     46535
     46534     46531     46529     46536     46534     46531     46529     46537
     46544     46542     46540     46546     46544     46542     46540     46547
     46544     46542     46540     46548     46545     46542     46540     46546
     46545     46542     46540     46547     46545     46542     46540     46548
     46555     46553     46551     46557     46555     46553     46551     46558
     46555     46553     46551     46559     46556     46553     46551     46557
     46556     46553     46551     46558     46556     46553     46551     46559
     46566     46564     46562     46568     46566     46564     46562     46569
     46566     46564     46562     46570     46567     46564     46562     46568
     46567     46564     46562     46569     46567     46564     46562     46570
     46577     46575     46573     46579     46577     46575     46573     46580
     46577     46575     46573     46581     46578     46575     46573     46579
     46578     46575     46573     46580     46578     46575     46573     46581
     46588     46586     46584     46590     46588     46586     46584     46591
     46588     46586     46584     46592     46589     46586     46584     46590
     46589     46586     46584     46591     46589     46586     46584     46592
     46599     46597     46595     46601     46599     46597     46595     46602
     46599     46597     46595     46603     46600     46597     46595     46601
     46600     46597     46595     46602     46600     46597     46595     46603
     46610     46608     46606     46612     46610     46608     46606     46613
     46610     46608     46606     46614     46611     46608     46606     46612
     46611     46608     46606     46613     46611     46608     46606     46614
     46621     46619     46617     46623     46621     46619     46617     46624
     46621     46619     46617     46625     46622     46619     46617     46623
     46622     46619     46617     46624     46622     46619     46617     46625
     46632     46630     46628     46634     46632     46630     46628     46635
     46632     46630     46628     46636     46633     46630     46628     46634
     46633     46630     46628     46635     46633     46630     46628     46636
     46643     46641     46639     46645     46643     46641     46639     46646
     46643     46641     46639     46647     46644     46641     46639     46645
     46644     46641     46639     46646     46644     46641     46639     46647
     46654     46652     46650     46656     46654     46652     46650     46657
     46654     46652     46650     46658     46655     46652     46650     46656
     46655     46652     46650     46657     46655     46652     46650     46658
     46665     46663     46661     46667     46665     46663     46661     46668
     46665     46663     46661     46669     46666     46663     46661     46667
     46666     46663     46661     46668     46666     46663     46661     46669
     46676     46674     46672     46678     46676     46674     46672     46679
     46676     46674     46672     46680     46677     46674     46672     46678
     46677     46674     46672     46679     46677     46674     46672     46680
     46687     46685     46683     46689     46687     46685     46683     46690
     46687     46685     46683     46691     46688     46685     46683     46689
     46688     46685     46683     46690     46688     46685     46683     46691
     46698     46696     46694     46700     46698     46696     46694     46701
     46698     46696     46694     46702     46699     46696     46694     46700
     46699     46696     46694     46701     46699     46696     46694     46702
     46709     46707     46705     46711     46709     46707     46705     46712
     46709     46707     46705     46713     46710     46707     46705     46711
     46710     46707     46705     46712     46710     46707     46705     46713
     46720     46718     46716     46722     46720     46718     46716     46723
     46720     46718     46716     46724     46721     46718     46716     46722
     46721     46718     46716     46723     46721     46718     46716     46724
     46731     46729     46727     46733     46731     46729     46727     46734
     46731     46729     46727     46735     46732     46729     46727     46733
     46732     46729     46727     46734     46732     46729     46727     46735
     46742     46740     46738     46744     46742     46740     46738     46745
     46742     46740     46738     46746     46743     46740     46738     46744
     46743     46740     46738     46745     46743     46740     46738     46746
     46753     46751     46749     46755     46753     46751     46749     46756
     46753     46751     46749     46757     46754     46751     46749     46755
     46754     46751     46749     46756     46754     46751     46749     46757
     46764     46762     46760     46766     46764     46762     46760     46767
     46764     46762     46760     46768     46765     46762     46760     46766
     46765     46762     46760     46767     46765     46762     46760     46768
     46775     46773     46771     46777     46775     46773     46771     46778
     46775     46773     46771     46779     46776     46773     46771     46777
     46776     46773     46771     46778     46776     46773     46771     46779
     46786     46784     46782     46788     46786     46784     46782     46789
     46786     46784     46782     46790     46787     46784     46782     46788
     46787     46784     46782     46789     46787     46784     46782     46790
     46797     46795     46793     46799     46797     46795     46793     46800
     46797     46795     46793     46801     46798     46795     46793     46799
     46798     46795     46793     46800     46798     46795     46793     46801
     46808     46806     46804     46810     46808     46806     46804     46811
     46808     46806     46804     46812     46809     46806     46804     46810
     46809     46806     46804     46811     46809     46806     46804     46812
     46819     46817     46815     46821     46819     46817     46815     46822
     46819     46817     46815     46823     46820     46817     46815     46821
     46820     46817     46815     46822     46820     46817     46815     46823
     46830     46828     46826     46832     46830     46828     46826     46833
     46830     46828     46826     46834     46831     46828     46826     46832
     46831     46828     46826     46833     46831     46828     46826     46834
     46841     46839     46837     46843     46841     46839     46837     46844
     46841     46839     46837     46845     46842     46839     46837     46843
     46842     46839     46837     46844     46842     46839     46837     46845
     46852     46850     46848     46854     46852     46850     46848     46855
     46852     46850     46848     46856     46853     46850     46848     46854
     46853     46850     46848     46855     46853     46850     46848     46856
     46863     46861     46859     46865     46863     46861     46859     46866
     46863     46861     46859     46867     46864     46861     46859     46865
     46864     46861     46859     46866     46864     46861     46859     46867
     46874     46872     46870     46876     46874     46872     46870     46877
     46874     46872     46870     46878     46875     46872     46870     46876
     46875     46872     46870     46877     46875     46872     46870     46878
     46885     46883     46881     46887     46885     46883     46881     46888
     46885     46883     46881     46889     46886     46883     46881     46887
     46886     46883     46881     46888     46886     46883     46881     46889
     46896     46894     46892     46898     46896     46894     46892     46899
     46896     46894     46892     46900     46897     46894     46892     46898
     46897     46894     46892     46899     46897     46894     46892     46900
     46907     46905     46903     46909     46907     46905     46903     46910
     46907     46905     46903     46911     46908     46905     46903     46909
     46908     46905     46903     46910     46908     46905     46903     46911
     46918     46916     46914     46920     46918     46916     46914     46921
     46918     46916     46914     46922     46919     46916     46914     46920
     46919     46916     46914     46921     46919     46916     46914     46922
     46929     46927     46925     46931     46929     46927     46925     46932
     46929     46927     46925     46933     46930     46927     46925     46931
     46930     46927     46925     46932     46930     46927     46925     46933
     46940     46938     46936     46942     46940     46938     46936     46943
     46940     46938     46936     46944     46941     46938     46936     46942
     46941     46938     46936     46943     46941     46938     46936     46944
     46951     46949     46947     46953     46951     46949     46947     46954
     46951     46949     46947     46955     46952     46949     46947     46953
     46952     46949     46947     46954     46952     46949     46947     46955
     46962     46960     46958     46964     46962     46960     46958     46965
     46962     46960     46958     46966     46963     46960     46958     46964
     46963     46960     46958     46965     46963     46960     46958     46966
     46973     46971     46969     46975     46973     46971     46969     46976
     46973     46971     46969     46977     46974     46971     46969     46975
     46974     46971     46969     46976     46974     46971     46969     46977
     46984     46982     46980     46986     46984     46982     46980     46987
     46984     46982     46980     46988     46985     46982     46980     46986
     46985     46982     46980     46987     46985     46982     46980     46988
     46995     46993     46991     46997     46995     46993     46991     46998
     46995     46993     46991     46999     46996     46993     46991     46997
     46996     46993     46991     46998     46996     46993     46991     46999
     47006     47004     47002     47008     47006     47004     47002     47009
     47006     47004     47002     47010     47007     47004     47002     47008
     47007     47004     47002     47009     47007     47004     47002     47010
     47017     47015     47013     47019     47017     47015     47013     47020
     47017     47015     47013     47021     47018     47015     47013     47019
     47018     47015     47013     47020     47018     47015     47013     47021
     47028     47026     47024     47030     47028     47026     47024     47031
     47028     47026     47024     47032     47029     47026     47024     47030
     47029     47026     47024     47031     47029     47026     47024     47032
     47039     47037     47035     47041     47039     47037     47035     47042
     47039     47037     47035     47043     47040     47037     47035     47041
     47040     47037     47035     47042     47040     47037     47035     47043
     47050     47048     47046     47052     47050     47048     47046     47053
     47050     47048     47046     47054     47051     47048     47046     47052
     47051     47048     47046     47053     47051     47048     47046     47054
     47061     47059     47057     47063     47061     47059     47057     47064
     47061     47059     47057     47065     47062     47059     47057     47063
     47062     47059     47057     47064     47062     47059     47057     47065
     47072     47070     47068     47074     47072     47070     47068     47075
     47072     47070     47068     47076     47073     47070     47068     47074
     47073     47070     47068     47075     47073     47070     47068     47076
     47083     47081     47079     47085     47083     47081     47079     47086
     47083     47081     47079     47087     47084     47081     47079     47085
     47084     47081     47079     47086     47084     47081     47079     47087
     47094     47092     47090     47096     47094     47092     47090     47097
     47094     47092     47090     47098     47095     47092     47090     47096
     47095     47092     47090     47097     47095     47092     47090     47098
     47105     47103     47101     47107     47105     47103     47101     47108
     47105     47103     47101     47109     47106     47103     47101     47107
     47106     47103     47101     47108     47106     47103     47101     47109
     47116     47114     47112     47118     47116     47114     47112     47119
     47116     47114     47112     47120     47117     47114     47112     47118
     47117     47114     47112     47119     47117     47114     47112     47120
     47127     47125     47123     47129     47127     47125     47123     47130
     47127     47125     47123     47131     47128     47125     47123     47129
     47128     47125     47123     47130     47128     47125     47123     47131
     47138     47136     47134     47140     47138     47136     47134     47141
     47138     47136     47134     47142     47139     47136     47134     47140
     47139     47136     47134     47141     47139     47136     47134     47142
     47149     47147     47145     47151     47149     47147     47145     47152
     47149     47147     47145     47153     47150     47147     47145     47151
     47150     47147     47145     47152     47150     47147     47145     47153
     47160     47158     47156     47162     47160     47158     47156     47163
     47160     47158     47156     47164     47161     47158     47156     47162
     47161     47158     47156     47163     47161     47158     47156     47164
     47171     47169     47167     47173     47171     47169     47167     47174
     47171     47169     47167     47175     47172     47169     47167     47173
     47172     47169     47167     47174     47172     47169     47167     47175
     47182     47180     47178     47184     47182     47180     47178     47185
     47182     47180     47178     47186     47183     47180     47178     47184
     47183     47180     47178     47185     47183     47180     47178     47186
     47193     47191     47189     47195     47193     47191     47189     47196
     47193     47191     47189     47197     47194     47191     47189     47195
     47194     47191     47189     47196     47194     47191     47189     47197
     47204     47202     47200     47206     47204     47202     47200     47207
     47204     47202     47200     47208     47205     47202     47200     47206
     47205     47202     47200     47207     47205     47202     47200     47208
     47215     47213     47211     47217     47215     47213     47211     47218
     47215     47213     47211     47219     47216     47213     47211     47217
     47216     47213     47211     47218     47216     47213     47211     47219
     47226     47224     47222     47228     47226     47224     47222     47229
     47226     47224     47222     47230     47227     47224     47222     47228
     47227     47224     47222     47229     47227     47224     47222     47230
     47237     47235     47233     47239     47237     47235     47233     47240
     47237     47235     47233     47241     47238     47235     47233     47239
     47238     47235     47233     47240     47238     47235     47233     47241
     47248     47246     47244     47250     47248     47246     47244     47251
     47248     47246     47244     47252     47249     47246     47244     47250
     47249     47246     47244     47251     47249     47246     47244     47252
     47259     47257     47255     47261     47259     47257     47255     47262
     47259     47257     47255     47263     47260     47257     47255     47261
     47260     47257     47255     47262     47260     47257     47255     47263
     47270     47268     47266     47272     47270     47268     47266     47273
     47270     47268     47266     47274     47271     47268     47266     47272
     47271     47268     47266     47273     47271     47268     47266     47274
     47281     47279     47277     47283     47281     47279     47277     47284
     47281     47279     47277     47285     47282     47279     47277     47283
     47282     47279     47277     47284     47282     47279     47277     47285
     47292     47290     47288     47294     47292     47290     47288     47295
     47292     47290     47288     47296     47293     47290     47288     47294
     47293     47290     47288     47295     47293     47290     47288     47296
     47303     47301     47299     47305     47303     47301     47299     47306
     47303     47301     47299     47307     47304     47301     47299     47305
     47304     47301     47299     47306     47304     47301     47299     47307
     47314     47312     47310     47316     47314     47312     47310     47317
     47314     47312     47310     47318     47315     47312     47310     47316
     47315     47312     47310     47317     47315     47312     47310     47318
     47325     47323     47321     47327     47325     47323     47321     47328
     47325     47323     47321     47329     47326     47323     47321     47327
     47326     47323     47321     47328     47326     47323     47321     47329
     47336     47334     47332     47338     47336     47334     47332     47339
     47336     47334     47332     47340     47337     47334     47332     47338
     47337     47334     47332     47339     47337     47334     47332     47340
     47347     47345     47343     47349     47347     47345     47343     47350
     47347     47345     47343     47351     47348     47345     47343     47349
     47348     47345     47343     47350     47348     47345     47343     47351
     47358     47356     47354     47360     47358     47356     47354     47361
     47358     47356     47354     47362     47359     47356     47354     47360
     47359     47356     47354     47361     47359     47356     47354     47362
     47369     47367     47365     47371     47369     47367     47365     47372
     47369     47367     47365     47373     47370     47367     47365     47371
     47370     47367     47365     47372     47370     47367     47365     47373
     47380     47378     47376     47382     47380     47378     47376     47383
     47380     47378     47376     47384     47381     47378     47376     47382
     47381     47378     47376     47383     47381     47378     47376     47384
     47391     47389     47387     47393     47391     47389     47387     47394
     47391     47389     47387     47395     47392     47389     47387     47393
     47392     47389     47387     47394     47392     47389     47387     47395
     47402     47400     47398     47404     47402     47400     47398     47405
     47402     47400     47398     47406     47403     47400     47398     47404
     47403     47400     47398     47405     47403     47400     47398     47406
     47413     47411     47409     47415     47413     47411     47409     47416
     47413     47411     47409     47417     47414     47411     47409     47415
     47414     47411     47409     47416     47414     47411     47409     47417
     47424     47422     47420     47426     47424     47422     47420     47427
     47424     47422     47420     47428     47425     47422     47420     47426
     47425     47422     47420     47427     47425     47422     47420     47428
     47435     47433     47431     47437     47435     47433     47431     47438
     47435     47433     47431     47439     47436     47433     47431     47437
     47436     47433     47431     47438     47436     47433     47431     47439
     47446     47444     47442     47448     47446     47444     47442     47449
     47446     47444     47442     47450     47447     47444     47442     47448
     47447     47444     47442     47449     47447     47444     47442     47450
     47457     47455     47453     47459     47457     47455     47453     47460
     47457     47455     47453     47461     47458     47455     47453     47459
     47458     47455     47453     47460     47458     47455     47453     47461
     47468     47466     47464     47470     47468     47466     47464     47471
     47468     47466     47464     47472     47469     47466     47464     47470
     47469     47466     47464     47471     47469     47466     47464     47472
     47479     47477     47475     47481     47479     47477     47475     47482
     47479     47477     47475     47483     47480     47477     47475     47481
     47480     47477     47475     47482     47480     47477     47475     47483
     47490     47488     47486     47492     47490     47488     47486     47493
     47490     47488     47486     47494     47491     47488     47486     47492
     47491     47488     47486     47493     47491     47488     47486     47494
     47501     47499     47497     47503     47501     47499     47497     47504
     47501     47499     47497     47505     47502     47499     47497     47503
     47502     47499     47497     47504     47502     47499     47497     47505
     47512     47510     47508     47514     47512     47510     47508     47515
     47512     47510     47508     47516     47513     47510     47508     47514
     47513     47510     47508     47515     47513     47510     47508     47516
     47523     47521     47519     47525     47523     47521     47519     47526
     47523     47521     47519     47527     47524     47521     47519     47525
     47524     47521     47519     47526     47524     47521     47519     47527
     47534     47532     47530     47536     47534     47532     47530     47537
     47534     47532     47530     47538     47535     47532     47530     47536
     47535     47532     47530     47537     47535     47532     47530     47538
     47545     47543     47541     47547     47545     47543     47541     47548
     47545     47543     47541     47549     47546     47543     47541     47547
     47546     47543     47541     47548     47546     47543     47541     47549
     47556     47554     47552     47558     47556     47554     47552     47559
     47556     47554     47552     47560     47557     47554     47552     47558
     47557     47554     47552     47559     47557     47554     47552     47560
     47567     47565     47563     47569     47567     47565     47563     47570
     47567     47565     47563     47571     47568     47565     47563     47569
     47568     47565     47563     47570     47568     47565     47563     47571
     47578     47576     47574     47580     47578     47576     47574     47581
     47578     47576     47574     47582     47579     47576     47574     47580
     47579     47576     47574     47581     47579     47576     47574     47582
     47589     47587     47585     47591     47589     47587     47585     47592
     47589     47587     47585     47593     47590     47587     47585     47591
     47590     47587     47585     47592     47590     47587     47585     47593
     47600     47598     47596     47602     47600     47598     47596     47603
     47600     47598     47596     47604     47601     47598     47596     47602
     47601     47598     47596     47603     47601     47598     47596     47604
     47611     47609     47607     47613     47611     47609     47607     47614
     47611     47609     47607     47615     47612     47609     47607     47613
     47612     47609     47607     47614     47612     47609     47607     47615
     47622     47620     47618     47624     47622     47620     47618     47625
     47622     47620     47618     47626     47623     47620     47618     47624
     47623     47620     47618     47625     47623     47620     47618     47626
     47633     47631     47629     47635     47633     47631     47629     47636
     47633     47631     47629     47637     47634     47631     47629     47635
     47634     47631     47629     47636     47634     47631     47629     47637
     47644     47642     47640     47646     47644     47642     47640     47647
     47644     47642     47640     47648     47645     47642     47640     47646
     47645     47642     47640     47647     47645     47642     47640     47648
     47655     47653     47651     47657     47655     47653     47651     47658
     47655     47653     47651     47659     47656     47653     47651     47657
     47656     47653     47651     47658     47656     47653     47651     47659
     47666     47664     47662     47668     47666     47664     47662     47669
     47666     47664     47662     47670     47667     47664     47662     47668
     47667     47664     47662     47669     47667     47664     47662     47670
     47677     47675     47673     47679     47677     47675     47673     47680
     47677     47675     47673     47681     47678     47675     47673     47679
     47678     47675     47673     47680     47678     47675     47673     47681
     47688     47686     47684     47690     47688     47686     47684     47691
     47688     47686     47684     47692     47689     47686     47684     47690
     47689     47686     47684     47691     47689     47686     47684     47692
     47699     47697     47695     47701     47699     47697     47695     47702
     47699     47697     47695     47703     47700     47697     47695     47701
     47700     47697     47695     47702     47700     47697     47695     47703
     47710     47708     47706     47712     47710     47708     47706     47713
     47710     47708     47706     47714     47711     47708     47706     47712
     47711     47708     47706     47713     47711     47708     47706     47714
     47721     47719     47717     47723     47721     47719     47717     47724
     47721     47719     47717     47725     47722     47719     47717     47723
     47722     47719     47717     47724     47722     47719     47717     47725
     47732     47730     47728     47734     47732     47730     47728     47735
     47732     47730     47728     47736     47733     47730     47728     47734
     47733     47730     47728     47735     47733     47730     47728     47736
     47743     47741     47739     47745     47743     47741     47739     47746
     47743     47741     47739     47747     47744     47741     47739     47745
     47744     47741     47739     47746     47744     47741     47739     47747
     47754     47752     47750     47756     47754     47752     47750     47757
     47754     47752     47750     47758     47755     47752     47750     47756
     47755     47752     47750     47757     47755     47752     47750     47758
     47765     47763     47761     47767     47765     47763     47761     47768
     47765     47763     47761     47769     47766     47763     47761     47767
     47766     47763     47761     47768     47766     47763     47761     47769
     47776     47774     47772     47778     47776     47774     47772     47779
     47776     47774     47772     47780     47777     47774     47772     47778
     47777     47774     47772     47779     47777     47774     47772     47780
     47787     47785     47783     47789     47787     47785     47783     47790
     47787     47785     47783     47791     47788     47785     47783     47789
     47788     47785     47783     47790     47788     47785     47783     47791
     47798     47796     47794     47800     47798     47796     47794     47801
     47798     47796     47794     47802     47799     47796     47794     47800
     47799     47796     47794     47801     47799     47796     47794     47802
     47809     47807     47805     47811     47809     47807     47805     47812
     47809     47807     47805     47813     47810     47807     47805     47811
     47810     47807     47805     47812     47810     47807     47805     47813
     47820     47818     47816     47822     47820     47818     47816     47823
     47820     47818     47816     47824     47821     47818     47816     47822
     47821     47818     47816     47823     47821     47818     47816     47824
     47831     47829     47827     47833     47831     47829     47827     47834
     47831     47829     47827     47835     47832     47829     47827     47833
     47832     47829     47827     47834     47832     47829     47827     47835
     47842     47840     47838     47844     47842     47840     47838     47845
     47842     47840     47838     47846     47843     47840     47838     47844
     47843     47840     47838     47845     47843     47840     47838     47846
     47853     47851     47849     47855     47853     47851     47849     47856
     47853     47851     47849     47857     47854     47851     47849     47855
     47854     47851     47849     47856     47854     47851     47849     47857
     47864     47862     47860     47866     47864     47862     47860     47867
     47864     47862     47860     47868     47865     47862     47860     47866
     47865     47862     47860     47867     47865     47862     47860     47868
     47875     47873     47871     47877     47875     47873     47871     47878
     47875     47873     47871     47879     47876     47873     47871     47877
     47876     47873     47871     47878     47876     47873     47871     47879
     47886     47884     47882     47888     47886     47884     47882     47889
     47886     47884     47882     47890     47887     47884     47882     47888
     47887     47884     47882     47889     47887     47884     47882     47890
     47897     47895     47893     47899     47897     47895     47893     47900
     47897     47895     47893     47901     47898     47895     47893     47899
     47898     47895     47893     47900     47898     47895     47893     47901
     47908     47906     47904     47910     47908     47906     47904     47911
     47908     47906     47904     47912     47909     47906     47904     47910
     47909     47906     47904     47911     47909     47906     47904     47912
     47919     47917     47915     47921     47919     47917     47915     47922
     47919     47917     47915     47923     47920     47917     47915     47921
     47920     47917     47915     47922     47920     47917     47915     47923
     47930     47928     47926     47932     47930     47928     47926     47933
     47930     47928     47926     47934     47931     47928     47926     47932
     47931     47928     47926     47933     47931     47928     47926     47934
     47941     47939     47937     47943     47941     47939     47937     47944
     47941     47939     47937     47945     47942     47939     47937     47943
     47942     47939     47937     47944     47942     47939     47937     47945
     47952     47950     47948     47954     47952     47950     47948     47955
     47952     47950     47948     47956     47953     47950     47948     47954
     47953     47950     47948     47955     47953     47950     47948     47956
     47963     47961     47959     47965     47963     47961     47959     47966
     47963     47961     47959     47967     47964     47961     47959     47965
     47964     47961     47959     47966     47964     47961     47959     47967
     47974     47972     47970     47976     47974     47972     47970     47977
     47974     47972     47970     47978     47975     47972     47970     47976
     47975     47972     47970     47977     47975     47972     47970     47978
     47985     47983     47981     47987     47985     47983     47981     47988
     47985     47983     47981     47989     47986     47983     47981     47987
     47986     47983     47981     47988     47986     47983     47981     47989
     47996     47994     47992     47998     47996     47994     47992     47999
     47996     47994     47992     48000     47997     47994     47992     47998
     47997     47994     47992     47999     47997     47994     47992     48000
     48007     48005     48003     48009     48007     48005     48003     48010
     48007     48005     48003     48011     48008     48005     48003     48009
     48008     48005     48003     48010     48008     48005     48003     48011
     48018     48016     48014     48020     48018     48016     48014     48021
     48018     48016     48014     48022     48019     48016     48014     48020
     48019     48016     48014     48021     48019     48016     48014     48022
     48029     48027     48025     48031     48029     48027     48025     48032
     48029     48027     48025     48033     48030     48027     48025     48031
     48030     48027     48025     48032     48030     48027     48025     48033
     48040     48038     48036     48042     48040     48038     48036     48043
     48040     48038     48036     48044     48041     48038     48036     48042
     48041     48038     48036     48043     48041     48038     48036     48044
     48051     48049     48047     48053     48051     48049     48047     48054
     48051     48049     48047     48055     48052     48049     48047     48053
     48052     48049     48047     48054     48052     48049     48047     48055
     48062     48060     48058     48064     48062     48060     48058     48065
     48062     48060     48058     48066     48063     48060     48058     48064
     48063     48060     48058     48065     48063     48060     48058     48066
     48073     48071     48069     48075     48073     48071     48069     48076
     48073     48071     48069     48077     48074     48071     48069     48075
     48074     48071     48069     48076     48074     48071     48069     48077
     48084     48082     48080     48086     48084     48082     48080     48087
     48084     48082     48080     48088     48085     48082     48080     48086
     48085     48082     48080     48087     48085     48082     48080     48088
     48095     48093     48091     48097     48095     48093     48091     48098
     48095     48093     48091     48099     48096     48093     48091     48097
     48096     48093     48091     48098     48096     48093     48091     48099
     48106     48104     48102     48108     48106     48104     48102     48109
     48106     48104     48102     48110     48107     48104     48102     48108
     48107     48104     48102     48109     48107     48104     48102     48110
     48117     48115     48113     48119     48117     48115     48113     48120
     48117     48115     48113     48121     48118     48115     48113     48119
     48118     48115     48113     48120     48118     48115     48113     48121
     48128     48126     48124     48130     48128     48126     48124     48131
     48128     48126     48124     48132     48129     48126     48124     48130
     48129     48126     48124     48131     48129     48126     48124     48132
     48139     48137     48135     48141     48139     48137     48135     48142
     48139     48137     48135     48143     48140     48137     48135     48141
     48140     48137     48135     48142     48140     48137     48135     48143
     48150     48148     48146     48152     48150     48148     48146     48153
     48150     48148     48146     48154     48151     48148     48146     48152
     48151     48148     48146     48153     48151     48148     48146     48154
     48161     48159     48157     48163     48161     48159     48157     48164
     48161     48159     48157     48165     48162     48159     48157     48163
     48162     48159     48157     48164     48162     48159     48157     48165
     48172     48170     48168     48174     48172     48170     48168     48175
     48172     48170     48168     48176     48173     48170     48168     48174
     48173     48170     48168     48175     48173     48170     48168     48176
     48183     48181     48179     48185     48183     48181     48179     48186
     48183     48181     48179     48187     48184     48181     48179     48185
     48184     48181     48179     48186     48184     48181     48179     48187
     48194     48192     48190     48196     48194     48192     48190     48197
     48194     48192     48190     48198     48195     48192     48190     48196
     48195     48192     48190     48197     48195     48192     48190     48198
     48205     48203     48201     48207     48205     48203     48201     48208
     48205     48203     48201     48209     48206     48203     48201     48207
     48206     48203     48201     48208     48206     48203     48201     48209
     48216     48214     48212     48218     48216     48214     48212     48219
     48216     48214     48212     48220     48217     48214     48212     48218
     48217     48214     48212     48219     48217     48214     48212     48220
     48227     48225     48223     48229     48227     48225     48223     48230
     48227     48225     48223     48231     48228     48225     48223     48229
     48228     48225     48223     48230     48228     48225     48223     48231
     48238     48236     48234     48240     48238     48236     48234     48241
     48238     48236     48234     48242     48239     48236     48234     48240
     48239     48236     48234     48241     48239     48236     48234     48242
     48249     48247     48245     48251     48249     48247     48245     48252
     48249     48247     48245     48253     48250     48247     48245     48251
     48250     48247     48245     48252     48250     48247     48245     48253
     48260     48258     48256     48262     48260     48258     48256     48263
     48260     48258     48256     48264     48261     48258     48256     48262
     48261     48258     48256     48263     48261     48258     48256     48264
     48271     48269     48267     48273     48271     48269     48267     48274
     48271     48269     48267     48275     48272     48269     48267     48273
     48272     48269     48267     48274     48272     48269     48267     48275
     48282     48280     48278     48284     48282     48280     48278     48285
     48282     48280     48278     48286     48283     48280     48278     48284
     48283     48280     48278     48285     48283     48280     48278     48286
     48293     48291     48289     48295     48293     48291     48289     48296
     48293     48291     48289     48297     48294     48291     48289     48295
     48294     48291     48289     48296     48294     48291     48289     48297
     48304     48302     48300     48306     48304     48302     48300     48307
     48304     48302     48300     48308     48305     48302     48300     48306
     48305     48302     48300     48307     48305     48302     48300     48308
     48315     48313     48311     48317     48315     48313     48311     48318
     48315     48313     48311     48319     48316     48313     48311     48317
     48316     48313     48311     48318     48316     48313     48311     48319
     48326     48324     48322     48328     48326     48324     48322     48329
     48326     48324     48322     48330     48327     48324     48322     48328
     48327     48324     48322     48329     48327     48324     48322     48330
     48337     48335     48333     48339     48337     48335     48333     48340
     48337     48335     48333     48341     48338     48335     48333     48339
     48338     48335     48333     48340     48338     48335     48333     48341
     48348     48346     48344     48350     48348     48346     48344     48351
     48348     48346     48344     48352     48349     48346     48344     48350
     48349     48346     48344     48351     48349     48346     48344     48352
     48359     48357     48355     48361     48359     48357     48355     48362
     48359     48357     48355     48363     48360     48357     48355     48361
     48360     48357     48355     48362     48360     48357     48355     48363
     48370     48368     48366     48372     48370     48368     48366     48373
     48370     48368     48366     48374     48371     48368     48366     48372
     48371     48368     48366     48373     48371     48368     48366     48374
     48381     48379     48377     48383     48381     48379     48377     48384
     48381     48379     48377     48385     48382     48379     48377     48383
     48382     48379     48377     48384     48382     48379     48377     48385
     48392     48390     48388     48394     48392     48390     48388     48395
     48392     48390     48388     48396     48393     48390     48388     48394
     48393     48390     48388     48395     48393     48390     48388     48396
     48403     48401     48399     48405     48403     48401     48399     48406
     48403     48401     48399     48407     48404     48401     48399     48405
     48404     48401     48399     48406     48404     48401     48399     48407
     48414     48412     48410     48416     48414     48412     48410     48417
     48414     48412     48410     48418     48415     48412     48410     48416
     48415     48412     48410     48417     48415     48412     48410     48418
     48425     48423     48421     48427     48425     48423     48421     48428
     48425     48423     48421     48429     48426     48423     48421     48427
     48426     48423     48421     48428     48426     48423     48421     48429
     48436     48434     48432     48438     48436     48434     48432     48439
     48436     48434     48432     48440     48437     48434     48432     48438
     48437     48434     48432     48439     48437     48434     48432     48440
     48447     48445     48443     48449     48447     48445     48443     48450
     48447     48445     48443     48451     48448     48445     48443     48449
     48448     48445     48443     48450     48448     48445     48443     48451
     48458     48456     48454     48460     48458     48456     48454     48461
     48458     48456     48454     48462     48459     48456     48454     48460
     48459     48456     48454     48461     48459     48456     48454     48462
     48469     48467     48465     48471     48469     48467     48465     48472
     48469     48467     48465     48473     48470     48467     48465     48471
     48470     48467     48465     48472     48470     48467     48465     48473
     48480     48478     48476     48482     48480     48478     48476     48483
     48480     48478     48476     48484     48481     48478     48476     48482
     48481     48478     48476     48483     48481     48478     48476     48484
     48491     48489     48487     48493     48491     48489     48487     48494
     48491     48489     48487     48495     48492     48489     48487     48493
     48492     48489     48487     48494     48492     48489     48487     48495
     48502     48500     48498     48504     48502     48500     48498     48505
     48502     48500     48498     48506     48503     48500     48498     48504
     48503     48500     48498     48505     48503     48500     48498     48506
     48513     48511     48509     48515     48513     48511     48509     48516
     48513     48511     48509     48517     48514     48511     48509     48515
     48514     48511     48509     48516     48514     48511     48509     48517
     48524     48522     48520     48526     48524     48522     48520     48527
     48524     48522     48520     48528     48525     48522     48520     48526
     48525     48522     48520     48527     48525     48522     48520     48528
     48535     48533     48531     48537     48535     48533     48531     48538
     48535     48533     48531     48539     48536     48533     48531     48537
     48536     48533     48531     48538     48536     48533     48531     48539
     48546     48544     48542     48548     48546     48544     48542     48549
     48546     48544     48542     48550     48547     48544     48542     48548
     48547     48544     48542     48549     48547     48544     48542     48550
     48557     48555     48553     48559     48557     48555     48553     48560
     48557     48555     48553     48561     48558     48555     48553     48559
     48558     48555     48553     48560     48558     48555     48553     48561
     48568     48566     48564     48570     48568     48566     48564     48571
     48568     48566     48564     48572     48569     48566     48564     48570
     48569     48566     48564     48571     48569     48566     48564     48572
     48579     48577     48575     48581     48579     48577     48575     48582
     48579     48577     48575     48583     48580     48577     48575     48581
     48580     48577     48575     48582     48580     48577     48575     48583
     48590     48588     48586     48592     48590     48588     48586     48593
     48590     48588     48586     48594     48591     48588     48586     48592
     48591     48588     48586     48593     48591     48588     48586     48594
     48601     48599     48597     48603     48601     48599     48597     48604
     48601     48599     48597     48605     48602     48599     48597     48603
     48602     48599     48597     48604     48602     48599     48597     48605
     48612     48610     48608     48614     48612     48610     48608     48615
     48612     48610     48608     48616     48613     48610     48608     48614
     48613     48610     48608     48615     48613     48610     48608     48616
     48623     48621     48619     48625     48623     48621     48619     48626
     48623     48621     48619     48627     48624     48621     48619     48625
     48624     48621     48619     48626     48624     48621     48619     48627
     48634     48632     48630     48636     48634     48632     48630     48637
     48634     48632     48630     48638     48635     48632     48630     48636
     48635     48632     48630     48637     48635     48632     48630     48638
     48645     48643     48641     48647     48645     48643     48641     48648
     48645     48643     48641     48649     48646     48643     48641     48647
     48646     48643     48641     48648     48646     48643     48641     48649
     48656     48654     48652     48658     48656     48654     48652     48659
     48656     48654     48652     48660     48657     48654     48652     48658
     48657     48654     48652     48659     48657     48654     48652     48660
     48667     48665     48663     48669     48667     48665     48663     48670
     48667     48665     48663     48671     48668     48665     48663     48669
     48668     48665     48663     48670     48668     48665     48663     48671
     48678     48676     48674     48680     48678     48676     48674     48681
     48678     48676     48674     48682     48679     48676     48674     48680
     48679     48676     48674     48681     48679     48676     48674     48682
     48689     48687     48685     48691     48689     48687     48685     48692
     48689     48687     48685     48693     48690     48687     48685     48691
     48690     48687     48685     48692     48690     48687     48685     48693
     48700     48698     48696     48702     48700     48698     48696     48703
     48700     48698     48696     48704     48701     48698     48696     48702
     48701     48698     48696     48703     48701     48698     48696     48704
     48711     48709     48707     48713     48711     48709     48707     48714
     48711     48709     48707     48715     48712     48709     48707     48713
     48712     48709     48707     48714     48712     48709     48707     48715
     48722     48720     48718     48724     48722     48720     48718     48725
     48722     48720     48718     48726     48723     48720     48718     48724
     48723     48720     48718     48725     48723     48720     48718     48726
     48733     48731     48729     48735     48733     48731     48729     48736
     48733     48731     48729     48737     48734     48731     48729     48735
     48734     48731     48729     48736     48734     48731     48729     48737
     48744     48742     48740     48746     48744     48742     48740     48747
     48744     48742     48740     48748     48745     48742     48740     48746
     48745     48742     48740     48747     48745     48742     48740     48748
     48755     48753     48751     48757     48755     48753     48751     48758
     48755     48753     48751     48759     48756     48753     48751     48757
     48756     48753     48751     48758     48756     48753     48751     48759
     48766     48764     48762     48768     48766     48764     48762     48769
     48766     48764     48762     48770     48767     48764     48762     48768
     48767     48764     48762     48769     48767     48764     48762     48770
     48777     48775     48773     48779     48777     48775     48773     48780
     48777     48775     48773     48781     48778     48775     48773     48779
     48778     48775     48773     48780     48778     48775     48773     48781
     48788     48786     48784     48790     48788     48786     48784     48791
     48788     48786     48784     48792     48789     48786     48784     48790
     48789     48786     48784     48791     48789     48786     48784     48792
     48799     48797     48795     48801     48799     48797     48795     48802
     48799     48797     48795     48803     48800     48797     48795     48801
     48800     48797     48795     48802     48800     48797     48795     48803
     48810     48808     48806     48812     48810     48808     48806     48813
     48810     48808     48806     48814     48811     48808     48806     48812
     48811     48808     48806     48813     48811     48808     48806     48814
     48821     48819     48817     48823     48821     48819     48817     48824
     48821     48819     48817     48825     48822     48819     48817     48823
     48822     48819     48817     48824     48822     48819     48817     48825
     48832     48830     48828     48834     48832     48830     48828     48835
     48832     48830     48828     48836     48833     48830     48828     48834
     48833     48830     48828     48835     48833     48830     48828     48836
     48843     48841     48839     48845     48843     48841     48839     48846
     48843     48841     48839     48847     48844     48841     48839     48845
     48844     48841     48839     48846     48844     48841     48839     48847
     48854     48852     48850     48856     48854     48852     48850     48857
     48854     48852     48850     48858     48855     48852     48850     48856
     48855     48852     48850     48857     48855     48852     48850     48858
     48865     48863     48861     48867     48865     48863     48861     48868
     48865     48863     48861     48869     48866     48863     48861     48867
     48866     48863     48861     48868     48866     48863     48861     48869
     48876     48874     48872     48878     48876     48874     48872     48879
     48876     48874     48872     48880     48877     48874     48872     48878
     48877     48874     48872     48879     48877     48874     48872     48880
     48887     48885     48883     48889     48887     48885     48883     48890
     48887     48885     48883     48891     48888     48885     48883     48889
     48888     48885     48883     48890     48888     48885     48883     48891
     48898     48896     48894     48900     48898     48896     48894     48901
     48898     48896     48894     48902     48899     48896     48894     48900
     48899     48896     48894     48901     48899     48896     48894     48902
     48909     48907     48905     48911     48909     48907     48905     48912
     48909     48907     48905     48913     48910     48907     48905     48911
     48910     48907     48905     48912     48910     48907     48905     48913
     48920     48918     48916     48922     48920     48918     48916     48923
     48920     48918     48916     48924     48921     48918     48916     48922
     48921     48918     48916     48923     48921     48918     48916     48924
     48931     48929     48927     48933     48931     48929     48927     48934
     48931     48929     48927     48935     48932     48929     48927     48933
     48932     48929     48927     48934     48932     48929     48927     48935
     48942     48940     48938     48944     48942     48940     48938     48945
     48942     48940     48938     48946     48943     48940     48938     48944
     48943     48940     48938     48945     48943     48940     48938     48946
     48953     48951     48949     48955     48953     48951     48949     48956
     48953     48951     48949     48957     48954     48951     48949     48955
     48954     48951     48949     48956     48954     48951     48949     48957
     48964     48962     48960     48966     48964     48962     48960     48967
     48964     48962     48960     48968     48965     48962     48960     48966
     48965     48962     48960     48967     48965     48962     48960     48968
     48975     48973     48971     48977     48975     48973     48971     48978
     48975     48973     48971     48979     48976     48973     48971     48977
     48976     48973     48971     48978     48976     48973     48971     48979
     48986     48984     48982     48988     48986     48984     48982     48989
     48986     48984     48982     48990     48987     48984     48982     48988
     48987     48984     48982     48989     48987     48984     48982     48990
     48997     48995     48993     48999     48997     48995     48993     49000
     48997     48995     48993     49001     48998     48995     48993     48999
     48998     48995     48993     49000     48998     48995     48993     49001
     49008     49006     49004     49010     49008     49006     49004     49011
     49008     49006     49004     49012     49009     49006     49004     49010
     49009     49006     49004     49011     49009     49006     49004     49012
     49019     49017     49015     49021     49019     49017     49015     49022
     49019     49017     49015     49023     49020     49017     49015     49021
     49020     49017     49015     49022     49020     49017     49015     49023
     49030     49028     49026     49032     49030     49028     49026     49033
     49030     49028     49026     49034     49031     49028     49026     49032
     49031     49028     49026     49033     49031     49028     49026     49034
     49041     49039     49037     49043     49041     49039     49037     49044
     49041     49039     49037     49045     49042     49039     49037     49043
     49042     49039     49037     49044     49042     49039     49037     49045
     49052     49050     49048     49054     49052     49050     49048     49055
     49052     49050     49048     49056     49053     49050     49048     49054
     49053     49050     49048     49055     49053     49050     49048     49056
     49063     49061     49059     49065     49063     49061     49059     49066
     49063     49061     49059     49067     49064     49061     49059     49065
     49064     49061     49059     49066     49064     49061     49059     49067
     49074     49072     49070     49076     49074     49072     49070     49077
     49074     49072     49070     49078     49075     49072     49070     49076
     49075     49072     49070     49077     49075     49072     49070     49078
     49085     49083     49081     49087     49085     49083     49081     49088
     49085     49083     49081     49089     49086     49083     49081     49087
     49086     49083     49081     49088     49086     49083     49081     49089
     49096     49094     49092     49098     49096     49094     49092     49099
     49096     49094     49092     49100     49097     49094     49092     49098
     49097     49094     49092     49099     49097     49094     49092     49100
     49107     49105     49103     49109     49107     49105     49103     49110
     49107     49105     49103     49111     49108     49105     49103     49109
     49108     49105     49103     49110     49108     49105     49103     49111
     49118     49116     49114     49120     49118     49116     49114     49121
     49118     49116     49114     49122     49119     49116     49114     49120
     49119     49116     49114     49121     49119     49116     49114     49122
     49129     49127     49125     49131     49129     49127     49125     49132
     49129     49127     49125     49133     49130     49127     49125     49131
     49130     49127     49125     49132     49130     49127     49125     49133
     49140     49138     49136     49142     49140     49138     49136     49143
     49140     49138     49136     49144     49141     49138     49136     49142
     49141     49138     49136     49143     49141     49138     49136     49144
     49151     49149     49147     49153     49151     49149     49147     49154
     49151     49149     49147     49155     49152     49149     49147     49153
     49152     49149     49147     49154     49152     49149     49147     49155
     49162     49160     49158     49164     49162     49160     49158     49165
     49162     49160     49158     49166     49163     49160     49158     49164
     49163     49160     49158     49165     49163     49160     49158     49166
     49173     49171     49169     49175     49173     49171     49169     49176
     49173     49171     49169     49177     49174     49171     49169     49175
     49174     49171     49169     49176     49174     49171     49169     49177
     49184     49182     49180     49186     49184     49182     49180     49187
     49184     49182     49180     49188     49185     49182     49180     49186
     49185     49182     49180     49187     49185     49182     49180     49188
     49195     49193     49191     49197     49195     49193     49191     49198
     49195     49193     49191     49199     49196     49193     49191     49197
     49196     49193     49191     49198     49196     49193     49191     49199
     49206     49204     49202     49208     49206     49204     49202     49209
     49206     49204     49202     49210     49207     49204     49202     49208
     49207     49204     49202     49209     49207     49204     49202     49210
     49217     49215     49213     49219     49217     49215     49213     49220
     49217     49215     49213     49221     49218     49215     49213     49219
     49218     49215     49213     49220     49218     49215     49213     49221
     49228     49226     49224     49230     49228     49226     49224     49231
     49228     49226     49224     49232     49229     49226     49224     49230
     49229     49226     49224     49231     49229     49226     49224     49232
     49239     49237     49235     49241     49239     49237     49235     49242
     49239     49237     49235     49243     49240     49237     49235     49241
     49240     49237     49235     49242     49240     49237     49235     49243
     49250     49248     49246     49252     49250     49248     49246     49253
     49250     49248     49246     49254     49251     49248     49246     49252
     49251     49248     49246     49253     49251     49248     49246     49254
     49261     49259     49257     49263     49261     49259     49257     49264
     49261     49259     49257     49265     49262     49259     49257     49263
     49262     49259     49257     49264     49262     49259     49257     49265
     49272     49270     49268     49274     49272     49270     49268     49275
     49272     49270     49268     49276     49273     49270     49268     49274
     49273     49270     49268     49275     49273     49270     49268     49276
     49283     49281     49279     49285     49283     49281     49279     49286
     49283     49281     49279     49287     49284     49281     49279     49285
     49284     49281     49279     49286     49284     49281     49279     49287
     49294     49292     49290     49296     49294     49292     49290     49297
     49294     49292     49290     49298     49295     49292     49290     49296
     49295     49292     49290     49297     49295     49292     49290     49298
     49305     49303     49301     49307     49305     49303     49301     49308
     49305     49303     49301     49309     49306     49303     49301     49307
     49306     49303     49301     49308     49306     49303     49301     49309
     49316     49314     49312     49318     49316     49314     49312     49319
     49316     49314     49312     49320     49317     49314     49312     49318
     49317     49314     49312     49319     49317     49314     49312     49320
     49327     49325     49323     49329     49327     49325     49323     49330
     49327     49325     49323     49331     49328     49325     49323     49329
     49328     49325     49323     49330     49328     49325     49323     49331
     49338     49336     49334     49340     49338     49336     49334     49341
     49338     49336     49334     49342     49339     49336     49334     49340
     49339     49336     49334     49341     49339     49336     49334     49342
     49349     49347     49345     49351     49349     49347     49345     49352
     49349     49347     49345     49353     49350     49347     49345     49351
     49350     49347     49345     49352     49350     49347     49345     49353
     49360     49358     49356     49362     49360     49358     49356     49363
     49360     49358     49356     49364     49361     49358     49356     49362
     49361     49358     49356     49363     49361     49358     49356     49364
     49371     49369     49367     49373     49371     49369     49367     49374
     49371     49369     49367     49375     49372     49369     49367     49373
     49372     49369     49367     49374     49372     49369     49367     49375
     49382     49380     49378     49384     49382     49380     49378     49385
     49382     49380     49378     49386     49383     49380     49378     49384
     49383     49380     49378     49385     49383     49380     49378     49386
     49393     49391     49389     49395     49393     49391     49389     49396
     49393     49391     49389     49397     49394     49391     49389     49395
     49394     49391     49389     49396     49394     49391     49389     49397
     49404     49402     49400     49406     49404     49402     49400     49407
     49404     49402     49400     49408     49405     49402     49400     49406
     49405     49402     49400     49407     49405     49402     49400     49408
     49415     49413     49411     49417     49415     49413     49411     49418
     49415     49413     49411     49419     49416     49413     49411     49417
     49416     49413     49411     49418     49416     49413     49411     49419
     49426     49424     49422     49428     49426     49424     49422     49429
     49426     49424     49422     49430     49427     49424     49422     49428
     49427     49424     49422     49429     49427     49424     49422     49430
     49437     49435     49433     49439     49437     49435     49433     49440
     49437     49435     49433     49441     49438     49435     49433     49439
     49438     49435     49433     49440     49438     49435     49433     49441
     49448     49446     49444     49450     49448     49446     49444     49451
     49448     49446     49444     49452     49449     49446     49444     49450
     49449     49446     49444     49451     49449     49446     49444     49452
     49459     49457     49455     49461     49459     49457     49455     49462
     49459     49457     49455     49463     49460     49457     49455     49461
     49460     49457     49455     49462     49460     49457     49455     49463
     49470     49468     49466     49472     49470     49468     49466     49473
     49470     49468     49466     49474     49471     49468     49466     49472
     49471     49468     49466     49473     49471     49468     49466     49474
     49481     49479     49477     49483     49481     49479     49477     49484
     49481     49479     49477     49485     49482     49479     49477     49483
     49482     49479     49477     49484     49482     49479     49477     49485
     49492     49490     49488     49494     49492     49490     49488     49495
     49492     49490     49488     49496     49493     49490     49488     49494
     49493     49490     49488     49495     49493     49490     49488     49496
     49503     49501     49499     49505     49503     49501     49499     49506
     49503     49501     49499     49507     49504     49501     49499     49505
     49504     49501     49499     49506     49504     49501     49499     49507
     49514     49512     49510     49516     49514     49512     49510     49517
     49514     49512     49510     49518     49515     49512     49510     49516
     49515     49512     49510     49517     49515     49512     49510     49518
     49525     49523     49521     49527     49525     49523     49521     49528
     49525     49523     49521     49529     49526     49523     49521     49527
     49526     49523     49521     49528     49526     49523     49521     49529
     49536     49534     49532     49538     49536     49534     49532     49539
     49536     49534     49532     49540     49537     49534     49532     49538
     49537     49534     49532     49539     49537     49534     49532     49540
     49547     49545     49543     49549     49547     49545     49543     49550
     49547     49545     49543     49551     49548     49545     49543     49549
     49548     49545     49543     49550     49548     49545     49543     49551
     49558     49556     49554     49560     49558     49556     49554     49561
     49558     49556     49554     49562     49559     49556     49554     49560
     49559     49556     49554     49561     49559     49556     49554     49562
     49569     49567     49565     49571     49569     49567     49565     49572
     49569     49567     49565     49573     49570     49567     49565     49571
     49570     49567     49565     49572     49570     49567     49565     49573
     49580     49578     49576     49582     49580     49578     49576     49583
     49580     49578     49576     49584     49581     49578     49576     49582
     49581     49578     49576     49583     49581     49578     49576     49584
     49591     49589     49587     49593     49591     49589     49587     49594
     49591     49589     49587     49595     49592     49589     49587     49593
     49592     49589     49587     49594     49592     49589     49587     49595
     49602     49600     49598     49604     49602     49600     49598     49605
     49602     49600     49598     49606     49603     49600     49598     49604
     49603     49600     49598     49605     49603     49600     49598     49606
     49613     49611     49609     49615     49613     49611     49609     49616
     49613     49611     49609     49617     49614     49611     49609     49615
     49614     49611     49609     49616     49614     49611     49609     49617
     49624     49622     49620     49626     49624     49622     49620     49627
     49624     49622     49620     49628     49625     49622     49620     49626
     49625     49622     49620     49627     49625     49622     49620     49628
     49635     49633     49631     49637     49635     49633     49631     49638
     49635     49633     49631     49639     49636     49633     49631     49637
     49636     49633     49631     49638     49636     49633     49631     49639
     49646     49644     49642     49648     49646     49644     49642     49649
     49646     49644     49642     49650     49647     49644     49642     49648
     49647     49644     49642     49649     49647     49644     49642     49650
     49657     49655     49653     49659     49657     49655     49653     49660
     49657     49655     49653     49661     49658     49655     49653     49659
     49658     49655     49653     49660     49658     49655     49653     49661
     49668     49666     49664     49670     49668     49666     49664     49671
     49668     49666     49664     49672     49669     49666     49664     49670
     49669     49666     49664     49671     49669     49666     49664     49672
     49679     49677     49675     49681     49679     49677     49675     49682
     49679     49677     49675     49683     49680     49677     49675     49681
     49680     49677     49675     49682     49680     49677     49675     49683
     49690     49688     49686     49692     49690     49688     49686     49693
     49690     49688     49686     49694     49691     49688     49686     49692
     49691     49688     49686     49693     49691     49688     49686     49694
     49701     49699     49697     49703     49701     49699     49697     49704
     49701     49699     49697     49705     49702     49699     49697     49703
     49702     49699     49697     49704     49702     49699     49697     49705
     49712     49710     49708     49714     49712     49710     49708     49715
     49712     49710     49708     49716     49713     49710     49708     49714
     49713     49710     49708     49715     49713     49710     49708     49716
     49723     49721     49719     49725     49723     49721     49719     49726
     49723     49721     49719     49727     49724     49721     49719     49725
     49724     49721     49719     49726     49724     49721     49719     49727
     49734     49732     49730     49736     49734     49732     49730     49737
     49734     49732     49730     49738     49735     49732     49730     49736
     49735     49732     49730     49737     49735     49732     49730     49738
     49745     49743     49741     49747     49745     49743     49741     49748
     49745     49743     49741     49749     49746     49743     49741     49747
     49746     49743     49741     49748     49746     49743     49741     49749
     49756     49754     49752     49758     49756     49754     49752     49759
     49756     49754     49752     49760     49757     49754     49752     49758
     49757     49754     49752     49759     49757     49754     49752     49760
     49767     49765     49763     49769     49767     49765     49763     49770
     49767     49765     49763     49771     49768     49765     49763     49769
     49768     49765     49763     49770     49768     49765     49763     49771
     49778     49776     49774     49780     49778     49776     49774     49781
     49778     49776     49774     49782     49779     49776     49774     49780
     49779     49776     49774     49781     49779     49776     49774     49782
     49789     49787     49785     49791     49789     49787     49785     49792
     49789     49787     49785     49793     49790     49787     49785     49791
     49790     49787     49785     49792     49790     49787     49785     49793
     49800     49798     49796     49802     49800     49798     49796     49803
     49800     49798     49796     49804     49801     49798     49796     49802
     49801     49798     49796     49803     49801     49798     49796     49804
     49811     49809     49807     49813     49811     49809     49807     49814
     49811     49809     49807     49815     49812     49809     49807     49813
     49812     49809     49807     49814     49812     49809     49807     49815
     49822     49820     49818     49824     49822     49820     49818     49825
     49822     49820     49818     49826     49823     49820     49818     49824
     49823     49820     49818     49825     49823     49820     49818     49826
     49833     49831     49829     49835     49833     49831     49829     49836
     49833     49831     49829     49837     49834     49831     49829     49835
     49834     49831     49829     49836     49834     49831     49829     49837
     49844     49842     49840     49846     49844     49842     49840     49847
     49844     49842     49840     49848     49845     49842     49840     49846
     49845     49842     49840     49847     49845     49842     49840     49848
     49855     49853     49851     49857     49855     49853     49851     49858
     49855     49853     49851     49859     49856     49853     49851     49857
     49856     49853     49851     49858     49856     49853     49851     49859
     49866     49864     49862     49868     49866     49864     49862     49869
     49866     49864     49862     49870     49867     49864     49862     49868
     49867     49864     49862     49869     49867     49864     49862     49870
     49877     49875     49873     49879     49877     49875     49873     49880
     49877     49875     49873     49881     49878     49875     49873     49879
     49878     49875     49873     49880     49878     49875     49873     49881
     49888     49886     49884     49890     49888     49886     49884     49891
     49888     49886     49884     49892     49889     49886     49884     49890
     49889     49886     49884     49891     49889     49886     49884     49892
     49899     49897     49895     49901     49899     49897     49895     49902
     49899     49897     49895     49903     49900     49897     49895     49901
     49900     49897     49895     49902     49900     49897     49895     49903
     49910     49908     49906     49912     49910     49908     49906     49913
     49910     49908     49906     49914     49911     49908     49906     49912
     49911     49908     49906     49913     49911     49908     49906     49914
     49921     49919     49917     49923     49921     49919     49917     49924
     49921     49919     49917     49925     49922     49919     49917     49923
     49922     49919     49917     49924     49922     49919     49917     49925
     49932     49930     49928     49934     49932     49930     49928     49935
     49932     49930     49928     49936     49933     49930     49928     49934
     49933     49930     49928     49935     49933     49930     49928     49936
     49943     49941     49939     49945     49943     49941     49939     49946
     49943     49941     49939     49947     49944     49941     49939     49945
     49944     49941     49939     49946     49944     49941     49939     49947
     49954     49952     49950     49956     49954     49952     49950     49957
     49954     49952     49950     49958     49955     49952     49950     49956
     49955     49952     49950     49957     49955     49952     49950     49958
     49965     49963     49961     49967     49965     49963     49961     49968
     49965     49963     49961     49969     49966     49963     49961     49967
     49966     49963     49961     49968     49966     49963     49961     49969
     49976     49974     49972     49978     49976     49974     49972     49979
     49976     49974     49972     49980     49977     49974     49972     49978
     49977     49974     49972     49979     49977     49974     49972     49980
     49987     49985     49983     49989     49987     49985     49983     49990
     49987     49985     49983     49991     49988     49985     49983     49989
     49988     49985     49983     49990     49988     49985     49983     49991
     49998     49996     49994     50000     49998     49996     49994     50001
     49998     49996     49994     50002     49999     49996     49994     50000
     49999     49996     49994     50001     49999     49996     49994     50002
     50009     50007     50005     50011     50009     50007     50005     50012
     50009     50007     50005     50013     50010     50007     50005     50011
     50010     50007     50005     50012     50010     50007     50005     50013
     50020     50018     50016     50022     50020     50018     50016     50023
     50020     50018     50016     50024     50021     50018     50016     50022
     50021     50018     50016     50023     50021     50018     50016     50024
     50031     50029     50027     50033     50031     50029     50027     50034
     50031     50029     50027     50035     50032     50029     50027     50033
     50032     50029     50027     50034     50032     50029     50027     50035
     50042     50040     50038     50044     50042     50040     50038     50045
     50042     50040     50038     50046     50043     50040     50038     50044
     50043     50040     50038     50045     50043     50040     50038     50046
     50053     50051     50049     50055     50053     50051     50049     50056
     50053     50051     50049     50057     50054     50051     50049     50055
     50054     50051     50049     50056     50054     50051     50049     50057
     50064     50062     50060     50066     50064     50062     50060     50067
     50064     50062     50060     50068     50065     50062     50060     50066
     50065     50062     50060     50067     50065     50062     50060     50068
     50075     50073     50071     50077     50075     50073     50071     50078
     50075     50073     50071     50079     50076     50073     50071     50077
     50076     50073     50071     50078     50076     50073     50071     50079
     50086     50084     50082     50088     50086     50084     50082     50089
     50086     50084     50082     50090     50087     50084     50082     50088
     50087     50084     50082     50089     50087     50084     50082     50090
     50097     50095     50093     50099     50097     50095     50093     50100
     50097     50095     50093     50101     50098     50095     50093     50099
     50098     50095     50093     50100     50098     50095     50093     50101
     50108     50106     50104     50110     50108     50106     50104     50111
     50108     50106     50104     50112     50109     50106     50104     50110
     50109     50106     50104     50111     50109     50106     50104     50112
     50119     50117     50115     50121     50119     50117     50115     50122
     50119     50117     50115     50123     50120     50117     50115     50121
     50120     50117     50115     50122     50120     50117     50115     50123
     50130     50128     50126     50132     50130     50128     50126     50133
     50130     50128     50126     50134     50131     50128     50126     50132
     50131     50128     50126     50133     50131     50128     50126     50134
     50141     50139     50137     50143     50141     50139     50137     50144
     50141     50139     50137     50145     50142     50139     50137     50143
     50142     50139     50137     50144     50142     50139     50137     50145
     50152     50150     50148     50154     50152     50150     50148     50155
     50152     50150     50148     50156     50153     50150     50148     50154
     50153     50150     50148     50155     50153     50150     50148     50156
     50163     50161     50159     50165     50163     50161     50159     50166
     50163     50161     50159     50167     50164     50161     50159     50165
     50164     50161     50159     50166     50164     50161     50159     50167
     50174     50172     50170     50176     50174     50172     50170     50177
     50174     50172     50170     50178     50175     50172     50170     50176
     50175     50172     50170     50177     50175     50172     50170     50178
     50185     50183     50181     50187     50185     50183     50181     50188
     50185     50183     50181     50189     50186     50183     50181     50187
     50186     50183     50181     50188     50186     50183     50181     50189
     50196     50194     50192     50198     50196     50194     50192     50199
     50196     50194     50192     50200     50197     50194     50192     50198
     50197     50194     50192     50199     50197     50194     50192     50200
     50207     50205     50203     50209     50207     50205     50203     50210
     50207     50205     50203     50211     50208     50205     50203     50209
     50208     50205     50203     50210     50208     50205     50203     50211
     50218     50216     50214     50220     50218     50216     50214     50221
     50218     50216     50214     50222     50219     50216     50214     50220
     50219     50216     50214     50221     50219     50216     50214     50222
     50229     50227     50225     50231     50229     50227     50225     50232
     50229     50227     50225     50233     50230     50227     50225     50231
     50230     50227     50225     50232     50230     50227     50225     50233
     50240     50238     50236     50242     50240     50238     50236     50243
     50240     50238     50236     50244     50241     50238     50236     50242
     50241     50238     50236     50243     50241     50238     50236     50244
     50251     50249     50247     50253     50251     50249     50247     50254
     50251     50249     50247     50255     50252     50249     50247     50253
     50252     50249     50247     50254     50252     50249     50247     50255
     50262     50260     50258     50264     50262     50260     50258     50265
     50262     50260     50258     50266     50263     50260     50258     50264
     50263     50260     50258     50265     50263     50260     50258     50266
     50273     50271     50269     50275     50273     50271     50269     50276
     50273     50271     50269     50277     50274     50271     50269     50275
     50274     50271     50269     50276     50274     50271     50269     50277
     50284     50282     50280     50286     50284     50282     50280     50287
     50284     50282     50280     50288     50285     50282     50280     50286
     50285     50282     50280     50287     50285     50282     50280     50288
     50295     50293     50291     50297     50295     50293     50291     50298
     50295     50293     50291     50299     50296     50293     50291     50297
     50296     50293     50291     50298     50296     50293     50291     50299
     50306     50304     50302     50308     50306     50304     50302     50309
     50306     50304     50302     50310     50307     50304     50302     50308
     50307     50304     50302     50309     50307     50304     50302     50310
     50317     50315     50313     50319     50317     50315     50313     50320
     50317     50315     50313     50321     50318     50315     50313     50319
     50318     50315     50313     50320     50318     50315     50313     50321
     50328     50326     50324     50330     50328     50326     50324     50331
     50328     50326     50324     50332     50329     50326     50324     50330
     50329     50326     50324     50331     50329     50326     50324     50332
     50339     50337     50335     50341     50339     50337     50335     50342
     50339     50337     50335     50343     50340     50337     50335     50341
     50340     50337     50335     50342     50340     50337     50335     50343
     50350     50348     50346     50352     50350     50348     50346     50353
     50350     50348     50346     50354     50351     50348     50346     50352
     50351     50348     50346     50353     50351     50348     50346     50354
     50361     50359     50357     50363     50361     50359     50357     50364
     50361     50359     50357     50365     50362     50359     50357     50363
     50362     50359     50357     50364     50362     50359     50357     50365
     50372     50370     50368     50374     50372     50370     50368     50375
     50372     50370     50368     50376     50373     50370     50368     50374
     50373     50370     50368     50375     50373     50370     50368     50376
     50383     50381     50379     50385     50383     50381     50379     50386
     50383     50381     50379     50387     50384     50381     50379     50385
     50384     50381     50379     50386     50384     50381     50379     50387
     50394     50392     50390     50396     50394     50392     50390     50397
     50394     50392     50390     50398     50395     50392     50390     50396
     50395     50392     50390     50397     50395     50392     50390     50398
     50405     50403     50401     50407     50405     50403     50401     50408
     50405     50403     50401     50409     50406     50403     50401     50407
     50406     50403     50401     50408     50406     50403     50401     50409
     50416     50414     50412     50418     50416     50414     50412     50419
     50416     50414     50412     50420     50417     50414     50412     50418
     50417     50414     50412     50419     50417     50414     50412     50420
     50427     50425     50423     50429     50427     50425     50423     50430
     50427     50425     50423     50431     50428     50425     50423     50429
     50428     50425     50423     50430     50428     50425     50423     50431
     50438     50436     50434     50440     50438     50436     50434     50441
     50438     50436     50434     50442     50439     50436     50434     50440
     50439     50436     50434     50441     50439     50436     50434     50442
     50449     50447     50445     50451     50449     50447     50445     50452
     50449     50447     50445     50453     50450     50447     50445     50451
     50450     50447     50445     50452     50450     50447     50445     50453
     50460     50458     50456     50462     50460     50458     50456     50463
     50460     50458     50456     50464     50461     50458     50456     50462
     50461     50458     50456     50463     50461     50458     50456     50464
     50471     50469     50467     50473     50471     50469     50467     50474
     50471     50469     50467     50475     50472     50469     50467     50473
     50472     50469     50467     50474     50472     50469     50467     50475
     50482     50480     50478     50484     50482     50480     50478     50485
     50482     50480     50478     50486     50483     50480     50478     50484
     50483     50480     50478     50485     50483     50480     50478     50486
     50493     50491     50489     50495     50493     50491     50489     50496
     50493     50491     50489     50497     50494     50491     50489     50495
     50494     50491     50489     50496     50494     50491     50489     50497
     50504     50502     50500     50506     50504     50502     50500     50507
     50504     50502     50500     50508     50505     50502     50500     50506
     50505     50502     50500     50507     50505     50502     50500     50508
     50515     50513     50511     50517     50515     50513     50511     50518
     50515     50513     50511     50519     50516     50513     50511     50517
     50516     50513     50511     50518     50516     50513     50511     50519
     50526     50524     50522     50528     50526     50524     50522     50529
     50526     50524     50522     50530     50527     50524     50522     50528
     50527     50524     50522     50529     50527     50524     50522     50530
     50537     50535     50533     50539     50537     50535     50533     50540
     50537     50535     50533     50541     50538     50535     50533     50539
     50538     50535     50533     50540     50538     50535     50533     50541
     50548     50546     50544     50550     50548     50546     50544     50551
     50548     50546     50544     50552     50549     50546     50544     50550
     50549     50546     50544     50551     50549     50546     50544     50552
     50559     50557     50555     50561     50559     50557     50555     50562
     50559     50557     50555     50563     50560     50557     50555     50561
     50560     50557     50555     50562     50560     50557     50555     50563
     50570     50568     50566     50572     50570     50568     50566     50573
     50570     50568     50566     50574     50571     50568     50566     50572
     50571     50568     50566     50573     50571     50568     50566     50574
     50581     50579     50577     50583     50581     50579     50577     50584
     50581     50579     50577     50585     50582     50579     50577     50583
     50582     50579     50577     50584     50582     50579     50577     50585
     50592     50590     50588     50594     50592     50590     50588     50595
     50592     50590     50588     50596     50593     50590     50588     50594
     50593     50590     50588     50595     50593     50590     50588     50596
     50603     50601     50599     50605     50603     50601     50599     50606
     50603     50601     50599     50607     50604     50601     50599     50605
     50604     50601     50599     50606     50604     50601     50599     50607
     50614     50612     50610     50616     50614     50612     50610     50617
     50614     50612     50610     50618     50615     50612     50610     50616
     50615     50612     50610     50617     50615     50612     50610     50618
     50625     50623     50621     50627     50625     50623     50621     50628
     50625     50623     50621     50629     50626     50623     50621     50627
     50626     50623     50621     50628     50626     50623     50621     50629
     50636     50634     50632     50638     50636     50634     50632     50639
     50636     50634     50632     50640     50637     50634     50632     50638
     50637     50634     50632     50639     50637     50634     50632     50640
     50647     50645     50643     50649     50647     50645     50643     50650
     50647     50645     50643     50651     50648     50645     50643     50649
     50648     50645     50643     50650     50648     50645     50643     50651
     50658     50656     50654     50660     50658     50656     50654     50661
     50658     50656     50654     50662     50659     50656     50654     50660
     50659     50656     50654     50661     50659     50656     50654     50662
     50669     50667     50665     50671     50669     50667     50665     50672
     50669     50667     50665     50673     50670     50667     50665     50671
     50670     50667     50665     50672     50670     50667     50665     50673
     50680     50678     50676     50682     50680     50678     50676     50683
     50680     50678     50676     50684     50681     50678     50676     50682
     50681     50678     50676     50683     50681     50678     50676     50684
     50691     50689     50687     50693     50691     50689     50687     50694
     50691     50689     50687     50695     50692     50689     50687     50693
     50692     50689     50687     50694     50692     50689     50687     50695
     50702     50700     50698     50704     50702     50700     50698     50705
     50702     50700     50698     50706     50703     50700     50698     50704
     50703     50700     50698     50705     50703     50700     50698     50706
     50713     50711     50709     50715     50713     50711     50709     50716
     50713     50711     50709     50717     50714     50711     50709     50715
     50714     50711     50709     50716     50714     50711     50709     50717
     50724     50722     50720     50726     50724     50722     50720     50727
     50724     50722     50720     50728     50725     50722     50720     50726
     50725     50722     50720     50727     50725     50722     50720     50728
     50735     50733     50731     50737     50735     50733     50731     50738
     50735     50733     50731     50739     50736     50733     50731     50737
     50736     50733     50731     50738     50736     50733     50731     50739
     50746     50744     50742     50748     50746     50744     50742     50749
     50746     50744     50742     50750     50747     50744     50742     50748
     50747     50744     50742     50749     50747     50744     50742     50750
     50757     50755     50753     50759     50757     50755     50753     50760
     50757     50755     50753     50761     50758     50755     50753     50759
     50758     50755     50753     50760     50758     50755     50753     50761
     50768     50766     50764     50770     50768     50766     50764     50771
     50768     50766     50764     50772     50769     50766     50764     50770
     50769     50766     50764     50771     50769     50766     50764     50772
     50779     50777     50775     50781     50779     50777     50775     50782
     50779     50777     50775     50783     50780     50777     50775     50781
     50780     50777     50775     50782     50780     50777     50775     50783
     50790     50788     50786     50792     50790     50788     50786     50793
     50790     50788     50786     50794     50791     50788     50786     50792
     50791     50788     50786     50793     50791     50788     50786     50794
     50801     50799     50797     50803     50801     50799     50797     50804
     50801     50799     50797     50805     50802     50799     50797     50803
     50802     50799     50797     50804     50802     50799     50797     50805
     50812     50810     50808     50814     50812     50810     50808     50815
     50812     50810     50808     50816     50813     50810     50808     50814
     50813     50810     50808     50815     50813     50810     50808     50816
     50823     50821     50819     50825     50823     50821     50819     50826
     50823     50821     50819     50827     50824     50821     50819     50825
     50824     50821     50819     50826     50824     50821     50819     50827
     50834     50832     50830     50836     50834     50832     50830     50837
     50834     50832     50830     50838     50835     50832     50830     50836
     50835     50832     50830     50837     50835     50832     50830     50838
     50845     50843     50841     50847     50845     50843     50841     50848
     50845     50843     50841     50849     50846     50843     50841     50847
     50846     50843     50841     50848     50846     50843     50841     50849
     50856     50854     50852     50858     50856     50854     50852     50859
     50856     50854     50852     50860     50857     50854     50852     50858
     50857     50854     50852     50859     50857     50854     50852     50860
     50867     50865     50863     50869     50867     50865     50863     50870
     50867     50865     50863     50871     50868     50865     50863     50869
     50868     50865     50863     50870     50868     50865     50863     50871
     50878     50876     50874     50880     50878     50876     50874     50881
     50878     50876     50874     50882     50879     50876     50874     50880
     50879     50876     50874     50881     50879     50876     50874     50882
     50889     50887     50885     50891     50889     50887     50885     50892
     50889     50887     50885     50893     50890     50887     50885     50891
     50890     50887     50885     50892     50890     50887     50885     50893
     50900     50898     50896     50902     50900     50898     50896     50903
     50900     50898     50896     50904     50901     50898     50896     50902
     50901     50898     50896     50903     50901     50898     50896     50904
     50911     50909     50907     50913     50911     50909     50907     50914
     50911     50909     50907     50915     50912     50909     50907     50913
     50912     50909     50907     50914     50912     50909     50907     50915
     50922     50920     50918     50924     50922     50920     50918     50925
     50922     50920     50918     50926     50923     50920     50918     50924
     50923     50920     50918     50925     50923     50920     50918     50926
     50933     50931     50929     50935     50933     50931     50929     50936
     50933     50931     50929     50937     50934     50931     50929     50935
     50934     50931     50929     50936     50934     50931     50929     50937
     50944     50942     50940     50946     50944     50942     50940     50947
     50944     50942     50940     50948     50945     50942     50940     50946
     50945     50942     50940     50947     50945     50942     50940     50948
     50955     50953     50951     50957     50955     50953     50951     50958
     50955     50953     50951     50959     50956     50953     50951     50957
     50956     50953     50951     50958     50956     50953     50951     50959
     50966     50964     50962     50968     50966     50964     50962     50969
     50966     50964     50962     50970     50967     50964     50962     50968
     50967     50964     50962     50969     50967     50964     50962     50970
     50977     50975     50973     50979     50977     50975     50973     50980
     50977     50975     50973     50981     50978     50975     50973     50979
     50978     50975     50973     50980     50978     50975     50973     50981
     50988     50986     50984     50990     50988     50986     50984     50991
     50988     50986     50984     50992     50989     50986     50984     50990
     50989     50986     50984     50991     50989     50986     50984     50992
     50999     50997     50995     51001     50999     50997     50995     51002
     50999     50997     50995     51003     51000     50997     50995     51001
     51000     50997     50995     51002     51000     50997     50995     51003
     51010     51008     51006     51012     51010     51008     51006     51013
     51010     51008     51006     51014     51011     51008     51006     51012
     51011     51008     51006     51013     51011     51008     51006     51014
     51021     51019     51017     51023     51021     51019     51017     51024
     51021     51019     51017     51025     51022     51019     51017     51023
     51022     51019     51017     51024     51022     51019     51017     51025
     51032     51030     51028     51034     51032     51030     51028     51035
     51032     51030     51028     51036     51033     51030     51028     51034
     51033     51030     51028     51035     51033     51030     51028     51036
     51043     51041     51039     51045     51043     51041     51039     51046
     51043     51041     51039     51047     51044     51041     51039     51045
     51044     51041     51039     51046     51044     51041     51039     51047
     51054     51052     51050     51056     51054     51052     51050     51057
     51054     51052     51050     51058     51055     51052     51050     51056
     51055     51052     51050     51057     51055     51052     51050     51058
     51065     51063     51061     51067     51065     51063     51061     51068
     51065     51063     51061     51069     51066     51063     51061     51067
     51066     51063     51061     51068     51066     51063     51061     51069
     51076     51074     51072     51078     51076     51074     51072     51079
     51076     51074     51072     51080     51077     51074     51072     51078
     51077     51074     51072     51079     51077     51074     51072     51080
     51087     51085     51083     51089     51087     51085     51083     51090
     51087     51085     51083     51091     51088     51085     51083     51089
     51088     51085     51083     51090     51088     51085     51083     51091
     51098     51096     51094     51100     51098     51096     51094     51101
     51098     51096     51094     51102     51099     51096     51094     51100
     51099     51096     51094     51101     51099     51096     51094     51102
     51109     51107     51105     51111     51109     51107     51105     51112
     51109     51107     51105     51113     51110     51107     51105     51111
     51110     51107     51105     51112     51110     51107     51105     51113
     51120     51118     51116     51122     51120     51118     51116     51123
     51120     51118     51116     51124     51121     51118     51116     51122
     51121     51118     51116     51123     51121     51118     51116     51124
     51131     51129     51127     51133     51131     51129     51127     51134
     51131     51129     51127     51135     51132     51129     51127     51133
     51132     51129     51127     51134     51132     51129     51127     51135
     51142     51140     51138     51144     51142     51140     51138     51145
     51142     51140     51138     51146     51143     51140     51138     51144
     51143     51140     51138     51145     51143     51140     51138     51146
     51153     51151     51149     51155     51153     51151     51149     51156
     51153     51151     51149     51157     51154     51151     51149     51155
     51154     51151     51149     51156     51154     51151     51149     51157
     51164     51162     51160     51166     51164     51162     51160     51167
     51164     51162     51160     51168     51165     51162     51160     51166
     51165     51162     51160     51167     51165     51162     51160     51168
     51175     51173     51171     51177     51175     51173     51171     51178
     51175     51173     51171     51179     51176     51173     51171     51177
     51176     51173     51171     51178     51176     51173     51171     51179
     51186     51184     51182     51188     51186     51184     51182     51189
     51186     51184     51182     51190     51187     51184     51182     51188
     51187     51184     51182     51189     51187     51184     51182     51190
     51197     51195     51193     51199     51197     51195     51193     51200
     51197     51195     51193     51201     51198     51195     51193     51199
     51198     51195     51193     51200     51198     51195     51193     51201
     51208     51206     51204     51210     51208     51206     51204     51211
     51208     51206     51204     51212     51209     51206     51204     51210
     51209     51206     51204     51211     51209     51206     51204     51212
     51219     51217     51215     51221     51219     51217     51215     51222
     51219     51217     51215     51223     51220     51217     51215     51221
     51220     51217     51215     51222     51220     51217     51215     51223
     51230     51228     51226     51232     51230     51228     51226     51233
     51230     51228     51226     51234     51231     51228     51226     51232
     51231     51228     51226     51233     51231     51228     51226     51234
     51241     51239     51237     51243     51241     51239     51237     51244
     51241     51239     51237     51245     51242     51239     51237     51243
     51242     51239     51237     51244     51242     51239     51237     51245
     51252     51250     51248     51254     51252     51250     51248     51255
     51252     51250     51248     51256     51253     51250     51248     51254
     51253     51250     51248     51255     51253     51250     51248     51256
     51263     51261     51259     51265     51263     51261     51259     51266
     51263     51261     51259     51267     51264     51261     51259     51265
     51264     51261     51259     51266     51264     51261     51259     51267
     51274     51272     51270     51276     51274     51272     51270     51277
     51274     51272     51270     51278     51275     51272     51270     51276
     51275     51272     51270     51277     51275     51272     51270     51278
     51285     51283     51281     51287     51285     51283     51281     51288
     51285     51283     51281     51289     51286     51283     51281     51287
     51286     51283     51281     51288     51286     51283     51281     51289
     51296     51294     51292     51298     51296     51294     51292     51299
     51296     51294     51292     51300     51297     51294     51292     51298
     51297     51294     51292     51299     51297     51294     51292     51300
     51307     51305     51303     51309     51307     51305     51303     51310
     51307     51305     51303     51311     51308     51305     51303     51309
     51308     51305     51303     51310     51308     51305     51303     51311
     51318     51316     51314     51320     51318     51316     51314     51321
     51318     51316     51314     51322     51319     51316     51314     51320
     51319     51316     51314     51321     51319     51316     51314     51322
     51329     51327     51325     51331     51329     51327     51325     51332
     51329     51327     51325     51333     51330     51327     51325     51331
     51330     51327     51325     51332     51330     51327     51325     51333
     51340     51338     51336     51342     51340     51338     51336     51343
     51340     51338     51336     51344     51341     51338     51336     51342
     51341     51338     51336     51343     51341     51338     51336     51344
     51351     51349     51347     51353     51351     51349     51347     51354
     51351     51349     51347     51355     51352     51349     51347     51353
     51352     51349     51347     51354     51352     51349     51347     51355
     51362     51360     51358     51364     51362     51360     51358     51365
     51362     51360     51358     51366     51363     51360     51358     51364
     51363     51360     51358     51365     51363     51360     51358     51366
     51373     51371     51369     51375     51373     51371     51369     51376
     51373     51371     51369     51377     51374     51371     51369     51375
     51374     51371     51369     51376     51374     51371     51369     51377
     51384     51382     51380     51386     51384     51382     51380     51387
     51384     51382     51380     51388     51385     51382     51380     51386
     51385     51382     51380     51387     51385     51382     51380     51388
     51395     51393     51391     51397     51395     51393     51391     51398
     51395     51393     51391     51399     51396     51393     51391     51397
     51396     51393     51391     51398     51396     51393     51391     51399
     51406     51404     51402     51408     51406     51404     51402     51409
     51406     51404     51402     51410     51407     51404     51402     51408
     51407     51404     51402     51409     51407     51404     51402     51410
     51417     51415     51413     51419     51417     51415     51413     51420
     51417     51415     51413     51421     51418     51415     51413     51419
     51418     51415     51413     51420     51418     51415     51413     51421
     51428     51426     51424     51430     51428     51426     51424     51431
     51428     51426     51424     51432     51429     51426     51424     51430
     51429     51426     51424     51431     51429     51426     51424     51432
     51439     51437     51435     51441     51439     51437     51435     51442
     51439     51437     51435     51443     51440     51437     51435     51441
     51440     51437     51435     51442     51440     51437     51435     51443
     51450     51448     51446     51452     51450     51448     51446     51453
     51450     51448     51446     51454     51451     51448     51446     51452
     51451     51448     51446     51453     51451     51448     51446     51454
     51461     51459     51457     51463     51461     51459     51457     51464
     51461     51459     51457     51465     51462     51459     51457     51463
     51462     51459     51457     51464     51462     51459     51457     51465
     51472     51470     51468     51474     51472     51470     51468     51475
     51472     51470     51468     51476     51473     51470     51468     51474
     51473     51470     51468     51475     51473     51470     51468     51476
     51483     51481     51479     51485     51483     51481     51479     51486
     51483     51481     51479     51487     51484     51481     51479     51485
     51484     51481     51479     51486     51484     51481     51479     51487
     51494     51492     51490     51496     51494     51492     51490     51497
     51494     51492     51490     51498     51495     51492     51490     51496
     51495     51492     51490     51497     51495     51492     51490     51498
     51505     51503     51501     51507     51505     51503     51501     51508
     51505     51503     51501     51509     51506     51503     51501     51507
     51506     51503     51501     51508     51506     51503     51501     51509
     51516     51514     51512     51518     51516     51514     51512     51519
     51516     51514     51512     51520     51517     51514     51512     51518
     51517     51514     51512     51519     51517     51514     51512     51520
     51527     51525     51523     51529     51527     51525     51523     51530
     51527     51525     51523     51531     51528     51525     51523     51529
     51528     51525     51523     51530     51528     51525     51523     51531
     51538     51536     51534     51540     51538     51536     51534     51541
     51538     51536     51534     51542     51539     51536     51534     51540
     51539     51536     51534     51541     51539     51536     51534     51542
     51549     51547     51545     51551     51549     51547     51545     51552
     51549     51547     51545     51553     51550     51547     51545     51551
     51550     51547     51545     51552     51550     51547     51545     51553
     51560     51558     51556     51562     51560     51558     51556     51563
     51560     51558     51556     51564     51561     51558     51556     51562
     51561     51558     51556     51563     51561     51558     51556     51564
     51571     51569     51567     51573     51571     51569     51567     51574
     51571     51569     51567     51575     51572     51569     51567     51573
     51572     51569     51567     51574     51572     51569     51567     51575
     51582     51580     51578     51584     51582     51580     51578     51585
     51582     51580     51578     51586     51583     51580     51578     51584
     51583     51580     51578     51585     51583     51580     51578     51586
     51593     51591     51589     51595     51593     51591     51589     51596
     51593     51591     51589     51597     51594     51591     51589     51595
     51594     51591     51589     51596     51594     51591     51589     51597
     51604     51602     51600     51606     51604     51602     51600     51607
     51604     51602     51600     51608     51605     51602     51600     51606
     51605     51602     51600     51607     51605     51602     51600     51608
     51615     51613     51611     51617     51615     51613     51611     51618
     51615     51613     51611     51619     51616     51613     51611     51617
     51616     51613     51611     51618     51616     51613     51611     51619
     51626     51624     51622     51628     51626     51624     51622     51629
     51626     51624     51622     51630     51627     51624     51622     51628
     51627     51624     51622     51629     51627     51624     51622     51630
     51637     51635     51633     51639     51637     51635     51633     51640
     51637     51635     51633     51641     51638     51635     51633     51639
     51638     51635     51633     51640     51638     51635     51633     51641
     51648     51646     51644     51650     51648     51646     51644     51651
     51648     51646     51644     51652     51649     51646     51644     51650
     51649     51646     51644     51651     51649     51646     51644     51652
     51659     51657     51655     51661     51659     51657     51655     51662
     51659     51657     51655     51663     51660     51657     51655     51661
     51660     51657     51655     51662     51660     51657     51655     51663
     51670     51668     51666     51672     51670     51668     51666     51673
     51670     51668     51666     51674     51671     51668     51666     51672
     51671     51668     51666     51673     51671     51668     51666     51674
     51681     51679     51677     51683     51681     51679     51677     51684
     51681     51679     51677     51685     51682     51679     51677     51683
     51682     51679     51677     51684     51682     51679     51677     51685
     51692     51690     51688     51694     51692     51690     51688     51695
     51692     51690     51688     51696     51693     51690     51688     51694
     51693     51690     51688     51695     51693     51690     51688     51696
     51703     51701     51699     51705     51703     51701     51699     51706
     51703     51701     51699     51707     51704     51701     51699     51705
     51704     51701     51699     51706     51704     51701     51699     51707
     51714     51712     51710     51716     51714     51712     51710     51717
     51714     51712     51710     51718     51715     51712     51710     51716
     51715     51712     51710     51717     51715     51712     51710     51718
     51725     51723     51721     51727     51725     51723     51721     51728
     51725     51723     51721     51729     51726     51723     51721     51727
     51726     51723     51721     51728     51726     51723     51721     51729
     51736     51734     51732     51738     51736     51734     51732     51739
     51736     51734     51732     51740     51737     51734     51732     51738
     51737     51734     51732     51739     51737     51734     51732     51740
     51747     51745     51743     51749     51747     51745     51743     51750
     51747     51745     51743     51751     51748     51745     51743     51749
     51748     51745     51743     51750     51748     51745     51743     51751
     51758     51756     51754     51760     51758     51756     51754     51761
     51758     51756     51754     51762     51759     51756     51754     51760
     51759     51756     51754     51761     51759     51756     51754     51762
     51769     51767     51765     51771     51769     51767     51765     51772
     51769     51767     51765     51773     51770     51767     51765     51771
     51770     51767     51765     51772     51770     51767     51765     51773
     51780     51778     51776     51782     51780     51778     51776     51783
     51780     51778     51776     51784     51781     51778     51776     51782
     51781     51778     51776     51783     51781     51778     51776     51784
     51791     51789     51787     51793     51791     51789     51787     51794
     51791     51789     51787     51795     51792     51789     51787     51793
     51792     51789     51787     51794     51792     51789     51787     51795
     51802     51800     51798     51804     51802     51800     51798     51805
     51802     51800     51798     51806     51803     51800     51798     51804
     51803     51800     51798     51805     51803     51800     51798     51806
     51813     51811     51809     51815     51813     51811     51809     51816
     51813     51811     51809     51817     51814     51811     51809     51815
     51814     51811     51809     51816     51814     51811     51809     51817
     51824     51822     51820     51826     51824     51822     51820     51827
     51824     51822     51820     51828     51825     51822     51820     51826
     51825     51822     51820     51827     51825     51822     51820     51828
     51835     51833     51831     51837     51835     51833     51831     51838
     51835     51833     51831     51839     51836     51833     51831     51837
     51836     51833     51831     51838     51836     51833     51831     51839
     51846     51844     51842     51848     51846     51844     51842     51849
     51846     51844     51842     51850     51847     51844     51842     51848
     51847     51844     51842     51849     51847     51844     51842     51850
     51857     51855     51853     51859     51857     51855     51853     51860
     51857     51855     51853     51861     51858     51855     51853     51859
     51858     51855     51853     51860     51858     51855     51853     51861
     51868     51866     51864     51870     51868     51866     51864     51871
     51868     51866     51864     51872     51869     51866     51864     51870
     51869     51866     51864     51871     51869     51866     51864     51872
     51879     51877     51875     51881     51879     51877     51875     51882
     51879     51877     51875     51883     51880     51877     51875     51881
     51880     51877     51875     51882     51880     51877     51875     51883
     51890     51888     51886     51892     51890     51888     51886     51893
     51890     51888     51886     51894     51891     51888     51886     51892
     51891     51888     51886     51893     51891     51888     51886     51894
     51901     51899     51897     51903     51901     51899     51897     51904
     51901     51899     51897     51905     51902     51899     51897     51903
     51902     51899     51897     51904     51902     51899     51897     51905
     51912     51910     51908     51914     51912     51910     51908     51915
     51912     51910     51908     51916     51913     51910     51908     51914
     51913     51910     51908     51915     51913     51910     51908     51916
     51923     51921     51919     51925     51923     51921     51919     51926
     51923     51921     51919     51927     51924     51921     51919     51925
     51924     51921     51919     51926     51924     51921     51919     51927
     51934     51932     51930     51936     51934     51932     51930     51937
     51934     51932     51930     51938     51935     51932     51930     51936
     51935     51932     51930     51937     51935     51932     51930     51938
     51945     51943     51941     51947     51945     51943     51941     51948
     51945     51943     51941     51949     51946     51943     51941     51947
     51946     51943     51941     51948     51946     51943     51941     51949
     51956     51954     51952     51958     51956     51954     51952     51959
     51956     51954     51952     51960     51957     51954     51952     51958
     51957     51954     51952     51959     51957     51954     51952     51960
     51967     51965     51963     51969     51967     51965     51963     51970
     51967     51965     51963     51971     51968     51965     51963     51969
     51968     51965     51963     51970     51968     51965     51963     51971
     51978     51976     51974     51980     51978     51976     51974     51981
     51978     51976     51974     51982     51979     51976     51974     51980
     51979     51976     51974     51981     51979     51976     51974     51982
     51989     51987     51985     51991     51989     51987     51985     51992
     51989     51987     51985     51993     51990     51987     51985     51991
     51990     51987     51985     51992     51990     51987     51985     51993
     52000     51998     51996     52002     52000     51998     51996     52003
     52000     51998     51996     52004     52001     51998     51996     52002
     52001     51998     51996     52003     52001     51998     51996     52004
     52011     52009     52007     52013     52011     52009     52007     52014
     52011     52009     52007     52015     52012     52009     52007     52013
     52012     52009     52007     52014     52012     52009     52007     52015
     52022     52020     52018     52024     52022     52020     52018     52025
     52022     52020     52018     52026     52023     52020     52018     52024
     52023     52020     52018     52025     52023     52020     52018     52026
     52033     52031     52029     52035     52033     52031     52029     52036
     52033     52031     52029     52037     52034     52031     52029     52035
     52034     52031     52029     52036     52034     52031     52029     52037
     52044     52042     52040     52046     52044     52042     52040     52047
     52044     52042     52040     52048     52045     52042     52040     52046
     52045     52042     52040     52047     52045     52042     52040     52048
     52055     52053     52051     52057     52055     52053     52051     52058
     52055     52053     52051     52059     52056     52053     52051     52057
     52056     52053     52051     52058     52056     52053     52051     52059
     52066     52064     52062     52068     52066     52064     52062     52069
     52066     52064     52062     52070     52067     52064     52062     52068
     52067     52064     52062     52069     52067     52064     52062     52070
     52077     52075     52073     52079     52077     52075     52073     52080
     52077     52075     52073     52081     52078     52075     52073     52079
     52078     52075     52073     52080     52078     52075     52073     52081
     52088     52086     52084     52090     52088     52086     52084     52091
     52088     52086     52084     52092     52089     52086     52084     52090
     52089     52086     52084     52091     52089     52086     52084     52092
     52099     52097     52095     52101     52099     52097     52095     52102
     52099     52097     52095     52103     52100     52097     52095     52101
     52100     52097     52095     52102     52100     52097     52095     52103
     52110     52108     52106     52112     52110     52108     52106     52113
     52110     52108     52106     52114     52111     52108     52106     52112
     52111     52108     52106     52113     52111     52108     52106     52114
     52121     52119     52117     52123     52121     52119     52117     52124
     52121     52119     52117     52125     52122     52119     52117     52123
     52122     52119     52117     52124     52122     52119     52117     52125
     52132     52130     52128     52134     52132     52130     52128     52135
     52132     52130     52128     52136     52133     52130     52128     52134
     52133     52130     52128     52135     52133     52130     52128     52136
     52143     52141     52139     52145     52143     52141     52139     52146
     52143     52141     52139     52147     52144     52141     52139     52145
     52144     52141     52139     52146     52144     52141     52139     52147
     52154     52152     52150     52156     52154     52152     52150     52157
     52154     52152     52150     52158     52155     52152     52150     52156
     52155     52152     52150     52157     52155     52152     52150     52158
     52165     52163     52161     52167     52165     52163     52161     52168
     52165     52163     52161     52169     52166     52163     52161     52167
     52166     52163     52161     52168     52166     52163     52161     52169
     52176     52174     52172     52178     52176     52174     52172     52179
     52176     52174     52172     52180     52177     52174     52172     52178
     52177     52174     52172     52179     52177     52174     52172     52180
     52187     52185     52183     52189     52187     52185     52183     52190
     52187     52185     52183     52191     52188     52185     52183     52189
     52188     52185     52183     52190     52188     52185     52183     52191
     52198     52196     52194     52200     52198     52196     52194     52201
     52198     52196     52194     52202     52199     52196     52194     52200
     52199     52196     52194     52201     52199     52196     52194     52202
     52209     52207     52205     52211     52209     52207     52205     52212
     52209     52207     52205     52213     52210     52207     52205     52211
     52210     52207     52205     52212     52210     52207     52205     52213
     52220     52218     52216     52222     52220     52218     52216     52223
     52220     52218     52216     52224     52221     52218     52216     52222
     52221     52218     52216     52223     52221     52218     52216     52224
     52231     52229     52227     52233     52231     52229     52227     52234
     52231     52229     52227     52235     52232     52229     52227     52233
     52232     52229     52227     52234     52232     52229     52227     52235
     52242     52240     52238     52244     52242     52240     52238     52245
     52242     52240     52238     52246     52243     52240     52238     52244
     52243     52240     52238     52245     52243     52240     52238     52246
     52253     52251     52249     52255     52253     52251     52249     52256
     52253     52251     52249     52257     52254     52251     52249     52255
     52254     52251     52249     52256     52254     52251     52249     52257
     52264     52262     52260     52266     52264     52262     52260     52267
     52264     52262     52260     52268     52265     52262     52260     52266
     52265     52262     52260     52267     52265     52262     52260     52268
     52275     52273     52271     52277     52275     52273     52271     52278
     52275     52273     52271     52279     52276     52273     52271     52277
     52276     52273     52271     52278     52276     52273     52271     52279
     52286     52284     52282     52288     52286     52284     52282     52289
     52286     52284     52282     52290     52287     52284     52282     52288
     52287     52284     52282     52289     52287     52284     52282     52290
     52297     52295     52293     52299     52297     52295     52293     52300
     52297     52295     52293     52301     52298     52295     52293     52299
     52298     52295     52293     52300     52298     52295     52293     52301
     52308     52306     52304     52310     52308     52306     52304     52311
     52308     52306     52304     52312     52309     52306     52304     52310
     52309     52306     52304     52311     52309     52306     52304     52312
     52319     52317     52315     52321     52319     52317     52315     52322
     52319     52317     52315     52323     52320     52317     52315     52321
     52320     52317     52315     52322     52320     52317     52315     52323
     52330     52328     52326     52332     52330     52328     52326     52333
     52330     52328     52326     52334     52331     52328     52326     52332
     52331     52328     52326     52333     52331     52328     52326     52334
     52341     52339     52337     52343     52341     52339     52337     52344
     52341     52339     52337     52345     52342     52339     52337     52343
     52342     52339     52337     52344     52342     52339     52337     52345
     52352     52350     52348     52354     52352     52350     52348     52355
     52352     52350     52348     52356     52353     52350     52348     52354
     52353     52350     52348     52355     52353     52350     52348     52356
     52363     52361     52359     52365     52363     52361     52359     52366
     52363     52361     52359     52367     52364     52361     52359     52365
     52364     52361     52359     52366     52364     52361     52359     52367
     52374     52372     52370     52376     52374     52372     52370     52377
     52374     52372     52370     52378     52375     52372     52370     52376
     52375     52372     52370     52377     52375     52372     52370     52378
     52385     52383     52381     52387     52385     52383     52381     52388
     52385     52383     52381     52389     52386     52383     52381     52387
     52386     52383     52381     52388     52386     52383     52381     52389
     52396     52394     52392     52398     52396     52394     52392     52399
     52396     52394     52392     52400     52397     52394     52392     52398
     52397     52394     52392     52399     52397     52394     52392     52400
     52407     52405     52403     52409     52407     52405     52403     52410
     52407     52405     52403     52411     52408     52405     52403     52409
     52408     52405     52403     52410     52408     52405     52403     52411
     52418     52416     52414     52420     52418     52416     52414     52421
     52418     52416     52414     52422     52419     52416     52414     52420
     52419     52416     52414     52421     52419     52416     52414     52422
     52429     52427     52425     52431     52429     52427     52425     52432
     52429     52427     52425     52433     52430     52427     52425     52431
     52430     52427     52425     52432     52430     52427     52425     52433
     52440     52438     52436     52442     52440     52438     52436     52443
     52440     52438     52436     52444     52441     52438     52436     52442
     52441     52438     52436     52443     52441     52438     52436     52444
     52451     52449     52447     52453     52451     52449     52447     52454
     52451     52449     52447     52455     52452     52449     52447     52453
     52452     52449     52447     52454     52452     52449     52447     52455
     52462     52460     52458     52464     52462     52460     52458     52465
     52462     52460     52458     52466     52463     52460     52458     52464
     52463     52460     52458     52465     52463     52460     52458     52466
     52473     52471     52469     52475     52473     52471     52469     52476
     52473     52471     52469     52477     52474     52471     52469     52475
     52474     52471     52469     52476     52474     52471     52469     52477
     52484     52482     52480     52486     52484     52482     52480     52487
     52484     52482     52480     52488     52485     52482     52480     52486
     52485     52482     52480     52487     52485     52482     52480     52488
     52495     52493     52491     52497     52495     52493     52491     52498
     52495     52493     52491     52499     52496     52493     52491     52497
     52496     52493     52491     52498     52496     52493     52491     52499
     52506     52504     52502     52508     52506     52504     52502     52509
     52506     52504     52502     52510     52507     52504     52502     52508
     52507     52504     52502     52509     52507     52504     52502     52510
     52517     52515     52513     52519     52517     52515     52513     52520
     52517     52515     52513     52521     52518     52515     52513     52519
     52518     52515     52513     52520     52518     52515     52513     52521
     52528     52526     52524     52530     52528     52526     52524     52531
     52528     52526     52524     52532     52529     52526     52524     52530
     52529     52526     52524     52531     52529     52526     52524     52532
     52539     52537     52535     52541     52539     52537     52535     52542
     52539     52537     52535     52543     52540     52537     52535     52541
     52540     52537     52535     52542     52540     52537     52535     52543
     52550     52548     52546     52552     52550     52548     52546     52553
     52550     52548     52546     52554     52551     52548     52546     52552
     52551     52548     52546     52553     52551     52548     52546     52554
     52561     52559     52557     52563     52561     52559     52557     52564
     52561     52559     52557     52565     52562     52559     52557     52563
     52562     52559     52557     52564     52562     52559     52557     52565
     52572     52570     52568     52574     52572     52570     52568     52575
     52572     52570     52568     52576     52573     52570     52568     52574
     52573     52570     52568     52575     52573     52570     52568     52576
     52583     52581     52579     52585     52583     52581     52579     52586
     52583     52581     52579     52587     52584     52581     52579     52585
     52584     52581     52579     52586     52584     52581     52579     52587
     52594     52592     52590     52596     52594     52592     52590     52597
     52594     52592     52590     52598     52595     52592     52590     52596
     52595     52592     52590     52597     52595     52592     52590     52598
     52605     52603     52601     52607     52605     52603     52601     52608
     52605     52603     52601     52609     52606     52603     52601     52607
     52606     52603     52601     52608     52606     52603     52601     52609
     52616     52614     52612     52618     52616     52614     52612     52619
     52616     52614     52612     52620     52617     52614     52612     52618
     52617     52614     52612     52619     52617     52614     52612     52620
     52627     52625     52623     52629     52627     52625     52623     52630
     52627     52625     52623     52631     52628     52625     52623     52629
     52628     52625     52623     52630     52628     52625     52623     52631
     52638     52636     52634     52640     52638     52636     52634     52641
     52638     52636     52634     52642     52639     52636     52634     52640
     52639     52636     52634     52641     52639     52636     52634     52642
     52649     52647     52645     52651     52649     52647     52645     52652
     52649     52647     52645     52653     52650     52647     52645     52651
     52650     52647     52645     52652     52650     52647     52645     52653
     52660     52658     52656     52662     52660     52658     52656     52663
     52660     52658     52656     52664     52661     52658     52656     52662
     52661     52658     52656     52663     52661     52658     52656     52664
     52671     52669     52667     52673     52671     52669     52667     52674
     52671     52669     52667     52675     52672     52669     52667     52673
     52672     52669     52667     52674     52672     52669     52667     52675
     52682     52680     52678     52684     52682     52680     52678     52685
     52682     52680     52678     52686     52683     52680     52678     52684
     52683     52680     52678     52685     52683     52680     52678     52686
     52693     52691     52689     52695     52693     52691     52689     52696
     52693     52691     52689     52697     52694     52691     52689     52695
     52694     52691     52689     52696     52694     52691     52689     52697
     52704     52702     52700     52706     52704     52702     52700     52707
     52704     52702     52700     52708     52705     52702     52700     52706
     52705     52702     52700     52707     52705     52702     52700     52708
     52715     52713     52711     52717     52715     52713     52711     52718
     52715     52713     52711     52719     52716     52713     52711     52717
     52716     52713     52711     52718     52716     52713     52711     52719
     52726     52724     52722     52728     52726     52724     52722     52729
     52726     52724     52722     52730     52727     52724     52722     52728
     52727     52724     52722     52729     52727     52724     52722     52730
     52737     52735     52733     52739     52737     52735     52733     52740
     52737     52735     52733     52741     52738     52735     52733     52739
     52738     52735     52733     52740     52738     52735     52733     52741
     52748     52746     52744     52750     52748     52746     52744     52751
     52748     52746     52744     52752     52749     52746     52744     52750
     52749     52746     52744     52751     52749     52746     52744     52752
     52759     52757     52755     52761     52759     52757     52755     52762
     52759     52757     52755     52763     52760     52757     52755     52761
     52760     52757     52755     52762     52760     52757     52755     52763
     52770     52768     52766     52772     52770     52768     52766     52773
     52770     52768     52766     52774     52771     52768     52766     52772
     52771     52768     52766     52773     52771     52768     52766     52774
     52781     52779     52777     52783     52781     52779     52777     52784
     52781     52779     52777     52785     52782     52779     52777     52783
     52782     52779     52777     52784     52782     52779     52777     52785
     52792     52790     52788     52794     52792     52790     52788     52795
     52792     52790     52788     52796     52793     52790     52788     52794
     52793     52790     52788     52795     52793     52790     52788     52796
     52803     52801     52799     52805     52803     52801     52799     52806
     52803     52801     52799     52807     52804     52801     52799     52805
     52804     52801     52799     52806     52804     52801     52799     52807
     52814     52812     52810     52816     52814     52812     52810     52817
     52814     52812     52810     52818     52815     52812     52810     52816
     52815     52812     52810     52817     52815     52812     52810     52818
     52825     52823     52821     52827     52825     52823     52821     52828
     52825     52823     52821     52829     52826     52823     52821     52827
     52826     52823     52821     52828     52826     52823     52821     52829
     52836     52834     52832     52838     52836     52834     52832     52839
     52836     52834     52832     52840     52837     52834     52832     52838
     52837     52834     52832     52839     52837     52834     52832     52840
     52847     52845     52843     52849     52847     52845     52843     52850
     52847     52845     52843     52851     52848     52845     52843     52849
     52848     52845     52843     52850     52848     52845     52843     52851
     52858     52856     52854     52860     52858     52856     52854     52861
     52858     52856     52854     52862     52859     52856     52854     52860
     52859     52856     52854     52861     52859     52856     52854     52862
     52869     52867     52865     52871     52869     52867     52865     52872
     52869     52867     52865     52873     52870     52867     52865     52871
     52870     52867     52865     52872     52870     52867     52865     52873
     52880     52878     52876     52882     52880     52878     52876     52883
     52880     52878     52876     52884     52881     52878     52876     52882
     52881     52878     52876     52883     52881     52878     52876     52884
     52891     52889     52887     52893     52891     52889     52887     52894
     52891     52889     52887     52895     52892     52889     52887     52893
     52892     52889     52887     52894     52892     52889     52887     52895
     52902     52900     52898     52904     52902     52900     52898     52905
     52902     52900     52898     52906     52903     52900     52898     52904
     52903     52900     52898     52905     52903     52900     52898     52906
     52913     52911     52909     52915     52913     52911     52909     52916
     52913     52911     52909     52917     52914     52911     52909     52915
     52914     52911     52909     52916     52914     52911     52909     52917
     52924     52922     52920     52926     52924     52922     52920     52927
     52924     52922     52920     52928     52925     52922     52920     52926
     52925     52922     52920     52927     52925     52922     52920     52928
     52935     52933     52931     52937     52935     52933     52931     52938
     52935     52933     52931     52939     52936     52933     52931     52937
     52936     52933     52931     52938     52936     52933     52931     52939
     52946     52944     52942     52948     52946     52944     52942     52949
     52946     52944     52942     52950     52947     52944     52942     52948
     52947     52944     52942     52949     52947     52944     52942     52950
     52957     52955     52953     52959     52957     52955     52953     52960
     52957     52955     52953     52961     52958     52955     52953     52959
     52958     52955     52953     52960     52958     52955     52953     52961
     52968     52966     52964     52970     52968     52966     52964     52971
     52968     52966     52964     52972     52969     52966     52964     52970
     52969     52966     52964     52971     52969     52966     52964     52972
     52979     52977     52975     52981     52979     52977     52975     52982
     52979     52977     52975     52983     52980     52977     52975     52981
     52980     52977     52975     52982     52980     52977     52975     52983
     52990     52988     52986     52992     52990     52988     52986     52993
     52990     52988     52986     52994     52991     52988     52986     52992
     52991     52988     52986     52993     52991     52988     52986     52994
     53001     52999     52997     53003     53001     52999     52997     53004
     53001     52999     52997     53005     53002     52999     52997     53003
     53002     52999     52997     53004     53002     52999     52997     53005
     53012     53010     53008     53014     53012     53010     53008     53015
     53012     53010     53008     53016     53013     53010     53008     53014
     53013     53010     53008     53015     53013     53010     53008     53016
     53023     53021     53019     53025     53023     53021     53019     53026
     53023     53021     53019     53027     53024     53021     53019     53025
     53024     53021     53019     53026     53024     53021     53019     53027
     53034     53032     53030     53036     53034     53032     53030     53037
     53034     53032     53030     53038     53035     53032     53030     53036
     53035     53032     53030     53037     53035     53032     53030     53038
     53045     53043     53041     53047     53045     53043     53041     53048
     53045     53043     53041     53049     53046     53043     53041     53047
     53046     53043     53041     53048     53046     53043     53041     53049
     53056     53054     53052     53058     53056     53054     53052     53059
     53056     53054     53052     53060     53057     53054     53052     53058
     53057     53054     53052     53059     53057     53054     53052     53060
     53067     53065     53063     53069     53067     53065     53063     53070
     53067     53065     53063     53071     53068     53065     53063     53069
     53068     53065     53063     53070     53068     53065     53063     53071
     53078     53076     53074     53080     53078     53076     53074     53081
     53078     53076     53074     53082     53079     53076     53074     53080
     53079     53076     53074     53081     53079     53076     53074     53082
     53089     53087     53085     53091     53089     53087     53085     53092
     53089     53087     53085     53093     53090     53087     53085     53091
     53090     53087     53085     53092     53090     53087     53085     53093
     53100     53098     53096     53102     53100     53098     53096     53103
     53100     53098     53096     53104     53101     53098     53096     53102
     53101     53098     53096     53103     53101     53098     53096     53104
     53111     53109     53107     53113     53111     53109     53107     53114
     53111     53109     53107     53115     53112     53109     53107     53113
     53112     53109     53107     53114     53112     53109     53107     53115
     53122     53120     53118     53124     53122     53120     53118     53125
     53122     53120     53118     53126     53123     53120     53118     53124
     53123     53120     53118     53125     53123     53120     53118     53126
     53133     53131     53129     53135     53133     53131     53129     53136
     53133     53131     53129     53137     53134     53131     53129     53135
     53134     53131     53129     53136     53134     53131     53129     53137
     53144     53142     53140     53146     53144     53142     53140     53147
     53144     53142     53140     53148     53145     53142     53140     53146
     53145     53142     53140     53147     53145     53142     53140     53148
     53155     53153     53151     53157     53155     53153     53151     53158
     53155     53153     53151     53159     53156     53153     53151     53157
     53156     53153     53151     53158     53156     53153     53151     53159
     53166     53164     53162     53168     53166     53164     53162     53169
     53166     53164     53162     53170     53167     53164     53162     53168
     53167     53164     53162     53169     53167     53164     53162     53170
     53177     53175     53173     53179     53177     53175     53173     53180
     53177     53175     53173     53181     53178     53175     53173     53179
     53178     53175     53173     53180     53178     53175     53173     53181
     53188     53186     53184     53190     53188     53186     53184     53191
     53188     53186     53184     53192     53189     53186     53184     53190
     53189     53186     53184     53191     53189     53186     53184     53192
     53199     53197     53195     53201     53199     53197     53195     53202
     53199     53197     53195     53203     53200     53197     53195     53201
     53200     53197     53195     53202     53200     53197     53195     53203
     53210     53208     53206     53212     53210     53208     53206     53213
     53210     53208     53206     53214     53211     53208     53206     53212
     53211     53208     53206     53213     53211     53208     53206     53214
     53221     53219     53217     53223     53221     53219     53217     53224
     53221     53219     53217     53225     53222     53219     53217     53223
     53222     53219     53217     53224     53222     53219     53217     53225
     53232     53230     53228     53234     53232     53230     53228     53235
     53232     53230     53228     53236     53233     53230     53228     53234
     53233     53230     53228     53235     53233     53230     53228     53236
     53243     53241     53239     53245     53243     53241     53239     53246
     53243     53241     53239     53247     53244     53241     53239     53245
     53244     53241     53239     53246     53244     53241     53239     53247
     53254     53252     53250     53256     53254     53252     53250     53257
     53254     53252     53250     53258     53255     53252     53250     53256
     53255     53252     53250     53257     53255     53252     53250     53258
     53265     53263     53261     53267     53265     53263     53261     53268
     53265     53263     53261     53269     53266     53263     53261     53267
     53266     53263     53261     53268     53266     53263     53261     53269
     53276     53274     53272     53278     53276     53274     53272     53279
     53276     53274     53272     53280     53277     53274     53272     53278
     53277     53274     53272     53279     53277     53274     53272     53280
     53287     53285     53283     53289     53287     53285     53283     53290
     53287     53285     53283     53291     53288     53285     53283     53289
     53288     53285     53283     53290     53288     53285     53283     53291
     53298     53296     53294     53300     53298     53296     53294     53301
     53298     53296     53294     53302     53299     53296     53294     53300
     53299     53296     53294     53301     53299     53296     53294     53302
     53309     53307     53305     53311     53309     53307     53305     53312
     53309     53307     53305     53313     53310     53307     53305     53311
     53310     53307     53305     53312     53310     53307     53305     53313
     53320     53318     53316     53322     53320     53318     53316     53323
     53320     53318     53316     53324     53321     53318     53316     53322
     53321     53318     53316     53323     53321     53318     53316     53324
     53331     53329     53327     53333     53331     53329     53327     53334
     53331     53329     53327     53335     53332     53329     53327     53333
     53332     53329     53327     53334     53332     53329     53327     53335
     53342     53340     53338     53344     53342     53340     53338     53345
     53342     53340     53338     53346     53343     53340     53338     53344
     53343     53340     53338     53345     53343     53340     53338     53346
     53353     53351     53349     53355     53353     53351     53349     53356
     53353     53351     53349     53357     53354     53351     53349     53355
     53354     53351     53349     53356     53354     53351     53349     53357
     53364     53362     53360     53366     53364     53362     53360     53367
     53364     53362     53360     53368     53365     53362     53360     53366
     53365     53362     53360     53367     53365     53362     53360     53368
     53375     53373     53371     53377     53375     53373     53371     53378
     53375     53373     53371     53379     53376     53373     53371     53377
     53376     53373     53371     53378     53376     53373     53371     53379
     53386     53384     53382     53388     53386     53384     53382     53389
     53386     53384     53382     53390     53387     53384     53382     53388
     53387     53384     53382     53389     53387     53384     53382     53390
     53397     53395     53393     53399     53397     53395     53393     53400
     53397     53395     53393     53401     53398     53395     53393     53399
     53398     53395     53393     53400     53398     53395     53393     53401
     53408     53406     53404     53410     53408     53406     53404     53411
     53408     53406     53404     53412     53409     53406     53404     53410
     53409     53406     53404     53411     53409     53406     53404     53412
     53419     53417     53415     53421     53419     53417     53415     53422
     53419     53417     53415     53423     53420     53417     53415     53421
     53420     53417     53415     53422     53420     53417     53415     53423
     53430     53428     53426     53432     53430     53428     53426     53433
     53430     53428     53426     53434     53431     53428     53426     53432
     53431     53428     53426     53433     53431     53428     53426     53434
     53441     53439     53437     53443     53441     53439     53437     53444
     53441     53439     53437     53445     53442     53439     53437     53443
     53442     53439     53437     53444     53442     53439     53437     53445
     53452     53450     53448     53454     53452     53450     53448     53455
     53452     53450     53448     53456     53453     53450     53448     53454
     53453     53450     53448     53455     53453     53450     53448     53456
     53463     53461     53459     53465     53463     53461     53459     53466
     53463     53461     53459     53467     53464     53461     53459     53465
     53464     53461     53459     53466     53464     53461     53459     53467
     53474     53472     53470     53476     53474     53472     53470     53477
     53474     53472     53470     53478     53475     53472     53470     53476
     53475     53472     53470     53477     53475     53472     53470     53478
     53485     53483     53481     53487     53485     53483     53481     53488
     53485     53483     53481     53489     53486     53483     53481     53487
     53486     53483     53481     53488     53486     53483     53481     53489
     53496     53494     53492     53498     53496     53494     53492     53499
     53496     53494     53492     53500     53497     53494     53492     53498
     53497     53494     53492     53499     53497     53494     53492     53500
     53507     53505     53503     53509     53507     53505     53503     53510
     53507     53505     53503     53511     53508     53505     53503     53509
     53508     53505     53503     53510     53508     53505     53503     53511
     53518     53516     53514     53520     53518     53516     53514     53521
     53518     53516     53514     53522     53519     53516     53514     53520
     53519     53516     53514     53521     53519     53516     53514     53522
     53529     53527     53525     53531     53529     53527     53525     53532
     53529     53527     53525     53533     53530     53527     53525     53531
     53530     53527     53525     53532     53530     53527     53525     53533
     53540     53538     53536     53542     53540     53538     53536     53543
     53540     53538     53536     53544     53541     53538     53536     53542
     53541     53538     53536     53543     53541     53538     53536     53544
     53551     53549     53547     53553     53551     53549     53547     53554
     53551     53549     53547     53555     53552     53549     53547     53553
     53552     53549     53547     53554     53552     53549     53547     53555
     53562     53560     53558     53564     53562     53560     53558     53565
     53562     53560     53558     53566     53563     53560     53558     53564
     53563     53560     53558     53565     53563     53560     53558     53566
     53573     53571     53569     53575     53573     53571     53569     53576
     53573     53571     53569     53577     53574     53571     53569     53575
     53574     53571     53569     53576     53574     53571     53569     53577
     53584     53582     53580     53586     53584     53582     53580     53587
     53584     53582     53580     53588     53585     53582     53580     53586
     53585     53582     53580     53587     53585     53582     53580     53588
     53595     53593     53591     53597     53595     53593     53591     53598
     53595     53593     53591     53599     53596     53593     53591     53597
     53596     53593     53591     53598     53596     53593     53591     53599
     53606     53604     53602     53608     53606     53604     53602     53609
     53606     53604     53602     53610     53607     53604     53602     53608
     53607     53604     53602     53609     53607     53604     53602     53610
     53617     53615     53613     53619     53617     53615     53613     53620
     53617     53615     53613     53621     53618     53615     53613     53619
     53618     53615     53613     53620     53618     53615     53613     53621
     53628     53626     53624     53630     53628     53626     53624     53631
     53628     53626     53624     53632     53629     53626     53624     53630
     53629     53626     53624     53631     53629     53626     53624     53632
     53639     53637     53635     53641     53639     53637     53635     53642
     53639     53637     53635     53643     53640     53637     53635     53641
     53640     53637     53635     53642     53640     53637     53635     53643
     53650     53648     53646     53652     53650     53648     53646     53653
     53650     53648     53646     53654     53651     53648     53646     53652
     53651     53648     53646     53653     53651     53648     53646     53654
     53661     53659     53657     53663     53661     53659     53657     53664
     53661     53659     53657     53665     53662     53659     53657     53663
     53662     53659     53657     53664     53662     53659     53657     53665
     53672     53670     53668     53674     53672     53670     53668     53675
     53672     53670     53668     53676     53673     53670     53668     53674
     53673     53670     53668     53675     53673     53670     53668     53676
     53683     53681     53679     53685     53683     53681     53679     53686
     53683     53681     53679     53687     53684     53681     53679     53685
     53684     53681     53679     53686     53684     53681     53679     53687
     53694     53692     53690     53696     53694     53692     53690     53697
     53694     53692     53690     53698     53695     53692     53690     53696
     53695     53692     53690     53697     53695     53692     53690     53698
     53705     53703     53701     53707     53705     53703     53701     53708
     53705     53703     53701     53709     53706     53703     53701     53707
     53706     53703     53701     53708     53706     53703     53701     53709
     53716     53714     53712     53718     53716     53714     53712     53719
     53716     53714     53712     53720     53717     53714     53712     53718
     53717     53714     53712     53719     53717     53714     53712     53720
     53727     53725     53723     53729     53727     53725     53723     53730
     53727     53725     53723     53731     53728     53725     53723     53729
     53728     53725     53723     53730     53728     53725     53723     53731
     53738     53736     53734     53740     53738     53736     53734     53741
     53738     53736     53734     53742     53739     53736     53734     53740
     53739     53736     53734     53741     53739     53736     53734     53742
     53749     53747     53745     53751     53749     53747     53745     53752
     53749     53747     53745     53753     53750     53747     53745     53751
     53750     53747     53745     53752     53750     53747     53745     53753
     53760     53758     53756     53762     53760     53758     53756     53763
     53760     53758     53756     53764     53761     53758     53756     53762
     53761     53758     53756     53763     53761     53758     53756     53764
     53771     53769     53767     53773     53771     53769     53767     53774
     53771     53769     53767     53775     53772     53769     53767     53773
     53772     53769     53767     53774     53772     53769     53767     53775
     53782     53780     53778     53784     53782     53780     53778     53785
     53782     53780     53778     53786     53783     53780     53778     53784
     53783     53780     53778     53785     53783     53780     53778     53786
     53793     53791     53789     53795     53793     53791     53789     53796
     53793     53791     53789     53797     53794     53791     53789     53795
     53794     53791     53789     53796     53794     53791     53789     53797
     53804     53802     53800     53806     53804     53802     53800     53807
     53804     53802     53800     53808     53805     53802     53800     53806
     53805     53802     53800     53807     53805     53802     53800     53808
     53815     53813     53811     53817     53815     53813     53811     53818
     53815     53813     53811     53819     53816     53813     53811     53817
     53816     53813     53811     53818     53816     53813     53811     53819
     53826     53824     53822     53828     53826     53824     53822     53829
     53826     53824     53822     53830     53827     53824     53822     53828
     53827     53824     53822     53829     53827     53824     53822     53830
     53837     53835     53833     53839     53837     53835     53833     53840
     53837     53835     53833     53841     53838     53835     53833     53839
     53838     53835     53833     53840     53838     53835     53833     53841
     53848     53846     53844     53850     53848     53846     53844     53851
     53848     53846     53844     53852     53849     53846     53844     53850
     53849     53846     53844     53851     53849     53846     53844     53852
     53859     53857     53855     53861     53859     53857     53855     53862
     53859     53857     53855     53863     53860     53857     53855     53861
     53860     53857     53855     53862     53860     53857     53855     53863
     53870     53868     53866     53872     53870     53868     53866     53873
     53870     53868     53866     53874     53871     53868     53866     53872
     53871     53868     53866     53873     53871     53868     53866     53874
     53881     53879     53877     53883     53881     53879     53877     53884
     53881     53879     53877     53885     53882     53879     53877     53883
     53882     53879     53877     53884     53882     53879     53877     53885
     53892     53890     53888     53894     53892     53890     53888     53895
     53892     53890     53888     53896     53893     53890     53888     53894
     53893     53890     53888     53895     53893     53890     53888     53896
     53903     53901     53899     53905     53903     53901     53899     53906
     53903     53901     53899     53907     53904     53901     53899     53905
     53904     53901     53899     53906     53904     53901     53899     53907
     53914     53912     53910     53916     53914     53912     53910     53917
     53914     53912     53910     53918     53915     53912     53910     53916
     53915     53912     53910     53917     53915     53912     53910     53918
     53925     53923     53921     53927     53925     53923     53921     53928
     53925     53923     53921     53929     53926     53923     53921     53927
     53926     53923     53921     53928     53926     53923     53921     53929
     53936     53934     53932     53938     53936     53934     53932     53939
     53936     53934     53932     53940     53937     53934     53932     53938
     53937     53934     53932     53939     53937     53934     53932     53940
     53947     53945     53943     53949     53947     53945     53943     53950
     53947     53945     53943     53951     53948     53945     53943     53949
     53948     53945     53943     53950     53948     53945     53943     53951
     53958     53956     53954     53960     53958     53956     53954     53961
     53958     53956     53954     53962     53959     53956     53954     53960
     53959     53956     53954     53961     53959     53956     53954     53962
     53969     53967     53965     53971     53969     53967     53965     53972
     53969     53967     53965     53973     53970     53967     53965     53971
     53970     53967     53965     53972     53970     53967     53965     53973
     53980     53978     53976     53982     53980     53978     53976     53983
     53980     53978     53976     53984     53981     53978     53976     53982
     53981     53978     53976     53983     53981     53978     53976     53984
     53991     53989     53987     53993     53991     53989     53987     53994
     53991     53989     53987     53995     53992     53989     53987     53993
     53992     53989     53987     53994     53992     53989     53987     53995
     54002     54000     53998     54004     54002     54000     53998     54005
     54002     54000     53998     54006     54003     54000     53998     54004
     54003     54000     53998     54005     54003     54000     53998     54006
     54013     54011     54009     54015     54013     54011     54009     54016
     54013     54011     54009     54017     54014     54011     54009     54015
     54014     54011     54009     54016     54014     54011     54009     54017
     54024     54022     54020     54026     54024     54022     54020     54027
     54024     54022     54020     54028     54025     54022     54020     54026
     54025     54022     54020     54027     54025     54022     54020     54028
     54035     54033     54031     54037     54035     54033     54031     54038
     54035     54033     54031     54039     54036     54033     54031     54037
     54036     54033     54031     54038     54036     54033     54031     54039
     54046     54044     54042     54048     54046     54044     54042     54049
     54046     54044     54042     54050     54047     54044     54042     54048
     54047     54044     54042     54049     54047     54044     54042     54050
     54057     54055     54053     54059     54057     54055     54053     54060
     54057     54055     54053     54061     54058     54055     54053     54059
     54058     54055     54053     54060     54058     54055     54053     54061
     54068     54066     54064     54070     54068     54066     54064     54071
     54068     54066     54064     54072     54069     54066     54064     54070
     54069     54066     54064     54071     54069     54066     54064     54072
     54079     54077     54075     54081     54079     54077     54075     54082
     54079     54077     54075     54083     54080     54077     54075     54081
     54080     54077     54075     54082     54080     54077     54075     54083
     54090     54088     54086     54092     54090     54088     54086     54093
     54090     54088     54086     54094     54091     54088     54086     54092
     54091     54088     54086     54093     54091     54088     54086     54094
     54101     54099     54097     54103     54101     54099     54097     54104
     54101     54099     54097     54105     54102     54099     54097     54103
     54102     54099     54097     54104     54102     54099     54097     54105
     54112     54110     54108     54114     54112     54110     54108     54115
     54112     54110     54108     54116     54113     54110     54108     54114
     54113     54110     54108     54115     54113     54110     54108     54116
     54123     54121     54119     54125     54123     54121     54119     54126
     54123     54121     54119     54127     54124     54121     54119     54125
     54124     54121     54119     54126     54124     54121     54119     54127
     54134     54132     54130     54136     54134     54132     54130     54137
     54134     54132     54130     54138     54135     54132     54130     54136
     54135     54132     54130     54137     54135     54132     54130     54138
     54145     54143     54141     54147     54145     54143     54141     54148
     54145     54143     54141     54149     54146     54143     54141     54147
     54146     54143     54141     54148     54146     54143     54141     54149
     54156     54154     54152     54158     54156     54154     54152     54159
     54156     54154     54152     54160     54157     54154     54152     54158
     54157     54154     54152     54159     54157     54154     54152     54160
     54167     54165     54163     54169     54167     54165     54163     54170
     54167     54165     54163     54171     54168     54165     54163     54169
     54168     54165     54163     54170     54168     54165     54163     54171
     54178     54176     54174     54180     54178     54176     54174     54181
     54178     54176     54174     54182     54179     54176     54174     54180
     54179     54176     54174     54181     54179     54176     54174     54182
     54189     54187     54185     54191     54189     54187     54185     54192
     54189     54187     54185     54193     54190     54187     54185     54191
     54190     54187     54185     54192     54190     54187     54185     54193
     54200     54198     54196     54202     54200     54198     54196     54203
     54200     54198     54196     54204     54201     54198     54196     54202
     54201     54198     54196     54203     54201     54198     54196     54204
     54211     54209     54207     54213     54211     54209     54207     54214
     54211     54209     54207     54215     54212     54209     54207     54213
     54212     54209     54207     54214     54212     54209     54207     54215
     54222     54220     54218     54224     54222     54220     54218     54225
     54222     54220     54218     54226     54223     54220     54218     54224
     54223     54220     54218     54225     54223     54220     54218     54226
     54233     54231     54229     54235     54233     54231     54229     54236
     54233     54231     54229     54237     54234     54231     54229     54235
     54234     54231     54229     54236     54234     54231     54229     54237
     54244     54242     54240     54246     54244     54242     54240     54247
     54244     54242     54240     54248     54245     54242     54240     54246
     54245     54242     54240     54247     54245     54242     54240     54248
     54255     54253     54251     54257     54255     54253     54251     54258
     54255     54253     54251     54259     54256     54253     54251     54257
     54256     54253     54251     54258     54256     54253     54251     54259
     54266     54264     54262     54268     54266     54264     54262     54269
     54266     54264     54262     54270     54267     54264     54262     54268
     54267     54264     54262     54269     54267     54264     54262     54270
     54277     54275     54273     54279     54277     54275     54273     54280
     54277     54275     54273     54281     54278     54275     54273     54279
     54278     54275     54273     54280     54278     54275     54273     54281
     54288     54286     54284     54290     54288     54286     54284     54291
     54288     54286     54284     54292     54289     54286     54284     54290
     54289     54286     54284     54291     54289     54286     54284     54292
     54299     54297     54295     54301     54299     54297     54295     54302
     54299     54297     54295     54303     54300     54297     54295     54301
     54300     54297     54295     54302     54300     54297     54295     54303
     54310     54308     54306     54312     54310     54308     54306     54313
     54310     54308     54306     54314     54311     54308     54306     54312
     54311     54308     54306     54313     54311     54308     54306     54314
     54321     54319     54317     54323     54321     54319     54317     54324
     54321     54319     54317     54325     54322     54319     54317     54323
     54322     54319     54317     54324     54322     54319     54317     54325
     54332     54330     54328     54334     54332     54330     54328     54335
     54332     54330     54328     54336     54333     54330     54328     54334
     54333     54330     54328     54335     54333     54330     54328     54336
     54343     54341     54339     54345     54343     54341     54339     54346
     54343     54341     54339     54347     54344     54341     54339     54345
     54344     54341     54339     54346     54344     54341     54339     54347
     54354     54352     54350     54356     54354     54352     54350     54357
     54354     54352     54350     54358     54355     54352     54350     54356
     54355     54352     54350     54357     54355     54352     54350     54358
     54365     54363     54361     54367     54365     54363     54361     54368
     54365     54363     54361     54369     54366     54363     54361     54367
     54366     54363     54361     54368     54366     54363     54361     54369
     54376     54374     54372     54378     54376     54374     54372     54379
     54376     54374     54372     54380     54377     54374     54372     54378
     54377     54374     54372     54379     54377     54374     54372     54380
     54387     54385     54383     54389     54387     54385     54383     54390
     54387     54385     54383     54391     54388     54385     54383     54389
     54388     54385     54383     54390     54388     54385     54383     54391
     54398     54396     54394     54400     54398     54396     54394     54401
     54398     54396     54394     54402     54399     54396     54394     54400
     54399     54396     54394     54401     54399     54396     54394     54402
     54409     54407     54405     54411     54409     54407     54405     54412
     54409     54407     54405     54413     54410     54407     54405     54411
     54410     54407     54405     54412     54410     54407     54405     54413
     54420     54418     54416     54422     54420     54418     54416     54423
     54420     54418     54416     54424     54421     54418     54416     54422
     54421     54418     54416     54423     54421     54418     54416     54424
     54431     54429     54427     54433     54431     54429     54427     54434
     54431     54429     54427     54435     54432     54429     54427     54433
     54432     54429     54427     54434     54432     54429     54427     54435
     54442     54440     54438     54444     54442     54440     54438     54445
     54442     54440     54438     54446     54443     54440     54438     54444
     54443     54440     54438     54445     54443     54440     54438     54446
     54453     54451     54449     54455     54453     54451     54449     54456
     54453     54451     54449     54457     54454     54451     54449     54455
     54454     54451     54449     54456     54454     54451     54449     54457
     54464     54462     54460     54466     54464     54462     54460     54467
     54464     54462     54460     54468     54465     54462     54460     54466
     54465     54462     54460     54467     54465     54462     54460     54468
     54475     54473     54471     54477     54475     54473     54471     54478
     54475     54473     54471     54479     54476     54473     54471     54477
     54476     54473     54471     54478     54476     54473     54471     54479
     54486     54484     54482     54488     54486     54484     54482     54489
     54486     54484     54482     54490     54487     54484     54482     54488
     54487     54484     54482     54489     54487     54484     54482     54490
     54497     54495     54493     54499     54497     54495     54493     54500
     54497     54495     54493     54501     54498     54495     54493     54499
     54498     54495     54493     54500     54498     54495     54493     54501
     54508     54506     54504     54510     54508     54506     54504     54511
     54508     54506     54504     54512     54509     54506     54504     54510
     54509     54506     54504     54511     54509     54506     54504     54512
     54519     54517     54515     54521     54519     54517     54515     54522
     54519     54517     54515     54523     54520     54517     54515     54521
     54520     54517     54515     54522     54520     54517     54515     54523
     54530     54528     54526     54532     54530     54528     54526     54533
     54530     54528     54526     54534     54531     54528     54526     54532
     54531     54528     54526     54533     54531     54528     54526     54534
     54541     54539     54537     54543     54541     54539     54537     54544
     54541     54539     54537     54545     54542     54539     54537     54543
     54542     54539     54537     54544     54542     54539     54537     54545
     54552     54550     54548     54554     54552     54550     54548     54555
     54552     54550     54548     54556     54553     54550     54548     54554
     54553     54550     54548     54555     54553     54550     54548     54556
     54563     54561     54559     54565     54563     54561     54559     54566
     54563     54561     54559     54567     54564     54561     54559     54565
     54564     54561     54559     54566     54564     54561     54559     54567
     54574     54572     54570     54576     54574     54572     54570     54577
     54574     54572     54570     54578     54575     54572     54570     54576
     54575     54572     54570     54577     54575     54572     54570     54578
     54585     54583     54581     54587     54585     54583     54581     54588
     54585     54583     54581     54589     54586     54583     54581     54587
     54586     54583     54581     54588     54586     54583     54581     54589
     54596     54594     54592     54598     54596     54594     54592     54599
     54596     54594     54592     54600     54597     54594     54592     54598
     54597     54594     54592     54599     54597     54594     54592     54600
     54607     54605     54603     54609     54607     54605     54603     54610
     54607     54605     54603     54611     54608     54605     54603     54609
     54608     54605     54603     54610     54608     54605     54603     54611
     54618     54616     54614     54620     54618     54616     54614     54621
     54618     54616     54614     54622     54619     54616     54614     54620
     54619     54616     54614     54621     54619     54616     54614     54622
     54629     54627     54625     54631     54629     54627     54625     54632
     54629     54627     54625     54633     54630     54627     54625     54631
     54630     54627     54625     54632     54630     54627     54625     54633
     54640     54638     54636     54642     54640     54638     54636     54643
     54640     54638     54636     54644     54641     54638     54636     54642
     54641     54638     54636     54643     54641     54638     54636     54644
     54651     54649     54647     54653     54651     54649     54647     54654
     54651     54649     54647     54655     54652     54649     54647     54653
     54652     54649     54647     54654     54652     54649     54647     54655
     54662     54660     54658     54664     54662     54660     54658     54665
     54662     54660     54658     54666     54663     54660     54658     54664
     54663     54660     54658     54665     54663     54660     54658     54666
     54673     54671     54669     54675     54673     54671     54669     54676
     54673     54671     54669     54677     54674     54671     54669     54675
     54674     54671     54669     54676     54674     54671     54669     54677
     54684     54682     54680     54686     54684     54682     54680     54687
     54684     54682     54680     54688     54685     54682     54680     54686
     54685     54682     54680     54687     54685     54682     54680     54688
     54695     54693     54691     54697     54695     54693     54691     54698
     54695     54693     54691     54699     54696     54693     54691     54697
     54696     54693     54691     54698     54696     54693     54691     54699
     54706     54704     54702     54708     54706     54704     54702     54709
     54706     54704     54702     54710     54707     54704     54702     54708
     54707     54704     54702     54709     54707     54704     54702     54710
     54717     54715     54713     54719     54717     54715     54713     54720
     54717     54715     54713     54721     54718     54715     54713     54719
     54718     54715     54713     54720     54718     54715     54713     54721
     54728     54726     54724     54730     54728     54726     54724     54731
     54728     54726     54724     54732     54729     54726     54724     54730
     54729     54726     54724     54731     54729     54726     54724     54732
     54739     54737     54735     54741     54739     54737     54735     54742
     54739     54737     54735     54743     54740     54737     54735     54741
     54740     54737     54735     54742     54740     54737     54735     54743
     54750     54748     54746     54752     54750     54748     54746     54753
     54750     54748     54746     54754     54751     54748     54746     54752
     54751     54748     54746     54753     54751     54748     54746     54754
     54761     54759     54757     54763     54761     54759     54757     54764
     54761     54759     54757     54765     54762     54759     54757     54763
     54762     54759     54757     54764     54762     54759     54757     54765
     54772     54770     54768     54774     54772     54770     54768     54775
     54772     54770     54768     54776     54773     54770     54768     54774
     54773     54770     54768     54775     54773     54770     54768     54776
     54783     54781     54779     54785     54783     54781     54779     54786
     54783     54781     54779     54787     54784     54781     54779     54785
     54784     54781     54779     54786     54784     54781     54779     54787
     54794     54792     54790     54796     54794     54792     54790     54797
     54794     54792     54790     54798     54795     54792     54790     54796
     54795     54792     54790     54797     54795     54792     54790     54798
     54805     54803     54801     54807     54805     54803     54801     54808
     54805     54803     54801     54809     54806     54803     54801     54807
     54806     54803     54801     54808     54806     54803     54801     54809
     54816     54814     54812     54818     54816     54814     54812     54819
     54816     54814     54812     54820     54817     54814     54812     54818
     54817     54814     54812     54819     54817     54814     54812     54820
     54827     54825     54823     54829     54827     54825     54823     54830
     54827     54825     54823     54831     54828     54825     54823     54829
     54828     54825     54823     54830     54828     54825     54823     54831
     54838     54836     54834     54840     54838     54836     54834     54841
     54838     54836     54834     54842     54839     54836     54834     54840
     54839     54836     54834     54841     54839     54836     54834     54842
     54849     54847     54845     54851     54849     54847     54845     54852
     54849     54847     54845     54853     54850     54847     54845     54851
     54850     54847     54845     54852     54850     54847     54845     54853
     54860     54858     54856     54862     54860     54858     54856     54863
     54860     54858     54856     54864     54861     54858     54856     54862
     54861     54858     54856     54863     54861     54858     54856     54864
     54871     54869     54867     54873     54871     54869     54867     54874
     54871     54869     54867     54875     54872     54869     54867     54873
     54872     54869     54867     54874     54872     54869     54867     54875
     54882     54880     54878     54884     54882     54880     54878     54885
     54882     54880     54878     54886     54883     54880     54878     54884
     54883     54880     54878     54885     54883     54880     54878     54886
     54893     54891     54889     54895     54893     54891     54889     54896
     54893     54891     54889     54897     54894     54891     54889     54895
     54894     54891     54889     54896     54894     54891     54889     54897
     54904     54902     54900     54906     54904     54902     54900     54907
     54904     54902     54900     54908     54905     54902     54900     54906
     54905     54902     54900     54907     54905     54902     54900     54908
     54915     54913     54911     54917     54915     54913     54911     54918
     54915     54913     54911     54919     54916     54913     54911     54917
     54916     54913     54911     54918     54916     54913     54911     54919
     54926     54924     54922     54928     54926     54924     54922     54929
     54926     54924     54922     54930     54927     54924     54922     54928
     54927     54924     54922     54929     54927     54924     54922     54930
     54937     54935     54933     54939     54937     54935     54933     54940
     54937     54935     54933     54941     54938     54935     54933     54939
     54938     54935     54933     54940     54938     54935     54933     54941
     54948     54946     54944     54950     54948     54946     54944     54951
     54948     54946     54944     54952     54949     54946     54944     54950
     54949     54946     54944     54951     54949     54946     54944     54952
     54959     54957     54955     54961     54959     54957     54955     54962
     54959     54957     54955     54963     54960     54957     54955     54961
     54960     54957     54955     54962     54960     54957     54955     54963
     54970     54968     54966     54972     54970     54968     54966     54973
     54970     54968     54966     54974     54971     54968     54966     54972
     54971     54968     54966     54973     54971     54968     54966     54974
     54981     54979     54977     54983     54981     54979     54977     54984
     54981     54979     54977     54985     54982     54979     54977     54983
     54982     54979     54977     54984     54982     54979     54977     54985
     54992     54990     54988     54994     54992     54990     54988     54995
     54992     54990     54988     54996     54993     54990     54988     54994
     54993     54990     54988     54995     54993     54990     54988     54996
     55003     55001     54999     55005     55003     55001     54999     55006
     55003     55001     54999     55007     55004     55001     54999     55005
     55004     55001     54999     55006     55004     55001     54999     55007
     55014     55012     55010     55016     55014     55012     55010     55017
     55014     55012     55010     55018     55015     55012     55010     55016
     55015     55012     55010     55017     55015     55012     55010     55018
     55025     55023     55021     55027     55025     55023     55021     55028
     55025     55023     55021     55029     55026     55023     55021     55027
     55026     55023     55021     55028     55026     55023     55021     55029
     55036     55034     55032     55038     55036     55034     55032     55039
     55036     55034     55032     55040     55037     55034     55032     55038
     55037     55034     55032     55039     55037     55034     55032     55040
     55047     55045     55043     55049     55047     55045     55043     55050
     55047     55045     55043     55051     55048     55045     55043     55049
     55048     55045     55043     55050     55048     55045     55043     55051
     55058     55056     55054     55060     55058     55056     55054     55061
     55058     55056     55054     55062     55059     55056     55054     55060
     55059     55056     55054     55061     55059     55056     55054     55062
     55069     55067     55065     55071     55069     55067     55065     55072
     55069     55067     55065     55073     55070     55067     55065     55071
     55070     55067     55065     55072     55070     55067     55065     55073
     55080     55078     55076     55082     55080     55078     55076     55083
     55080     55078     55076     55084     55081     55078     55076     55082
     55081     55078     55076     55083     55081     55078     55076     55084
     55091     55089     55087     55093     55091     55089     55087     55094
     55091     55089     55087     55095     55092     55089     55087     55093
     55092     55089     55087     55094     55092     55089     55087     55095
     55102     55100     55098     55104     55102     55100     55098     55105
     55102     55100     55098     55106     55103     55100     55098     55104
     55103     55100     55098     55105     55103     55100     55098     55106
     55113     55111     55109     55115     55113     55111     55109     55116
     55113     55111     55109     55117     55114     55111     55109     55115
     55114     55111     55109     55116     55114     55111     55109     55117
     55124     55122     55120     55126     55124     55122     55120     55127
     55124     55122     55120     55128     55125     55122     55120     55126
     55125     55122     55120     55127     55125     55122     55120     55128
     55135     55133     55131     55137     55135     55133     55131     55138
     55135     55133     55131     55139     55136     55133     55131     55137
     55136     55133     55131     55138     55136     55133     55131     55139
     55146     55144     55142     55148     55146     55144     55142     55149
     55146     55144     55142     55150     55147     55144     55142     55148
     55147     55144     55142     55149     55147     55144     55142     55150
     55157     55155     55153     55159     55157     55155     55153     55160
     55157     55155     55153     55161     55158     55155     55153     55159
     55158     55155     55153     55160     55158     55155     55153     55161
     55168     55166     55164     55170     55168     55166     55164     55171
     55168     55166     55164     55172     55169     55166     55164     55170
     55169     55166     55164     55171     55169     55166     55164     55172
     55179     55177     55175     55181     55179     55177     55175     55182
     55179     55177     55175     55183     55180     55177     55175     55181
     55180     55177     55175     55182     55180     55177     55175     55183

      2130 !NIMPHI: impropers
         8        11         6        10        11         8        17        13
        14         6        17        16        17        14        11        19
         6        14         8         1        28        31        26        30
        31        28        37        33        34        26        37        36
        37        34        31        39        26        34        28        21
        48        51        46        50        51        48        57        53
        54        46        57        56        57        54        51        59
        46        54        48        41        68        71        66        70
        71        68        77        73        74        66        77        76
        77        74        71        79        66        74        68        61
        88        91        86        90        91        88        97        93
        94        86        97        96        97        94        91        99
        86        94        88        81       108       111       106       110
       111       108       117       113       114       106       117       116
       117       114       111       119       106       114       108       101
       128       131       126       130       131       128       137       133
       134       126       137       136       137       134       131       139
       126       134       128       121       148       151       146       150
       151       148       157       153       154       146       157       156
       157       154       151       159       146       154       148       141
       168       171       166       170       171       168       177       173
       174       166       177       176       177       174       171       179
       166       174       168       161       188       191       186       190
       191       188       197       193       194       186       197       196
       197       194       191       199       186       194       188       181
       208       211       206       210       211       208       217       213
       214       206       217       216       217       214       211       219
       206       214       208       201       228       231       226       230
       231       228       237       233       234       226       237       236
       237       234       231       239       226       234       228       221
       248       251       246       250       251       248       257       253
       254       246       257       256       257       254       251       259
       246       254       248       241       268       271       266       270
       271       268       277       273       274       266       277       276
       277       274       271       279       266       274       268       261
       288       291       286       290       291       288       297       293
       294       286       297       296       297       294       291       299
       286       294       288       281       308       311       306       310
       311       308       317       313       314       306       317       316
       317       314       311       319       306       314       308       301
       328       331       326       330       331       328       337       333
       334       326       337       336       337       334       331       339
       326       334       328       321       348       351       346       350
       351       348       357       353       354       346       357       356
       357       354       351       359       346       354       348       341
       368       371       366       370       371       368       377       373
       374       366       377       376       377       374       371       379
       366       374       368       361       388       391       386       390
       391       388       397       393       394       386       397       396
       397       394       391       399       386       394       388       381
       408       411       406       410       411       408       417       413
       414       406       417       416       417       414       411       419
       406       414       408       401       428       431       426       430
       431       428       437       433       434       426       437       436
       437       434       431       439       426       434       428       421
       448       451       446       450       451       448       457       453
       454       446       457       456       457       454       451       459
       446       454       448       441       468       471       466       470
       471       468       477       473       474       466       477       476
       477       474       471       479       466       474       468       461
       488       491       486       490       491       488       497       493
       494       486       497       496       497       494       491       499
       486       494       488       481       508       511       506       510
       511       508       517       513       514       506       517       516
       517       514       511       519       506       514       508       501
       528       531       526       530       531       528       537       533
       534       526       537       536       537       534       531       539
       526       534       528       521       548       551       546       550
       551       548       557       553       554       546       557       556
       557       554       551       559       546       554       548       541
       568       571       566       570       571       568       577       573
       574       566       577       576       577       574       571       579
       566       574       568       561       588       591       586       590
       591       588       597       593       594       586       597       596
       597       594       591       599       586       594       588       581
       608       611       606       610       611       608       617       613
       614       606       617       616       617       614       611       619
       606       614       608       601       628       631       626       630
       631       628       637       633       634       626       637       636
       637       634       631       639       626       634       628       621
       648       651       646       650       651       648       657       653
       654       646       657       656       657       654       651       659
       646       654       648       641       668       671       666       670
       671       668       677       673       674       666       677       676
       677       674       671       679       666       674       668       661
       688       691       686       690       691       688       697       693
       694       686       697       696       697       694       691       699
       686       694       688       681       708       711       706       710
       711       708       717       713       714       706       717       716
       717       714       711       719       706       714       708       701
       728       731       726       730       731       728       737       733
       734       726       737       736       737       734       731       739
       726       734       728       721       748       751       746       750
       751       748       757       753       754       746       757       756
       757       754       751       759       746       754       748       741
       768       771       766       770       771       768       777       773
       774       766       777       776       777       774       771       779
       766       774       768       761       788       791       786       790
       791       788       797       793       794       786       797       796
       797       794       791       799       786       794       788       781
       808       811       806       810       811       808       817       813
       814       806       817       816       817       814       811       819
       806       814       808       801       828       831       826       830
       831       828       837       833       834       826       837       836
       837       834       831       839       826       834       828       821
       848       851       846       850       851       848       857       853
       854       846       857       856       857       854       851       859
       846       854       848       841       868       871       866       870
       871       868       877       873       874       866       877       876
       877       874       871       879       866       874       868       861
       888       891       886       890       891       888       897       893
       894       886       897       896       897       894       891       899
       886       894       888       881       908       911       906       910
       911       908       917       913       914       906       917       916
       917       914       911       919       906       914       908       901
       928       931       926       930       931       928       937       933
       934       926       937       936       937       934       931       939
       926       934       928       921       948       951       946       950
       951       948       957       953       954       946       957       956
       957       954       951       959       946       954       948       941
       968       971       966       970       971       968       977       973
       974       966       977       976       977       974       971       979
       966       974       968       961       988       991       986       990
       991       988       997       993       994       986       997       996
       997       994       991       999       986       994       988       981
      1008      1011      1006      1010      1011      1008      1017      1013
      1014      1006      1017      1016      1017      1014      1011      1019
      1006      1014      1008      1001      1028      1031      1026      1030
      1031      1028      1037      1033      1034      1026      1037      1036
      1037      1034      1031      1039      1026      1034      1028      1021
      1048      1051      1046      1050      1051      1048      1057      1053
      1054      1046      1057      1056      1057      1054      1051      1059
      1046      1054      1048      1041      1068      1071      1066      1070
      1071      1068      1077      1073      1074      1066      1077      1076
      1077      1074      1071      1079      1066      1074      1068      1061
      1088      1091      1086      1090      1091      1088      1097      1093
      1094      1086      1097      1096      1097      1094      1091      1099
      1086      1094      1088      1081      1108      1111      1106      1110
      1111      1108      1117      1113      1114      1106      1117      1116
      1117      1114      1111      1119      1106      1114      1108      1101
      1128      1131      1126      1130      1131      1128      1137      1133
      1134      1126      1137      1136      1137      1134      1131      1139
      1126      1134      1128      1121      1148      1151      1146      1150
      1151      1148      1157      1153      1154      1146      1157      1156
      1157      1154      1151      1159      1146      1154      1148      1141
      1168      1171      1166      1170      1171      1168      1177      1173
      1174      1166      1177      1176      1177      1174      1171      1179
      1166      1174      1168      1161      1188      1191      1186      1190
      1191      1188      1197      1193      1194      1186      1197      1196
      1197      1194      1191      1199      1186      1194      1188      1181
      1208      1211      1206      1210      1211      1208      1217      1213
      1214      1206      1217      1216      1217      1214      1211      1219
      1206      1214      1208      1201      1228      1231      1226      1230
      1231      1228      1237      1233      1234      1226      1237      1236
      1237      1234      1231      1239      1226      1234      1228      1221
      1248      1251      1246      1250      1251      1248      1257      1253
      1254      1246      1257      1256      1257      1254      1251      1259
      1246      1254      1248      1241      1268      1271      1266      1270
      1271      1268      1277      1273      1274      1266      1277      1276
      1277      1274      1271      1279      1266      1274      1268      1261
      1288      1291      1286      1290      1291      1288      1297      1293
      1294      1286      1297      1296      1297      1294      1291      1299
      1286      1294      1288      1281      1308      1311      1306      1310
      1311      1308      1317      1313      1314      1306      1317      1316
      1317      1314      1311      1319      1306      1314      1308      1301
      1328      1331      1326      1330      1331      1328      1337      1333
      1334      1326      1337      1336      1337      1334      1331      1339
      1326      1334      1328      1321      1348      1351      1346      1350
      1351      1348      1357      1353      1354      1346      1357      1356
      1357      1354      1351      1359      1346      1354      1348      1341
      1368      1371      1366      1370      1371      1368      1377      1373
      1374      1366      1377      1376      1377      1374      1371      1379
      1366      1374      1368      1361      1388      1391      1386      1390
      1391      1388      1397      1393      1394      1386      1397      1396
      1397      1394      1391      1399      1386      1394      1388      1381
      1408      1411      1406      1410      1411      1408      1417      1413
      1414      1406      1417      1416      1417      1414      1411      1419
      1406      1414      1408      1401      1428      1431      1426      1430
      1431      1428      1437      1433      1434      1426      1437      1436
      1437      1434      1431      1439      1426      1434      1428      1421
      1448      1451      1446      1450      1451      1448      1457      1453
      1454      1446      1457      1456      1457      1454      1451      1459
      1446      1454      1448      1441      1468      1471      1466      1470
      1471      1468      1477      1473      1474      1466      1477      1476
      1477      1474      1471      1479      1466      1474      1468      1461
      1488      1491      1486      1490      1491      1488      1497      1493
      1494      1486      1497      1496      1497      1494      1491      1499
      1486      1494      1488      1481      1508      1511      1506      1510
      1511      1508      1517      1513      1514      1506      1517      1516
      1517      1514      1511      1519      1506      1514      1508      1501
      1528      1531      1526      1530      1531      1528      1537      1533
      1534      1526      1537      1536      1537      1534      1531      1539
      1526      1534      1528      1521      1548      1551      1546      1550
      1551      1548      1557      1553      1554      1546      1557      1556
      1557      1554      1551      1559      1546      1554      1548      1541
      1568      1571      1566      1570      1571      1568      1577      1573
      1574      1566      1577      1576      1577      1574      1571      1579
      1566      1574      1568      1561      1588      1591      1586      1590
      1591      1588      1597      1593      1594      1586      1597      1596
      1597      1594      1591      1599      1586      1594      1588      1581
      1608      1611      1606      1610      1611      1608      1617      1613
      1614      1606      1617      1616      1617      1614      1611      1619
      1606      1614      1608      1601      1628      1631      1626      1630
      1631      1628      1637      1633      1634      1626      1637      1636
      1637      1634      1631      1639      1626      1634      1628      1621
      1648      1651      1646      1650      1651      1648      1657      1653
      1654      1646      1657      1656      1657      1654      1651      1659
      1646      1654      1648      1641      1668      1671      1666      1670
      1671      1668      1677      1673      1674      1666      1677      1676
      1677      1674      1671      1679      1666      1674      1668      1661
      1688      1691      1686      1690      1691      1688      1697      1693
      1694      1686      1697      1696      1697      1694      1691      1699
      1686      1694      1688      1681      1708      1711      1706      1710
      1711      1708      1717      1713      1714      1706      1717      1716
      1717      1714      1711      1719      1706      1714      1708      1701
      1728      1731      1726      1730      1731      1728      1737      1733
      1734      1726      1737      1736      1737      1734      1731      1739
      1726      1734      1728      1721      1748      1751      1746      1750
      1751      1748      1757      1753      1754      1746      1757      1756
      1757      1754      1751      1759      1746      1754      1748      1741
      1768      1771      1766      1770      1771      1768      1777      1773
      1774      1766      1777      1776      1777      1774      1771      1779
      1766      1774      1768      1761      1788      1791      1786      1790
      1791      1788      1797      1793      1794      1786      1797      1796
      1797      1794      1791      1799      1786      1794      1788      1781
      1808      1811      1806      1810      1811      1808      1817      1813
      1814      1806      1817      1816      1817      1814      1811      1819
      1806      1814      1808      1801      1828      1831      1826      1830
      1831      1828      1837      1833      1834      1826      1837      1836
      1837      1834      1831      1839      1826      1834      1828      1821
      1848      1851      1846      1850      1851      1848      1857      1853
      1854      1846      1857      1856      1857      1854      1851      1859
      1846      1854      1848      1841      1868      1871      1866      1870
      1871      1868      1877      1873      1874      1866      1877      1876
      1877      1874      1871      1879      1866      1874      1868      1861
      1888      1891      1886      1890      1891      1888      1897      1893
      1894      1886      1897      1896      1897      1894      1891      1899
      1886      1894      1888      1881      1908      1911      1906      1910
      1911      1908      1917      1913      1914      1906      1917      1916
      1917      1914      1911      1919      1906      1914      1908      1901
      1928      1931      1926      1930      1931      1928      1937      1933
      1934      1926      1937      1936      1937      1934      1931      1939
      1926      1934      1928      1921      1948      1951      1946      1950
      1951      1948      1957      1953      1954      1946      1957      1956
      1957      1954      1951      1959      1946      1954      1948      1941
      1968      1971      1966      1970      1971      1968      1977      1973
      1974      1966      1977      1976      1977      1974      1971      1979
      1966      1974      1968      1961      1988      1991      1986      1990
      1991      1988      1997      1993      1994      1986      1997      1996
      1997      1994      1991      1999      1986      1994      1988      1981
      2008      2011      2006      2010      2011      2008      2017      2013
      2014      2006      2017      2016      2017      2014      2011      2019
      2006      2014      2008      2001      2028      2031      2026      2030
      2031      2028      2037      2033      2034      2026      2037      2036
      2037      2034      2031      2039      2026      2034      2028      2021
      2048      2051      2046      2050      2051      2048      2057      2053
      2054      2046      2057      2056      2057      2054      2051      2059
      2046      2054      2048      2041      2068      2071      2066      2070
      2071      2068      2077      2073      2074      2066      2077      2076
      2077      2074      2071      2079      2066      2074      2068      2061
      2088      2091      2086      2090      2091      2088      2097      2093
      2094      2086      2097      2096      2097      2094      2091      2099
      2086      2094      2088      2081      2108      2111      2106      2110
      2111      2108      2117      2113      2114      2106      2117      2116
      2117      2114      2111      2119      2106      2114      2108      2101
      2128      2131      2126      2130      2131      2128      2137      2133
      2134      2126      2137      2136      2137      2134      2131      2139
      2126      2134      2128      2121      2148      2151      2146      2150
      2151      2148      2157      2153      2154      2146      2157      2156
      2157      2154      2151      2159      2146      2154      2148      2141
      2168      2171      2166      2170      2171      2168      2177      2173
      2174      2166      2177      2176      2177      2174      2171      2179
      2166      2174      2168      2161      2188      2191      2186      2190
      2191      2188      2197      2193      2194      2186      2197      2196
      2197      2194      2191      2199      2186      2194      2188      2181
      2208      2211      2206      2210      2211      2208      2217      2213
      2214      2206      2217      2216      2217      2214      2211      2219
      2206      2214      2208      2201      2228      2231      2226      2230
      2231      2228      2237      2233      2234      2226      2237      2236
      2237      2234      2231      2239      2226      2234      2228      2221
      2248      2251      2246      2250      2251      2248      2257      2253
      2254      2246      2257      2256      2257      2254      2251      2259
      2246      2254      2248      2241      2268      2271      2266      2270
      2271      2268      2277      2273      2274      2266      2277      2276
      2277      2274      2271      2279      2266      2274      2268      2261
      2288      2291      2286      2290      2291      2288      2297      2293
      2294      2286      2297      2296      2297      2294      2291      2299
      2286      2294      2288      2281      2308      2311      2306      2310
      2311      2308      2317      2313      2314      2306      2317      2316
      2317      2314      2311      2319      2306      2314      2308      2301
      2328      2331      2326      2330      2331      2328      2337      2333
      2334      2326      2337      2336      2337      2334      2331      2339
      2326      2334      2328      2321      2348      2351      2346      2350
      2351      2348      2357      2353      2354      2346      2357      2356
      2357      2354      2351      2359      2346      2354      2348      2341
      2368      2371      2366      2370      2371      2368      2377      2373
      2374      2366      2377      2376      2377      2374      2371      2379
      2366      2374      2368      2361      2388      2391      2386      2390
      2391      2388      2397      2393      2394      2386      2397      2396
      2397      2394      2391      2399      2386      2394      2388      2381
      2408      2411      2406      2410      2411      2408      2417      2413
      2414      2406      2417      2416      2417      2414      2411      2419
      2406      2414      2408      2401      2428      2431      2426      2430
      2431      2428      2437      2433      2434      2426      2437      2436
      2437      2434      2431      2439      2426      2434      2428      2421
      2448      2451      2446      2450      2451      2448      2457      2453
      2454      2446      2457      2456      2457      2454      2451      2459
      2446      2454      2448      2441      2468      2471      2466      2470
      2471      2468      2477      2473      2474      2466      2477      2476
      2477      2474      2471      2479      2466      2474      2468      2461
      2488      2491      2486      2490      2491      2488      2497      2493
      2494      2486      2497      2496      2497      2494      2491      2499
      2486      2494      2488      2481      2508      2511      2506      2510
      2511      2508      2517      2513      2514      2506      2517      2516
      2517      2514      2511      2519      2506      2514      2508      2501
      2528      2531      2526      2530      2531      2528      2537      2533
      2534      2526      2537      2536      2537      2534      2531      2539
      2526      2534      2528      2521      2548      2551      2546      2550
      2551      2548      2557      2553      2554      2546      2557      2556
      2557      2554      2551      2559      2546      2554      2548      2541
      2568      2571      2566      2570      2571      2568      2577      2573
      2574      2566      2577      2576      2577      2574      2571      2579
      2566      2574      2568      2561      2588      2591      2586      2590
      2591      2588      2597      2593      2594      2586      2597      2596
      2597      2594      2591      2599      2586      2594      2588      2581
      2608      2611      2606      2610      2611      2608      2617      2613
      2614      2606      2617      2616      2617      2614      2611      2619
      2606      2614      2608      2601      2628      2631      2626      2630
      2631      2628      2637      2633      2634      2626      2637      2636
      2637      2634      2631      2639      2626      2634      2628      2621
      2648      2651      2646      2650      2651      2648      2657      2653
      2654      2646      2657      2656      2657      2654      2651      2659
      2646      2654      2648      2641      2668      2671      2666      2670
      2671      2668      2677      2673      2674      2666      2677      2676
      2677      2674      2671      2679      2666      2674      2668      2661
      2688      2691      2686      2690      2691      2688      2697      2693
      2694      2686      2697      2696      2697      2694      2691      2699
      2686      2694      2688      2681      2708      2711      2706      2710
      2711      2708      2717      2713      2714      2706      2717      2716
      2717      2714      2711      2719      2706      2714      2708      2701
      2728      2731      2726      2730      2731      2728      2737      2733
      2734      2726      2737      2736      2737      2734      2731      2739
      2726      2734      2728      2721      2748      2751      2746      2750
      2751      2748      2757      2753      2754      2746      2757      2756
      2757      2754      2751      2759      2746      2754      2748      2741
      2768      2771      2766      2770      2771      2768      2777      2773
      2774      2766      2777      2776      2777      2774      2771      2779
      2766      2774      2768      2761      2788      2791      2786      2790
      2791      2788      2797      2793      2794      2786      2797      2796
      2797      2794      2791      2799      2786      2794      2788      2781
      2808      2811      2806      2810      2811      2808      2817      2813
      2814      2806      2817      2816      2817      2814      2811      2819
      2806      2814      2808      2801      2828      2831      2826      2830
      2831      2828      2837      2833      2834      2826      2837      2836
      2837      2834      2831      2839      2826      2834      2828      2821
      2848      2851      2846      2850      2851      2848      2857      2853
      2854      2846      2857      2856      2857      2854      2851      2859
      2846      2854      2848      2841      2868      2871      2866      2870
      2871      2868      2877      2873      2874      2866      2877      2876
      2877      2874      2871      2879      2866      2874      2868      2861
      2888      2891      2886      2890      2891      2888      2897      2893
      2894      2886      2897      2896      2897      2894      2891      2899
      2886      2894      2888      2881      2908      2911      2906      2910
      2911      2908      2917      2913      2914      2906      2917      2916
      2917      2914      2911      2919      2906      2914      2908      2901
      2928      2931      2926      2930      2931      2928      2937      2933
      2934      2926      2937      2936      2937      2934      2931      2939
      2926      2934      2928      2921      2948      2943      2950      2941
      2964      2959      2966      2957      2980      2975      2982      2973
      2996      2991      2998      2989      3012      3007      3014      3005
      3028      3023      3030      3021      3044      3039      3046      3037
      3060      3055      3062      3053      3076      3071      3078      3069
      3092      3087      3094      3085      3108      3103      3110      3101
      3124      3119      3126      3117      3140      3135      3142      3133
      3156      3151      3158      3149      3172      3167      3174      3165
      3188      3183      3190      3181      3204      3199      3206      3197
      3220      3215      3222      3213      3236      3231      3238      3229
      3252      3247      3254      3245      3268      3263      3270      3261
      3284      3279      3286      3277      3300      3295      3302      3293
      3316      3311      3318      3309      3332      3327      3334      3325
      3348      3343      3350      3341      3364      3359      3366      3357
      3380      3375      3382      3373      3396      3391      3398      3389
      3412      3407      3414      3405      3428      3423      3430      3421
      3444      3439      3446      3437      3460      3455      3462      3453
      3476      3471      3478      3469      3492      3487      3494      3485
      3508      3503      3510      3501      3524      3519      3526      3517
      3540      3535      3542      3533      3556      3551      3558      3549
      3572      3567      3574      3565      3588      3583      3590      3581
      3604      3599      3606      3597      3620      3615      3622      3613
      3636      3631      3638      3629      3652      3647      3654      3645
      3668      3663      3670      3661      3684      3679      3686      3677
      3700      3695      3702      3693      3716      3711      3718      3709
      3732      3727      3734      3725      3748      3743      3750      3741
      3764      3759      3766      3757      3780      3775      3782      3773
      3796      3791      3798      3789      3812      3807      3814      3805
      3828      3823      3830      3821      3844      3839      3846      3837
      3860      3855      3862      3853      3876      3871      3878      3869
      3892      3887      3894      3885      3908      3903      3910      3901
      3924      3919      3926      3917      3940      3935      3942      3933
      3956      3951      3958      3949      3972      3967      3974      3965
      3988      3983      3990      3981      4004      3999      4006      3997
      4020      4015      4022      4013      4036      4031      4038      4029
      4052      4047      4054      4045      4068      4063      4070      4061
      4084      4079      4086      4077      4100      4095      4102      4093
      4116      4111      4118      4109      4132      4127      4134      4125
      4148      4143      4150      4141      4164      4159      4166      4157
      4180      4175      4182      4173      4196      4191      4198      4189
      4212      4207      4214      4205      4228      4223      4230      4221
      4244      4239      4246      4237      4260      4255      4262      4253
      4276      4271      4278      4269      4292      4287      4294      4285
      4308      4303      4310      4301      4324      4319      4326      4317
      4340      4335      4342      4333      4356      4351      4358      4349
      4372      4367      4374      4365      4388      4383      4390      4381
      4404      4399      4406      4397      4420      4415      4422      4413
      4436      4439      4434      4438      4439      4436      4445      4441
      4442      4434      4445      4444      4445      4442      4439      4447
      4434      4442      4436      4429      4456      4459      4454      4458
      4459      4456      4465      4461      4462      4454      4465      4464
      4465      4462      4459      4467      4454      4462      4456      4449
      4476      4479      4474      4478      4479      4476      4485      4481
      4482      4474      4485      4484      4485      4482      4479      4487
      4474      4482      4476      4469      4496      4499      4494      4498
      4499      4496      4505      4501      4502      4494      4505      4504
      4505      4502      4499      4507      4494      4502      4496      4489
      4516      4519      4514      4518      4519      4516      4525      4521
      4522      4514      4525      4524      4525      4522      4519      4527
      4514      4522      4516      4509      4536      4539      4534      4538
      4539      4536      4545      4541      4542      4534      4545      4544
      4545      4542      4539      4547      4534      4542      4536      4529
      4556      4559      4554      4558      4559      4556      4565      4561
      4562      4554      4565      4564      4565      4562      4559      4567
      4554      4562      4556      4549      4576      4579      4574      4578
      4579      4576      4585      4581      4582      4574      4585      4584
      4585      4582      4579      4587      4574      4582      4576      4569
      4596      4599      4594      4598      4599      4596      4605      4601
      4602      4594      4605      4604      4605      4602      4599      4607
      4594      4602      4596      4589      4616      4619      4614      4618
      4619      4616      4625      4621      4622      4614      4625      4624
      4625      4622      4619      4627      4614      4622      4616      4609
      4636      4639      4634      4638      4639      4636      4645      4641
      4642      4634      4645      4644      4645      4642      4639      4647
      4634      4642      4636      4629      4656      4659      4654      4658
      4659      4656      4665      4661      4662      4654      4665      4664
      4665      4662      4659      4667      4654      4662      4656      4649
      4676      4679      4674      4678      4679      4676      4685      4681
      4682      4674      4685      4684      4685      4682      4679      4687
      4674      4682      4676      4669      4696      4699      4694      4698
      4699      4696      4705      4701      4702      4694      4705      4704
      4705      4702      4699      4707      4694      4702      4696      4689
      4716      4719      4714      4718      4719      4716      4725      4721
      4722      4714      4725      4724      4725      4722      4719      4727
      4714      4722      4716      4709      4736      4739      4734      4738
      4739      4736      4745      4741      4742      4734      4745      4744
      4745      4742      4739      4747      4734      4742      4736      4729
      4756      4759      4754      4758      4759      4756      4765      4761
      4762      4754      4765      4764      4765      4762      4759      4767
      4754      4762      4756      4749      4776      4779      4774      4778
      4779      4776      4785      4781      4782      4774      4785      4784
      4785      4782      4779      4787      4774      4782      4776      4769
      4796      4799      4794      4798      4799      4796      4805      4801
      4802      4794      4805      4804      4805      4802      4799      4807
      4794      4802      4796      4789      4816      4819      4814      4818
      4819      4816      4825      4821      4822      4814      4825      4824
      4825      4822      4819      4827      4814      4822      4816      4809
      4836      4839      4834      4838      4839      4836      4845      4841
      4842      4834      4845      4844      4845      4842      4839      4847
      4834      4842      4836      4829      4856      4859      4854      4858
      4859      4856      4865      4861      4862      4854      4865      4864
      4865      4862      4859      4867      4854      4862      4856      4849
      4876      4879      4874      4878      4879      4876      4885      4881
      4882      4874      4885      4884      4885      4882      4879      4887
      4874      4882      4876      4869      4896      4899      4894      4898
      4899      4896      4905      4901      4902      4894      4905      4904
      4905      4902      4899      4907      4894      4902      4896      4889
      4916      4919      4914      4918      4919      4916      4925      4921
      4922      4914      4925      4924      4925      4922      4919      4927
      4914      4922      4916      4909      4936      4939      4934      4938
      4939      4936      4945      4941      4942      4934      4945      4944
      4945      4942      4939      4947      4934      4942      4936      4929
      4956      4959      4954      4958      4959      4956      4965      4961
      4962      4954      4965      4964      4965      4962      4959      4967
      4954      4962      4956      4949      4976      4979      4974      4978
      4979      4976      4985      4981      4982      4974      4985      4984
      4985      4982      4979      4987      4974      4982      4976      4969
      4996      4999      4994      4998      4999      4996      5005      5001
      5002      4994      5005      5004      5005      5002      4999      5007
      4994      5002      4996      4989      5016      5019      5014      5018
      5019      5016      5025      5021      5022      5014      5025      5024
      5025      5022      5019      5027      5014      5022      5016      5009
      5036      5039      5034      5038      5039      5036      5045      5041
      5042      5034      5045      5044      5045      5042      5039      5047
      5034      5042      5036      5029      5056      5059      5054      5058
      5059      5056      5065      5061      5062      5054      5065      5064
      5065      5062      5059      5067      5054      5062      5056      5049
      5076      5079      5074      5078      5079      5076      5085      5081
      5082      5074      5085      5084      5085      5082      5079      5087
      5074      5082      5076      5069      5096      5099      5094      5098
      5099      5096      5105      5101      5102      5094      5105      5104
      5105      5102      5099      5107      5094      5102      5096      5089
      5116      5119      5114      5118      5119      5116      5125      5121
      5122      5114      5125      5124      5125      5122      5119      5127
      5114      5122      5116      5109      5136      5139      5134      5138
      5139      5136      5145      5141      5142      5134      5145      5144
      5145      5142      5139      5147      5134      5142      5136      5129
      5156      5159      5154      5158      5159      5156      5165      5161
      5162      5154      5165      5164      5165      5162      5159      5167
      5154      5162      5156      5149      5176      5179      5174      5178
      5179      5176      5185      5181      5182      5174      5185      5184
      5185      5182      5179      5187      5174      5182      5176      5169
      5196      5199      5194      5198      5199      5196      5205      5201
      5202      5194      5205      5204      5205      5202      5199      5207
      5194      5202      5196      5189      5216      5219      5214      5218
      5219      5216      5225      5221      5222      5214      5225      5224
      5225      5222      5219      5227      5214      5222      5216      5209
      5236      5239      5234      5238      5239      5236      5245      5241
      5242      5234      5245      5244      5245      5242      5239      5247
      5234      5242      5236      5229      5256      5259      5254      5258
      5259      5256      5265      5261      5262      5254      5265      5264
      5265      5262      5259      5267      5254      5262      5256      5249
      5276      5279      5274      5278      5279      5276      5285      5281
      5282      5274      5285      5284      5285      5282      5279      5287
      5274      5282      5276      5269      5296      5299      5294      5298
      5299      5296      5305      5301      5302      5294      5305      5304
      5305      5302      5299      5307      5294      5302      5296      5289
      5316      5319      5314      5318      5319      5316      5325      5321
      5322      5314      5325      5324      5325      5322      5319      5327
      5314      5322      5316      5309      5336      5339      5334      5338
      5339      5336      5345      5341      5342      5334      5345      5344
      5345      5342      5339      5347      5334      5342      5336      5329
      5356      5359      5354      5358      5359      5356      5365      5361
      5362      5354      5365      5364      5365      5362      5359      5367
      5354      5362      5356      5349      5376      5379      5374      5378
      5379      5376      5385      5381      5382      5374      5385      5384
      5385      5382      5379      5387      5374      5382      5376      5369
      5396      5399      5394      5398      5399      5396      5405      5401
      5402      5394      5405      5404      5405      5402      5399      5407
      5394      5402      5396      5389      5416      5419      5414      5418
      5419      5416      5425      5421      5422      5414      5425      5424
      5425      5422      5419      5427      5414      5422      5416      5409
      5436      5439      5434      5438      5439      5436      5445      5441
      5442      5434      5445      5444      5445      5442      5439      5447
      5434      5442      5436      5429      5456      5459      5454      5458
      5459      5456      5465      5461      5462      5454      5465      5464
      5465      5462      5459      5467      5454      5462      5456      5449
      5476      5479      5474      5478      5479      5476      5485      5481
      5482      5474      5485      5484      5485      5482      5479      5487
      5474      5482      5476      5469      5496      5499      5494      5498
      5499      5496      5505      5501      5502      5494      5505      5504
      5505      5502      5499      5507      5494      5502      5496      5489
      5516      5519      5514      5518      5519      5516      5525      5521
      5522      5514      5525      5524      5525      5522      5519      5527
      5514      5522      5516      5509      5536      5539      5534      5538
      5539      5536      5545      5541      5542      5534      5545      5544
      5545      5542      5539      5547      5534      5542      5536      5529
      5556      5559      5554      5558      5559      5556      5565      5561
      5562      5554      5565      5564      5565      5562      5559      5567
      5554      5562      5556      5549      5576      5579      5574      5578
      5579      5576      5585      5581      5582      5574      5585      5584
      5585      5582      5579      5587      5574      5582      5576      5569
      5596      5599      5594      5598      5599      5596      5605      5601
      5602      5594      5605      5604      5605      5602      5599      5607
      5594      5602      5596      5589      5616      5619      5614      5618
      5619      5616      5625      5621      5622      5614      5625      5624
      5625      5622      5619      5627      5614      5622      5616      5609
      5636      5639      5634      5638      5639      5636      5645      5641
      5642      5634      5645      5644      5645      5642      5639      5647
      5634      5642      5636      5629      5656      5659      5654      5658
      5659      5656      5665      5661      5662      5654      5665      5664
      5665      5662      5659      5667      5654      5662      5656      5649
      5676      5679      5674      5678      5679      5676      5685      5681
      5682      5674      5685      5684      5685      5682      5679      5687
      5674      5682      5676      5669      5696      5699      5694      5698
      5699      5696      5705      5701      5702      5694      5705      5704
      5705      5702      5699      5707      5694      5702      5696      5689
      5716      5719      5714      5718      5719      5716      5725      5721
      5722      5714      5725      5724      5725      5722      5719      5727
      5714      5722      5716      5709      5736      5739      5734      5738
      5739      5736      5745      5741      5742      5734      5745      5744
      5745      5742      5739      5747      5734      5742      5736      5729
      5756      5759      5754      5758      5759      5756      5765      5761
      5762      5754      5765      5764      5765      5762      5759      5767
      5754      5762      5756      5749      5776      5779      5774      5778
      5779      5776      5785      5781      5782      5774      5785      5784
      5785      5782      5779      5787      5774      5782      5776      5769
      5796      5799      5794      5798      5799      5796      5805      5801
      5802      5794      5805      5804      5805      5802      5799      5807
      5794      5802      5796      5789      5816      5819      5814      5818
      5819      5816      5825      5821      5822      5814      5825      5824
      5825      5822      5819      5827      5814      5822      5816      5809
      5836      5839      5834      5838      5839      5836      5845      5841
      5842      5834      5845      5844      5845      5842      5839      5847
      5834      5842      5836      5829      5856      5859      5854      5858
      5859      5856      5865      5861      5862      5854      5865      5864
      5865      5862      5859      5867      5854      5862      5856      5849
      5876      5879      5874      5878      5879      5876      5885      5881
      5882      5874      5885      5884      5885      5882      5879      5887
      5874      5882      5876      5869      5896      5899      5894      5898
      5899      5896      5905      5901      5902      5894      5905      5904
      5905      5902      5899      5907      5894      5902      5896      5889
      5916      5919      5914      5918      5919      5916      5925      5921
      5922      5914      5925      5924      5925      5922      5919      5927
      5914      5922      5916      5909      5936      5939      5934      5938
      5939      5936      5945      5941      5942      5934      5945      5944
      5945      5942      5939      5947      5934      5942      5936      5929
      5956      5959      5954      5958      5959      5956      5965      5961
      5962      5954      5965      5964      5965      5962      5959      5967
      5954      5962      5956      5949      5976      5979      5974      5978
      5979      5976      5985      5981      5982      5974      5985      5984
      5985      5982      5979      5987      5974      5982      5976      5969
      5996      5999      5994      5998      5999      5996      6005      6001
      6002      5994      6005      6004      6005      6002      5999      6007
      5994      6002      5996      5989      6016      6019      6014      6018
      6019      6016      6025      6021      6022      6014      6025      6024
      6025      6022      6019      6027      6014      6022      6016      6009
      6036      6039      6034      6038      6039      6036      6045      6041
      6042      6034      6045      6044      6045      6042      6039      6047
      6034      6042      6036      6029      6056      6059      6054      6058
      6059      6056      6065      6061      6062      6054      6065      6064
      6065      6062      6059      6067      6054      6062      6056      6049
      6076      6079      6074      6078      6079      6076      6085      6081
      6082      6074      6085      6084      6085      6082      6079      6087
      6074      6082      6076      6069      6096      6099      6094      6098
      6099      6096      6105      6101      6102      6094      6105      6104
      6105      6102      6099      6107      6094      6102      6096      6089
      6116      6119      6114      6118      6119      6116      6125      6121
      6122      6114      6125      6124      6125      6122      6119      6127
      6114      6122      6116      6109      6136      6139      6134      6138
      6139      6136      6145      6141      6142      6134      6145      6144
      6145      6142      6139      6147      6134      6142      6136      6129
      6156      6159      6154      6158      6159      6156      6165      6161
      6162      6154      6165      6164      6165      6162      6159      6167
      6154      6162      6156      6149      6176      6179      6174      6178
      6179      6176      6185      6181      6182      6174      6185      6184
      6185      6182      6179      6187      6174      6182      6176      6169
      6196      6199      6194      6198      6199      6196      6205      6201
      6202      6194      6205      6204      6205      6202      6199      6207
      6194      6202      6196      6189      6216      6219      6214      6218
      6219      6216      6225      6221      6222      6214      6225      6224
      6225      6222      6219      6227      6214      6222      6216      6209
      6236      6239      6234      6238      6239      6236      6245      6241
      6242      6234      6245      6244      6245      6242      6239      6247
      6234      6242      6236      6229      6256      6259      6254      6258
      6259      6256      6265      6261      6262      6254      6265      6264
      6265      6262      6259      6267      6254      6262      6256      6249
      6276      6279      6274      6278      6279      6276      6285      6281
      6282      6274      6285      6284      6285      6282      6279      6287
      6274      6282      6276      6269      6296      6299      6294      6298
      6299      6296      6305      6301      6302      6294      6305      6304
      6305      6302      6299      6307      6294      6302      6296      6289
      6316      6319      6314      6318      6319      6316      6325      6321
      6322      6314      6325      6324      6325      6322      6319      6327
      6314      6322      6316      6309      6336      6339      6334      6338
      6339      6336      6345      6341      6342      6334      6345      6344
      6345      6342      6339      6347      6334      6342      6336      6329
      6356      6359      6354      6358      6359      6356      6365      6361
      6362      6354      6365      6364      6365      6362      6359      6367
      6354      6362      6356      6349      6376      6379      6374      6378
      6379      6376      6385      6381      6382      6374      6385      6384
      6385      6382      6379      6387      6374      6382      6376      6369
      6396      6399      6394      6398      6399      6396      6405      6401
      6402      6394      6405      6404      6405      6402      6399      6407
      6394      6402      6396      6389      6416      6419      6414      6418
      6419      6416      6425      6421      6422      6414      6425      6424
      6425      6422      6419      6427      6414      6422      6416      6409
      6436      6439      6434      6438      6439      6436      6445      6441
      6442      6434      6445      6444      6445      6442      6439      6447
      6434      6442      6436      6429      6456      6459      6454      6458
      6459      6456      6465      6461      6462      6454      6465      6464
      6465      6462      6459      6467      6454      6462      6456      6449
      6476      6479      6474      6478      6479      6476      6485      6481
      6482      6474      6485      6484      6485      6482      6479      6487
      6474      6482      6476      6469      6496      6499      6494      6498
      6499      6496      6505      6501      6502      6494      6505      6504
      6505      6502      6499      6507      6494      6502      6496      6489
      6516      6519      6514      6518      6519      6516      6525      6521
      6522      6514      6525      6524      6525      6522      6519      6527
      6514      6522      6516      6509      6536      6539      6534      6538
      6539      6536      6545      6541      6542      6534      6545      6544
      6545      6542      6539      6547      6534      6542      6536      6529
      6556      6559      6554      6558      6559      6556      6565      6561
      6562      6554      6565      6564      6565      6562      6559      6567
      6554      6562      6556      6549      6576      6579      6574      6578
      6579      6576      6585      6581      6582      6574      6585      6584
      6585      6582      6579      6587      6574      6582      6576      6569
      6596      6599      6594      6598      6599      6596      6605      6601
      6602      6594      6605      6604      6605      6602      6599      6607
      6594      6602      6596      6589      6616      6619      6614      6618
      6619      6616      6625      6621      6622      6614      6625      6624
      6625      6622      6619      6627      6614      6622      6616      6609
      6636      6639      6634      6638      6639      6636      6645      6641
      6642      6634      6645      6644      6645      6642      6639      6647
      6634      6642      6636      6629      6656      6659      6654      6658
      6659      6656      6665      6661      6662      6654      6665      6664
      6665      6662      6659      6667      6654      6662      6656      6649
      6676      6679      6674      6678      6679      6676      6685      6681
      6682      6674      6685      6684      6685      6682      6679      6687
      6674      6682      6676      6669      6696      6699      6694      6698
      6699      6696      6705      6701      6702      6694      6705      6704
      6705      6702      6699      6707      6694      6702      6696      6689
      6716      6719      6714      6718      6719      6716      6725      6721
      6722      6714      6725      6724      6725      6722      6719      6727
      6714      6722      6716      6709      6736      6739      6734      6738
      6739      6736      6745      6741      6742      6734      6745      6744
      6745      6742      6739      6747      6734      6742      6736      6729
      6756      6759      6754      6758      6759      6756      6765      6761
      6762      6754      6765      6764      6765      6762      6759      6767
      6754      6762      6756      6749      6776      6779      6774      6778
      6779      6776      6785      6781      6782      6774      6785      6784
      6785      6782      6779      6787      6774      6782      6776      6769
      6796      6799      6794      6798      6799      6796      6805      6801
      6802      6794      6805      6804      6805      6802      6799      6807
      6794      6802      6796      6789      6816      6819      6814      6818
      6819      6816      6825      6821      6822      6814      6825      6824
      6825      6822      6819      6827      6814      6822      6816      6809
      6836      6839      6834      6838      6839      6836      6845      6841
      6842      6834      6845      6844      6845      6842      6839      6847
      6834      6842      6836      6829      6856      6859      6854      6858
      6859      6856      6865      6861      6862      6854      6865      6864
      6865      6862      6859      6867      6854      6862      6856      6849
      6876      6879      6874      6878      6879      6876      6885      6881
      6882      6874      6885      6884      6885      6882      6879      6887
      6874      6882      6876      6869      6896      6899      6894      6898
      6899      6896      6905      6901      6902      6894      6905      6904
      6905      6902      6899      6907      6894      6902      6896      6889
      6916      6919      6914      6918      6919      6916      6925      6921
      6922      6914      6925      6924      6925      6922      6919      6927
      6914      6922      6916      6909      6936      6939      6934      6938
      6939      6936      6945      6941      6942      6934      6945      6944
      6945      6942      6939      6947      6934      6942      6936      6929
      6956      6959      6954      6958      6959      6956      6965      6961
      6962      6954      6965      6964      6965      6962      6959      6967
      6954      6962      6956      6949      6976      6979      6974      6978
      6979      6976      6985      6981      6982      6974      6985      6984
      6985      6982      6979      6987      6974      6982      6976      6969
      6996      6999      6994      6998      6999      6996      7005      7001
      7002      6994      7005      7004      7005      7002      6999      7007
      6994      7002      6996      6989      7016      7019      7014      7018
      7019      7016      7025      7021      7022      7014      7025      7024
      7025      7022      7019      7027      7014      7022      7016      7009
      7036      7039      7034      7038      7039      7036      7045      7041
      7042      7034      7045      7044      7045      7042      7039      7047
      7034      7042      7036      7029      7056      7059      7054      7058
      7059      7056      7065      7061      7062      7054      7065      7064
      7065      7062      7059      7067      7054      7062      7056      7049
      7076      7079      7074      7078      7079      7076      7085      7081
      7082      7074      7085      7084      7085      7082      7079      7087
      7074      7082      7076      7069      7096      7099      7094      7098
      7099      7096      7105      7101      7102      7094      7105      7104
      7105      7102      7099      7107      7094      7102      7096      7089
      7116      7119      7114      7118      7119      7116      7125      7121
      7122      7114      7125      7124      7125      7122      7119      7127
      7114      7122      7116      7109      7136      7139      7134      7138
      7139      7136      7145      7141      7142      7134      7145      7144
      7145      7142      7139      7147      7134      7142      7136      7129
      7156      7159      7154      7158      7159      7156      7165      7161
      7162      7154      7165      7164      7165      7162      7159      7167
      7154      7162      7156      7149      7176      7179      7174      7178
      7179      7176      7185      7181      7182      7174      7185      7184
      7185      7182      7179      7187      7174      7182      7176      7169
      7196      7199      7194      7198      7199      7196      7205      7201
      7202      7194      7205      7204      7205      7202      7199      7207
      7194      7202      7196      7189      7216      7219      7214      7218
      7219      7216      7225      7221      7222      7214      7225      7224
      7225      7222      7219      7227      7214      7222      7216      7209
      7236      7239      7234      7238      7239      7236      7245      7241
      7242      7234      7245      7244      7245      7242      7239      7247
      7234      7242      7236      7229      7256      7259      7254      7258
      7259      7256      7265      7261      7262      7254      7265      7264
      7265      7262      7259      7267      7254      7262      7256      7249
      7276      7279      7274      7278      7279      7276      7285      7281
      7282      7274      7285      7284      7285      7282      7279      7287
      7274      7282      7276      7269      7296      7299      7294      7298
      7299      7296      7305      7301      7302      7294      7305      7304
      7305      7302      7299      7307      7294      7302      7296      7289
      7316      7319      7314      7318      7319      7316      7325      7321
      7322      7314      7325      7324      7325      7322      7319      7327
      7314      7322      7316      7309      7336      7339      7334      7338
      7339      7336      7345      7341      7342      7334      7345      7344
      7345      7342      7339      7347      7334      7342      7336      7329
      7356      7359      7354      7358      7359      7356      7365      7361
      7362      7354      7365      7364      7365      7362      7359      7367
      7354      7362      7356      7349      7376      7379      7374      7378
      7379      7376      7385      7381      7382      7374      7385      7384
      7385      7382      7379      7387      7374      7382      7376      7369
      7396      7399      7394      7398      7399      7396      7405      7401
      7402      7394      7405      7404      7405      7402      7399      7407
      7394      7402      7396      7389      7416      7419      7414      7418
      7419      7416      7425      7421      7422      7414      7425      7424
      7425      7422      7419      7427      7414      7422      7416      7409
      7436      7439      7434      7438      7439      7436      7445      7441
      7442      7434      7445      7444      7445      7442      7439      7447
      7434      7442      7436      7429      7456      7459      7454      7458
      7459      7456      7465      7461      7462      7454      7465      7464
      7465      7462      7459      7467      7454      7462      7456      7449
      7476      7479      7474      7478      7479      7476      7485      7481
      7482      7474      7485      7484      7485      7482      7479      7487
      7474      7482      7476      7469      7496      7499      7494      7498
      7499      7496      7505      7501      7502      7494      7505      7504
      7505      7502      7499      7507      7494      7502      7496      7489
      7516      7519      7514      7518      7519      7516      7525      7521
      7522      7514      7525      7524      7525      7522      7519      7527
      7514      7522      7516      7509      7536      7539      7534      7538
      7539      7536      7545      7541      7542      7534      7545      7544
      7545      7542      7539      7547      7534      7542      7536      7529
      7556      7559      7554      7558      7559      7556      7565      7561
      7562      7554      7565      7564      7565      7562      7559      7567
      7554      7562      7556      7549      7576      7579      7574      7578
      7579      7576      7585      7581      7582      7574      7585      7584
      7585      7582      7579      7587      7574      7582      7576      7569
      7596      7599      7594      7598      7599      7596      7605      7601
      7602      7594      7605      7604      7605      7602      7599      7607
      7594      7602      7596      7589      7616      7619      7614      7618
      7619      7616      7625      7621      7622      7614      7625      7624
      7625      7622      7619      7627      7614      7622      7616      7609
      7636      7639      7634      7638      7639      7636      7645      7641
      7642      7634      7645      7644      7645      7642      7639      7647
      7634      7642      7636      7629      7656      7659      7654      7658
      7659      7656      7665      7661      7662      7654      7665      7664
      7665      7662      7659      7667      7654      7662      7656      7649
      7676      7679      7674      7678      7679      7676      7685      7681
      7682      7674      7685      7684      7685      7682      7679      7687
      7674      7682      7676      7669      7696      7699      7694      7698
      7699      7696      7705      7701      7702      7694      7705      7704
      7705      7702      7699      7707      7694      7702      7696      7689
      7716      7719      7714      7718      7719      7716      7725      7721
      7722      7714      7725      7724      7725      7722      7719      7727
      7714      7722      7716      7709      7736      7739      7734      7738
      7739      7736      7745      7741      7742      7734      7745      7744
      7745      7742      7739      7747      7734      7742      7736      7729
      7756      7759      7754      7758      7759      7756      7765      7761
      7762      7754      7765      7764      7765      7762      7759      7767
      7754      7762      7756      7749      7776      7779      7774      7778
      7779      7776      7785      7781      7782      7774      7785      7784
      7785      7782      7779      7787      7774      7782      7776      7769
      7796      7799      7794      7798      7799      7796      7805      7801
      7802      7794      7805      7804      7805      7802      7799      7807
      7794      7802      7796      7789      7816      7819      7814      7818
      7819      7816      7825      7821      7822      7814      7825      7824
      7825      7822      7819      7827      7814      7822      7816      7809
      7836      7839      7834      7838      7839      7836      7845      7841
      7842      7834      7845      7844      7845      7842      7839      7847
      7834      7842      7836      7829      7856      7859      7854      7858
      7859      7856      7865      7861      7862      7854      7865      7864
      7865      7862      7859      7867      7854      7862      7856      7849
      7876      7879      7874      7878      7879      7876      7885      7881
      7882      7874      7885      7884      7885      7882      7879      7887
      7874      7882      7876      7869      7896      7899      7894      7898
      7899      7896      7905      7901      7902      7894      7905      7904
      7905      7902      7899      7907      7894      7902      7896      7889
      7916      7919      7914      7918      7919      7916      7925      7921
      7922      7914      7925      7924      7925      7922      7919      7927
      7914      7922      7916      7909      7936      7939      7934      7938
      7939      7936      7945      7941      7942      7934      7945      7944
      7945      7942      7939      7947      7934      7942      7936      7929
      7956      7959      7954      7958      7959      7956      7965      7961
      7962      7954      7965      7964      7965      7962      7959      7967
      7954      7962      7956      7949      7976      7979      7974      7978
      7979      7976      7985      7981      7982      7974      7985      7984
      7985      7982      7979      7987      7974      7982      7976      7969
      7996      7999      7994      7998      7999      7996      8005      8001
      8002      7994      8005      8004      8005      8002      7999      8007
      7994      8002      7996      7989      8016      8019      8014      8018
      8019      8016      8025      8021      8022      8014      8025      8024
      8025      8022      8019      8027      8014      8022      8016      8009
      8036      8039      8034      8038      8039      8036      8045      8041
      8042      8034      8045      8044      8045      8042      8039      8047
      8034      8042      8036      8029      8056      8059      8054      8058
      8059      8056      8065      8061      8062      8054      8065      8064
      8065      8062      8059      8067      8054      8062      8056      8049
      8076      8079      8074      8078      8079      8076      8085      8081
      8082      8074      8085      8084      8085      8082      8079      8087
      8074      8082      8076      8069      8096      8099      8094      8098
      8099      8096      8105      8101      8102      8094      8105      8104
      8105      8102      8099      8107      8094      8102      8096      8089
      8116      8119      8114      8118      8119      8116      8125      8121
      8122      8114      8125      8124      8125      8122      8119      8127
      8114      8122      8116      8109      8136      8139      8134      8138
      8139      8136      8145      8141      8142      8134      8145      8144
      8145      8142      8139      8147      8134      8142      8136      8129
      8156      8159      8154      8158      8159      8156      8165      8161
      8162      8154      8165      8164      8165      8162      8159      8167
      8154      8162      8156      8149      8176      8179      8174      8178
      8179      8176      8185      8181      8182      8174      8185      8184
      8185      8182      8179      8187      8174      8182      8176      8169
      8196      8199      8194      8198      8199      8196      8205      8201
      8202      8194      8205      8204      8205      8202      8199      8207
      8194      8202      8196      8189      8216      8219      8214      8218
      8219      8216      8225      8221      8222      8214      8225      8224
      8225      8222      8219      8227      8214      8222      8216      8209
      8236      8239      8234      8238      8239      8236      8245      8241
      8242      8234      8245      8244      8245      8242      8239      8247
      8234      8242      8236      8229      8256      8259      8254      8258
      8259      8256      8265      8261      8262      8254      8265      8264
      8265      8262      8259      8267      8254      8262      8256      8249
      8276      8279      8274      8278      8279      8276      8285      8281
      8282      8274      8285      8284      8285      8282      8279      8287
      8274      8282      8276      8269      8296      8299      8294      8298
      8299      8296      8305      8301      8302      8294      8305      8304
      8305      8302      8299      8307      8294      8302      8296      8289
      8316      8319      8314      8318      8319      8316      8325      8321
      8322      8314      8325      8324      8325      8322      8319      8327
      8314      8322      8316      8309      8336      8339      8334      8338
      8339      8336      8345      8341      8342      8334      8345      8344
      8345      8342      8339      8347      8334      8342      8336      8329
      8356      8359      8354      8358      8359      8356      8365      8361
      8362      8354      8365      8364      8365      8362      8359      8367
      8354      8362      8356      8349      8376      8379      8374      8378
      8379      8376      8385      8381      8382      8374      8385      8384
      8385      8382      8379      8387      8374      8382      8376      8369
      8396      8399      8394      8398      8399      8396      8405      8401
      8402      8394      8405      8404      8405      8402      8399      8407
      8394      8402      8396      8389      8416      8419      8414      8418
      8419      8416      8425      8421      8422      8414      8425      8424
      8425      8422      8419      8427      8414      8422      8416      8409
      8436      8439      8434      8438      8439      8436      8445      8441
      8442      8434      8445      8444      8445      8442      8439      8447
      8434      8442      8436      8429      8456      8459      8454      8458
      8459      8456      8465      8461      8462      8454      8465      8464
      8465      8462      8459      8467      8454      8462      8456      8449
      8476      8479      8474      8478      8479      8476      8485      8481
      8482      8474      8485      8484      8485      8482      8479      8487
      8474      8482      8476      8469      8496      8499      8494      8498
      8499      8496      8505      8501      8502      8494      8505      8504
      8505      8502      8499      8507      8494      8502      8496      8489
      8516      8519      8514      8518      8519      8516      8525      8521
      8522      8514      8525      8524      8525      8522      8519      8527
      8514      8522      8516      8509      8536      8539      8534      8538
      8539      8536      8545      8541      8542      8534      8545      8544
      8545      8542      8539      8547      8534      8542      8536      8529
      8556      8559      8554      8558      8559      8556      8565      8561
      8562      8554      8565      8564      8565      8562      8559      8567
      8554      8562      8556      8549      8576      8579      8574      8578
      8579      8576      8585      8581      8582      8574      8585      8584
      8585      8582      8579      8587      8574      8582      8576      8569
      8596      8599      8594      8598      8599      8596      8605      8601
      8602      8594      8605      8604      8605      8602      8599      8607
      8594      8602      8596      8589      8616      8619      8614      8618
      8619      8616      8625      8621      8622      8614      8625      8624
      8625      8622      8619      8627      8614      8622      8616      8609
      8636      8639      8634      8638      8639      8636      8645      8641
      8642      8634      8645      8644      8645      8642      8639      8647
      8634      8642      8636      8629      8656      8659      8654      8658
      8659      8656      8665      8661      8662      8654      8665      8664
      8665      8662      8659      8667      8654      8662      8656      8649
      8676      8679      8674      8678      8679      8676      8685      8681
      8682      8674      8685      8684      8685      8682      8679      8687
      8674      8682      8676      8669      8696      8699      8694      8698
      8699      8696      8705      8701      8702      8694      8705      8704
      8705      8702      8699      8707      8694      8702      8696      8689
      8716      8719      8714      8718      8719      8716      8725      8721
      8722      8714      8725      8724      8725      8722      8719      8727
      8714      8722      8716      8709      8736      8739      8734      8738
      8739      8736      8745      8741      8742      8734      8745      8744
      8745      8742      8739      8747      8734      8742      8736      8729
      8756      8759      8754      8758      8759      8756      8765      8761
      8762      8754      8765      8764      8765      8762      8759      8767
      8754      8762      8756      8749      8776      8771      8778      8769
      8792      8787      8794      8785      8808      8803      8810      8801
      8824      8819      8826      8817      8840      8835      8842      8833
      8856      8851      8858      8849      8872      8867      8874      8865
      8888      8883      8890      8881      8904      8899      8906      8897
      8920      8915      8922      8913      8936      8931      8938      8929
      8952      8947      8954      8945      8968      8963      8970      8961
      8984      8979      8986      8977      9000      8995      9002      8993
      9016      9011      9018      9009      9032      9027      9034      9025
      9048      9043      9050      9041      9064      9059      9066      9057
      9080      9075      9082      9073      9096      9091      9098      9089
      9112      9107      9114      9105      9128      9123      9130      9121
      9144      9139      9146      9137      9160      9155      9162      9153
      9176      9171      9178      9169      9192      9187      9194      9185
      9208      9203      9210      9201      9224      9219      9226      9217
      9240      9235      9242      9233      9256      9251      9258      9249
      9272      9267      9274      9265      9288      9283      9290      9281
      9304      9299      9306      9297      9320      9315      9322      9313
      9336      9331      9338      9329      9352      9347      9354      9345
      9368      9363      9370      9361      9384      9379      9386      9377
      9400      9395      9402      9393      9416      9411      9418      9409
      9432      9427      9434      9425      9448      9443      9450      9441
      9464      9459      9466      9457      9480      9475      9482      9473
      9496      9491      9498      9489      9512      9507      9514      9505
      9528      9523      9530      9521      9544      9539      9546      9537
      9560      9555      9562      9553      9576      9571      9578      9569
      9592      9587      9594      9585      9608      9603      9610      9601
      9624      9619      9626      9617      9640      9635      9642      9633
      9656      9651      9658      9649      9672      9667      9674      9665
      9688      9683      9690      9681      9704      9699      9706      9697
      9720      9715      9722      9713      9736      9731      9738      9729
      9752      9747      9754      9745      9768      9763      9770      9761
      9784      9779      9786      9777      9800      9795      9802      9793
      9816      9811      9818      9809      9832      9827      9834      9825
      9848      9843      9850      9841      9864      9859      9866      9857
      9880      9875      9882      9873      9896      9891      9898      9889
      9912      9907      9914      9905      9928      9923      9930      9921
      9944      9939      9946      9937      9960      9955      9962      9953
      9976      9971      9978      9969      9992      9987      9994      9985
     10008     10003     10010     10001     10024     10019     10026     10017
     10040     10035     10042     10033     10056     10051     10058     10049
     10072     10067     10074     10065     10088     10083     10090     10081
     10104     10099     10106     10097     10120     10115     10122     10113
     10136     10131     10138     10129     10152     10147     10154     10145
     10168     10163     10170     10161     10184     10179     10186     10177
     10200     10195     10202     10193     10216     10211     10218     10209
     10232     10227     10234     10225     10248     10243     10250     10241
     10264     10259     10266     10257     10280     10275     10282     10273
     10296     10291     10298     10289     10312     10307     10314     10305
     10328     10323     10330     10321     10344     10339     10346     10337
     10360     10355     10362     10353     10376     10371     10378     10369
     10392     10387     10394     10385     10408     10403     10410     10401
     10424     10419     10426     10417     10440     10435     10442     10433
     10456     10451     10458     10449     10472     10467     10474     10465
     10488     10483     10490     10481     10504     10499     10506     10497
     10520     10515     10522     10513     10536     10531     10538     10529
     10552     10547     10554     10545     10568     10563     10570     10561
     10584     10579     10586     10577     10600     10595     10602     10593
     10616     10611     10618     10609     10632     10627     10634     10625
     10648     10643     10650     10641     10664     10659     10666     10657
     10680     10675     10682     10673     10696     10691     10698     10689
     10712     10707     10714     10705     10728     10723     10730     10721
     10744     10739     10746     10737     10760     10755     10762     10753
     10776     10771     10778     10769     10792     10787     10794     10785
     10808     10803     10810     10801     10824     10819     10826     10817
     10840     10835     10842     10833     10856     10851     10858     10849
     10872     10867     10874     10865     10888     10883     10890     10881
     10904     10899     10906     10897     10920     10915     10922     10913
     10936     10931     10938     10929     10952     10947     10954     10945
     10968     10963     10970     10961     10984     10979     10986     10977
     11000     10995     11002     10993     11016     11011     11018     11009
     11032     11027     11034     11025     11048     11043     11050     11041
     11064     11059     11066     11057     11080     11075     11082     11073
     11096     11091     11098     11089     11112     11107     11114     11105
     11128     11123     11130     11121     11144     11139     11146     11137
     11160     11155     11162     11153     11176     11171     11178     11169
     11192     11187     11194     11185     11208     11203     11210     11201
     11224     11219     11226     11217     11240     11235     11242     11233
     11256     11251     11258     11249     11272     11267     11274     11265
     11288     11283     11290     11281     11304     11299     11306     11297
     11320     11315     11322     11313     11336     11331     11338     11329
     11352     11347     11354     11345     11368     11363     11370     11361
     11384     11379     11386     11377     11400     11395     11402     11393
     11416     11411     11418     11409     11432     11427     11434     11425
     11448     11443     11450     11441     11464     11459     11466     11457
     11480     11475     11482     11473     11496     11491     11498     11489
     11512     11507     11514     11505     11528     11523     11530     11521
     11544     11539     11546     11537     11560     11555     11562     11553
     11576     11571     11578     11569     11592     11587     11594     11585
     11608     11603     11610     11601     11624     11619     11626     11617
     11640     11635     11642     11633     11656     11651     11658     11649
     11672     11667     11674     11665     11688     11683     11690     11681
     11704     11699     11706     11697     11720     11715     11722     11713
     11736     11731     11738     11729     11752     11747     11754     11745
     11768     11763     11770     11761     11784     11779     11786     11777
     11800     11795     11802     11793     11816     11811     11818     11809
     11832     11827     11834     11825     11848     11843     11850     11841
     11864     11859     11866     11857     11880     11875     11882     11873
     11896     11891     11898     11889     11912     11907     11914     11905
     11928     11923     11930     11921     11944     11939     11946     11937
     11960     11955     11962     11953     11976     11971     11978     11969
     11992     11987     11994     11985     12008     12003     12010     12001
     12024     12019     12026     12017     12040     12035     12042     12033
     12056     12051     12058     12049     12072     12067     12074     12065
     12088     12083     12090     12081     12104     12099     12106     12097
     12120     12115     12122     12113     12136     12131     12138     12129
     12152     12147     12154     12145     12168     12163     12170     12161
     12184     12179     12186     12177     12200     12195     12202     12193
     12216     12211     12218     12209     12232     12227     12234     12225

         0 !NDON: donors


         0 !NACC: acceptors


         0 !NNB

         0         0         0         0         0         0         0         0
         0         0         0         0         0         0         0         0
         0         0         0         0         0         0         0         0
         0         0         0         0         0         0         0         0
         0         0         0         0         0         0         0         0
         0         0         0         0         0         0         0         0
         0         0         0         0         0         0         0         0
         0         0         0         0         0         0         0         0
         0         0         0         0         0         0         0         0
         0         0         0         0         0         0         0         0
         0         0         0         0         0         0         0         0
         0         0         0         0         0         0         0         0
         0         0         0         0         0         0         0         0
         0         0         0         0         0         0         0         0
         0         0         0         0         0         0         0         0
         0         0         0         0         0         0         0         0
         0         0         0         0         0         0         0         0
         0         0         0         0         0         0         0         0
         0         0         0         0         0         0         0         0
         0         0         0         0         0         0         0         0
         0         0         0         0         0         0         0         0
         0         0         0         0         0         0         0         0
         0         0         0         0         0         0         0         0
         0         0         0         0         0         0         0         0
         0         0         0         0         0         0         0         0
         0         0         0         0         0         0         0         0
         0         0         0         0         0         0         0         0
         0         0         0         0         0         0         0         0
         0         0         0         0         0         0         0         0
         0         0         0         0         0         0         0         0
         0         0         0         0         0         0         0         0
         0         0         0         0         0         0         0         0
         0         0         0         0         0         0         0         0
         0         0         0         0         0         0         0         0
         0         0         0         0         0         0         0         0
         0         0         0         0         0         0         0         0
         0         0         0         0         0         0         0         0
         0         0         0         0         0         0         0         0
         0         0         0         0         0         0         0         0
         0         0         0         0         0         0         0         0
         0         0         0         0         0         0         0         0
         0         0         0         0         0         0         0         0
         0         0         0         0         0         0         0         0
         0         0         0         0         0         0         0         0
         0         0         0         0         0         0         0         0
         0         0         0         0         0         0         0         0
         0         0         0         0         0         0         0         0
         0         0         0         0         0         0         0         0
         0         0         0         0         0         0         0         0
         0         0         0         0         0         0         0         0
         0         0         0         0         0         0         0         0
         0         0         0         0         0         0         0         0
         0         0         0         0         0         0         0         0
         0         0         0         0         0         0         0         0
         0         0         0         0         0         0         0         0
         0         0         0         0         0         0         0         0
         0         0         0         0         0         0         0         0
         0         0         0         0         0         0         0         0
         0         0         0         0         0         0         0         0
         0         0         0         0         0         0         0         0
         0         0         0         0         0         0         0         0
         0         0         0         0         0         0         0         0
         0         0         0         0         0         0         0         0
         0         0         0         0         0         0         0         0
         0         0         0         0         0         0         0         0
         0         0         0         0         0         0         0         0
         0         0         0         0         0         0         0         0
         0         0         0         0         0         0         0         0
         0         0         0         0         0         0         0         0
         0         0         0         0         0         0         0         0
         0         0         0         0         0         0         0         0
         0         0         0         0         0         0         0         0
         0         0         0         0         0         0         0         0
         0         0         0         0         0         0         0         0
         0         0         0         0         0         0         0         0
         0         0         0         0         0         0         0         0
         0         0         0         0         0         0         0         0
         0         0         0         0         0         0         0         0
         0         0         0         0         0         0         0         0
         0         0         0         0         0         0         0         0
         0         0         0         0         0         0         0         0
         0         0         0         0         0         0         0         0
         0         0         0         0         0         0         0         0
         0         0         0         0         0         0         0         0
         0         0         0         0         0         0         0         0
         0         0         0         0         0         0         0         0
         0         0         0         0         0         0         0         0
         0         0         0         0         0         0         0         0
         0         0         0         0         0         0         0         0
         0         0         0         0         0         0         0         0
         0         0         0         0         0         0         0         0
         0         0         0         0         0         0         0         0
         0         0         0         0         0         0         0         0
         0         0         0         0         0         0         0         0
         0         0         0         0         0         0         0         0
         0         0         0         0         0         0         0         0
         0         0         0         0         0         0         0         0
         0         0         0         0         0         0         0         0
         0         0         0         0         0         0         0         0
         0         0         0         0         0         0         0         0
         0         0         0         0         0         0         0         0
         0         0         0         0         0         0         0         0
         0         0         0         0         0         0         0         0
         0         0         0         0         0         0         0         0
         0         0         0         0         0         0         0         0
         0         0         0         0         0         0         0         0
         0         0         0         0         0         0         0         0
         0         0         0         0         0         0         0         0
         0         0         0         0         0         0         0         0
         0         0         0         0         0         0         0         0
         0         0         0         0         0         0         0         0
         0         0         0         0         0         0         0         0
         0         0         0         0         0         0         0         0
         0         0         0         0         0         0         0         0
         0         0         0         0         0         0         0         0
         0         0         0         0         0         0         0         0
         0         0         0         0         0         0         0         0
         0         0         0         0         0         0         0         0
         0         0         0         0         0         0         0         0
         0         0         0         0         0         0         0         0
         0         0         0         0         0         0         0         0
         0         0         0         0         0         0         0         0
         0         0         0         0         0         0         0         0
         0         0         0         0         0         0         0         0
         0         0         0         0         0         0         0         0
         0         0         0         0         0         0         0         0
         0         0         0         0         0         0         0         0
         0         0         0         0         0         0         0         0
         0         0         0         0         0         0         0         0
         0         0         0         0         0         0         0         0
         0         0         0         0         0         0         0         0
         0         0         0         0         0         0         0         0
         0         0         0         0         0         0         0         0
         0         0         0         0         0         0         0         0
         0         0         0         0         0         0         0         0
         0         0         0         0         0         0         0         0
         0         0         0         0         0         0         0         0
         0         0         0         0         0         0         0         0
         0         0         0         0         0         0         0         0
         0         0         0         0         0         0         0         0
         0         0         0         0         0         0         0         0
         0         0         0         0         0         0         0         0
         0         0         0         0         0         0         0         0
         0         0         0         0         0         0         0         0
         0         0         0         0         0         0         0         0
         0         0         0         0         0         0         0         0
         0         0         0         0         0         0         0         0
         0         0         0         0         0         0         0         0
         0         0         0         0         0         0         0         0
         0         0         0         0         0         0         0         0
         0         0         0         0         0         0         0         0
         0         0         0         0         0         0         0         0
         0         0         0         0         0         0         0         0
         0         0         0         0         0         0         0         0
         0         0         0         0         0         0         0         0
         0         0         0         0         0         0         0         0
         0         0         0         0         0         0         0         0
         0         0         0         0         0         0         0         0
         0         0         0         0         0         0         0         0
         0         0         0         0         0         0         0         0
         0         0         0         0         0         0         0         0
         0         0         0         0         0         0         0         0
         0         0         0         0         0         0         0         0
         0         0         0         0         0         0         0         0
         0         0         0         0         0         0         0         0
         0         0         0         0         0         0         0         0
         0         0         0         0         0         0         0         0
         0         0         0         0         0         0         0         0
         0         0         0         0         0         0         0         0
         0         0         0         0         0         0         0         0
         0         0         0         0         0         0         0         0
         0         0         0         0         0         0         0         0
         0         0         0         0         0         0         0         0
         0         0         0         0         0         0         0         0
         0         0         0         0         0         0         0         0
         0         0         0         0         0         0         0         0
         0         0         0         0         0         0         0         0
         0         0         0         0         0         0         0         0
         0         0         0         0         0         0         0         0
         0         0         0         0         0         0         0         0
         0         0         0         0         0         0         0         0
         0         0         0         0         0         0         0         0
         0         0         0         0         0         0         0         0
         0         0         0         0         0         0         0         0
         0         0         0         0         0         0         0         0
         0         0         0         0         0         0         0         0
         0         0         0         0         0         0         0         0
         0         0         0         0         0         0         0         0
         0         0         0         0         0         0         0         0
         0         0         0         0         0         0         0         0
         0         0         0         0         0         0         0         0
         0         0         0         0         0         0         0         0
         0         0         0         0         0         0         0         0
         0         0         0         0         0         0         0         0
         0         0         0         0         0         0         0         0
         0         0         0         0         0         0         0         0
         0         0         0         0         0         0         0         0
         0         0         0         0         0         0         0         0
         0         0         0         0         0         0         0         0
         0         0         0         0         0         0         0         0
         0         0         0         0         0         0         0         0
         0         0         0         0         0         0         0         0
         0         0         0         0         0         0         0         0
         0         0         0         0         0         0         0         0
         0         0         0         0         0         0         0         0
         0         0         0         0         0         0         0         0
         0         0         0         0         0         0         0         0
         0         0         0         0         0         0         0         0
         0         0         0         0         0         0         0         0
         0         0         0         0         0         0         0         0
         0         0         0         0         0         0         0         0
         0         0         0         0         0         0         0         0
         0         0         0         0         0         0         0         0
         0         0         0         0         0         0         0         0
         0         0         0         0         0         0         0         0
         0         0         0         0         0         0         0         0
         0         0         0         0         0         0         0         0
         0         0         0         0         0         0         0         0
         0         0         0         0         0         0         0         0
         0         0         0         0         0         0         0         0
         0         0         0         0         0         0         0         0
         0         0         0         0         0         0         0         0
         0         0         0         0         0         0         0         0
         0         0         0         0         0         0         0         0
         0         0         0         0         0         0         0         0
         0         0         0         0         0         0         0         0
         0         0         0         0         0         0         0         0
         0         0         0         0         0         0         0         0
         0         0         0         0         0         0         0         0
         0         0         0         0         0         0         0         0
         0         0         0         0         0         0         0         0
         0         0         0         0         0         0         0         0
         0         0         0         0         0         0         0         0
         0         0         0         0         0         0         0         0
         0         0         0         0         0         0         0         0
         0         0         0         0         0         0         0         0
         0         0         0         0         0         0         0         0
         0         0         0         0         0         0         0         0
         0         0         0         0         0         0         0         0
         0         0         0         0         0         0         0         0
         0         0         0         0         0         0         0         0
         0         0         0         0         0         0         0         0
         0         0         0         0         0         0         0         0
         0         0         0         0         0         0         0         0
         0         0         0         0         0         0         0         0
         0         0         0         0         0         0         0         0
         0         0         0         0         0         0         0         0
         0         0         0         0         0         0         0         0
         0         0         0         0         0         0         0         0
         0         0         0         0         0         0         0         0
         0         0         0         0         0         0         0         0
         0         0         0         0         0         0         0         0
         0         0         0         0         0         0         0         0
         0         0         0         0         0         0         0         0
         0         0         0         0         0         0         0         0
         0         0         0         0         0         0         0         0
         0         0         0         0         0         0         0         0
         0         0         0         0         0         0         0         0
         0         0         0         0         0         0         0         0
         0         0         0         0         0         0         0         0
         0         0         0         0         0         0         0         0
         0         0         0         0         0         0         0         0
         0         0         0         0         0         0         0         0
         0         0         0         0         0         0         0         0
         0         0         0         0         0         0         0         0
         0         0         0         0         0         0         0         0
         0         0         0         0         0         0         0         0
         0         0         0         0         0         0         0         0
         0         0         0         0         0         0         0         0
         0         0         0         0         0         0         0         0
         0         0         0         0         0         0         0         0
         0         0         0         0         0         0         0         0
         0         0         0         0         0         0         0         0
         0         0         0         0         0         0         0         0
         0         0         0         0         0         0         0         0
         0         0         0         0         0         0         0         0
         0         0         0         0         0         0         0         0
         0         0         0         0         0         0         0         0
         0         0         0         0         0         0         0         0
         0         0         0         0         0         0         0         0
         0         0         0         0         0         0         0         0
         0         0         0         0         0         0         0         0
         0         0         0         0         0         0         0         0
         0         0         0         0         0         0         0         0
         0         0         0         0         0         0         0         0
         0         0         0         0         0         0         0         0
         0         0         0         0         0         0         0         0
         0         0         0         0         0         0         0         0
         0         0         0         0         0         0         0         0
         0         0         0         0         0         0         0         0
         0         0         0         0         0         0         0         0
         0         0         0         0         0         0         0         0
         0         0         0         0         0         0         0         0
         0         0         0         0         0         0         0         0
         0         0         0         0         0         0         0         0
         0         0         0         0         0         0         0         0
         0         0         0         0         0         0         0         0
         0         0         0         0         0         0         0         0
         0         0         0         0         0         0         0         0
         0         0         0         0         0         0         0         0
         0         0         0         0         0         0         0         0
         0         0         0         0         0         0         0         0
         0         0         0         0         0         0         0         0
         0         0         0         0         0         0         0         0
         0         0         0         0         0         0         0         0
         0         0         0         0         0         0         0         0
         0         0         0         0         0         0         0         0
         0         0         0         0         0         0         0         0
         0         0         0         0         0         0         0         0
         0         0         0         0         0         0         0         0
         0         0         0         0         0         0         0         0
         0         0         0         0         0         0         0         0
         0         0         0         0         0         0         0         0
         0         0         0         0         0         0         0         0
         0         0         0         0         0         0         0         0
         0         0         0         0         0         0         0         0
         0         0         0         0         0         0         0         0
         0         0         0         0         0         0         0         0
         0         0         0         0         0         0         0         0
         0         0         0         0         0         0         0         0
         0         0         0         0         0         0         0         0
         0         0         0         0         0         0         0         0
         0         0         0         0         0         0         0         0
         0         0         0         0         0         0         0         0
         0         0         0         0         0         0         0         0
         0         0         0         0         0         0         0         0
         0         0         0         0         0         0         0         0
         0         0         0         0         0         0         0         0
         0         0         0         0         0         0         0         0
         0         0         0         0         0         0         0         0
         0         0         0         0         0         0         0         0
         0         0         0         0         0         0         0         0
         0         0         0         0         0         0         0         0
         0         0         0         0         0         0         0         0
         0         0         0         0         0         0         0         0
         0         0         0         0         0         0         0         0
         0         0         0         0         0         0         0         0
         0         0         0         0         0         0         0         0
         0         0         0         0         0         0         0         0
         0         0         0         0         0         0         0         0
         0         0         0         0         0         0         0         0
         0         0         0         0         0         0         0         0
         0         0         0         0         0         0         0         0
         0         0         0         0         0         0         0         0
         0         0         0         0         0         0         0         0
         0         0         0         0         0         0         0         0
         0         0         0         0         0         0         0         0
         0         0         0         0         0         0         0         0
         0         0         0         0         0         0         0         0
         0         0         0         0         0         0         0         0
         0         0         0         0         0         0         0         0
         0         0         0         0         0         0         0         0
         0         0         0         0         0         0         0         0
         0         0         0         0         0         0         0         0
         0         0         0         0         0         0         0         0
         0         0         0         0         0         0         0         0
         0         0         0         0         0         0         0         0
         0         0         0         0         0         0         0         0
         0         0         0         0         0         0         0         0
         0         0         0         0         0         0         0         0
         0         0         0         0         0         0         0         0
         0         0         0         0         0         0         0         0
         0         0         0         0         0         0         0         0
         0         0         0         0         0         0         0         0
         0         0         0         0         0         0         0         0
         0         0         0         0         0         0         0         0
         0         0         0         0         0         0         0         0
         0         0         0         0         0         0         0         0
         0         0         0         0         0         0         0         0
         0         0         0         0         0         0         0         0
         0         0         0         0         0         0         0         0
         0         0         0         0         0         0         0         0
         0         0         0         0         0         0         0         0
         0         0         0         0         0         0         0         0
         0         0         0         0         0         0         0         0
         0         0         0         0         0         0         0         0
         0         0         0         0         0         0         0         0
         0         0         0         0         0         0         0         0
         0         0         0         0         0         0         0         0
         0         0         0         0         0         0         0         0
         0         0         0         0         0         0         0         0
         0         0         0         0         0         0         0         0
         0         0         0         0         0         0         0         0
         0         0         0         0         0         0         0         0
         0         0         0         0         0         0         0         0
         0         0         0         0         0         0         0         0
         0         0         0         0         0         0         0         0
         0         0         0         0         0         0         0         0
         0         0         0         0         0         0         0         0
         0         0         0         0         0         0         0         0
         0         0         0         0         0         0         0         0
         0         0         0         0         0         0         0         0
         0         0         0         0         0         0         0         0
         0         0         0         0         0         0         0         0
         0         0         0         0         0         0         0         0
         0         0         0         0         0         0         0         0
         0         0         0         0         0         0         0         0
         0         0         0         0         0         0         0         0
         0         0         0         0         0         0         0         0
         0         0         0         0         0         0         0         0
         0         0         0         0         0         0         0         0
         0         0         0         0         0         0         0         0
         0         0         0         0         0         0         0         0
         0         0         0         0         0         0         0         0
         0         0         0         0         0         0         0         0
         0         0         0         0         0         0         0         0
         0         0         0         0         0         0         0         0
         0         0         0         0         0         0         0         0
         0         0         0         0         0         0         0         0
         0         0         0         0         0         0         0         0
         0         0         0         0         0         0         0         0
         0         0         0         0         0         0         0         0
         0         0         0         0         0         0         0         0
         0         0         0         0         0         0         0         0
         0         0         0         0         0         0         0         0
         0         0         0         0         0         0         0         0
         0         0         0         0         0         0         0         0
         0         0         0         0         0         0         0         0
         0         0         0         0         0         0         0         0
         0         0         0         0         0         0         0         0
         0         0         0         0         0         0         0         0
         0         0         0         0         0         0         0         0
         0         0         0         0         0         0         0         0
         0         0         0         0         0         0         0         0
         0         0         0         0         0         0         0         0
         0         0         0         0         0         0         0         0
         0         0         0         0         0         0         0         0
         0         0         0         0         0         0         0         0
         0         0         0         0         0         0         0         0
         0         0         0         0         0         0         0         0
         0         0         0         0         0         0         0         0
         0         0         0         0         0         0         0         0
         0         0         0         0         0         0         0         0
         0         0         0         0         0         0         0         0
         0         0         0         0         0         0         0         0
         0         0         0         0         0         0         0         0
         0         0         0         0         0         0         0         0
         0         0         0         0         0         0         0         0
         0         0         0         0         0         0         0         0
         0         0         0         0         0         0         0         0
         0         0         0         0         0         0         0         0
         0         0         0         0         0         0         0         0
         0         0         0         0         0         0         0         0
         0         0         0         0         0         0         0         0
         0         0         0         0         0         0         0         0
         0         0         0         0         0         0         0         0
         0         0         0         0         0         0         0         0
         0         0         0         0         0         0         0         0
         0         0         0         0         0         0         0         0
         0         0         0         0         0         0         0         0
         0         0         0         0         0         0         0         0
         0         0         0         0         0         0         0         0
         0         0         0         0         0         0         0         0
         0         0         0         0         0         0         0         0
         0         0         0         0         0         0         0         0
         0         0         0         0         0         0         0         0
         0         0         0         0         0         0         0         0
         0         0         0         0         0         0         0         0
         0         0         0         0         0         0         0         0
         0         0         0         0         0         0         0         0
         0         0         0         0         0         0         0         0
         0         0         0         0         0         0         0         0
         0         0         0         0         0         0         0         0
         0         0         0         0         0         0         0         0
         0         0         0         0         0         0         0         0
         0         0         0         0         0         0         0         0
         0         0         0         0         0         0         0         0
         0         0         0         0         0         0         0         0
         0         0         0         0         0         0         0         0
         0         0         0         0         0         0         0         0
         0         0         0         0         0         0         0         0
         0         0         0         0         0         0         0         0
         0         0         0         0         0         0         0         0
         0         0         0         0         0         0         0         0
         0         0         0         0         0         0         0         0
         0         0         0         0         0         0         0         0
         0         0         0         0         0         0         0         0
         0         0         0         0         0         0         0         0
         0         0         0         0         0         0         0         0
         0         0         0         0         0         0         0         0
         0         0         0         0         0         0         0         0
         0         0         0         0         0         0         0         0
         0         0         0         0         0         0         0         0
         0         0         0         0         0         0         0         0
         0         0         0         0         0         0         0         0
         0         0         0         0         0         0         0         0
         0         0         0         0         0         0         0         0
         0         0         0         0         0         0         0         0
         0         0         0         0         0         0         0         0
         0         0         0         0         0         0         0         0
         0         0         0         0         0         0         0         0
         0         0         0         0         0         0         0         0
         0         0         0         0         0         0         0         0
         0         0         0         0         0         0         0         0
         0         0         0         0         0         0         0         0
         0         0         0         0         0         0         0         0
         0         0         0         0         0         0         0         0
         0         0         0         0         0         0         0         0
         0         0         0         0         0         0         0         0
         0         0         0         0         0         0         0         0
         0         0         0         0         0         0         0         0
         0         0         0         0         0         0         0         0
         0         0         0         0         0         0         0         0
         0         0         0         0         0         0         0         0
         0         0         0         0         0         0         0         0
         0         0         0         0         0         0         0         0
         0         0         0         0         0         0         0         0
         0         0         0         0         0         0         0         0
         0         0         0         0         0         0         0         0
         0         0         0         0         0         0         0         0
         0         0         0         0         0         0         0         0
         0         0         0         0         0         0         0         0
         0         0         0         0         0         0         0         0
         0         0         0         0         0         0         0         0
         0         0         0         0         0         0         0         0
         0         0         0         0         0         0         0         0
         0         0         0         0         0         0         0         0
         0         0         0         0         0         0         0         0
         0         0         0         0         0         0         0         0
         0         0         0         0         0         0         0         0
         0         0         0         0         0         0         0         0
         0         0         0         0         0         0         0         0
         0         0         0         0         0         0         0         0
         0         0         0         0         0         0         0         0
         0         0         0         0         0         0         0         0
         0         0         0         0         0         0         0         0
         0         0         0         0         0         0         0         0
         0         0         0         0         0         0         0         0
         0         0         0         0         0         0         0         0
         0         0         0         0         0         0         0         0
         0         0         0         0         0         0         0         0
         0         0         0         0         0         0         0         0
         0         0         0         0         0         0         0         0
         0         0         0         0         0         0         0         0
         0         0         0         0         0         0         0         0
         0         0         0         0         0         0         0         0
         0         0         0         0         0         0         0         0
         0         0         0         0         0         0         0         0
         0         0         0         0         0         0         0         0
         0         0         0         0         0         0         0         0
         0         0         0         0         0         0         0         0
         0         0         0         0         0         0         0         0
         0         0         0         0         0         0         0         0
         0         0         0         0         0         0         0         0
         0         0         0         0         0         0         0         0
         0         0         0         0         0         0         0         0
         0         0         0         0         0         0         0         0
         0         0         0         0         0         0         0         0
         0         0         0         0         0         0         0         0
         0         0         0         0         0         0         0         0
         0         0         0         0         0         0         0         0
         0         0         0         0         0         0         0         0
         0         0         0         0         0         0         0         0
         0         0         0         0         0         0         0         0
         0         0         0         0         0         0         0         0
         0         0         0         0         0         0         0         0
         0         0         0         0         0         0         0         0
         0         0         0         0         0         0         0         0
         0         0         0         0         0         0         0         0
         0         0         0         0         0         0         0         0
         0         0         0         0         0         0         0         0
         0         0         0         0         0         0         0         0
         0         0         0         0         0         0         0         0
         0         0         0         0         0         0         0         0
         0         0         0         0         0         0         0         0
         0         0         0         0         0         0         0         0
         0         0         0         0         0         0         0         0
         0         0         0         0         0         0         0         0
         0         0         0         0         0         0         0         0
         0         0         0         0         0         0         0         0
         0         0         0         0         0         0         0         0
         0         0         0         0         0         0         0         0
         0         0         0         0         0         0         0         0
         0         0         0         0         0         0         0         0
         0         0         0         0         0         0         0         0
         0         0         0         0         0         0         0         0
         0         0         0         0         0         0         0         0
         0         0         0         0         0         0         0         0
         0         0         0         0         0         0         0         0
         0         0         0         0         0         0         0         0
         0         0         0         0         0         0         0         0
         0         0         0         0         0         0         0         0
         0         0         0         0         0         0         0         0
         0         0         0         0         0         0         0         0
         0         0         0         0         0         0         0         0
         0         0         0         0         0         0         0         0
         0         0         0         0         0         0         0         0
         0         0         0         0         0         0         0         0
         0         0         0         0         0         0         0         0
         0         0         0         0         0         0         0         0
         0         0         0         0         0         0         0         0
         0         0         0         0         0         0         0         0
         0         0         0         0         0         0         0         0
         0         0         0         0         0         0         0         0
         0         0         0         0         0         0         0         0
         0         0         0         0         0         0         0         0
         0         0         0         0         0         0         0         0
         0         0         0         0         0         0         0         0
         0         0         0         0         0         0         0         0
         0         0         0         0         0         0         0         0
         0         0         0         0         0         0         0         0
         0         0         0         0         0         0         0         0
         0         0         0         0         0         0         0         0
         0         0         0         0         0         0         0         0
         0         0         0         0         0         0         0         0
         0         0         0         0         0         0         0         0
         0         0         0         0         0         0         0         0
         0         0         0         0         0         0         0         0
         0         0         0         0         0         0         0         0
         0         0         0         0         0         0         0         0
         0         0         0         0         0         0         0         0
         0         0         0         0         0         0         0         0
         0         0         0         0         0         0         0         0
         0         0         0         0         0         0         0         0
         0         0         0         0         0         0         0         0
         0         0         0         0         0         0         0         0
         0         0         0         0         0         0         0         0
         0         0         0         0         0         0         0         0
         0         0         0         0         0         0         0         0
         0         0         0         0         0         0         0         0
         0         0         0         0         0         0         0         0
         0         0         0         0         0         0         0         0
         0         0         0         0         0         0         0         0
         0         0         0         0         0         0         0         0
         0         0         0         0         0         0         0         0
         0         0         0         0         0         0         0         0
         0         0         0         0         0         0         0         0
         0         0         0         0         0         0         0         0
         0         0         0         0         0         0         0         0
         0         0         0         0         0         0         0         0
         0         0         0         0         0         0         0         0
         0         0         0         0         0         0         0         0
         0         0         0         0         0         0         0         0
         0         0         0         0         0         0         0         0
         0         0         0         0         0         0         0         0
         0         0         0         0         0         0         0         0
         0         0         0         0         0         0         0         0
         0         0         0         0         0         0         0         0
         0         0         0         0         0         0         0         0
         0         0         0         0         0         0         0         0
         0         0         0         0         0         0         0         0
         0         0         0         0         0         0         0         0
         0         0         0         0         0         0         0         0
         0         0         0         0         0         0         0         0
         0         0         0         0         0         0         0         0
         0         0         0         0         0         0         0         0
         0         0         0         0         0         0         0         0
         0         0         0         0         0         0         0         0
         0         0         0         0         0         0         0         0
         0         0         0         0         0         0         0         0
         0         0         0         0         0         0         0         0
         0         0         0         0         0         0         0         0
         0         0         0         0         0         0         0         0
         0         0         0         0         0         0         0         0
         0         0         0         0         0         0         0         0
         0         0         0         0         0         0         0         0
         0         0         0         0         0         0         0         0
         0         0         0         0         0         0         0         0
         0         0         0         0         0         0         0         0
         0         0         0         0         0         0         0         0
         0         0         0         0         0         0         0         0
         0         0         0         0         0         0         0         0
         0         0         0         0         0         0         0         0
         0         0         0         0         0         0         0         0
         0         0         0         0         0         0         0         0
         0         0         0         0         0         0         0         0
         0         0         0         0         0         0         0         0
         0         0         0         0         0         0         0         0
         0         0         0         0         0         0         0         0
         0         0         0         0         0         0         0         0
         0         0         0         0         0         0         0         0
         0         0         0         0         0         0         0         0
         0         0         0         0         0         0         0         0
         0         0         0         0         0         0         0         0
         0         0         0         0         0         0         0         0
         0         0         0         0         0         0         0         0
         0         0         0         0         0         0         0         0
         0         0         0         0         0         0         0         0
         0         0         0         0         0         0         0         0
         0         0         0         0         0         0         0         0
         0         0         0         0         0         0         0         0
         0         0         0         0         0         0         0         0
         0         0         0         0         0         0         0         0
         0         0         0         0         0         0         0         0
         0         0         0         0         0         0         0         0
         0         0         0         0         0         0         0         0
         0         0         0         0         0         0         0         0
         0         0         0         0         0         0         0         0
         0         0         0         0         0         0         0         0
         0         0         0         0         0         0         0         0
         0         0         0         0         0         0         0         0
         0         0         0         0         0         0         0         0
         0         0         0         0         0         0         0         0
         0         0         0         0         0         0         0         0
         0         0         0         0         0         0         0         0
         0         0         0         0         0         0         0         0
         0         0         0         0         0         0         0         0
         0         0         0         0         0         0         0         0
         0         0         0         0         0         0         0         0
         0         0         0         0         0         0         0         0
         0         0         0         0         0         0         0         0
         0         0         0         0         0         0         0         0
         0         0         0         0         0         0         0         0
         0         0         0         0         0         0         0         0
         0         0         0         0         0         0         0         0
         0         0         0         0         0         0         0         0
         0         0         0         0         0         0         0         0
         0         0         0         0         0         0         0         0
         0         0         0         0         0         0         0         0
         0         0         0         0         0         0         0         0
         0         0         0         0         0         0         0         0
         0         0         0         0         0         0         0         0
         0         0         0         0         0         0         0         0
         0         0         0         0         0         0         0         0
         0         0         0         0         0         0         0         0
         0         0         0         0         0         0         0         0
         0         0         0         0         0         0         0         0
         0         0         0         0         0         0         0         0
         0         0         0         0         0         0         0         0
         0         0         0         0         0         0         0         0
         0         0         0         0         0         0         0         0
         0         0         0         0         0         0         0         0
         0         0         0         0         0         0         0         0
         0         0         0         0         0         0         0         0
         0         0         0         0         0         0         0         0
         0         0         0         0         0         0         0         0
         0         0         0         0         0         0         0         0
         0         0         0         0         0         0         0         0
         0         0         0         0         0         0         0         0
         0         0         0         0         0         0         0         0
         0         0         0         0         0         0         0         0
         0         0         0         0         0         0         0         0
         0         0         0         0         0         0         0         0
         0         0         0         0         0         0         0         0
         0         0         0         0         0         0         0         0
         0         0         0         0         0         0         0         0
         0         0         0         0         0         0         0         0
         0         0         0         0         0         0         0         0
         0         0         0         0         0         0         0         0
         0         0         0         0         0         0         0         0
         0         0         0         0         0         0         0         0
         0         0         0         0         0         0         0         0
         0         0         0         0         0         0         0         0
         0         0         0         0         0         0         0         0
         0         0         0         0         0         0         0         0
         0         0         0         0         0         0         0         0
         0         0         0         0         0         0         0         0
         0         0         0         0         0         0         0         0
         0         0         0         0         0         0         0         0
         0         0         0         0         0         0         0         0
         0         0         0         0         0         0         0         0
         0         0         0         0         0         0         0         0
         0         0         0         0         0         0         0         0
         0         0         0         0         0         0         0         0
         0         0         0         0         0         0         0         0
         0         0         0         0         0         0         0         0
         0         0         0         0         0         0         0         0
         0         0         0         0         0         0         0         0
         0         0         0         0         0         0         0         0
         0         0         0         0         0         0         0         0
         0         0         0         0         0         0         0         0
         0         0         0         0         0         0         0         0
         0         0         0         0         0         0         0         0
         0         0         0         0         0         0         0         0
         0         0         0         0         0         0         0         0
         0         0         0         0         0         0         0         0
         0         0         0         0         0         0         0         0
         0         0         0         0         0         0         0         0
         0         0         0         0         0         0         0         0
         0         0         0         0         0         0         0         0
         0         0         0         0         0         0         0         0
         0         0         0         0         0         0         0         0
         0         0         0         0         0         0         0         0
         0         0         0         0         0         0         0         0
         0         0         0         0         0         0         0         0
         0         0         0         0         0         0         0         0
         0         0         0         0         0         0         0         0
         0         0         0         0         0         0         0         0
         0         0         0         0         0         0         0         0
         0         0         0         0         0         0         0         0
         0         0         0         0         0         0         0         0
         0         0         0         0         0         0         0         0
         0         0         0         0         0         0         0         0
         0         0         0         0         0         0         0         0
         0         0         0         0         0         0         0         0
         0         0         0         0         0         0         0         0
         0         0         0         0         0         0         0         0
         0         0         0         0         0         0         0         0
         0         0         0         0         0         0         0         0
         0         0         0         0         0         0         0         0
         0         0         0         0         0         0         0         0
         0         0         0         0         0         0         0         0
         0         0         0         0         0         0         0         0
         0         0         0         0         0         0         0         0
         0         0         0         0         0         0         0         0
         0         0         0         0         0         0         0         0
         0         0         0         0         0         0         0         0
         0         0         0         0         0         0         0         0
         0         0         0         0         0         0         0         0
         0         0         0         0         0         0         0         0
         0         0         0         0         0         0         0         0
         0         0         0         0         0         0         0         0
         0         0         0         0         0         0         0         0
         0         0         0         0         0         0         0         0
         0         0         0         0         0         0         0         0
         0         0         0         0         0         0         0         0
         0         0         0         0         0         0         0         0
         0         0         0         0         0         0         0         0
         0         0         0         0         0         0         0         0
         0         0         0         0         0         0         0         0
         0         0         0         0         0         0         0         0
         0         0         0         0         0         0         0         0
         0         0         0         0         0         0         0         0
         0         0         0         0         0         0         0         0
         0         0         0         0         0         0         0         0
         0         0         0         0         0         0         0         0
         0         0         0         0         0         0         0         0
         0         0         0         0         0         0         0         0
         0         0         0         0         0         0         0         0
         0         0         0         0         0         0         0         0
         0         0         0         0         0         0         0         0
         0         0         0         0         0         0         0         0
         0         0         0         0         0         0         0         0
         0         0         0         0         0         0         0         0
         0         0         0         0         0         0         0         0
         0         0         0         0         0         0         0         0
         0         0         0         0         0         0         0         0
         0         0         0         0         0         0         0         0
         0         0         0         0         0         0         0         0
         0         0         0         0         0         0         0         0
         0         0         0         0         0         0         0         0
         0         0         0         0         0         0         0         0
         0         0         0         0         0         0         0         0
         0         0         0         0         0         0         0         0
         0         0         0         0         0         0         0         0
         0         0         0         0         0         0         0         0
         0         0         0         0         0         0         0         0
         0         0         0         0         0         0         0         0
         0         0         0         0         0         0         0         0
         0         0         0         0         0         0         0         0
         0         0         0         0         0         0         0         0
         0         0         0         0         0         0         0         0
         0         0         0         0         0         0         0         0
         0         0         0         0         0         0         0         0
         0         0         0         0         0         0         0         0
         0         0         0         0         0         0         0         0
         0         0         0         0         0         0         0         0
         0         0         0         0         0         0         0         0
         0         0         0         0         0         0         0         0
         0         0         0         0         0         0         0         0
         0         0         0         0         0         0         0         0
         0         0         0         0         0         0         0         0
         0         0         0         0         0         0         0         0
         0         0         0         0         0         0         0         0
         0         0         0         0         0         0         0         0
         0         0         0         0         0         0         0         0
         0         0         0         0         0         0         0         0
         0         0         0         0         0         0         0         0
         0         0         0         0         0         0         0         0
         0         0         0         0         0         0         0         0
         0         0         0         0         0         0         0         0
         0         0         0         0         0         0         0         0
         0         0         0         0         0         0         0         0
         0         0         0         0         0         0         0         0
         0         0         0         0         0         0         0         0
         0         0         0         0         0         0         0         0
         0         0         0         0         0         0         0         0
         0         0         0         0         0         0         0         0
         0         0         0         0         0         0         0         0
         0         0         0         0         0         0         0         0
         0         0         0         0         0         0         0         0
         0         0         0         0         0         0         0         0
         0         0         0         0         0         0         0         0
         0         0         0         0         0         0         0         0
         0         0         0         0         0         0         0         0
         0         0         0         0         0         0         0         0
         0         0         0         0         0         0         0         0
         0         0         0         0         0         0         0         0
         0         0         0         0         0         0         0         0
         0         0         0         0         0         0         0         0
         0         0         0         0         0         0         0         0
         0         0         0         0         0         0         0         0
         0         0         0         0         0         0         0         0
         0         0         0         0         0         0         0         0
         0         0         0         0         0         0         0         0
         0         0         0         0         0         0         0         0
         0         0         0         0         0         0         0         0
         0         0         0         0         0         0         0         0
         0         0         0         0         0         0         0         0
         0         0         0         0         0         0         0         0
         0         0         0         0         0         0         0         0
         0         0         0         0         0         0         0         0
         0         0         0         0         0         0         0         0
         0         0         0         0         0         0         0         0
         0         0         0         0         0         0         0         0
         0         0         0         0         0         0         0         0
         0         0         0         0         0         0         0         0
         0         0         0         0         0         0         0         0
         0         0         0         0         0         0         0         0
         0         0         0         0         0         0         0         0
         0         0         0         0         0         0         0         0
         0         0         0         0         0         0         0         0
         0         0         0         0         0         0         0         0
         0         0         0         0         0         0         0         0
         0         0         0         0         0         0         0         0
         0         0         0         0         0         0         0         0
         0         0         0         0         0         0         0         0
         0         0         0         0         0         0         0         0
         0         0         0         0         0         0         0         0
         0         0         0         0         0         0         0         0
         0         0         0         0         0         0         0         0
         0         0         0         0         0         0         0         0
         0         0         0         0         0         0         0         0
         0         0         0         0         0         0         0         0
         0         0         0         0         0         0         0         0
         0         0         0         0         0         0         0         0
         0         0         0         0         0         0         0         0
         0         0         0         0         0         0         0         0
         0         0         0         0         0         0         0         0
         0         0         0         0         0         0         0         0
         0         0         0         0         0         0         0         0
         0         0         0         0         0         0         0         0
         0         0         0         0         0         0         0         0
         0         0         0         0         0         0         0         0
         0         0         0         0         0         0         0         0
         0         0         0         0         0         0         0         0
         0         0         0         0         0         0         0         0
         0         0         0         0         0         0         0         0
         0         0         0         0         0         0         0         0
         0         0         0         0         0         0         0         0
         0         0         0         0         0         0         0         0
         0         0         0         0         0         0         0         0
         0         0         0         0         0         0         0         0
         0         0         0         0         0         0         0         0
         0         0         0         0         0         0         0         0
         0         0         0         0         0         0         0         0
         0         0         0         0         0         0         0         0
         0         0         0         0         0         0         0         0
         0         0         0         0         0         0         0         0
         0         0         0         0         0         0         0         0
         0         0         0         0         0         0         0         0
         0         0         0         0         0         0         0         0
         0         0         0         0         0         0         0         0
         0         0         0         0         0         0         0         0
         0         0         0         0         0         0         0         0
         0         0         0         0         0         0         0         0
         0         0         0         0         0         0         0         0
         0         0         0         0         0         0         0         0
         0         0         0         0         0         0         0         0
         0         0         0         0         0         0         0         0
         0         0         0         0         0         0         0         0
         0         0         0         0         0         0         0         0
         0         0         0         0         0         0         0         0
         0         0         0         0         0         0         0         0
         0         0         0         0         0         0         0         0
         0         0         0         0         0         0         0         0
         0         0         0         0         0         0         0         0
         0         0         0         0         0         0         0         0
         0         0         0         0         0         0         0         0
         0         0         0         0         0         0         0         0
         0         0         0         0         0         0         0         0
         0         0         0         0         0         0         0         0
         0         0         0         0         0         0         0         0
         0         0         0         0         0         0         0         0
         0         0         0         0         0         0         0         0
         0         0         0         0         0         0         0         0
         0         0         0         0         0         0         0         0
         0         0         0         0         0         0         0         0
         0         0         0         0         0         0         0         0
         0         0         0         0         0         0         0         0
         0         0         0         0         0         0         0         0
         0         0         0         0         0         0         0         0
         0         0         0         0         0         0         0         0
         0         0         0         0         0         0         0         0
         0         0         0         0         0         0         0         0
         0         0         0         0         0         0         0         0
         0         0         0         0         0         0         0         0
         0         0         0         0         0         0         0         0
         0         0         0         0         0         0         0         0
         0         0         0         0         0         0         0         0
         0         0         0         0         0         0         0         0
         0         0         0         0         0         0         0         0
         0         0         0         0         0         0         0         0
         0         0         0         0         0         0         0         0
         0         0         0         0         0         0         0         0
         0         0         0         0         0         0         0         0
         0         0         0         0         0         0         0         0
         0         0         0         0         0         0         0         0
         0         0         0         0         0         0         0         0
         0         0         0         0         0         0         0         0
         0         0         0         0         0         0         0         0
         0         0         0         0         0         0         0         0
         0         0         0         0         0         0         0         0
         0         0         0         0         0         0         0         0
         0         0         0         0         0         0         0         0
         0         0         0         0         0         0         0         0
         0         0         0         0         0         0         0         0
         0         0         0         0         0         0         0         0
         0         0         0         0         0         0         0         0
         0         0         0         0         0         0         0         0
         0         0         0         0         0         0         0         0
         0         0         0         0         0         0         0         0
         0         0         0         0         0         0         0         0
         0         0         0         0         0         0         0         0
         0         0         0         0         0         0         0         0
         0         0         0         0         0         0         0         0
         0         0         0         0         0         0         0         0
         0         0         0         0         0         0         0         0
         0         0         0         0         0         0         0         0
         0         0         0         0         0         0         0         0
         0         0         0         0         0         0         0         0
         0         0         0         0         0         0         0         0
         0         0         0         0         0         0         0         0
         0         0         0         0         0         0         0         0
         0         0         0         0         0         0         0         0
         0         0         0         0         0         0         0         0
         0         0         0         0         0         0         0         0
         0         0         0         0         0         0         0         0
         0         0         0         0         0         0         0         0
         0         0         0         0         0         0         0         0
         0         0         0         0         0         0         0         0
         0         0         0         0         0         0         0         0
         0         0         0         0         0         0         0         0
         0         0         0         0         0         0         0         0
         0         0         0         0         0         0         0         0
         0         0         0         0         0         0         0         0
         0         0         0         0         0         0         0         0
         0         0         0         0         0         0         0         0
         0         0         0         0         0         0         0         0
         0         0         0         0         0         0         0         0
         0         0         0         0         0         0         0         0
         0         0         0         0         0         0         0         0
         0         0         0         0         0         0         0         0
         0         0         0         0         0         0         0         0
         0         0         0         0         0         0         0         0
         0         0         0         0         0         0         0         0
         0         0         0         0         0         0         0         0
         0         0         0         0         0         0         0         0
         0         0         0         0         0         0         0         0
         0         0         0         0         0         0         0         0
         0         0         0         0         0         0         0         0
         0         0         0         0         0         0         0         0
         0         0         0         0         0         0         0         0
         0         0         0         0         0         0         0         0
         0         0         0         0         0         0         0         0
         0         0         0         0         0         0         0         0
         0         0         0         0         0         0         0         0
         0         0         0         0         0         0         0         0
         0         0         0         0         0         0         0         0
         0         0         0         0         0         0         0         0
         0         0         0         0         0         0         0         0
         0         0         0         0         0         0         0         0
         0         0         0         0         0         0         0         0
         0         0         0         0         0         0         0         0
         0         0         0         0         0         0         0         0
         0         0         0         0         0         0         0         0
         0         0         0         0         0         0         0         0
         0         0         0         0         0         0         0         0
         0         0         0         0         0         0         0         0
         0         0         0         0         0         0         0         0
         0         0         0         0         0         0         0         0
         0         0         0         0         0         0         0         0
         0         0         0         0         0         0         0         0
         0         0         0         0         0         0         0         0
         0         0         0         0         0         0         0         0
         0         0         0         0         0         0         0         0
         0         0         0         0         0         0         0         0
         0         0         0         0         0         0         0         0
         0         0         0         0         0         0         0         0
         0         0         0         0         0         0         0         0
         0         0         0         0         0         0         0         0
         0         0         0         0         0         0         0         0
         0         0         0         0         0         0         0         0
         0         0         0         0         0         0         0         0
         0         0         0         0         0         0         0         0
         0         0         0         0         0         0         0         0
         0         0         0         0         0         0         0         0
         0         0         0         0         0         0         0         0
         0         0         0         0         0         0         0         0
         0         0         0         0         0         0         0         0
         0         0         0         0         0         0         0         0
         0         0         0         0         0         0         0         0
         0         0         0         0         0         0         0         0
         0         0         0         0         0         0         0         0
         0         0         0         0         0         0         0         0
         0         0         0         0         0         0         0         0
         0         0         0         0         0         0         0         0
         0         0         0         0         0         0         0         0
         0         0         0         0         0         0         0         0
         0         0         0         0         0         0         0         0
         0         0         0         0         0         0         0         0
         0         0         0         0         0         0         0         0
         0         0         0         0         0         0         0         0
         0         0         0         0         0         0         0         0
         0         0         0         0         0         0         0         0
         0         0         0         0         0         0         0         0
         0         0         0         0         0         0         0         0
         0         0         0         0         0         0         0         0
         0         0         0         0         0         0         0         0
         0         0         0         0         0         0         0         0
         0         0         0         0         0         0         0         0
         0         0         0         0         0         0         0         0
         0         0         0         0         0         0         0         0
         0         0         0         0         0         0         0         0
         0         0         0         0         0         0         0         0
         0         0         0         0         0         0         0         0
         0         0         0         0         0         0         0         0
         0         0         0         0         0         0         0         0
         0         0         0         0         0         0         0         0
         0         0         0         0         0         0         0         0
         0         0         0         0         0         0         0         0
         0         0         0         0         0         0         0         0
         0         0         0         0         0         0         0         0
         0         0         0         0         0         0         0         0
         0         0         0         0         0         0         0         0
         0         0         0         0         0         0         0         0
         0         0         0         0         0         0         0         0
         0         0         0         0         0         0         0         0
         0         0         0         0         0         0         0         0
         0         0         0         0         0         0         0         0
         0         0         0         0         0         0         0         0
         0         0         0         0         0         0         0         0
         0         0         0         0         0         0         0         0
         0         0         0         0         0         0         0         0
         0         0         0         0         0         0         0         0
         0         0         0         0         0         0         0         0
         0         0         0         0         0         0         0         0
         0         0         0         0         0         0         0         0
         0         0         0         0         0         0         0         0
         0         0         0         0         0         0         0         0
         0         0         0         0         0         0         0         0
         0         0         0         0         0         0         0         0
         0         0         0         0         0         0         0         0
         0         0         0         0         0         0         0         0
         0         0         0         0         0         0         0         0
         0         0         0         0         0         0         0         0
         0         0         0         0         0         0         0         0
         0         0         0         0         0         0         0         0
         0         0         0         0         0         0         0         0
         0         0         0         0         0         0         0         0
         0         0         0         0         0         0         0         0
         0         0         0         0         0         0         0         0
         0         0         0         0         0         0         0         0
         0         0         0         0         0         0         0         0
         0         0         0         0         0         0         0         0
         0         0         0         0         0         0         0         0
         0         0         0         0         0         0         0         0
         0         0         0         0         0         0         0         0
         0         0         0         0         0         0         0         0
         0         0         0         0         0         0         0         0
         0         0         0         0         0         0         0         0
         0         0         0         0         0         0         0         0
         0         0         0         0         0         0         0         0
         0         0         0         0         0         0         0         0
         0         0         0         0         0         0         0         0
         0         0         0         0         0         0         0         0
         0         0         0         0         0         0         0         0
         0         0         0         0         0         0         0         0
         0         0         0         0         0         0         0         0
         0         0         0         0         0         0         0         0
         0         0         0         0         0         0         0         0
         0         0         0         0         0         0         0         0
         0         0         0         0         0         0         0         0
         0         0         0         0         0         0         0         0
         0         0         0         0         0         0         0         0
         0         0         0         0         0         0         0         0
         0         0         0         0         0         0         0         0
         0         0         0         0         0         0         0         0
         0         0         0         0         0         0         0         0
         0         0         0         0         0         0         0         0
         0         0         0         0         0         0         0         0
         0         0         0         0         0         0         0         0
         0         0         0         0         0         0         0         0
         0         0         0         0         0         0         0         0
         0         0         0         0         0         0         0         0
         0         0         0         0         0         0         0         0
         0         0         0         0         0         0         0         0
         0         0         0         0         0         0         0         0
         0         0         0         0         0         0         0         0
         0         0         0         0         0         0         0         0
         0         0         0         0         0         0         0         0
         0         0         0         0         0         0         0         0
         0         0         0         0         0         0         0         0
         0         0         0         0         0         0         0         0
         0         0         0         0         0         0         0         0
         0         0         0         0         0         0         0         0
         0         0         0         0         0         0         0         0
         0         0         0         0         0         0         0         0
         0         0         0         0         0         0         0         0
         0         0         0         0         0         0         0         0
         0         0         0         0         0         0         0         0
         0         0         0         0         0         0         0         0
         0         0         0         0         0         0         0         0
         0         0         0         0         0         0         0         0
         0         0         0         0         0         0         0         0
         0         0         0         0         0         0         0         0
         0         0         0         0         0         0         0         0
         0         0         0         0         0         0         0         0
         0         0         0         0         0         0         0         0
         0         0         0         0         0         0         0         0
         0         0         0         0         0         0         0         0
         0         0         0         0         0         0         0         0
         0         0         0         0         0         0         0         0
         0         0         0         0         0         0         0         0
         0         0         0         0         0         0         0         0
         0         0         0         0         0         0         0         0
         0         0         0         0         0         0         0         0
         0         0         0         0         0         0         0         0
         0         0         0         0         0         0         0         0
         0         0         0         0         0         0         0         0
         0         0         0         0         0         0         0         0
         0         0         0         0         0         0         0         0
         0         0         0         0         0         0         0         0
         0         0         0         0         0         0         0         0
         0         0         0         0         0         0         0         0
         0         0         0         0         0         0         0         0
         0         0         0         0         0         0         0         0
         0         0         0         0         0         0         0         0
         0         0         0         0         0         0         0         0
         0         0         0         0         0         0         0         0
         0         0         0         0         0         0         0         0
         0         0         0         0         0         0         0         0
         0         0         0         0         0         0         0         0
         0         0         0         0         0         0         0         0
         0         0         0         0         0         0         0         0
         0         0         0         0         0         0         0         0
         0         0         0         0         0         0         0         0
         0         0         0         0         0         0         0         0
         0         0         0         0         0         0         0         0
         0         0         0         0         0         0         0         0
         0         0         0         0         0         0         0         0
         0         0         0         0         0         0         0         0
         0         0         0         0         0         0         0         0
         0         0         0         0         0         0         0         0
         0         0         0         0         0         0         0         0
         0         0         0         0         0         0         0         0
         0         0         0         0         0         0         0         0
         0         0         0         0         0         0         0         0
         0         0         0         0         0         0         0         0
         0         0         0         0         0         0         0         0
         0         0         0         0         0         0         0         0
         0         0         0         0         0         0         0         0
         0         0         0         0         0         0         0         0
         0         0         0         0         0         0         0         0
         0         0         0         0         0         0         0         0
         0         0         0         0         0         0         0         0
         0         0         0         0         0         0         0         0
         0         0         0         0         0         0         0         0
         0         0         0         0         0         0         0         0
         0         0         0         0         0         0         0         0
         0         0         0         0         0         0         0         0
         0         0         0         0         0         0         0         0
         0         0         0         0         0         0         0         0
         0         0         0         0         0         0         0         0
         0         0         0         0         0         0         0         0
         0         0         0         0         0         0         0         0
         0         0         0         0         0         0         0         0
         0         0         0         0         0         0         0         0
         0         0         0         0         0         0         0         0
         0         0         0         0         0         0         0         0
         0         0         0         0         0         0         0         0
         0         0         0         0         0         0         0         0
         0         0         0         0         0         0         0         0
         0         0         0         0         0         0         0         0
         0         0         0         0         0         0         0         0
         0         0         0         0         0         0         0         0
         0         0         0         0         0         0         0         0
         0         0         0         0         0         0         0         0
         0         0         0         0         0         0         0         0
         0         0         0         0         0         0         0         0
         0         0         0         0         0         0         0         0
         0         0         0         0         0         0         0         0
         0         0         0         0         0         0         0         0
         0         0         0         0         0         0         0         0
         0         0         0         0         0         0         0         0
         0         0         0         0         0         0         0         0
         0         0         0         0         0         0         0         0
         0         0         0         0         0         0         0         0
         0         0         0         0         0         0         0         0
         0         0         0         0         0         0         0         0
         0         0         0         0         0         0         0         0
         0         0         0         0         0         0         0         0
         0         0         0         0         0         0         0         0
         0         0         0         0         0         0         0         0
         0         0         0         0         0         0         0         0
         0         0         0         0         0         0         0         0
         0         0         0         0         0         0         0         0
         0         0         0         0         0         0         0         0
         0         0         0         0         0         0         0         0
         0         0         0         0         0         0         0         0
         0         0         0         0         0         0         0         0
         0         0         0         0         0         0         0         0
         0         0         0         0         0         0         0         0
         0         0         0         0         0         0         0         0
         0         0         0         0         0         0         0         0
         0         0         0         0         0         0         0         0
         0         0         0         0         0         0         0         0
         0         0         0         0         0         0         0         0
         0         0         0         0         0         0         0         0
         0         0         0         0         0         0         0         0
         0         0         0         0         0         0         0         0
         0         0         0         0         0         0         0         0
         0         0         0         0         0         0         0         0
         0         0         0         0         0         0         0         0
         0         0         0         0         0         0         0         0
         0         0         0         0         0         0         0         0
         0         0         0         0         0         0         0         0
         0         0         0         0         0         0         0         0
         0         0         0         0         0         0         0         0
         0         0         0         0         0         0         0         0
         0         0         0         0         0         0         0         0
         0         0         0         0         0         0         0         0
         0         0         0         0         0         0         0         0
         0         0         0         0         0         0         0         0
         0         0         0         0         0         0         0         0
         0         0         0         0         0         0         0         0
         0         0         0         0         0         0         0         0
         0         0         0         0         0         0         0         0
         0         0         0         0         0         0         0         0
         0         0         0         0         0         0         0         0
         0         0         0         0         0         0         0         0
         0         0         0         0         0         0         0         0
         0         0         0         0         0         0         0         0
         0         0         0         0         0         0         0         0
         0         0         0         0         0         0         0         0
         0         0         0         0         0         0         0         0
         0         0         0         0         0         0         0         0
         0         0         0         0         0         0         0         0
         0         0         0         0         0         0         0         0
         0         0         0         0         0         0         0         0
         0         0         0         0         0         0         0         0
         0         0         0         0         0         0         0         0
         0         0         0         0         0         0         0         0
         0         0         0         0         0         0         0         0
         0         0         0         0         0         0         0         0
         0         0         0         0         0         0         0         0
         0         0         0         0         0         0         0         0
         0         0         0         0         0         0         0         0
         0         0         0         0         0         0         0         0
         0         0         0         0         0         0         0         0
         0         0         0         0         0         0         0         0
         0         0         0         0         0         0         0         0
         0         0         0         0         0         0         0         0
         0         0         0         0         0         0         0         0
         0         0         0         0         0         0         0         0
         0         0         0         0         0         0         0         0
         0         0         0         0         0         0         0         0
         0         0         0         0         0         0         0         0
         0         0         0         0         0         0         0         0
         0         0         0         0         0         0         0         0
         0         0         0         0         0         0         0         0
         0         0         0         0         0         0         0         0
         0         0         0         0         0         0         0         0
         0         0         0         0         0         0         0         0
         0         0         0         0         0         0         0         0
         0         0         0         0         0         0         0         0
         0         0         0         0         0         0         0         0
         0         0         0         0         0         0         0         0
         0         0         0         0         0         0         0         0
         0         0         0         0         0         0         0         0
         0         0         0         0         0         0         0         0
         0         0         0         0         0         0         0         0
         0         0         0         0         0         0         0         0
         0         0         0         0         0         0         0         0
         0         0         0         0         0         0         0         0
         0         0         0         0         0         0         0         0
         0         0         0         0         0         0         0         0
         0         0         0         0         0         0         0         0
         0         0         0         0         0         0         0         0
         0         0         0         0         0         0         0         0
         0         0         0         0         0         0         0         0
         0         0         0         0         0         0         0         0
         0         0         0         0         0         0         0         0
         0         0         0         0         0         0         0         0
         0         0         0         0         0         0         0         0
         0         0         0         0         0         0         0         0
         0         0         0         0         0         0         0         0
         0         0         0         0         0         0         0         0
         0         0         0         0         0         0         0         0
         0         0         0         0         0         0         0         0
         0         0         0         0         0         0         0         0
         0         0         0         0         0         0         0         0
         0         0         0         0         0         0         0         0
         0         0         0         0         0         0         0         0
         0         0         0         0         0         0         0         0
         0         0         0         0         0         0         0         0
         0         0         0         0         0         0         0         0
         0         0         0         0         0         0         0         0
         0         0         0         0         0         0         0         0
         0         0         0         0         0         0         0         0
         0         0         0         0         0         0         0         0
         0         0         0         0         0         0         0         0
         0         0         0         0         0         0         0         0
         0         0         0         0         0         0         0         0
         0         0         0         0         0         0         0         0
         0         0         0         0         0         0         0         0
         0         0         0         0         0         0         0         0
         0         0         0         0         0         0         0         0
         0         0         0         0         0         0         0         0
         0         0         0         0         0         0         0         0
         0         0         0         0         0         0         0         0
         0         0         0         0         0         0         0         0
         0         0         0         0         0         0         0         0
         0         0         0         0         0         0         0         0
         0         0         0         0         0         0         0         0
         0         0         0         0         0         0         0         0
         0         0         0         0         0         0         0         0
         0         0         0         0         0         0         0         0
         0         0         0         0         0         0         0         0
         0         0         0         0         0         0         0         0
         0         0         0         0         0         0         0         0
         0         0         0         0         0         0         0         0
         0         0         0         0         0         0         0         0
         0         0         0         0         0         0         0         0
         0         0         0         0         0         0         0         0
         0         0         0         0         0         0         0         0
         0         0         0         0         0         0         0         0
         0         0         0         0         0         0         0         0
         0         0         0         0         0         0         0         0
         0         0         0         0         0         0         0         0
         0         0         0         0         0         0         0         0
         0         0         0         0         0         0         0         0
         0         0         0         0         0         0         0         0
         0         0         0         0         0         0         0         0
         0         0         0         0         0         0         0         0
         0         0         0         0         0         0         0         0
         0         0         0         0         0         0         0         0
         0         0         0         0         0         0         0         0
         0         0         0         0         0         0         0         0
         0         0         0         0         0         0         0         0
         0         0         0         0         0         0         0         0
         0         0         0         0         0         0         0         0
         0         0         0         0         0         0         0         0
         0         0         0         0         0         0         0         0
         0         0         0         0         0         0         0         0
         0         0         0         0         0         0         0         0
         0         0         0         0         0         0         0         0
         0         0         0         0         0         0         0         0
         0         0         0         0         0         0         0         0
         0         0         0         0         0         0         0         0
         0         0         0         0         0         0         0         0
         0         0         0         0         0         0         0         0
         0         0         0         0         0         0         0         0
         0         0         0         0         0         0         0         0
         0         0         0         0         0         0         0         0
         0         0         0         0         0         0         0         0
         0         0         0         0         0         0         0         0
         0         0         0         0         0         0         0         0
         0         0         0         0         0         0         0         0
         0         0         0         0         0         0         0         0
         0         0         0         0         0         0         0         0
         0         0         0         0         0         0         0         0
         0         0         0         0         0         0         0         0
         0         0         0         0         0         0         0         0
         0         0         0         0         0         0         0         0
         0         0         0         0         0         0         0         0
         0         0         0         0         0         0         0         0
         0         0         0         0         0         0         0         0
         0         0         0         0         0         0         0         0
         0         0         0         0         0         0         0         0
         0         0         0         0         0         0         0         0
         0         0         0         0         0         0         0         0
         0         0         0         0         0         0         0         0
         0         0         0         0         0         0         0         0
         0         0         0         0         0         0         0         0
         0         0         0         0         0         0         0         0
         0         0         0         0         0         0         0         0
         0         0         0         0         0         0         0         0
         0         0         0         0         0         0         0         0
         0         0         0         0         0         0         0         0
         0         0         0         0         0         0         0         0
         0         0         0         0         0         0         0         0
         0         0         0         0         0         0         0         0
         0         0         0         0         0         0         0         0
         0         0         0         0         0         0         0         0
         0         0         0         0         0         0         0         0
         0         0         0         0         0         0         0         0
         0         0         0         0         0         0         0         0
         0         0         0         0         0         0         0         0
         0         0         0         0         0         0         0         0
         0         0         0         0         0         0         0         0
         0         0         0         0         0         0         0         0
         0         0         0         0         0         0         0         0
         0         0         0         0         0         0         0         0
         0         0         0         0         0         0         0         0
         0         0         0         0         0         0         0         0
         0         0         0         0         0         0         0         0
         0         0         0         0         0         0         0         0
         0         0         0         0         0         0         0         0
         0         0         0         0         0         0         0         0
         0         0         0         0         0         0         0         0
         0         0         0         0         0         0         0         0
         0         0         0         0         0         0         0         0
         0         0         0         0         0         0         0         0
         0         0         0         0         0         0         0         0
         0         0         0         0         0         0         0         0
         0         0         0         0         0         0         0         0
         0         0         0         0         0         0         0         0
         0         0         0         0         0         0         0         0
         0         0         0         0         0         0         0         0
         0         0         0         0         0         0         0         0
         0         0         0         0         0         0         0         0
         0         0         0         0         0         0         0         0
         0         0         0         0         0         0         0         0
         0         0         0         0         0         0         0         0
         0         0         0         0         0         0         0         0
         0         0         0         0         0         0         0         0
         0         0         0         0         0         0         0         0
         0         0         0         0         0         0         0         0
         0         0         0         0         0         0         0         0
         0         0         0         0         0         0         0         0
         0         0         0         0         0         0         0         0
         0         0         0         0         0         0         0         0
         0         0         0         0         0         0         0         0
         0         0         0         0         0         0         0         0
         0         0         0         0         0         0         0         0
         0         0         0         0         0         0         0         0
         0         0         0         0         0         0         0         0
         0         0         0         0         0         0         0         0
         0         0         0         0         0         0         0         0
         0         0         0         0         0         0         0         0
         0         0         0         0         0         0         0         0
         0         0         0         0         0         0         0         0
         0         0         0         0         0         0         0         0
         0         0         0         0         0         0         0         0
         0         0         0         0         0         0         0         0
         0         0         0         0         0         0         0         0
         0         0         0         0         0         0         0         0
         0         0         0         0         0         0         0         0
         0         0         0         0         0         0         0         0
         0         0         0         0         0         0         0         0
         0         0         0         0         0         0         0         0
         0         0         0         0         0         0         0         0
         0         0         0         0         0         0         0         0
         0         0         0         0         0         0         0         0
         0         0         0         0         0         0         0         0
         0         0         0         0         0         0         0         0
         0         0         0         0         0         0         0         0
         0         0         0         0         0         0         0         0
         0         0         0         0         0         0         0         0
         0         0         0         0         0         0         0         0
         0         0         0         0         0         0         0         0
         0         0         0         0         0         0         0         0
         0         0         0         0         0         0         0         0
         0         0         0         0         0         0         0         0
         0         0         0         0         0         0         0         0
         0         0         0         0         0         0         0         0
         0         0         0         0         0         0         0         0
         0         0         0         0         0         0         0         0
         0         0         0         0         0         0         0         0
         0         0         0         0         0         0         0         0
         0         0         0         0         0         0         0         0
         0         0         0         0         0         0         0         0
         0         0         0         0         0         0         0         0
         0         0         0         0         0         0         0         0
         0         0         0         0         0         0         0         0
         0         0         0         0         0         0         0         0
         0         0         0         0         0         0         0         0
         0         0         0         0         0         0         0         0
         0         0         0         0         0         0         0         0
         0         0         0         0         0         0         0         0
         0         0         0         0         0         0         0         0
         0         0         0         0         0         0         0         0
         0         0         0         0         0         0         0         0
         0         0         0         0         0         0         0         0
         0         0         0         0         0         0         0         0
         0         0         0         0         0         0         0         0
         0         0         0         0         0         0         0         0
         0         0         0         0         0         0         0         0
         0         0         0         0         0         0         0         0
         0         0         0         0         0         0         0         0
         0         0         0         0         0         0         0         0
         0         0         0         0         0         0         0         0
         0         0         0         0         0         0         0         0
         0         0         0         0         0         0         0         0
         0         0         0         0         0         0         0         0
         0         0         0         0         0         0         0         0
         0         0         0         0         0         0         0         0
         0         0         0         0         0         0         0         0
         0         0         0         0         0         0         0         0
         0         0         0         0         0         0         0         0
         0         0         0         0         0         0         0         0
         0         0         0         0         0         0         0         0
         0         0         0         0         0         0         0         0
         0         0         0         0         0         0         0         0
         0         0         0         0         0         0         0         0
         0         0         0         0         0         0         0         0
         0         0         0         0         0         0         0         0
         0         0         0         0         0         0         0         0
         0         0         0         0         0         0         0         0
         0         0         0         0         0         0         0         0
         0         0         0         0         0         0         0         0
         0         0         0         0         0         0         0         0
         0         0         0         0         0         0         0         0
         0         0         0         0         0         0         0         0
         0         0         0         0         0         0         0         0
         0         0         0         0         0         0         0         0
         0         0         0         0         0         0         0         0
         0         0         0         0         0         0         0         0
         0         0         0         0         0         0         0         0
         0         0         0         0         0         0         0         0
         0         0         0         0         0         0         0         0
         0         0         0         0         0         0         0         0
         0         0         0         0         0         0         0         0
         0         0         0         0         0         0         0         0
         0         0         0         0         0         0         0         0
         0         0         0         0         0         0         0         0
         0         0         0         0         0         0         0         0
         0         0         0         0         0         0         0         0
         0         0         0         0         0         0         0         0
         0         0         0         0         0         0         0         0
         0         0         0         0         0         0         0         0
         0         0         0         0         0         0         0         0
         0         0         0         0         0         0         0         0
         0         0         0         0         0         0         0         0
         0         0         0         0         0         0         0         0
         0         0         0         0         0         0         0         0
         0         0         0         0         0         0         0         0
         0         0         0         0         0         0         0         0
         0         0         0         0         0         0         0         0
         0         0         0         0         0         0         0         0
         0         0         0         0         0         0         0         0
         0         0         0         0         0         0         0         0
         0         0         0         0         0         0         0         0
         0         0         0         0         0         0         0         0
         0         0         0         0         0         0         0         0
         0         0         0         0         0         0         0         0
         0         0         0         0         0         0         0         0
         0         0         0         0         0         0         0         0
         0         0         0         0         0         0         0         0
         0         0         0         0         0         0         0         0
         0         0         0         0         0         0         0         0
         0         0         0         0         0         0         0         0
         0         0         0         0         0         0         0         0
         0         0         0         0         0         0         0         0
         0         0         0         0         0         0         0         0
         0         0         0         0         0         0         0         0
         0         0         0         0         0         0         0         0
         0         0         0         0         0         0         0         0
         0         0         0         0         0         0         0         0
         0         0         0         0         0         0         0         0
         0         0         0         0         0         0         0         0
         0         0         0         0         0         0         0         0
         0         0         0         0         0         0         0         0
         0         0         0         0         0         0         0         0
         0         0         0         0         0         0         0         0
         0         0         0         0         0         0         0         0
         0         0         0         0         0         0         0         0
         0         0         0         0         0         0         0         0
         0         0         0         0         0         0         0         0
         0         0         0         0         0         0         0         0
         0         0         0         0         0         0         0         0
         0         0         0         0         0         0         0         0
         0         0         0         0         0         0         0         0
         0         0         0         0         0         0         0         0
         0         0         0         0         0         0         0         0
         0         0         0         0         0         0         0         0
         0         0         0         0         0         0         0         0
         0         0         0         0         0         0         0         0
         0         0         0         0         0         0         0         0
         0         0         0         0         0         0         0         0
         0         0         0         0         0         0         0         0
         0         0         0         0         0         0         0         0
         0         0         0         0         0         0         0         0
         0         0         0         0         0         0         0         0
         0         0         0         0         0         0         0         0
         0         0         0         0         0         0         0         0
         0         0         0         0         0         0         0         0
         0         0         0         0         0         0         0         0
         0         0         0         0         0         0         0         0
         0         0         0         0         0         0         0         0
         0         0         0         0         0         0         0         0
         0         0         0         0         0         0         0         0
         0         0         0         0         0         0         0         0
         0         0         0         0         0         0         0         0
         0         0         0         0         0         0         0         0
         0         0         0         0         0         0         0         0
         0         0         0         0         0         0         0         0
         0         0         0         0         0         0         0         0
         0         0         0         0         0         0         0         0
         0         0         0         0         0         0         0         0
         0         0         0         0         0         0         0         0
         0         0         0         0         0         0         0         0
         0         0         0         0         0         0         0         0
         0         0         0         0         0         0         0         0
         0         0         0         0         0         0         0         0
         0         0         0         0         0         0         0         0
         0         0         0         0         0         0         0         0
         0         0         0         0         0         0         0         0
         0         0         0         0         0         0         0         0
         0         0         0         0         0         0         0         0
         0         0         0         0         0         0         0         0
         0         0         0         0         0         0         0         0
         0         0         0         0         0         0         0         0
         0         0         0         0         0         0         0         0
         0         0         0         0         0         0         0         0
         0         0         0         0         0         0         0         0
         0         0         0         0         0         0         0         0
         0         0         0         0         0         0         0         0
         0         0         0         0         0         0         0         0
         0         0         0         0         0         0         0         0
         0         0         0         0         0         0         0         0
         0         0         0         0         0         0         0         0
         0         0         0         0         0         0         0         0
         0         0         0         0         0         0         0         0
         0         0         0         0         0         0         0         0
         0         0         0         0         0         0         0         0
         0         0         0         0         0         0         0         0
         0         0         0         0         0         0         0         0
         0         0         0         0         0         0         0         0
         0         0         0         0         0         0         0         0
         0         0         0         0         0         0         0         0
         0         0         0         0         0         0         0         0
         0         0         0         0         0         0         0         0
         0         0         0         0         0         0         0         0
         0         0         0         0         0         0         0         0
         0         0         0         0         0         0         0         0
         0         0         0         0         0         0         0         0
         0         0         0         0         0         0         0         0
         0         0         0         0         0         0         0         0
         0         0         0         0         0         0         0         0
         0         0         0         0         0         0         0         0
         0         0         0         0         0         0         0         0
         0         0         0         0         0         0         0         0
         0         0         0         0         0         0         0         0
         0         0         0         0         0         0         0         0
         0         0         0         0         0         0         0         0
         0         0         0         0         0         0         0         0
         0         0         0         0         0         0         0         0
         0         0         0         0         0         0         0         0
         0         0         0         0         0         0         0         0
         0         0         0         0         0         0         0         0
         0         0         0         0         0         0         0         0
         0         0         0         0         0         0         0         0
         0         0         0         0         0         0         0         0
         0         0         0         0         0         0         0         0
         0         0         0         0         0         0         0         0
         0         0         0         0         0         0         0         0
         0         0         0         0         0         0         0         0
         0         0         0         0         0         0         0         0
         0         0         0         0         0         0         0         0
         0         0         0         0         0         0         0         0
         0         0         0         0         0         0         0         0
         0         0         0         0         0         0         0         0
         0         0         0         0         0         0         0         0
         0         0         0         0         0         0         0         0
         0         0         0         0         0         0         0         0
         0         0         0         0         0         0         0         0
         0         0         0         0         0         0         0         0
         0         0         0         0         0         0         0         0
         0         0         0         0         0         0         0         0
         0         0         0         0         0         0         0         0
         0         0         0         0         0         0         0         0
         0         0         0         0         0         0         0         0
         0         0         0         0         0         0         0         0
         0         0         0         0         0         0         0         0
         0         0         0         0         0         0         0         0
         0         0         0         0         0         0         0         0
         0         0         0         0         0         0         0         0
         0         0         0         0         0         0         0         0
         0         0         0         0         0         0         0         0
         0         0         0         0         0         0         0         0
         0         0         0         0         0         0         0         0
         0         0         0         0         0         0         0         0
         0         0         0         0         0         0         0         0
         0         0         0         0         0         0         0         0
         0         0         0         0         0         0         0         0
         0         0         0         0         0         0         0         0
         0         0         0         0         0         0         0         0
         0         0         0         0         0         0         0         0
         0         0         0         0         0         0         0         0
         0         0         0         0         0         0         0         0
         0         0         0         0         0         0         0         0
         0         0         0         0         0         0         0         0
         0         0         0         0         0         0         0         0
         0         0         0         0         0         0         0         0
         0         0         0         0         0         0         0         0
         0         0         0         0         0         0         0         0
         0         0         0         0         0         0         0         0
         0         0         0         0         0         0         0         0
         0         0         0         0         0         0         0         0
         0         0         0         0         0         0         0         0
         0         0         0         0         0         0         0         0
         0         0         0         0         0         0         0         0
         0         0         0         0         0         0         0         0
         0         0         0         0         0         0         0         0
         0         0         0         0         0         0         0         0
         0         0         0         0         0         0         0         0
         0         0         0         0         0         0         0         0
         0         0         0         0         0         0         0         0
         0         0         0         0         0         0         0         0
         0         0         0         0         0         0         0         0
         0         0         0         0         0         0         0         0
         0         0         0         0         0         0         0         0
         0         0         0         0         0         0         0         0
         0         0         0         0         0         0         0         0
         0         0         0         0         0         0         0         0
         0         0         0         0         0         0         0         0
         0         0         0         0         0         0         0         0
         0         0         0         0         0         0         0         0
         0         0         0         0         0         0         0         0
         0         0         0         0         0         0         0         0
         0         0         0         0         0         0         0         0
         0         0         0         0         0         0         0         0
         0         0         0         0         0         0         0         0
         0         0         0         0         0         0         0         0
         0         0         0         0         0         0         0         0
         0         0         0         0         0         0         0         0
         0         0         0         0         0         0         0         0
         0         0         0         0         0         0         0         0
         0         0         0         0         0         0         0         0
         0         0         0         0         0         0         0         0
         0         0         0         0         0         0         0         0
         0         0         0         0         0         0         0         0
         0         0         0         0         0         0         0         0
         0         0         0         0         0         0         0         0
         0         0         0         0         0         0         0         0
         0         0         0         0         0         0         0         0
         0         0         0         0         0         0         0         0
         0         0         0         0         0         0         0         0
         0         0         0         0         0         0         0         0
         0         0         0         0         0         0         0         0
         0         0         0         0         0         0         0         0
         0         0         0         0         0         0         0         0
         0         0         0         0         0         0         0         0
         0         0         0         0         0         0         0         0
         0         0         0         0         0         0         0         0
         0         0         0         0         0         0         0         0
         0         0         0         0         0         0         0         0
         0         0         0         0         0         0         0         0
         0         0         0         0         0         0         0         0
         0         0         0         0         0         0         0         0
         0         0         0         0         0         0         0         0
         0         0         0         0         0         0         0         0
         0         0         0         0         0         0         0         0
         0         0         0         0         0         0         0         0
         0         0         0         0         0         0         0         0
         0         0         0         0         0         0         0         0
         0         0         0         0         0         0         0         0
         0         0         0         0         0         0         0         0
         0         0         0         0         0         0         0         0
         0         0         0         0         0         0         0         0
         0         0         0         0         0         0         0         0
         0         0         0         0         0         0         0         0
         0         0         0         0         0         0         0         0
         0         0         0         0         0         0         0         0
         0         0         0         0         0         0         0         0
         0         0         0         0         0         0         0         0
         0         0         0         0         0         0         0         0
         0         0         0         0         0         0         0         0
         0         0         0         0         0         0         0         0
         0         0         0         0         0         0         0         0
         0         0         0         0         0         0         0         0
         0         0         0         0         0         0         0         0
         0         0         0         0         0         0         0         0
         0         0         0         0         0         0         0         0
         0         0         0         0         0         0         0         0
         0         0         0         0         0         0         0         0
         0         0         0         0         0         0         0         0
         0         0         0         0         0         0         0         0
         0         0         0         0         0         0         0         0
         0         0         0         0         0         0         0         0
         0         0         0         0         0         0         0         0
         0         0         0         0         0         0         0         0
         0         0         0         0         0         0         0         0
         0         0         0         0         0         0         0         0
         0         0         0         0         0         0         0         0
         0         0         0         0         0         0         0         0
         0         0         0         0         0         0         0         0
         0         0         0         0         0         0         0         0
         0         0         0         0         0         0         0         0
         0         0         0         0         0         0         0         0
         0         0         0         0         0         0         0         0
         0         0         0         0         0         0         0         0
         0         0         0         0         0         0         0         0
         0         0         0         0         0         0         0         0
         0         0         0         0         0         0         0         0
         0         0         0         0         0         0         0         0
         0         0         0         0         0         0         0         0
         0         0         0         0         0         0         0         0
         0         0         0         0         0         0         0         0
         0         0         0         0         0         0         0         0
         0         0         0         0         0         0         0         0
         0         0         0         0         0         0         0         0
         0         0         0         0         0         0         0         0
         0         0         0         0         0         0         0         0
         0         0         0         0         0         0         0         0
         0         0         0         0         0         0         0         0
         0         0         0         0         0         0         0         0
         0         0         0         0         0         0         0         0
         0         0         0         0         0         0         0         0
         0         0         0         0         0         0         0         0
         0         0         0         0         0         0         0         0
         0         0         0         0         0         0         0         0
         0         0         0         0         0         0         0         0
         0         0         0         0         0         0         0         0
         0         0         0         0         0         0         0         0
         0         0         0         0         0         0         0         0
         0         0         0         0         0         0         0         0
         0         0         0         0         0         0         0         0
         0         0         0         0         0         0         0         0
         0         0         0         0         0         0         0         0
         0         0         0         0         0         0         0         0
         0         0         0         0         0         0         0         0
         0         0         0         0         0         0         0         0
         0         0         0         0         0         0         0         0
         0         0         0         0         0         0         0         0
         0         0         0         0         0         0         0         0
         0         0         0         0         0         0         0         0
         0         0         0         0         0         0         0         0
         0         0         0         0         0         0         0         0
         0         0         0         0         0         0         0         0
         0         0         0         0         0         0         0         0
         0         0         0         0         0         0         0         0
         0         0         0         0         0         0         0         0
         0         0         0         0         0         0         0         0
         0         0         0         0         0         0         0         0
         0         0         0         0         0         0         0         0
         0         0         0         0         0         0         0         0
         0         0         0         0         0         0         0         0
         0         0         0         0         0         0         0         0
         0         0         0         0         0         0         0         0
         0         0         0         0         0         0         0         0
         0         0         0         0         0         0         0         0
         0         0         0         0         0         0         0         0
         0         0         0         0         0         0         0         0
         0         0         0         0         0         0         0         0
         0         0         0         0         0         0         0         0
         0         0         0         0         0         0         0         0
         0         0         0         0         0         0         0         0
         0         0         0         0         0         0         0         0
         0         0         0         0         0         0         0         0
         0         0         0         0         0         0         0         0
         0         0         0         0         0         0         0         0
         0         0         0         0         0         0         0         0
         0         0         0         0         0         0         0         0
         0         0         0         0         0         0         0         0
         0         0         0         0         0         0         0         0
         0         0         0         0         0         0         0         0
         0         0         0         0         0         0         0         0
         0         0         0         0         0         0         0         0
         0         0         0         0         0         0         0         0
         0         0         0         0         0         0         0         0
         0         0         0         0         0         0         0         0
         0         0         0         0         0         0         0         0
         0         0         0         0         0         0         0         0
         0         0         0         0         0         0         0         0
         0         0         0         0         0         0         0         0
         0         0         0         0         0         0         0         0
         0         0         0         0         0         0         0         0
         0         0         0         0         0         0         0         0
         0         0         0         0         0         0         0         0
         0         0         0         0         0         0         0         0
         0         0         0         0         0         0         0         0
         0         0         0         0         0         0         0         0
         0         0         0         0         0         0         0         0
         0         0         0         0         0         0         0         0
         0         0         0         0         0         0         0         0
         0         0         0         0         0         0         0         0
         0         0         0         0         0         0         0         0
         0         0         0         0         0         0         0         0
         0         0         0         0         0         0         0         0
         0         0         0         0         0         0         0         0
         0         0         0         0         0         0         0         0
         0         0         0         0         0         0         0         0
         0         0         0         0         0         0         0         0
         0         0         0         0         0         0         0         0
         0         0         0         0         0         0         0         0
         0         0         0         0         0         0         0         0
         0         0         0         0         0         0         0         0
         0         0         0         0         0         0         0         0
         0         0         0         0         0         0         0         0
         0         0         0         0         0         0         0         0
         0         0         0         0         0         0         0         0
         0         0         0         0         0         0         0         0
         0         0         0         0         0         0         0         0
         0         0         0         0         0         0         0         0
         0         0         0         0         0         0         0         0
         0         0         0         0         0         0         0         0
         0         0         0         0         0         0         0         0
         0         0         0         0         0         0         0         0
         0         0         0         0         0         0         0         0
         0         0         0         0         0         0         0         0
         0         0         0         0         0         0         0         0
         0         0         0         0         0         0         0         0
         0         0         0         0         0         0         0         0
         0         0         0         0         0         0         0         0
         0         0         0         0         0         0         0         0
         0         0         0         0         0         0         0         0
         0         0         0         0         0         0         0         0
         0         0         0         0         0         0         0         0
         0         0         0         0         0         0         0         0
         0         0         0         0         0         0         0         0
         0         0         0         0         0         0         0         0
         0         0         0         0         0         0         0         0
         0         0         0         0         0         0         0         0
         0         0         0         0         0         0         0         0
         0         0         0         0         0         0         0         0
         0         0         0         0         0         0         0         0
         0         0         0         0         0         0         0         0
         0         0         0         0         0         0         0         0
         0         0         0         0         0         0         0         0
         0         0         0         0         0         0         0         0
         0         0         0         0         0         0         0         0
         0         0         0         0         0         0         0         0
         0         0         0         0         0         0         0         0
         0         0         0         0         0         0         0         0
         0         0         0         0         0         0         0         0
         0         0         0         0         0         0         0         0
         0         0         0         0         0         0         0         0
         0         0         0         0         0         0         0         0
         0         0         0         0         0         0         0         0
         0         0         0         0         0         0         0         0
         0         0         0         0         0         0         0         0
         0         0         0         0         0         0         0         0
         0         0         0         0         0         0         0         0
         0         0         0         0         0         0         0         0
         0         0         0         0         0         0         0         0
         0         0         0         0         0         0         0         0
         0         0         0         0         0         0         0         0
         0         0         0         0         0         0         0         0
         0         0         0         0         0         0         0         0
         0         0         0         0         0         0         0         0
         0         0         0         0         0         0         0         0
         0         0         0         0         0         0         0         0
         0         0         0         0         0         0         0         0
         0         0         0         0         0         0         0         0
         0         0         0         0         0         0         0         0
         0         0         0         0         0         0         0         0
         0         0         0         0         0         0         0         0
         0         0         0         0         0         0         0         0
         0         0         0         0         0         0         0         0
         0         0         0         0         0         0         0         0
         0         0         0         0         0         0         0         0
         0         0         0         0         0         0         0         0
         0         0         0         0         0         0         0         0
         0         0         0         0         0         0         0         0
         0         0         0         0         0         0         0         0
         0         0         0         0         0         0         0         0
         0         0         0         0         0         0         0         0
         0         0         0         0         0         0         0         0
         0         0         0         0         0         0         0         0
         0         0         0         0         0         0         0         0
         0         0         0         0         0         0         0         0
         0         0         0         0         0         0         0         0
         0         0         0         0         0         0         0         0
         0         0         0         0         0         0         0         0
         0         0         0         0         0         0         0         0
         0         0         0         0         0         0         0         0
         0         0         0         0         0         0         0         0
         0         0         0         0         0         0         0         0
         0         0         0         0         0         0         0         0
         0         0         0         0         0         0         0         0
         0         0         0         0         0         0         0         0
         0         0         0         0         0         0         0         0
         0         0         0         0         0         0         0         0
         0         0         0         0         0         0         0         0
         0         0         0         0         0         0         0         0
         0         0         0         0         0         0         0         0
         0         0         0         0         0         0         0         0
         0         0         0         0         0         0         0         0
         0         0         0         0         0         0         0         0
         0         0         0         0         0         0         0         0
         0         0         0         0         0         0         0         0
         0         0         0         0         0         0         0         0
         0         0         0         0         0         0         0         0
         0         0         0         0         0         0         0         0
         0         0         0         0         0         0         0         0
         0         0         0         0         0         0         0         0
         0         0         0         0         0         0         0         0
         0         0         0         0         0         0         0         0
         0         0         0         0         0         0         0         0
         0         0         0         0         0         0         0         0
         0         0         0         0         0         0         0         0
         0         0         0         0         0         0         0         0
         0         0         0         0         0         0         0         0
         0         0         0         0         0         0         0         0
         0         0         0         0         0         0         0         0
         0         0         0         0         0         0         0         0
         0         0         0         0         0         0         0         0
         0         0         0         0         0         0         0         0
         0         0         0         0         0         0         0         0
         0         0         0         0         0         0         0         0
         0         0         0         0         0         0         0         0
         0         0         0         0         0         0         0         0
         0         0         0         0         0         0         0         0
         0         0         0         0         0         0         0         0
         0         0         0         0         0         0         0         0
         0         0         0         0         0         0         0         0
         0         0         0         0         0         0         0         0
         0         0         0         0         0         0         0         0
         0         0         0         0         0         0         0         0
         0         0         0         0         0         0         0         0
         0         0         0         0         0         0         0         0
         0         0         0         0         0         0         0         0
         0         0         0         0         0         0         0         0
         0         0         0         0         0         0         0         0
         0         0         0         0         0         0         0         0
         0         0         0         0         0         0         0         0
         0         0         0         0         0         0         0         0
         0         0         0         0         0         0         0         0
         0         0         0         0         0         0         0         0
         0         0         0         0         0         0         0         0
         0         0         0         0         0         0         0         0
         0         0         0         0         0         0         0         0
         0         0         0         0         0         0         0         0
         0         0         0         0         0         0         0         0
         0         0         0         0         0         0         0         0
         0         0         0         0         0         0         0         0
         0         0         0         0         0         0         0         0
         0         0         0         0         0         0         0         0
         0         0         0         0         0         0         0         0
         0         0         0         0         0         0         0         0
         0         0         0         0         0         0         0         0
         0         0         0         0         0         0         0         0
         0         0         0         0         0         0         0         0
         0         0         0         0         0         0         0         0
         0         0         0         0         0         0         0         0
         0         0         0         0         0         0         0         0
         0         0         0         0         0         0         0         0
         0         0         0         0         0         0         0         0
         0         0         0         0         0         0         0         0
         0         0         0         0         0         0         0         0
         0         0         0         0         0         0         0         0
         0         0         0         0         0         0         0         0
         0         0         0         0         0         0         0         0
         0         0         0         0         0         0         0         0
         0         0         0         0         0         0         0         0
         0         0         0         0         0         0         0         0
         0         0         0         0         0         0         0         0
         0         0         0         0         0         0         0         0
         0         0         0         0         0         0         0         0
         0         0         0         0         0         0         0         0
         0         0         0         0         0         0         0         0
         0         0         0         0         0         0         0         0
         0         0         0         0         0         0         0         0
         0         0         0         0         0         0         0         0
         0         0         0         0         0         0         0         0
         0         0         0         0         0         0         0         0
         0         0         0         0         0         0         0         0
         0         0         0         0         0         0         0         0
         0         0         0         0         0         0         0         0
         0         0         0         0         0         0         0         0
         0         0         0         0         0         0         0         0
         0         0         0         0         0         0         0         0
         0         0         0         0         0         0         0         0
         0         0         0         0         0         0         0         0
         0         0         0         0         0         0         0         0
         0         0         0         0         0         0         0         0
         0         0         0         0         0         0         0         0
         0         0         0         0         0         0         0         0
         0         0         0         0         0         0         0         0
         0         0         0         0         0         0         0         0
         0         0         0         0         0         0         0         0
         0         0         0         0         0         0         0         0
         0         0         0         0         0         0         0         0
         0         0         0         0         0         0         0         0
         0         0         0         0         0         0         0         0
         0         0         0         0         0         0         0         0
         0         0         0         0         0         0         0         0
         0         0         0         0         0         0         0         0
         0         0         0         0         0         0         0         0
         0         0         0         0         0         0         0         0
         0         0         0         0         0         0         0         0
         0         0         0         0         0         0         0         0
         0         0         0         0         0         0         0         0
         0         0         0         0         0         0         0         0
         0         0         0         0         0         0         0         0
         0         0         0         0         0         0         0         0
         0         0         0         0         0         0         0         0
         0         0         0         0         0         0         0         0
         0         0         0         0         0         0         0         0
         0         0         0         0         0         0         0         0
         0         0         0         0         0         0         0         0
         0         0         0         0         0         0         0         0
         0         0         0         0         0         0         0         0
         0         0         0         0         0         0         0         0
         0         0         0         0         0         0         0         0
         0         0         0         0         0         0         0         0
         0         0         0         0         0         0         0         0
         0         0         0         0         0         0         0         0
         0         0         0         0         0         0         0         0
         0         0         0         0         0         0         0         0
         0         0         0         0         0         0         0         0
         0         0         0         0         0         0         0         0
         0         0         0         0         0         0         0         0
         0         0         0         0         0         0         0         0
         0         0         0         0         0         0         0         0
         0         0         0         0         0         0         0         0
         0         0         0         0         0         0         0         0
         0         0         0         0         0         0         0         0
         0         0         0         0         0         0         0         0
         0         0         0         0         0         0         0         0
         0         0         0         0         0         0         0         0
         0         0         0         0         0         0         0         0
         0         0         0         0         0         0         0         0
         0         0         0         0         0         0         0         0
         0         0         0         0         0         0         0         0
         0         0         0         0         0         0         0         0
         0         0         0         0         0         0         0         0
         0         0         0         0         0         0         0         0
         0         0         0         0         0         0         0         0
         0         0         0         0         0         0         0         0
         0         0         0         0         0         0         0         0
         0         0         0         0         0         0         0         0
         0         0         0         0         0         0         0         0
         0         0         0         0         0         0         0         0
         0         0         0         0         0         0         0         0
         0         0         0         0         0         0         0         0
         0         0         0         0         0         0         0         0
         0         0         0         0         0         0         0         0
         0         0         0         0         0         0         0         0
         0         0         0         0         0         0         0         0
         0         0         0         0         0         0         0         0
         0         0         0         0         0         0         0         0
         0         0         0         0         0         0         0         0
         0         0         0         0         0         0         0         0
         0         0         0         0         0         0         0         0
         0         0         0         0         0         0         0         0
         0         0         0         0         0         0         0         0
         0         0         0         0         0         0         0         0
         0         0         0         0         0         0         0         0
         0         0         0         0         0         0         0         0
         0         0         0         0         0         0         0         0
         0         0         0         0         0         0         0         0
         0         0         0         0         0         0         0         0
         0         0         0         0         0         0         0         0
         0         0         0         0         0         0         0         0
         0         0         0         0         0         0         0         0
         0         0         0         0         0         0         0         0
         0         0         0         0         0         0         0         0
         0         0         0         0         0         0         0         0
         0         0         0         0         0         0         0         0
         0         0         0         0         0         0         0         0
         0         0         0         0         0         0         0         0
         0         0         0         0         0         0         0         0
         0         0         0         0         0         0         0         0
         0         0         0         0         0         0         0         0
         0         0         0         0         0         0         0         0
         0         0         0         0         0         0         0         0
         0         0         0         0         0         0         0         0
         0         0         0         0         0         0         0         0
         0         0         0         0         0         0         0         0
         0         0         0         0         0         0         0         0
         0         0         0         0         0         0         0         0
         0         0         0         0         0         0         0         0
         0         0         0         0         0         0         0         0
         0         0         0         0         0         0         0         0
         0         0         0         0         0         0         0         0
         0         0         0         0         0         0         0         0
         0         0         0         0         0         0         0         0
         0         0         0         0         0         0         0         0
         0         0         0         0         0         0         0         0
         0         0         0         0         0         0         0         0
         0         0         0         0         0         0         0         0
         0         0         0         0         0         0         0         0
         0         0         0         0         0         0         0         0
         0         0         0         0         0         0         0         0
         0         0         0         0         0         0         0         0
         0         0         0         0         0         0         0         0
         0         0         0         0         0         0         0         0
         0         0         0         0         0         0         0         0
         0         0         0         0         0         0         0         0
         0         0         0         0         0         0         0         0
         0         0         0         0         0         0         0         0
         0         0         0         0         0         0         0         0
         0         0         0         0         0         0         0         0
         0         0         0         0         0         0         0         0
         0         0         0         0         0         0         0         0
         0         0         0         0         0         0         0         0
         0         0         0         0         0         0         0         0
         0         0         0         0         0         0         0         0
         0         0         0         0         0         0         0         0
         0         0         0         0         0         0         0         0
         0         0         0         0         0         0         0         0
         0         0         0         0         0         0         0         0
         0         0         0         0         0         0         0         0
         0         0         0         0         0         0         0         0
         0         0         0         0         0         0         0         0
         0         0         0         0         0         0         0         0
         0         0         0         0         0         0         0         0
         0         0         0         0         0         0         0         0
         0         0         0         0         0         0         0         0
         0         0         0         0         0         0         0         0
         0         0         0         0         0         0         0         0
         0         0         0         0         0         0         0         0
         0         0         0         0         0         0         0         0
         0         0         0         0         0         0         0         0
         0         0         0         0         0         0         0         0
         0         0         0         0         0         0         0         0
         0         0         0         0         0         0         0         0
         0         0         0         0         0         0         0         0
         0         0         0         0         0         0         0         0
         0         0         0         0         0         0         0         0
         0         0         0         0         0         0         0         0
         0         0         0         0         0         0         0         0
         0         0         0         0         0         0         0         0
         0         0         0         0         0         0         0         0
         0         0         0         0         0         0         0         0
         0         0         0         0         0         0         0         0
         0         0         0         0         0         0         0         0
         0         0         0         0         0         0         0         0
         0         0         0         0         0         0         0         0
         0         0         0         0         0         0         0         0
         0         0         0         0         0         0         0         0
         0         0         0         0         0         0         0         0
         0         0         0         0         0         0         0         0
         0         0         0         0         0         0         0         0
         0         0         0         0         0         0         0         0
         0         0         0         0         0         0         0         0
         0         0         0         0         0         0         0         0
         0         0         0         0         0         0         0         0
         0         0         0         0         0         0         0         0
         0         0         0         0         0         0         0         0
         0         0         0         0         0         0         0         0
         0         0         0         0         0         0         0         0
         0         0         0         0         0         0         0         0
         0         0         0         0         0         0         0         0
         0         0         0         0         0         0         0         0
         0         0         0         0         0         0         0         0
         0         0         0         0         0         0         0         0
         0         0         0         0         0         0         0         0
         0         0         0         0         0         0         0         0
         0         0         0         0         0         0         0         0
         0         0         0         0         0         0         0         0
         0         0         0         0         0         0         0         0
         0         0         0         0         0         0         0         0
         0         0         0         0         0         0         0         0
         0         0         0         0         0         0         0         0
         0         0         0         0         0         0         0         0
         0         0         0         0         0         0         0         0
         0         0         0         0         0         0         0         0
         0         0         0         0         0         0         0         0
         0         0         0         0         0         0         0         0
         0         0         0         0         0         0         0         0
         0         0         0         0         0         0         0         0
         0         0         0         0         0         0         0         0
         0         0         0         0         0         0         0         0
         0         0         0         0         0         0         0         0
         0         0         0         0         0         0         0         0
         0         0         0         0         0         0         0         0
         0         0         0         0         0         0         0         0
         0         0         0         0         0         0         0         0
         0         0         0         0         0         0         0         0
         0         0         0         0         0         0         0         0
         0         0         0         0         0         0         0         0
         0         0         0         0         0         0         0         0
         0         0         0         0         0         0         0         0
         0         0         0         0         0         0         0         0
         0         0         0         0         0         0         0         0
         0         0         0         0         0         0         0         0
         0         0         0         0         0         0         0         0
         0         0         0         0         0         0         0         0
         0         0         0         0         0         0         0         0
         0         0         0         0         0         0         0         0
         0         0         0         0         0         0         0         0
         0         0         0         0         0         0         0         0
         0         0         0         0         0         0         0         0
         0         0         0         0         0         0         0         0
         0         0         0         0         0         0         0         0
         0         0         0         0         0         0         0         0
         0         0         0         0         0         0         0         0
         0         0         0         0         0         0         0         0
         0         0         0         0         0         0         0         0
         0         0         0         0         0         0         0         0
         0         0         0         0         0         0         0         0
         0         0         0         0         0         0         0         0
         0         0         0         0         0         0         0         0
         0         0         0         0         0         0         0         0
         0         0         0         0         0         0         0         0
         0         0         0         0         0         0         0         0
         0         0         0         0         0         0         0         0
         0         0         0         0         0         0         0         0
         0         0         0         0         0         0         0         0
         0         0         0         0         0         0         0         0
         0         0         0         0         0         0         0         0
         0         0         0         0         0         0         0         0
         0         0         0         0         0         0         0         0
         0         0         0         0         0         0         0         0
         0         0         0         0         0         0         0         0
         0         0         0         0         0         0         0         0
         0         0         0         0         0         0         0         0
         0         0         0         0         0         0         0         0
         0         0         0         0         0         0         0         0
         0         0         0         0         0         0         0         0
         0         0         0         0         0         0         0         0
         0         0         0         0         0         0         0         0
         0         0         0         0         0         0         0         0
         0         0         0         0         0         0         0         0
         0         0         0         0         0         0         0         0
         0         0         0         0         0         0         0         0
         0         0         0         0         0         0         0         0
         0         0         0         0         0         0         0         0
         0         0         0         0         0         0         0         0
         0         0         0         0         0         0         0         0
         0         0         0         0         0         0         0         0
         0         0         0         0         0         0         0         0
         0         0         0         0         0         0         0         0
         0         0         0         0         0         0         0         0
         0         0         0         0         0         0         0         0
         0         0         0         0         0         0         0         0
         0         0         0         0         0         0         0         0
         0         0         0         0         0         0         0         0
         0         0         0         0         0         0         0         0
         0         0         0         0         0         0         0         0
         0         0         0         0         0         0         0         0
         0         0         0         0         0         0         0         0
         0         0         0         0         0         0         0         0
         0         0         0         0         0         0         0         0
         0         0         0         0         0         0         0         0
         0         0         0         0         0         0         0         0
         0         0         0         0         0         0         0         0
         0         0         0         0         0         0         0         0
         0         0         0         0         0         0         0         0
         0         0         0         0         0         0         0         0
         0         0         0         0         0         0         0         0
         0         0         0         0         0         0         0         0
         0         0         0         0         0         0         0         0
         0         0         0         0         0         0         0         0
         0         0         0         0         0         0         0         0
         0         0         0         0         0         0         0         0
         0         0         0         0         0         0         0         0
         0         0         0         0         0         0         0         0
         0         0         0         0         0         0         0         0
         0         0         0         0         0         0         0         0
         0         0         0         0         0         0         0         0
         0         0         0         0         0         0         0         0
         0         0         0         0         0         0         0         0
         0         0         0         0         0         0         0         0
         0         0         0         0         0         0         0         0
         0         0         0         0         0         0         0         0
         0         0         0         0         0         0         0         0
         0         0         0         0         0         0         0         0
         0         0         0         0         0         0         0         0
         0         0         0         0         0         0         0         0
         0         0         0         0         0         0         0         0
         0         0         0         0         0         0         0         0
         0         0         0         0         0         0         0         0
         0         0         0         0         0         0         0         0
         0         0         0         0         0         0         0         0
         0         0         0         0         0         0         0         0
         0         0         0         0         0         0         0         0
         0         0         0         0         0         0         0         0
         0         0         0         0         0         0         0         0
         0         0         0         0         0         0         0         0
         0         0         0         0         0         0         0         0
         0         0         0         0         0         0         0         0
         0         0         0         0         0         0         0         0
         0         0         0         0         0         0         0         0
         0         0         0         0         0         0         0         0
         0         0         0         0         0         0         0         0
         0         0         0         0         0         0         0         0
         0         0         0         0         0         0         0         0
         0         0         0         0         0         0         0         0
         0         0         0         0         0         0         0         0
         0         0         0         0         0         0         0         0
         0         0         0         0         0         0         0         0
         0         0         0         0         0         0         0         0
         0         0         0         0         0         0         0         0
         0         0         0         0         0         0         0         0
         0         0         0         0         0         0         0         0
         0         0         0         0         0         0         0         0
         0         0         0         0         0         0         0         0
         0         0         0         0         0         0         0         0
         0         0         0         0         0         0         0         0
         0         0         0         0         0         0         0         0
         0         0         0         0         0         0         0         0
         0         0         0         0         0         0         0         0
         0         0         0         0         0         0         0         0
         0         0         0         0         0         0         0         0
         0         0         0         0         0         0         0         0
         0         0         0         0         0         0         0         0
         0         0         0         0         0         0         0         0
         0         0         0         0         0         0         0         0
         0         0         0         0         0         0         0         0
         0         0         0         0         0         0         0         0
         0         0         0         0         0         0         0         0
         0         0         0         0         0         0         0         0
         0         0         0         0         0         0         0         0
         0         0         0         0         0         0         0         0
         0         0         0         0         0         0         0         0
         0         0         0         0         0         0         0         0
         0         0         0         0         0         0         0         0
         0         0         0         0         0         0         0         0
         0         0         0         0         0         0         0         0
         0         0         0         0         0         0         0         0
         0         0         0         0         0         0         0         0
         0         0         0         0         0         0         0         0
         0         0         0         0         0         0         0         0
         0         0         0         0         0         0         0         0
         0         0         0         0         0         0         0         0
         0         0         0         0         0         0         0         0
         0         0         0         0         0         0         0         0
         0         0         0         0         0         0         0         0
         0         0         0         0         0         0         0         0
         0         0         0         0         0         0         0         0
         0         0         0         0         0         0         0         0
         0         0         0         0         0         0         0         0
         0         0         0         0         0         0         0         0
         0         0         0         0         0         0         0         0
         0         0         0         0         0         0         0         0
         0         0         0         0         0         0         0         0
         0         0         0         0         0         0         0         0
         0         0         0         0         0         0         0         0
         0         0         0         0         0         0         0         0
         0         0         0         0         0         0         0         0
         0         0         0         0         0         0         0         0
         0         0         0         0         0         0         0         0
         0         0         0         0         0         0         0         0
         0         0         0         0         0         0         0         0
         0         0         0         0         0         0         0         0
         0         0         0         0         0         0         0         0
         0         0         0         0         0         0         0         0
         0         0         0         0         0         0         0         0
         0         0         0         0         0         0         0         0
         0         0         0         0         0         0         0         0
         0         0         0         0         0         0         0         0
         0         0         0         0         0         0         0         0
         0         0         0         0         0         0         0         0
         0         0         0         0         0         0         0         0
         0         0         0         0         0         0         0         0
         0         0         0         0         0         0         0         0
         0         0         0         0         0         0         0         0
         0         0         0         0         0         0         0         0
         0         0         0         0         0         0         0         0
         0         0         0         0         0         0         0         0
         0         0         0         0         0         0         0         0
         0         0         0         0         0         0         0         0
         0         0         0         0         0         0         0         0
         0         0         0         0         0         0         0         0
         0         0         0         0         0         0         0         0
         0         0         0         0         0         0         0         0
         0         0         0         0         0         0         0         0
         0         0         0         0         0         0         0         0
         0         0         0         0         0         0         0         0
         0         0         0         0         0         0         0         0
         0         0         0         0         0         0         0         0
         0         0         0         0         0         0         0         0
         0         0         0         0         0         0         0         0
         0         0         0         0         0         0         0         0
         0         0         0         0         0         0         0         0
         0         0         0         0         0         0         0         0
         0         0         0         0         0         0         0         0
         0         0         0         0         0         0         0         0
         0         0         0         0         0         0         0         0
         0         0         0         0         0         0         0         0
         0         0         0         0         0         0         0         0
         0         0         0         0         0         0         0         0
         0         0         0         0         0         0         0         0
         0         0         0         0         0         0         0         0
         0         0         0         0         0         0         0         0
         0         0         0         0         0         0         0         0
         0         0         0         0         0         0         0         0
         0         0         0         0         0         0         0         0
         0         0         0         0         0         0         0         0
         0         0         0         0         0         0         0         0
         0         0         0         0         0         0         0         0
         0         0         0         0         0         0         0         0
         0         0         0         0         0         0         0         0
         0         0         0         0         0         0         0         0
         0         0         0         0         0         0         0         0
         0         0         0         0         0         0         0         0
         0         0         0         0         0         0         0         0
         0         0         0         0         0         0         0         0
         0         0         0         0         0         0         0         0
         0         0         0         0         0         0         0         0
         0         0         0         0         0         0         0         0
         0         0         0         0         0         0         0         0
         0         0         0         0         0         0         0         0
         0         0         0         0         0         0         0         0
         0         0         0         0         0         0         0         0
         0         0         0         0         0         0         0         0
         0         0         0         0         0         0         0         0
         0         0         0         0         0         0         0         0
         0         0         0         0         0         0         0         0
         0         0         0         0         0         0         0         0
         0         0         0         0         0         0         0         0
         0         0         0         0         0         0         0         0
         0         0         0         0         0         0         0         0
         0         0         0         0         0         0         0         0
         0         0         0         0         0         0         0         0
         0         0         0         0         0         0         0         0
         0         0         0         0         0         0         0         0
         0         0         0         0         0         0         0         0
         0         0         0         0         0         0         0         0
         0         0         0         0         0         0         0         0
         0         0         0         0         0         0         0         0
         0         0         0         0         0         0         0         0
         0         0         0         0         0         0         0         0
         0         0         0         0         0         0         0         0
         0         0         0         0         0         0         0         0
         0         0         0         0         0         0         0         0
         0         0         0         0         0         0         0         0
         0         0         0         0         0         0         0         0
         0         0         0         0         0         0         0         0
         0         0         0         0         0         0         0         0
         0         0         0         0         0         0         0         0
         0         0         0         0         0         0         0         0
         0         0         0         0         0         0         0         0
         0         0         0         0         0         0         0         0
         0         0         0         0         0         0         0         0
         0         0         0         0         0         0         0         0
         0         0         0         0         0         0         0         0
         0         0         0         0         0         0         0         0
         0         0         0         0         0         0         0         0
         0         0         0         0         0         0         0         0
         0         0         0         0         0         0         0         0
         0         0         0         0         0         0         0         0
         0         0         0         0         0         0         0         0
         0         0         0         0         0         0         0         0
         0         0         0         0         0         0         0         0
         0         0         0         0         0         0         0         0
         0         0         0         0         0         0         0         0
         0         0         0         0         0         0         0         0
         0         0         0         0         0         0         0         0
         0         0         0         0         0         0         0         0
         0         0         0         0         0         0         0         0
         0         0         0         0         0         0         0         0
         0         0         0         0         0         0         0         0
         0         0         0         0         0         0         0         0
         0         0         0         0         0         0         0         0
         0         0         0         0         0         0         0         0
         0         0         0         0         0         0         0         0
         0         0         0         0         0         0         0         0
         0         0         0         0         0         0         0         0
         0         0         0         0         0         0         0         0
         0         0         0         0         0         0         0         0
         0         0         0         0         0         0         0         0
         0         0         0         0         0         0         0         0
         0         0         0         0         0         0         0         0
         0         0         0         0         0         0         0         0
         0         0         0         0         0         0         0         0
         0         0         0         0         0         0         0         0
         0         0         0         0         0         0         0         0
         0         0         0         0         0         0         0         0
         0         0         0         0         0         0         0         0
         0         0         0         0         0         0         0         0
         0         0         0         0         0         0         0         0
         0         0         0         0         0         0         0         0
         0         0         0         0         0         0         0         0
         0         0         0         0         0         0         0         0
         0         0         0         0         0         0         0         0
         0         0         0         0         0         0         0         0
         0         0         0         0         0         0         0         0
         0         0         0         0         0         0         0         0
         0         0         0         0         0         0         0         0
         0         0         0         0         0         0         0         0
         0         0         0         0         0         0         0         0
         0         0         0         0         0         0         0         0
         0         0         0         0         0         0         0         0
         0         0         0         0         0         0         0         0
         0         0         0         0         0         0         0         0
         0         0         0         0         0         0         0         0
         0         0         0         0         0         0         0         0
         0         0         0         0         0         0         0         0
         0         0         0         0         0         0         0         0
         0         0         0         0         0         0         0         0
         0         0         0         0         0         0         0         0
         0         0         0         0         0         0         0         0
         0         0         0         0         0         0         0         0
         0         0         0         0         0         0         0         0
         0         0         0         0         0         0         0         0
         0         0         0         0         0         0         0         0
         0         0         0         0         0         0         0         0
         0         0         0         0         0         0         0         0
         0         0         0         0         0         0         0         0
         0         0         0         0         0         0         0         0
         0         0         0         0         0         0         0         0
         0         0         0         0         0         0         0         0
         0         0         0         0         0         0         0         0
         0         0         0         0         0         0         0         0
         0         0         0         0         0         0         0         0
         0         0         0         0         0         0         0         0
         0         0         0         0         0         0         0         0
         0         0         0         0         0         0         0         0
         0         0         0         0         0         0         0         0
         0         0         0         0         0         0         0         0
         0         0         0         0         0         0         0         0
         0         0         0         0         0         0         0         0
         0         0         0         0         0         0         0         0
         0         0         0         0         0         0         0         0
         0         0         0         0         0         0         0         0
         0         0         0         0         0         0         0         0
         0         0         0         0         0         0         0         0
         0         0         0         0         0         0         0         0
         0         0         0         0         0         0         0         0
         0         0         0         0         0         0         0         0
         0         0         0         0         0         0         0         0
         0         0         0         0         0         0         0         0
         0         0         0         0         0         0         0         0
         0         0         0         0         0         0         0         0
         0         0         0         0         0         0         0         0
         0         0         0         0         0         0         0         0
         0         0         0         0         0         0         0         0
         0         0         0         0         0         0         0         0
         0         0         0         0         0         0         0         0
         0         0         0         0         0         0         0         0
         0         0         0         0         0         0         0         0
         0         0         0         0         0         0         0         0
         0         0         0         0         0         0         0         0
         0         0         0         0         0         0         0         0
         0         0         0         0         0         0         0         0
         0         0         0         0         0         0         0         0
         0         0         0         0         0         0         0         0
         0         0         0         0         0         0         0         0
         0         0         0         0         0         0         0         0
         0         0         0         0         0         0         0         0
         0         0         0         0         0         0         0         0
         0         0         0         0         0         0         0         0
         0         0         0         0         0         0         0         0
         0         0         0         0         0         0         0         0
         0         0         0         0         0         0         0         0
         0         0         0         0         0         0         0         0
         0         0         0         0         0         0         0         0
         0         0         0         0         0         0         0         0
         0         0         0         0         0         0         0         0
         0         0         0         0         0         0         0         0
         0         0         0         0         0         0         0         0
         0         0         0         0         0         0         0         0
         0         0         0         0         0         0         0         0
         0         0         0         0         0         0         0         0
         0         0         0         0         0         0         0         0
         0         0         0         0         0         0         0         0
         0         0         0         0         0         0         0         0
         0         0         0         0         0         0         0         0
         0         0         0         0         0         0         0         0
         0         0         0         0         0         0         0         0
         0         0         0         0         0         0         0         0
         0         0         0         0         0         0         0         0
         0         0         0         0         0         0         0         0
         0         0         0         0         0         0         0         0
         0         0         0         0         0         0         0         0
         0         0         0         0         0         0         0         0
         0         0         0         0         0         0         0         0
         0         0         0         0         0         0         0         0
         0         0         0         0         0         0         0         0
         0         0         0         0         0         0         0         0
         0         0         0         0         0         0         0         0
         0         0         0         0         0         0         0         0
         0         0         0         0         0         0         0         0
         0         0         0         0         0         0         0         0
         0         0         0         0         0         0         0         0
         0         0         0         0         0         0         0         0
         0         0         0         0         0         0         0         0
         0         0         0         0         0         0         0         0
         0         0         0         0         0         0         0         0
         0         0         0         0         0         0         0         0
         0         0         0         0         0         0         0         0
         0         0         0         0         0         0         0         0
         0         0         0         0         0         0         0         0
         0         0         0         0         0         0         0         0
         0         0         0         0         0         0         0         0
         0         0         0         0         0         0         0         0
         0         0         0         0         0         0         0         0
         0         0         0         0         0         0         0         0
         0         0         0         0         0         0         0         0
         0         0         0         0         0         0         0         0
         0         0         0         0         0         0         0         0
         0         0         0         0         0         0         0         0
         0         0         0         0         0         0         0         0
         0         0         0         0         0         0         0         0
         0         0         0         0         0         0         0         0
         0         0         0         0         0         0         0         0
         0         0         0         0         0         0         0         0
         0         0         0         0         0         0         0         0
         0         0         0         0         0         0         0         0
         0         0         0         0         0         0         0         0
         0         0         0         0         0         0         0         0
         0         0         0         0         0         0         0         0
         0         0         0         0         0         0         0         0
         0         0         0         0         0         0         0         0
         0         0         0         0         0         0         0         0
         0         0         0         0         0         0         0         0
         0         0         0         0         0         0         0         0
         0         0         0         0         0         0         0         0
         0         0         0         0         0         0         0         0
         0         0         0         0         0         0         0         0
         0         0         0         0         0         0         0         0
         0         0         0         0         0         0         0         0
         0         0         0         0         0         0         0         0
         0         0         0         0         0         0         0         0
         0         0         0         0         0         0         0         0
         0         0         0         0         0         0         0         0
         0         0         0         0         0         0         0         0
         0         0         0         0         0         0         0         0
         0         0         0         0         0         0         0         0
         0         0         0         0         0         0         0         0
         0         0         0         0         0         0         0         0
         0         0         0         0         0         0         0         0
         0         0         0         0         0         0         0         0
         0         0         0         0         0         0         0         0
         0         0         0         0         0         0         0         0
         0         0         0         0         0         0         0         0
         0         0         0         0         0         0         0         0
         0         0         0         0         0         0         0         0
         0         0         0         0         0         0         0         0
         0         0         0         0         0         0         0         0
         0         0         0         0         0         0         0         0
         0         0         0         0         0         0         0         0
         0         0         0         0         0         0         0         0
         0         0         0         0         0         0         0         0
         0         0         0         0         0         0         0         0
         0         0         0         0         0         0         0         0
         0         0         0         0         0         0         0         0
         0         0         0         0         0         0         0         0
         0         0         0         0         0         0         0         0
         0         0         0         0         0         0         0         0
         0         0         0         0         0         0         0         0
         0         0         0         0         0         0         0         0
         0         0         0         0         0         0         0         0
         0         0         0         0         0         0         0         0
         0         0         0         0         0         0         0         0
         0         0         0         0         0         0         0         0
         0         0         0         0         0         0         0         0
         0         0         0         0         0         0         0         0
         0         0         0         0         0         0         0         0
         0         0         0         0         0         0         0         0
         0         0         0         0         0         0         0         0
         0         0         0         0         0         0         0         0
         0         0         0         0         0         0         0         0
         0         0         0         0         0         0         0         0
         0         0         0         0         0         0         0         0
         0         0         0         0         0         0         0         0
         0         0         0         0         0         0         0         0
         0         0         0         0         0         0         0         0
         0         0         0         0         0         0         0         0
         0         0         0         0         0         0         0         0
         0         0         0         0         0         0         0         0
         0         0         0         0         0         0         0         0
         0         0         0         0         0         0         0         0
         0         0         0         0         0         0         0         0
         0         0         0         0         0         0         0         0
         0         0         0         0         0         0         0         0
         0         0         0         0         0         0         0         0
         0         0         0         0         0         0         0         0
         0         0         0         0         0         0         0         0
         0         0         0         0         0         0         0         0
         0         0         0         0         0         0         0         0
         0         0         0         0         0         0         0         0
         0         0         0         0         0         0         0         0
         0         0         0         0         0         0         0         0
         0         0         0         0         0         0         0         0
         0         0         0         0         0         0         0         0
         0         0         0         0         0         0         0         0
         0         0         0         0         0         0         0         0
         0         0         0         0         0         0         0         0
         0         0         0         0         0         0         0         0
         0         0         0         0         0         0         0         0
         0         0         0         0         0         0         0         0
         0         0         0         0         0         0         0         0
         0         0         0         0         0         0         0         0
         0         0         0         0         0         0         0         0
         0         0         0         0         0         0         0         0
         0         0         0         0         0         0         0         0
         0         0         0         0         0         0         0         0
         0         0         0         0         0         0         0         0
         0         0         0         0         0         0         0         0
         0         0         0         0         0         0         0         0
         0         0         0         0         0         0         0         0
         0         0         0         0         0         0         0         0
         0         0         0         0         0         0         0         0
         0         0         0         0         0         0         0         0
         0         0         0         0         0         0         0         0
         0         0         0         0         0         0         0         0
         0         0         0         0         0         0         0         0
         0         0         0         0         0         0         0         0
         0         0         0         0         0         0         0         0
         0         0         0         0         0         0         0         0
         0         0         0         0         0         0         0         0
         0         0         0         0         0         0         0         0
         0         0         0         0         0         0         0         0
         0         0         0         0         0         0         0         0
         0         0         0         0         0         0         0         0
         0         0         0         0         0         0         0         0
         0         0         0         0         0         0         0         0
         0         0         0         0         0         0         0         0
         0         0         0         0         0         0         0         0
         0         0         0         0         0         0         0         0
         0         0         0         0         0         0         0         0
         0         0         0         0         0         0         0         0
         0         0         0         0         0         0         0         0
         0         0         0         0         0         0         0         0
         0         0         0         0         0         0         0         0
         0         0         0         0         0         0         0         0
         0         0         0         0         0         0         0         0
         0         0         0         0         0         0         0         0
         0         0         0         0         0         0         0         0
         0         0         0         0         0         0         0         0
         0         0         0         0         0         0         0         0
         0         0         0         0         0         0         0         0
         0         0         0         0         0         0         0         0
         0         0         0         0         0         0         0         0
         0         0         0         0         0         0         0         0
         0         0         0         0         0         0         0         0
         0         0         0         0         0         0         0         0
         0         0         0         0         0         0         0         0
         0         0         0         0         0         0         0         0
         0         0         0         0         0         0         0         0
         0         0         0         0         0         0         0         0
         0         0         0         0         0         0         0         0
         0         0         0         0         0         0         0         0
         0         0         0         0         0         0         0         0
         0         0         0         0         0         0         0         0
         0         0         0         0         0         0         0         0
         0         0         0         0         0         0         0         0
         0         0         0         0         0         0         0         0
         0         0         0         0         0         0         0         0
         0         0         0         0         0         0         0         0
         0         0         0         0         0         0         0         0
         0         0         0         0         0         0         0         0
         0         0         0         0         0         0         0         0
         0         0         0         0         0         0         0         0
         0         0         0         0         0         0         0         0
         0         0         0         0         0         0         0         0
         0         0         0         0         0         0         0         0
         0         0         0         0         0         0         0         0
         0         0         0         0         0         0         0         0
         0         0         0         0         0         0         0         0
         0         0         0         0         0         0         0         0
         0         0         0         0         0         0         0         0
         0         0         0         0         0         0         0         0
         0         0         0         0         0         0         0         0
         0         0         0         0         0         0         0         0
         0         0         0         0         0         0         0         0
         0         0         0         0         0         0         0         0
         0         0         0         0         0         0         0         0
         0         0         0         0         0         0         0         0
         0         0         0         0         0         0         0         0
         0         0         0         0         0         0         0         0
         0         0         0         0         0         0         0         0
         0         0         0         0         0         0         0         0
         0         0         0         0         0         0         0         0
         0         0         0         0         0         0         0         0
         0         0         0         0         0         0         0         0
         0         0         0         0         0         0         0         0
         0         0         0         0         0         0         0         0
         0         0         0         0         0         0         0         0
         0         0         0         0         0         0         0         0
         0         0         0         0         0         0         0         0
         0         0         0         0         0         0         0         0
         0         0         0         0         0         0         0         0
         0         0         0         0         0         0         0         0
         0         0         0         0         0         0         0         0
         0         0         0         0         0         0         0         0
         0         0         0         0         0         0         0         0
         0         0         0         0         0         0         0         0
         0         0         0         0         0         0         0         0
         0         0         0         0         0         0         0         0
         0         0         0         0         0         0         0         0
         0         0         0         0         0         0         0         0
         0         0         0         0         0         0         0         0
         0         0         0         0         0         0         0         0
         0         0         0         0         0         0         0         0
         0         0         0         0         0         0         0         0
         0         0         0         0         0         0         0         0
         0         0         0         0         0         0         0         0
         0         0         0         0         0         0         0         0
         0         0         0         0         0         0         0         0
         0         0         0         0         0         0         0         0
         0         0         0         0         0         0         0         0
         0         0         0         0         0         0         0         0
         0         0         0         0         0         0         0         0
         0         0         0         0         0         0         0         0
         0         0         0         0         0         0         0         0
         0         0         0         0         0         0         0         0
         0         0         0         0         0         0         0         0
         0         0         0         0         0         0         0         0
         0         0         0         0         0         0         0         0
         0         0         0         0         0         0         0         0
         0         0         0         0         0         0         0         0
         0         0         0         0         0         0         0         0
         0         0         0         0         0         0         0         0
         0         0         0         0         0         0         0         0
         0         0         0         0         0         0         0         0
         0         0         0         0         0         0         0         0
         0         0         0         0         0         0         0         0
         0         0         0         0         0         0         0         0
         0         0         0         0         0         0         0         0
         0         0         0         0         0         0         0         0
         0         0         0         0         0         0         0         0
         0         0         0         0         0         0         0         0
         0         0         0         0         0         0         0         0
         0         0         0         0         0         0         0         0
         0         0         0         0         0         0         0         0
         0         0         0         0         0         0         0         0
         0         0         0         0         0         0         0         0
         0         0         0         0         0         0         0         0
         0         0         0         0         0         0         0         0
         0         0         0         0         0         0         0         0
         0         0         0         0         0         0         0         0
         0         0         0         0         0         0         0         0
         0         0         0         0         0         0         0         0
         0         0         0         0         0         0         0         0
         0         0         0         0         0         0         0         0
         0         0         0         0         0         0         0         0
         0         0         0         0         0         0         0         0
         0         0         0         0         0         0         0         0
         0         0         0         0         0         0         0         0
         0         0         0         0         0         0         0         0
         0         0         0         0         0         0         0         0
         0         0         0         0         0         0         0         0
         0         0         0         0         0         0         0         0
         0         0         0         0         0         0         0         0
         0         0         0         0         0         0         0         0
         0         0         0         0         0         0         0         0
         0         0         0         0         0         0         0         0
         0         0         0         0         0         0         0         0
         0         0         0         0         0         0         0         0
         0         0         0         0         0         0         0         0
         0         0         0         0         0         0         0         0
         0         0         0         0         0         0         0         0
         0         0         0         0         0         0         0         0
         0         0         0         0         0         0         0         0
         0         0         0         0         0         0         0         0
         0         0         0         0         0         0         0         0
         0         0         0         0         0         0         0         0
         0         0         0         0         0         0         0         0
         0         0         0         0         0         0         0         0
         0         0         0         0         0         0         0         0
         0         0         0         0         0         0         0         0
         0         0         0         0         0         0         0         0
         0         0         0         0         0         0         0         0
         0         0         0         0         0         0         0         0
         0         0         0         0         0         0         0         0
         0         0         0         0         0         0         0         0
         0         0         0         0         0         0         0         0
         0         0         0         0         0         0         0         0
         0         0         0         0         0         0         0         0
         0         0         0         0         0         0         0         0
         0         0         0         0         0         0         0         0
         0         0         0         0         0         0         0         0
         0         0         0         0         0         0         0         0
         0         0         0         0         0         0         0         0
         0         0         0         0         0         0         0         0
         0         0         0         0         0         0         0         0
         0         0         0         0         0         0         0         0
         0         0         0         0         0         0         0         0
         0         0         0         0         0         0         0         0
         0         0         0         0         0         0         0         0
         0         0         0         0         0         0         0         0
         0         0         0         0         0         0         0         0
         0         0         0         0         0         0         0         0
         0         0         0         0         0         0         0         0
         0         0         0         0         0         0         0         0
         0         0         0         0         0         0         0         0
         0         0         0         0         0         0         0         0
         0         0         0         0         0         0         0         0
         0         0         0         0         0         0         0         0
         0         0         0         0         0         0         0         0
         0         0         0         0         0         0         0         0
         0         0         0         0         0         0         0         0
         0         0         0         0         0         0         0         0
         0         0         0         0         0         0         0         0
         0         0         0         0         0         0         0         0
         0         0         0         0         0         0         0         0
         0         0         0         0         0         0         0         0
         0         0         0         0         0         0         0         0
         0         0         0         0         0         0         0         0
         0         0         0         0         0         0         0         0
         0         0         0         0         0         0         0         0
         0         0         0         0         0         0         0         0
         0         0         0         0         0         0         0         0
         0         0         0         0         0         0         0         0
         0         0         0         0         0         0         0         0
         0         0         0         0         0         0         0         0
         0         0         0         0         0         0         0         0
         0         0         0         0         0         0         0         0
         0         0         0         0         0         0         0         0
         0         0         0         0         0         0         0         0
         0         0         0         0         0         0         0         0
         0         0         0         0         0         0         0         0
         0         0         0         0         0         0         0         0
         0         0         0         0         0         0         0         0
         0         0         0         0         0         0         0         0
         0         0         0         0         0         0         0         0
         0         0         0         0         0         0         0         0
         0         0         0         0         0         0         0         0
         0         0         0         0         0         0         0         0
         0         0         0         0         0         0         0         0
         0         0         0         0         0         0         0         0
         0         0         0         0         0         0         0         0
         0         0         0         0         0         0         0         0
         0         0         0         0         0         0         0         0
         0         0         0         0         0         0         0         0
         0         0         0         0         0         0         0         0
         0         0         0         0         0         0         0         0
         0         0         0         0         0         0         0         0
         0         0         0         0         0         0         0         0
         0         0         0         0         0         0         0         0
         0         0         0         0         0         0         0         0
         0         0         0         0         0         0         0         0
         0         0         0         0         0         0         0         0
         0         0         0         0         0         0         0         0
         0         0         0         0         0         0         0         0
         0         0         0         0         0         0         0         0
         0         0         0         0         0         0         0         0
         0         0         0         0         0         0         0         0
         0         0         0         0         0         0         0         0
         0         0         0         0         0         0         0         0
         0         0         0         0         0         0         0         0
         0         0         0         0         0         0         0         0
         0         0         0         0         0         0         0         0
         0         0         0         0         0         0         0         0
         0         0         0         0         0         0         0         0
         0         0         0         0         0         0         0         0
         0         0         0         0         0         0         0         0
         0         0         0         0         0         0         0         0
         0         0         0         0         0         0         0         0
         0         0         0         0         0         0         0         0
         0         0         0         0         0         0         0         0
         0         0         0         0         0         0         0         0
         0         0         0         0         0         0         0         0
         0         0         0         0         0         0         0         0
         0         0         0         0         0         0         0         0
         0         0         0         0         0         0         0         0
         0         0         0         0         0         0         0         0
         0         0         0         0         0         0         0         0
         0         0         0         0         0         0         0         0
         0         0         0         0         0         0         0         0
         0         0         0         0         0         0         0         0
         0         0         0         0         0         0         0         0
         0         0         0         0         0         0         0         0
         0         0         0         0         0         0         0         0
         0         0         0         0         0         0         0         0
         0         0         0         0         0         0         0         0
         0         0         0         0         0         0         0         0
         0         0         0         0         0         0         0         0
         0         0         0         0         0         0         0         0
         0         0         0         0         0         0         0         0
         0         0         0         0         0         0         0         0
         0         0         0         0         0         0         0         0
         0         0         0         0         0         0         0         0
         0         0         0         0         0         0         0         0
         0         0         0         0         0         0         0         0
         0         0         0         0         0         0         0         0
         0         0         0         0         0         0         0         0
         0         0         0         0         0         0         0         0
         0         0         0         0         0         0         0         0
         0         0         0         0         0         0         0         0
         0         0         0         0         0         0         0         0
         0         0         0         0         0         0         0         0
         0         0         0         0         0         0         0         0
         0         0         0         0         0         0         0         0
         0         0         0         0         0         0         0         0
         0         0         0         0         0         0         0         0
         0         0         0         0         0         0         0         0
         0         0         0         0         0         0         0         0
         0         0         0         0         0         0         0         0
         0         0         0         0         0         0         0         0
         0         0         0         0         0         0         0         0
         0         0         0         0         0         0         0         0
         0         0         0         0         0         0         0         0
         0         0         0         0         0         0         0         0
         0         0         0         0         0         0         0         0
         0         0         0         0         0         0         0         0
         0         0         0         0         0         0         0         0
         0         0         0         0         0         0         0         0
         0         0         0         0         0         0         0         0
         0         0         0         0         0         0         0         0
         0         0         0         0         0         0         0         0
         0         0         0         0         0         0         0         0
         0         0         0         0         0         0         0         0
         0         0         0         0         0         0         0         0
         0         0         0         0         0         0         0         0
         0         0         0         0         0         0         0         0
         0         0         0         0         0         0         0         0
         0         0         0         0         0         0         0         0
         0         0         0         0         0         0         0         0
         0         0         0         0         0         0         0         0
         0         0         0         0         0         0         0         0
         0         0         0         0         0         0         0         0
         0         0         0         0         0         0         0         0
         0         0         0         0         0         0         0         0
         0         0         0         0         0         0         0         0
         0         0         0         0         0         0         0         0
         0         0         0         0         0         0         0         0
         0         0         0         0         0         0         0         0
         0         0         0         0         0         0         0         0
         0         0         0         0         0         0         0         0
         0         0         0         0         0         0         0         0
         0         0         0         0         0         0         0         0
         0         0         0         0         0         0         0         0
         0         0         0         0         0         0         0         0
         0         0         0         0         0         0         0         0
         0         0         0         0         0         0         0         0
         0         0         0         0         0         0         0         0
         0         0         0         0         0         0         0         0
         0         0         0         0         0         0         0         0
         0         0         0         0         0         0         0         0
         0         0         0         0         0         0         0         0
         0         0         0         0         0         0         0         0
         0         0         0         0         0         0         0         0
         0         0         0         0         0         0         0         0
         0         0         0         0         0         0         0         0
         0         0         0         0         0         0         0         0
         0         0         0         0         0         0         0         0
         0         0         0         0         0         0         0         0
         0         0         0         0         0         0         0         0
         0         0         0         0         0         0         0         0
         0         0         0         0         0         0         0         0
         0         0         0         0         0         0         0         0
         0         0         0         0         0         0         0         0
         0         0         0         0         0         0         0         0
         0         0         0         0         0         0         0         0
         0         0         0         0         0         0         0         0
         0         0         0         0         0         0         0         0
         0         0         0         0         0         0         0         0
         0         0         0         0         0         0         0         0
         0         0         0         0         0         0         0         0
         0         0         0         0         0         0         0         0
         0         0         0         0         0         0         0         0
         0         0         0         0         0         0         0         0
         0         0         0         0         0         0         0         0
         0         0         0         0         0         0         0         0
         0         0         0         0         0         0         0         0
         0         0         0         0         0         0         0         0
         0         0         0         0         0         0         0         0
         0         0         0         0         0         0         0         0
         0         0         0         0         0         0         0         0
         0         0         0         0         0         0         0         0
         0         0         0         0         0         0         0         0
         0         0         0         0         0         0         0         0
         0         0         0         0         0         0         0         0
         0         0         0         0         0         0         0         0
         0         0         0         0         0         0         0         0
         0         0         0         0         0         0         0         0
         0         0         0         0         0         0         0         0
         0         0         0         0         0         0         0         0
         0         0         0         0         0         0         0         0
         0         0         0         0         0         0         0         0
         0         0         0         0         0         0         0         0
         0         0         0         0         0         0         0         0
         0         0         0         0         0         0         0         0
         0         0         0         0         0         0         0         0
         0         0         0         0         0         0         0         0
         0         0         0         0         0         0         0         0
         0         0         0         0         0         0         0         0
         0         0         0         0         0         0         0         0
         0         0         0         0         0         0         0         0
         0         0         0         0         0         0         0         0
         0         0         0         0         0         0         0         0
         0         0         0         0         0         0         0         0
         0         0         0         0         0         0         0         0
         0         0         0         0         0         0         0         0
         0         0         0         0         0         0         0         0
         0         0         0         0         0         0         0         0
         0         0         0         0         0         0         0         0
         0         0         0         0         0         0         0         0
         0         0         0         0         0         0         0         0
         0         0         0         0         0         0         0         0
         0         0         0         0         0         0         0         0
         0         0         0         0         0         0         0         0
         0         0         0         0         0         0         0         0
         0         0         0         0         0         0         0         0
         0         0         0         0         0         0         0         0
         0         0         0         0         0         0         0         0
         0         0         0         0         0         0         0         0
         0         0         0         0         0         0         0         0
         0         0         0         0         0         0         0         0
         0         0         0         0         0         0         0         0
         0         0         0         0         0         0         0         0
         0         0         0         0         0         0         0         0
         0         0         0         0         0         0         0         0
         0         0         0         0         0         0         0         0
         0         0         0         0         0         0         0         0
         0         0         0         0         0         0         0         0
         0         0         0         0         0         0         0         0
         0         0         0         0         0         0         0         0
         0         0         0         0         0         0         0         0
         0         0         0         0         0         0         0         0
         0         0         0         0         0         0         0         0
         0         0         0         0         0         0         0         0
         0         0         0         0         0         0         0         0
         0         0         0         0         0         0         0         0
         0         0         0         0         0         0         0         0
         0         0         0         0         0         0         0         0
         0         0         0         0         0         0         0         0
         0         0         0         0         0         0         0         0
         0         0         0         0         0         0         0         0
         0         0         0         0         0         0         0         0
         0         0         0         0         0         0         0         0
         0         0         0         0         0         0         0         0
         0         0         0         0         0         0         0         0
         0         0         0         0         0         0         0         0
         0         0         0         0         0         0         0         0
         0         0         0         0         0         0         0         0
         0         0         0         0         0         0         0         0
         0         0         0         0         0         0         0         0
         0         0         0         0         0         0         0         0
         0         0         0         0         0         0         0         0
         0         0         0         0         0         0         0         0
         0         0         0         0         0         0         0         0
         0         0         0         0         0         0         0         0
         0         0         0         0         0         0         0         0
         0         0         0         0         0         0         0         0
         0         0         0         0         0         0         0         0
         0         0         0         0         0         0         0         0
         0         0         0         0         0         0         0         0
         0         0         0         0         0         0         0         0
         0         0         0         0         0         0         0         0
         0         0         0         0         0         0         0         0
         0         0         0         0         0         0         0         0
         0         0         0         0         0         0         0         0
         0         0         0         0         0         0         0         0
         0         0         0         0         0         0         0         0
         0         0         0         0         0         0         0         0
         0         0         0         0         0         0         0         0
         0         0         0         0         0         0         0         0
         0         0         0         0         0         0         0         0
         0         0         0         0         0         0         0         0
         0         0         0         0         0         0         0         0
         0         0         0         0         0         0         0         0
         0         0         0         0         0         0         0         0
         0         0         0         0         0         0         0         0
         0         0         0         0         0         0         0         0
         0         0         0         0         0         0         0         0
         0         0         0         0         0         0         0         0
         0         0         0         0         0         0         0         0
         0         0         0         0         0         0         0         0
         0         0         0         0         0         0         0         0
         0         0         0         0         0         0         0         0
         0         0         0         0         0         0         0         0
         0         0         0         0         0         0         0         0
         0         0         0         0         0         0         0         0
         0         0         0         0         0         0         0         0
         0         0         0         0         0         0         0         0
         0         0         0         0         0         0         0         0
         0         0         0         0         0         0         0         0
         0         0         0         0         0         0         0         0
         0         0         0         0         0         0         0         0
         0         0         0         0         0         0         0         0
         0         0         0         0         0         0         0         0
         0         0         0         0         0         0         0         0
         0         0         0         0         0         0         0         0
         0         0         0         0         0         0         0         0
         0         0         0         0         0         0         0         0
         0         0         0         0         0         0         0         0
         0         0         0         0         0         0         0         0
         0         0         0         0         0         0         0         0
         0         0         0         0         0         0         0         0
         0         0         0         0         0         0         0         0
         0         0         0         0         0         0         0         0
         0         0         0         0         0         0         0         0
         0         0         0         0         0         0         0         0
         0         0         0         0         0         0         0         0
         0         0         0         0         0         0         0         0
         0         0         0         0         0         0         0         0
         0         0         0         0         0         0         0         0
         0         0         0         0         0         0         0         0
         0         0         0         0         0         0         0         0
         0         0         0         0         0         0         0         0
         0         0         0         0         0         0         0         0
         0         0         0         0         0         0         0         0
         0         0         0         0         0         0         0         0
         0         0         0         0         0         0         0         0
         0         0         0         0         0         0         0         0
         0         0         0         0         0         0         0         0
         0         0         0         0         0         0         0         0
         0         0         0         0         0         0         0         0
         0         0         0         0         0         0         0         0
         0         0         0         0         0         0         0         0
         0         0         0         0         0         0         0         0
         0         0         0         0         0         0         0         0
         0         0         0         0         0         0         0         0
         0         0         0         0         0         0         0         0
         0         0         0         0         0         0         0         0
         0         0         0         0         0         0         0         0
         0         0         0         0         0         0         0         0
         0         0         0         0         0         0         0         0
         0         0         0         0         0         0         0         0
         0         0         0         0         0         0         0         0
         0         0         0         0         0         0         0         0
         0         0         0         0         0         0         0         0
         0         0         0         0         0         0         0         0
         0         0         0         0         0         0         0         0
         0         0         0         0         0         0         0         0
         0         0         0         0         0         0         0         0
         0         0         0         0         0         0         0         0
         0         0         0         0         0         0         0         0
         0         0         0         0         0         0         0         0
         0         0         0         0         0         0         0         0
         0         0         0         0         0         0         0         0
         0         0         0         0         0         0         0         0
         0         0         0         0         0         0         0         0
         0         0         0         0         0         0         0         0
         0         0         0         0         0         0         0         0
         0         0         0         0         0         0         0         0
         0         0         0         0         0         0         0         0
         0         0         0         0         0         0         0         0
         0         0         0         0         0         0         0         0
         0         0         0         0         0         0         0         0
         0         0         0         0         0         0         0         0
         0         0         0         0         0         0         0         0
         0         0         0         0         0         0         0         0
         0         0         0         0         0         0         0         0
         0         0         0         0         0         0         0         0
         0         0         0         0         0         0         0         0
         0         0         0         0         0         0         0         0
         0         0         0         0         0         0         0         0
         0         0         0         0         0         0         0         0
         0         0         0         0         0         0         0         0
         0         0         0         0         0         0         0         0
         0         0         0         0         0         0         0         0
         0         0         0         0         0         0         0         0
         0         0         0         0         0         0         0         0
         0         0         0         0         0         0         0         0
         0         0         0         0         0         0         0         0
         0         0         0         0         0         0         0         0
         0         0         0         0         0         0         0         0
         0         0         0         0         0         0         0         0
         0         0         0         0         0         0         0         0
         0         0         0         0         0         0         0         0
         0         0         0         0         0         0         0         0
         0         0         0         0         0         0         0         0
         0         0         0         0         0         0         0         0
         0         0         0         0         0         0         0         0
         0         0         0         0         0         0         0         0
         0         0         0         0         0         0         0         0
         0         0         0         0         0         0         0         0
         0         0         0         0         0         0         0         0
         0         0         0         0         0         0         0         0
         0         0         0         0         0         0         0         0
         0         0         0         0         0         0         0         0
         0         0         0         0         0         0         0         0
         0         0         0         0         0         0         0         0
         0         0         0         0         0         0         0         0
         0         0         0         0         0         0         0         0
         0         0         0         0         0         0         0         0
         0         0         0         0         0         0         0         0
         0         0         0         0         0         0         0         0
         0         0         0         0         0         0         0         0
         0         0         0         0         0         0         0         0
         0         0         0         0         0         0         0         0
         0         0         0         0         0         0         0         0
         0         0         0         0         0         0         0         0
         0         0         0         0         0         0         0         0
         0         0         0         0         0         0         0         0
         0         0         0         0         0         0         0         0
         0         0         0         0         0         0         0         0
         0         0         0         0         0         0         0         0
         0         0         0         0         0         0         0         0
         0         0         0         0         0         0         0         0
         0         0         0         0         0         0         0         0
         0         0         0         0         0         0         0         0
         0         0         0         0         0         0         0         0
         0         0         0         0         0         0         0         0
         0         0         0         0         0         0         0         0
         0         0         0         0         0         0         0         0
         0         0         0         0         0         0         0         0
         0         0         0         0         0         0         0         0
         0         0         0         0         0         0         0         0
         0         0         0         0         0         0         0         0
         0         0         0         0         0         0         0         0
         0         0         0         0         0         0         0         0
         0         0         0         0         0         0         0         0
         0         0         0         0         0         0         0         0
         0         0         0         0         0         0         0         0
         0         0         0         0         0         0         0         0
         0         0         0         0         0         0         0         0
         0         0         0         0         0         0         0         0
         0         0         0         0         0         0         0         0
         0         0         0         0         0         0         0         0
         0         0         0         0         0         0         0         0
         0         0         0         0         0         0         0         0
         0         0         0         0         0         0         0         0
         0         0         0         0         0         0         0         0
         0         0         0         0         0         0         0         0
         0         0         0         0         0         0         0         0
         0         0         0         0         0         0         0         0
         0         0         0         0         0         0         0         0
         0         0         0         0         0         0         0         0
         0         0         0         0         0         0         0         0
         0         0         0         0         0         0         0         0
         0         0         0         0         0         0         0         0
         0         0         0         0         0         0         0         0
         0         0         0         0         0         0         0         0
         0         0         0         0         0         0         0         0
         0         0         0         0         0         0         0         0
         0         0         0         0         0         0         0         0
         0         0         0         0         0         0         0         0
         0         0         0         0         0         0         0         0
         0         0         0         0         0         0         0         0
         0         0         0         0         0         0         0         0
         0         0         0         0         0         0         0         0
         0         0         0         0         0         0         0         0
         0         0         0         0         0         0         0         0
         0         0         0         0         0         0         0         0
         0         0         0         0         0         0         0         0
         0         0         0         0         0         0         0         0
         0         0         0         0         0         0         0         0
         0         0         0         0         0         0         0         0
         0         0         0         0         0         0         0         0
         0         0         0         0         0         0         0         0
         0         0         0         0         0         0         0         0
         0         0         0         0         0         0         0         0
         0         0         0         0         0         0         0         0
         0         0         0         0         0         0         0         0
         0         0         0         0         0         0         0         0
         0         0         0         0         0         0         0         0
         0         0         0         0         0         0         0         0
         0         0         0         0         0         0         0         0
         0         0         0         0         0         0         0         0
         0         0         0         0         0         0         0         0
         0         0         0         0         0         0         0         0
         0         0         0         0         0         0         0         0
         0         0         0         0         0         0         0         0
         0         0         0         0         0         0         0         0
         0         0         0         0         0         0         0         0
         0         0         0         0         0         0         0         0
         0         0         0         0         0         0         0         0
         0         0         0         0         0         0         0         0
         0         0         0         0         0         0         0         0
         0         0         0         0         0         0         0         0
         0         0         0         0         0         0         0         0
         0         0         0         0         0         0         0         0
         0         0         0         0         0         0         0         0
         0         0         0         0         0         0         0         0
         0         0         0         0         0         0         0         0
         0         0         0         0         0         0         0         0
         0         0         0         0         0         0         0         0
         0         0         0         0         0         0         0         0
         0         0         0         0         0         0         0         0
         0         0         0         0         0         0         0         0
         0         0         0         0         0         0         0         0
         0         0         0         0         0         0         0         0
         0         0         0         0         0         0         0         0
         0         0         0         0         0         0         0         0
         0         0         0         0         0         0         0         0
         0         0         0         0         0         0         0         0
         0         0         0         0         0         0         0         0
         0         0         0         0         0         0         0         0
         0         0         0         0         0         0         0         0
         0         0         0         0         0         0         0         0
         0         0         0         0         0         0         0         0
         0         0         0         0         0         0         0         0
         0         0         0         0         0         0         0         0
         0         0         0         0         0         0         0         0
         0         0         0         0         0         0         0         0
         0         0         0         0         0         0         0         0
         0         0         0         0         0         0         0         0
         0         0         0         0         0         0         0         0
         0         0         0         0         0         0         0         0
         0         0         0         0         0         0         0         0
         0         0         0         0         0         0         0         0
         0         0         0         0         0         0         0         0
         0         0         0         0         0         0         0         0
         0         0         0         0         0         0         0         0
         0         0         0         0         0         0         0         0
         0         0         0         0         0         0         0         0
         0         0         0         0         0         0         0         0
         0         0         0         0         0         0         0         0
         0         0         0         0         0         0         0         0
         0         0         0         0         0         0         0         0
         0         0         0         0         0         0         0         0
         0         0         0         0         0         0         0         0
         0         0         0         0         0         0         0         0
         0         0         0         0         0         0         0         0
         0         0         0         0         0         0         0         0
         0         0         0         0         0         0         0         0
         0         0         0         0         0         0         0         0
         0         0         0         0         0         0         0         0
         0         0         0         0         0         0         0         0
         0         0         0         0         0         0         0         0
         0         0         0         0         0         0         0         0
         0         0         0         0         0         0         0         0
         0         0         0         0         0         0         0         0
         0         0         0         0         0         0         0         0
         0         0         0         0         0         0         0         0
         0         0         0         0         0         0         0         0
         0         0         0         0         0         0         0         0
         0         0         0         0         0         0         0         0
         0         0         0         0         0         0         0         0
         0         0         0         0         0         0         0         0
         0         0         0         0         0         0         0         0
         0         0         0         0         0         0         0         0
         0         0         0         0         0         0         0         0
         0         0         0         0         0         0         0         0
         0         0         0         0         0         0         0         0
         0         0         0         0         0         0         0         0
         0         0         0         0         0         0         0         0
         0         0         0         0         0         0         0         0
         0         0         0         0         0         0         0         0
         0         0         0         0         0         0         0         0
         0         0         0         0         0         0         0         0
         0         0         0         0         0         0         0         0
         0         0         0         0         0         0         0         0
         0         0         0         0         0         0         0         0
         0         0         0         0         0         0         0         0
         0         0         0         0         0         0         0         0
         0         0         0         0         0         0         0         0
         0         0         0         0         0         0         0         0
         0         0         0         0         0         0         0         0
         0         0         0         0         0         0         0         0
         0         0         0         0         0         0         0         0
         0         0         0         0         0         0         0         0
         0         0         0         0         0         0         0         0
         0         0         0         0         0         0         0         0
         0         0         0         0         0         0         0         0
         0         0         0         0         0         0         0         0
         0         0         0         0         0         0         0         0
         0         0         0         0         0         0         0         0
         0         0         0         0         0         0         0         0
         0         0         0         0         0         0         0         0
         0         0         0         0         0         0         0         0
         0         0         0         0         0         0         0         0
         0         0         0         0         0         0         0         0
         0         0         0         0         0         0         0         0
         0         0         0         0         0         0         0         0
         0         0         0         0         0         0         0         0
         0         0         0         0         0         0         0         0
         0         0         0         0         0         0         0         0
         0         0         0         0         0         0         0         0
         0         0         0         0         0         0         0         0
         0         0         0         0         0         0         0         0
         0         0         0         0         0         0         0         0
         0         0         0         0         0         0         0         0
         0         0         0         0         0         0         0         0
         0         0         0         0         0         0         0         0
         0         0         0         0         0         0         0         0
         0         0         0         0         0         0         0         0
         0         0         0         0         0         0         0         0
         0         0         0         0         0         0         0         0
         0         0         0         0         0         0         0         0
         0         0         0         0         0         0         0         0
         0         0         0         0         0         0         0         0
         0         0         0         0         0         0         0         0
         0         0         0         0         0         0         0         0
         0         0         0         0         0         0         0         0
         0         0         0         0         0         0         0         0
         0         0         0         0         0         0         0         0
         0         0         0         0         0         0         0         0
         0         0         0         0         0         0         0         0
         0         0         0         0         0         0         0         0
         0         0         0         0         0         0         0         0
         0         0         0         0         0         0         0         0
         0         0         0         0         0         0         0         0
         0         0         0         0         0         0         0         0
         0         0         0         0         0         0         0         0
         0         0         0         0         0         0         0         0
         0         0         0         0         0         0         0         0
         0         0         0         0         0         0         0         0
         0         0         0         0         0         0         0         0
         0         0         0         0         0         0         0         0
         0         0         0         0         0         0         0         0
         0         0         0         0         0         0         0         0
         0         0         0         0         0         0         0         0
         0         0         0         0         0         0         0         0
         0         0         0         0         0         0         0         0
         0         0         0         0         0         0         0         0
         0         0         0         0         0         0         0         0
         0         0         0         0         0         0         0         0
         0         0         0         0         0         0         0         0
         0         0         0         0         0         0         0         0
         0         0         0         0         0         0         0         0
         0         0         0         0         0         0         0         0
         0         0         0         0         0         0         0         0
         0         0         0         0         0         0         0         0
         0         0         0         0         0         0         0         0
         0         0         0         0         0         0         0         0
         0         0         0         0         0         0         0         0
         0         0         0         0         0         0         0         0
         0         0         0         0         0         0         0         0
         0         0         0         0         0         0         0         0
         0         0         0         0         0         0         0         0
         0         0         0         0         0         0         0         0
         0         0         0         0         0         0         0         0
         0         0         0         0         0         0         0         0
         0         0         0         0         0         0         0         0
         0         0         0         0         0         0         0         0
         0         0         0         0         0         0         0         0
         0         0         0         0         0         0         0         0
         0         0         0         0         0         0         0         0
         0         0         0         0         0         0         0         0
         0         0         0         0         0         0         0         0
         0         0         0         0         0         0         0         0
         0         0         0         0         0         0         0         0
         0         0         0         0         0         0         0         0
         0         0         0         0         0         0         0         0
         0         0         0         0         0         0         0         0
         0         0         0         0         0         0         0         0
         0         0         0         0         0         0         0         0
         0         0         0         0         0         0         0         0
         0         0         0         0         0         0         0         0
         0         0         0         0         0         0         0         0
         0         0         0         0         0         0         0         0
         0         0         0         0         0         0         0         0
         0         0         0         0         0         0         0         0
         0         0         0         0         0         0         0         0
         0         0         0         0         0         0         0         0
         0         0         0         0         0         0         0         0
         0         0         0         0         0         0         0         0
         0         0         0         0         0         0         0         0
         0         0         0         0         0         0         0         0
         0         0         0         0         0         0         0         0
         0         0         0         0         0         0         0         0
         0         0         0         0         0         0         0         0
         0         0         0         0         0         0         0         0
         0         0         0         0         0         0         0         0
         0         0         0         0         0         0         0         0
         0         0         0         0         0         0         0         0
         0         0         0         0         0         0         0         0
         0         0         0         0         0         0         0         0
         0         0         0         0         0         0         0         0
         0         0         0         0         0         0         0         0
         0         0         0         0         0         0         0         0
         0         0         0         0         0         0         0         0
         0         0         0         0         0         0         0         0
         0         0         0         0         0         0         0         0
         0         0         0         0         0         0         0         0
         0         0         0         0         0         0         0         0
         0         0         0         0         0         0         0         0
         0         0         0         0         0         0         0         0
         0         0         0         0         0         0         0         0
         0         0         0         0         0         0         0         0
         0         0         0         0         0         0         0         0
         0         0         0         0         0         0         0         0
         0         0         0         0         0         0         0         0
         0         0         0         0         0         0         0         0
         0         0         0         0         0         0         0         0
         0         0         0         0         0         0         0         0
         0         0         0         0         0         0         0         0
         0         0         0         0         0         0         0         0
         0         0         0         0         0         0         0         0
         0         0         0         0         0         0         0         0
         0         0         0         0         0         0         0         0
         0         0         0         0         0         0         0         0
         0         0         0         0         0         0         0         0
         0         0         0         0         0         0         0         0
         0         0         0         0         0         0         0         0
         0         0         0         0         0         0         0         0
         0         0         0         0         0         0         0         0
         0         0         0         0         0         0         0         0
         0         0         0         0         0         0         0         0
         0         0         0         0         0         0         0         0
         0         0         0         0         0         0         0         0
         0         0         0         0         0         0         0         0
         0         0         0         0         0         0         0         0
         0         0         0         0         0         0         0         0
         0         0         0         0         0         0         0         0
         0         0         0         0         0         0         0         0
         0         0         0         0         0         0         0         0
         0         0         0         0         0         0         0         0
         0         0         0         0         0         0         0         0
         0         0         0         0         0         0         0         0
         0         0         0         0         0         0         0         0
         0         0         0         0         0         0         0         0
         0         0         0         0         0         0         0         0
         0         0         0         0         0         0         0         0
         0         0         0         0         0         0         0         0
         0         0         0         0         0         0         0         0
         0         0         0         0         0         0         0         0
         0         0         0         0         0         0         0         0
         0         0         0         0         0         0         0         0
         0         0         0         0         0         0         0         0
         0         0         0         0         0         0         0         0
         0         0         0         0         0         0         0         0
         0         0         0         0         0         0         0         0
         0         0         0         0         0         0         0         0
         0         0         0         0         0         0         0         0
         0         0         0         0         0         0         0         0
         0         0         0         0         0         0         0         0
         0         0         0         0         0         0         0         0
         0         0         0         0         0         0         0         0
         0         0         0         0         0         0         0         0
         0         0         0         0         0         0         0         0
         0         0         0         0         0         0         0         0
         0         0         0         0         0         0         0         0
         0         0         0         0         0         0         0         0
         0         0         0         0         0         0         0         0
         0         0         0         0         0         0         0         0
         0         0         0         0         0         0         0         0
         0         0         0         0         0         0         0         0
         0         0         0         0         0         0         0         0
         0         0         0         0         0         0         0         0
         0         0         0         0         0         0         0         0
         0         0         0         0         0         0         0         0
         0         0         0         0         0         0         0         0
         0         0         0         0         0         0         0         0
         0         0         0         0         0         0         0         0
         0         0         0         0         0         0         0         0
         0         0         0         0         0         0         0         0
         0         0         0         0         0         0         0         0
         0         0         0         0         0         0         0         0
         0         0         0         0         0         0         0         0
         0         0         0         0         0         0         0         0
         0         0         0         0         0         0         0         0
         0         0         0         0         0         0         0         0
         0         0         0         0         0         0         0         0
         0         0         0         0         0         0         0         0
         0         0         0         0         0         0         0         0
         0         0         0         0         0         0         0         0
         0         0         0         0         0         0         0         0
         0         0         0         0         0         0         0         0
         0         0         0         0         0         0         0         0
         0         0         0         0         0         0         0         0
         0         0         0         0         0         0         0         0
         0         0         0         0         0         0         0         0
         0         0         0         0         0         0         0         0
         0         0         0         0         0         0         0         0
         0         0         0         0         0         0         0         0
         0         0         0         0         0         0         0         0
         0         0         0         0         0         0         0         0
         0         0         0         0         0         0         0         0
         0         0         0         0         0         0         0         0
         0         0         0         0         0         0         0         0
         0         0         0         0         0         0         0         0
         0         0         0         0         0         0         0         0
         0         0         0         0         0         0         0         0
         0         0         0         0         0         0         0         0
         0         0         0         0         0         0         0         0
         0         0         0         0         0         0         0         0
         0         0         0         0         0         0         0         0
         0         0         0         0         0         0         0         0
         0         0         0         0         0         0         0         0
         0         0         0         0         0         0         0         0
         0         0         0         0         0         0         0         0
         0         0         0         0         0         0         0         0
         0         0         0         0         0         0         0         0
         0         0         0         0         0         0         0         0
         0         0         0         0         0         0         0         0
         0         0         0         0         0         0         0         0
         0         0         0         0         0         0         0         0
         0         0         0         0         0         0         0         0
         0         0         0         0         0         0         0         0
         0         0         0         0         0         0         0         0
         0         0         0         0         0         0         0         0
         0         0         0         0         0         0         0         0
         0         0         0         0         0         0         0         0
         0         0         0         0         0         0         0         0
         0         0         0         0         0         0         0         0
         0         0         0         0         0         0         0         0
         0         0         0         0         0         0         0         0
         0         0         0         0         0         0         0         0
         0         0         0         0         0         0         0         0
         0         0         0         0         0         0         0         0
         0         0         0         0         0         0         0         0
         0         0         0         0         0         0         0         0
         0         0         0         0         0         0         0         0
         0         0         0         0         0         0         0         0
         0         0         0         0         0         0         0         0
         0         0         0         0         0         0         0         0
         0         0         0         0         0         0         0         0
         0         0         0         0         0         0         0         0
         0         0         0         0         0         0         0         0
         0         0         0         0         0         0         0         0
         0         0         0         0         0         0         0         0
         0         0         0         0         0         0         0         0
         0         0         0         0         0         0         0         0
         0         0         0         0         0         0         0         0
         0         0         0         0         0         0         0         0
         0         0         0         0         0         0         0         0
         0         0         0         0         0         0         0         0
         0         0         0         0         0         0         0         0
         0         0         0         0         0         0         0         0
         0         0         0         0         0         0         0         0
         0         0         0         0         0         0         0         0
         0         0         0         0         0         0         0         0
         0         0         0         0         0         0         0         0
         0         0         0         0         0         0         0         0
         0         0         0         0         0         0         0         0
         0         0         0         0         0         0         0         0
         0         0         0         0         0         0         0         0
         0         0         0         0         0         0         0         0
         0         0         0         0         0         0         0         0
         0         0         0         0         0         0         0         0
         0         0         0         0         0         0         0         0
         0         0         0         0         0         0         0         0
         0         0         0         0         0         0         0         0
         0         0         0         0         0         0         0         0
         0         0         0         0         0         0         0         0
         0         0         0         0         0         0         0         0
         0         0         0         0         0         0         0         0
         0         0         0         0         0         0         0         0
         0         0         0         0         0         0         0         0
         0         0         0         0         0         0         0         0
         0         0         0         0         0         0         0         0
         0         0         0         0         0         0         0         0
         0         0         0         0         0         0         0         0
         0         0         0         0         0         0         0         0
         0         0         0         0         0         0         0         0
         0         0         0         0         0         0         0         0
         0         0         0         0         0         0         0         0
         0         0         0         0         0         0         0         0
         0         0         0         0         0         0         0         0
         0         0         0         0         0         0         0         0
         0         0         0         0         0         0         0         0
         0         0         0         0         0         0         0         0
         0         0         0         0         0         0         0         0
         0         0         0         0         0         0         0         0
         0         0         0         0         0         0         0         0
         0         0         0         0         0         0         0         0
         0         0         0         0         0         0         0         0
         0         0         0         0         0         0         0         0
         0         0         0         0         0         0         0         0
         0         0         0         0         0         0         0         0
         0         0         0         0         0         0         0         0
         0         0         0         0         0         0         0         0
         0         0         0         0         0         0         0         0
         0         0         0         0         0         0         0         0
         0         0         0         0         0         0         0         0
         0         0         0         0         0         0         0         0
         0         0         0         0         0         0         0         0
         0         0         0         0         0         0         0         0
         0         0         0         0         0         0         0         0
         0         0         0         0         0         0         0         0
         0         0         0         0         0         0         0         0
         0         0         0         0         0         0         0         0
         0         0         0         0         0         0         0         0
         0         0         0         0         0         0         0         0
         0         0         0         0         0         0         0         0
         0         0         0         0         0         0         0         0
         0         0         0         0         0         0         0         0
         0         0         0         0         0         0         0         0
         0         0         0         0         0         0         0         0
         0         0         0         0         0         0         0         0
         0         0         0         0         0         0         0         0
         0         0         0         0         0         0         0         0
         0         0         0         0         0         0         0         0
         0         0         0         0         0         0         0         0
         0         0         0         0         0         0         0         0
         0         0         0         0         0         0         0         0
         0         0         0         0         0         0         0         0
         0         0         0         0         0         0         0         0
         0         0         0         0         0         0         0         0
         0         0         0         0         0         0         0         0
         0         0         0         0         0         0         0         0
         0         0         0         0         0         0         0         0
         0         0         0         0         0         0         0         0
         0         0         0         0         0         0         0         0
         0         0         0         0         0         0         0         0
         0         0         0         0         0         0         0         0
         0         0         0         0         0         0         0         0
         0         0         0         0         0         0         0         0
         0         0         0         0         0         0         0         0
         0         0         0         0         0         0         0         0
         0         0         0         0         0         0         0         0
         0         0         0         0         0         0         0         0
         0         0         0         0         0         0         0         0
         0         0         0         0         0         0         0         0
         0         0         0         0         0         0         0         0
         0         0         0         0         0         0         0         0
         0         0         0         0         0         0         0         0
         0         0         0         0         0         0         0         0
         0         0         0         0         0         0         0         0
         0         0         0         0         0         0         0         0
         0         0         0         0         0         0         0         0
         0         0         0         0         0         0         0         0
         0         0         0         0         0         0         0         0
         0         0         0         0         0         0         0         0
         0         0         0         0         0         0         0         0
         0         0         0         0         0         0         0         0
         0         0         0         0         0         0         0         0
         0         0         0         0         0         0         0         0
         0         0         0         0         0         0         0         0
         0         0         0         0         0         0         0         0
         0         0         0         0         0         0         0         0
         0         0         0         0         0         0         0         0
         0         0         0         0         0         0         0         0
         0         0         0         0         0         0         0         0
         0         0         0         0         0         0         0         0
         0         0         0         0         0         0         0         0
         0         0         0         0         0         0         0         0
         0         0         0         0         0         0         0         0
         0         0         0         0         0         0         0         0
         0         0         0         0         0         0         0         0
         0         0         0         0         0         0         0         0
         0         0         0         0         0         0         0         0
         0         0         0         0         0         0         0         0
         0         0         0         0         0         0         0         0
         0         0         0         0         0         0         0         0
         0         0         0         0         0         0         0         0
         0         0         0         0         0         0         0         0
         0         0         0         0         0         0         0         0
         0         0         0         0         0         0         0         0
         0         0         0         0         0         0         0         0
         0         0         0         0         0         0         0         0
         0         0         0         0         0         0         0         0
         0         0         0         0         0         0         0         0
         0         0         0         0         0         0         0         0
         0         0         0         0         0         0         0         0
         0         0         0         0         0         0         0         0
         0         0         0         0         0         0         0         0
         0         0         0         0         0         0         0         0
         0         0         0         0         0         0         0         0
         0         0         0         0         0         0         0         0
         0         0         0         0         0         0         0         0
         0         0         0         0         0         0         0         0
         0         0         0         0         0         0         0         0
         0         0         0         0         0         0         0         0
         0         0         0         0         0         0         0         0
         0         0         0         0         0         0         0         0
         0         0         0         0         0         0         0         0
         0         0         0         0         0         0         0         0
         0         0         0         0         0         0         0         0
         0         0         0         0         0         0         0         0
         0         0         0         0         0         0         0         0
         0         0         0         0         0         0         0         0
         0         0         0         0         0         0         0         0
         0         0         0         0         0         0         0         0
         0         0         0         0         0         0         0         0
         0         0         0         0         0         0         0         0
         0         0         0         0         0         0         0         0
         0         0         0         0         0         0         0         0
         0         0         0         0         0         0         0         0
         0         0         0         0         0         0         0         0
         0         0         0         0         0         0         0         0
         0         0         0         0         0         0         0         0
         0         0         0         0         0         0         0         0
         0         0         0         0         0         0         0         0
         0         0         0         0         0         0         0         0
         0         0         0         0         0         0         0         0
         0         0         0         0         0         0         0         0
         0         0         0         0         0         0         0         0
         0         0         0         0         0         0         0         0
         0         0         0         0         0         0         0         0
         0         0         0         0         0         0         0         0
         0         0         0         0         0         0         0         0
         0         0         0         0         0         0         0         0
         0         0         0         0         0         0         0         0
         0         0         0         0         0         0         0         0
         0         0         0         0         0         0         0         0
         0         0         0         0         0         0         0         0
         0         0         0         0         0         0         0         0
         0         0         0         0         0         0         0         0
         0         0         0         0         0         0         0         0
         0         0         0         0         0         0         0         0
         0         0         0         0         0         0         0         0
         0         0         0         0         0         0         0         0
         0         0         0         0         0         0         0         0
         0         0         0         0         0         0         0         0
         0         0         0         0         0         0         0         0
         0         0         0         0         0         0         0         0
         0         0         0         0         0         0         0         0
         0         0         0         0         0         0         0         0
         0         0         0         0         0         0         0         0
         0         0         0         0         0         0         0         0
         0         0         0         0         0         0         0         0
         0         0         0         0         0         0         0         0
         0         0         0         0         0         0         0         0
         0         0         0         0         0         0         0         0
         0         0         0         0         0         0         0         0
         0         0         0         0         0         0         0         0
         0         0         0         0         0         0         0         0
         0         0         0         0         0         0         0         0
         0         0         0         0         0         0         0         0
         0         0         0         0         0         0         0         0
         0         0         0         0         0         0         0         0
         0         0         0         0         0         0         0         0
         0         0         0         0         0         0         0         0
         0         0         0         0         0         0         0         0
         0         0         0         0         0         0         0         0
         0         0         0         0         0         0         0         0
         0         0         0         0         0         0         0         0
         0         0         0         0         0         0         0         0
         0         0         0         0         0         0         0         0
         0         0         0         0         0         0         0         0
         0         0         0         0         0         0         0         0
         0         0         0         0         0         0         0         0
         0         0         0         0         0         0         0         0
         0         0         0         0         0         0         0         0
         0         0         0         0         0         0         0         0
         0         0         0         0         0         0         0         0
         0         0         0         0         0         0         0         0
         0         0         0         0         0         0         0         0
         0         0         0         0         0         0         0         0
         0         0         0         0         0         0         0         0
         0         0         0         0         0         0         0         0
         0         0         0         0         0         0         0         0
         0         0         0         0         0         0         0         0
         0         0         0         0         0         0         0         0
         0         0         0         0         0         0         0         0
         0         0         0         0         0         0         0         0
         0         0         0         0         0         0         0         0
         0         0         0         0         0         0         0         0
         0         0         0         0         0         0         0         0
         0         0         0         0         0         0         0         0
         0         0         0         0         0         0         0         0
         0         0         0         0         0         0         0         0
         0         0         0         0         0         0         0         0
         0         0         0         0         0         0         0         0
         0         0         0         0         0         0         0         0
         0         0         0         0         0         0         0         0
         0         0         0         0         0         0         0         0
         0         0         0         0         0         0         0         0
         0         0         0         0         0         0         0         0
         0         0         0         0         0         0         0         0
         0         0         0         0         0         0         0         0
         0         0         0         0         0         0         0         0
         0         0         0         0         0         0         0         0
         0         0         0         0         0         0         0         0
         0         0         0         0         0         0         0         0
         0         0         0         0         0         0         0         0
         0         0         0         0         0         0         0         0
         0         0         0         0         0         0         0         0
         0         0         0         0         0         0         0         0
         0         0         0         0         0         0         0         0
         0         0         0         0         0         0         0         0
         0         0         0         0         0         0         0         0
         0         0         0         0         0         0         0         0
         0         0         0         0         0         0         0         0
         0         0         0         0         0         0         0         0
         0         0         0         0         0         0         0         0
         0         0         0         0         0         0         0         0
         0         0         0         0         0         0         0         0
         0         0         0         0         0         0         0         0
         0         0         0         0         0         0         0         0
         0         0         0         0         0         0         0         0
         0         0         0         0         0         0         0         0
         0         0         0         0         0         0         0         0
         0         0         0         0         0         0         0         0
         0         0         0         0         0         0         0         0
         0         0         0         0         0         0         0         0
         0         0         0         0         0         0         0         0
         0         0         0         0         0         0         0         0
         0         0         0         0         0         0         0         0
         0         0         0         0         0         0         0         0
         0         0         0         0         0         0         0         0
         0         0         0         0         0         0         0         0
         0         0         0         0         0         0         0         0
         0         0         0         0         0         0         0         0
         0         0         0         0         0         0         0         0
         0         0         0         0         0         0         0         0
         0         0         0         0         0         0         0         0
         0         0         0         0         0         0         0         0
         0         0         0         0         0         0         0         0
         0         0         0         0         0         0         0         0
         0         0         0         0         0         0         0         0
         0         0         0         0         0         0         0         0
         0         0         0         0         0         0         0         0
         0         0         0         0         0         0         0         0
         0         0         0         0         0         0         0         0
         0         0         0         0         0         0         0         0
         0         0         0         0         0         0         0         0
         0         0         0         0         0         0         0         0
         0         0         0         0         0         0         0         0
         0         0         0         0         0         0         0         0
         0         0         0         0         0         0         0         0
         0         0         0         0         0         0         0         0
         0         0         0         0         0         0         0         0
         0         0         0         0         0         0         0         0
         0         0         0         0         0         0         0         0
         0         0         0         0         0         0         0         0
         0         0         0         0         0         0         0         0
         0         0         0         0         0         0         0         0
         0         0         0         0         0         0         0         0
         0         0         0         0         0         0         0         0
         0         0         0         0         0         0         0         0
         0         0         0         0         0         0         0         0
         0         0         0         0         0         0         0         0
         0         0         0         0         0         0         0         0
         0         0         0         0         0         0         0         0
         0         0         0         0         0         0         0         0
         0         0         0         0         0         0         0         0
         0         0         0         0         0         0         0         0
         0         0         0         0         0         0         0         0
         0         0         0         0         0         0         0         0
         0         0         0         0         0         0         0         0
         0         0         0         0         0         0         0         0
         0         0         0         0         0         0         0         0
         0         0         0         0         0         0         0         0
         0         0         0         0         0         0         0         0
         0         0         0         0         0         0         0         0
         0         0         0         0         0         0         0         0
         0         0         0         0         0         0         0         0
         0         0         0         0         0         0         0         0
         0         0         0         0         0         0         0         0
         0         0         0         0         0         0         0         0
         0         0         0         0         0         0         0         0
         0         0         0         0         0         0         0         0
         0         0         0         0         0         0         0         0
         0         0         0         0         0         0         0         0
         0         0         0         0         0         0         0         0
         0         0         0         0         0         0         0         0
         0         0         0         0         0         0         0         0
         0         0         0         0         0         0         0         0
         0         0         0         0         0         0         0         0
         0         0         0         0         0         0         0         0
         0         0         0         0         0         0         0         0
         0         0         0         0         0         0         0         0
         0         0         0         0         0         0         0         0
         0         0         0         0         0         0         0         0
         0         0         0         0         0         0         0         0
         0         0         0         0         0         0         0         0
         0         0         0         0         0         0         0         0
         0         0         0         0         0         0         0         0
         0         0         0         0         0         0         0         0
         0         0         0         0         0         0         0         0
         0         0         0         0         0         0         0         0
         0         0         0         0         0         0         0         0
         0         0         0         0         0         0         0         0
         0         0         0         0         0         0         0         0
         0         0         0         0         0         0         0         0
         0         0         0         0         0         0         0         0
         0         0         0         0         0         0         0         0
         0         0         0         0         0         0         0         0
         0         0         0         0         0         0         0         0
         0         0         0         0         0         0         0         0
         0         0         0         0         0         0         0         0
         0         0         0         0         0         0         0         0
         0         0         0         0         0         0         0         0
         0         0         0         0         0         0         0         0
         0         0         0         0         0         0         0         0
         0         0         0         0         0         0         0         0
         0         0         0         0         0         0         0         0
         0         0         0         0         0         0         0         0
         0         0         0         0         0         0         0         0
         0         0         0         0         0         0         0         0
         0         0         0         0         0         0         0         0
         0         0         0         0         0         0         0         0
         0         0         0         0         0         0         0         0
         0         0         0         0         0         0         0         0
         0         0         0         0         0         0         0         0
         0         0         0         0         0         0         0         0
         0         0         0         0         0         0         0         0
         0         0         0         0         0         0         0         0
         0         0         0         0         0         0         0         0
         0         0         0         0         0         0         0         0
         0         0         0         0         0         0         0         0
         0         0         0         0         0         0         0         0
         0         0         0         0         0         0         0         0
         0         0         0         0         0         0         0         0
         0         0         0         0         0         0         0         0
         0         0         0         0         0         0         0         0
         0         0         0         0         0         0         0         0
         0         0         0         0         0         0         0         0
         0         0         0         0         0         0         0         0
         0         0         0         0         0         0         0         0
         0         0         0         0         0         0         0         0
         0         0         0         0         0         0         0         0
         0         0         0         0         0         0         0         0
         0         0         0         0         0         0         0         0
         0         0         0         0         0         0         0         0
         0         0         0         0         0         0         0         0
         0         0         0         0         0         0         0         0
         0         0         0         0         0         0         0         0
         0         0         0         0         0         0         0         0
         0         0         0         0         0         0         0         0
         0         0         0         0         0         0         0         0
         0         0         0         0         0         0         0         0
         0         0         0         0         0         0         0         0
         0         0         0         0         0         0         0         0
         0         0         0         0         0         0         0         0
         0         0         0         0         0         0         0         0
         0         0         0         0         0         0         0         0
         0         0         0         0         0         0         0         0
         0         0         0         0         0         0         0         0
         0         0         0         0         0         0         0         0
         0         0         0         0         0         0         0         0
         0         0         0         0         0         0         0         0
         0         0         0         0         0         0         0         0
         0         0         0         0         0         0         0         0
         0         0         0         0         0         0         0         0
         0         0         0         0         0         0         0         0
         0         0         0         0         0         0         0         0
         0         0         0         0         0         0         0         0
         0         0         0         0         0         0         0         0
         0         0         0         0         0         0         0         0
         0         0         0         0         0         0         0         0
         0         0         0         0         0         0         0         0
         0         0         0         0         0         0         0         0
         0         0         0         0         0         0         0         0
         0         0         0         0         0         0         0         0
         0         0         0         0         0         0         0         0
         0         0         0         0         0         0         0         0
         0         0         0         0         0         0         0         0
         0         0         0         0         0         0         0         0
         0         0         0         0         0         0         0         0
         0         0         0         0         0         0         0         0
         0         0         0         0         0         0         0         0
         0         0         0         0         0         0         0         0
         0         0         0         0         0         0         0         0
         0         0         0         0         0         0         0         0
         0         0         0         0         0         0         0         0
         0         0         0         0         0         0         0         0
         0         0         0         0         0         0         0         0
         0         0         0         0         0         0         0         0
         0         0         0         0         0         0         0         0
         0         0         0         0         0         0         0         0
         0         0         0         0         0         0         0         0
         0         0         0         0         0         0         0         0
         0         0         0         0         0         0         0         0
         0         0         0         0         0         0         0         0
         0         0         0         0         0         0         0         0
         0         0         0         0         0         0         0         0
         0         0         0         0         0         0         0         0
         0         0         0         0         0         0         0         0
         0         0         0         0         0         0         0         0
         0         0         0         0         0         0         0         0
         0         0         0         0         0         0         0         0
         0         0         0         0         0         0         0         0
         0         0         0         0         0         0         0         0
         0         0         0         0         0         0         0         0
         0         0         0         0         0         0         0         0
         0         0         0         0         0         0         0         0
         0         0         0         0         0         0         0         0
         0         0         0         0         0         0         0         0
         0         0         0         0         0         0         0         0
         0         0         0         0         0         0         0         0
         0         0         0         0         0         0         0         0
         0         0         0         0         0         0         0         0
         0         0         0         0         0         0         0         0
         0         0         0         0         0         0         0         0
         0         0         0         0         0         0         0         0
         0         0         0         0         0         0         0         0
         0         0         0         0         0         0         0         0
         0         0         0         0         0         0         0         0
         0         0         0         0         0         0         0         0
         0         0         0         0         0         0         0         0
         0         0         0         0         0         0         0         0
         0         0         0         0         0         0         0         0
         0         0         0         0         0         0         0         0
         0         0         0         0         0         0         0         0
         0         0         0         0         0         0         0         0
         0         0         0         0         0         0         0         0
         0         0         0         0         0         0         0         0
         0         0         0         0         0         0         0         0
         0         0         0         0         0         0         0         0
         0         0         0         0         0         0         0         0
         0         0         0         0         0         0         0         0
         0         0         0         0         0         0         0         0
         0         0         0         0         0         0         0         0
         0         0         0         0         0         0         0         0
         0         0         0         0         0         0         0         0
         0         0         0         0         0         0         0         0
         0         0         0         0         0         0         0         0
         0         0         0         0         0         0         0         0
         0         0         0         0         0         0         0         0
         0         0         0         0         0         0         0         0
         0         0         0         0         0         0         0         0
         0         0         0         0         0         0         0         0
         0         0         0         0         0         0         0         0
         0         0         0         0         0         0         0         0
         0         0         0         0         0         0         0         0
         0         0         0         0         0         0         0         0
         0         0         0         0         0         0         0         0
         0         0         0         0         0         0         0         0
         0         0         0         0         0         0         0         0
         0         0         0         0         0         0         0         0
         0         0         0         0         0         0         0         0
         0         0         0         0         0         0         0         0
         0         0         0         0         0         0         0         0
         0         0         0         0         0         0         0         0
         0         0         0         0         0         0         0         0
         0         0         0         0         0         0         0         0
         0         0         0         0         0         0         0         0
         0         0         0         0         0         0         0         0
         0         0         0         0         0         0         0         0
         0         0         0         0         0         0         0         0
         0         0         0         0         0         0         0         0
         0         0         0         0         0         0         0         0
         0         0         0         0         0         0         0         0
         0         0         0         0         0         0         0         0
         0         0         0         0         0         0         0         0
         0         0         0         0         0         0         0         0
         0         0         0         0         0         0         0         0
         0         0         0         0         0         0         0         0
         0         0         0         0         0         0         0         0
         0         0         0         0         0         0         0         0
         0         0         0         0         0         0         0         0
         0         0         0         0         0         0         0         0
         0         0         0         0         0         0         0         0
         0         0         0         0         0         0         0         0
         0         0         0         0         0         0         0         0
         0         0         0         0         0         0         0         0
         0         0         0         0         0         0         0         0
         0         0         0         0         0         0         0         0
         0         0         0         0         0         0         0         0
         0         0         0         0         0         0         0         0
         0         0         0         0         0         0         0         0
         0         0         0         0         0         0         0         0
         0         0         0         0         0         0         0         0
         0         0         0         0         0         0         0         0
         0         0         0         0         0         0         0         0
         0         0         0         0         0         0         0         0
         0         0         0         0         0         0         0         0
         0         0         0         0         0         0         0         0
         0         0         0         0         0         0         0         0
         0         0         0         0         0         0         0         0
         0         0         0         0         0         0         0         0
         0         0         0         0         0         0         0         0
         0         0         0         0         0         0         0         0
         0         0         0         0         0         0         0         0
         0         0         0         0         0         0         0         0
         0         0         0         0         0         0         0         0
         0         0         0         0         0         0         0         0
         0         0         0         0         0         0         0         0
         0         0         0         0         0         0         0         0
         0         0         0         0         0         0         0         0
         0         0         0         0         0         0         0         0
         0         0         0         0         0         0         0         0
         0         0         0         0         0         0         0         0
         0         0         0         0         0         0         0         0
         0         0         0         0         0         0         0         0
         0         0         0         0         0         0         0         0
         0         0         0         0         0         0         0         0
         0         0         0         0         0         0         0         0
         0         0         0         0         0         0         0         0
         0         0         0         0         0         0         0         0
         0         0         0         0         0         0         0         0
         0         0         0         0         0         0         0         0
         0         0         0         0         0         0         0         0
         0         0         0         0         0         0         0         0
         0         0         0         0         0         0         0         0
         0         0         0         0         0         0         0         0
         0         0         0         0         0         0         0         0
         0         0         0         0         0         0         0         0
         0         0         0         0         0         0         0         0
         0         0         0         0         0         0         0         0
         0         0         0         0         0         0         0         0
         0         0         0         0         0         0         0         0
         0         0         0         0         0         0         0         0
         0         0         0         0         0         0         0         0
         0         0         0         0         0         0         0         0
         0         0         0         0         0         0         0         0
         0         0         0         0         0         0         0         0
         0         0         0         0         0         0         0         0
         0         0         0         0         0         0         0         0
         0         0         0         0         0         0         0         0
         0         0         0         0         0         0         0         0
         0         0         0         0         0         0         0         0
         0         0         0         0         0         0         0         0
         0         0         0         0         0         0         0         0
         0         0         0         0         0         0         0         0
         0         0         0         0         0         0         0         0
         0         0         0         0         0         0         0         0
         0         0         0         0         0         0         0         0
         0         0         0         0         0         0         0         0
         0         0         0         0         0         0         0         0
         0         0         0         0         0         0         0         0
         0         0         0         0         0         0         0         0
         0         0         0         0         0         0         0         0
         0         0         0         0         0         0         0         0
         0         0         0         0         0         0         0         0
         0         0         0         0         0         0         0         0
         0         0         0         0         0         0         0         0
         0         0         0         0         0         0         0         0
         0         0         0         0         0         0         0         0
         0         0         0         0         0         0         0         0
         0         0         0         0         0         0         0         0
         0         0         0         0         0         0         0         0
         0         0         0         0         0         0         0         0
         0         0         0         0         0         0         0         0
         0         0         0         0         0         0         0         0
         0         0         0         0         0         0         0         0
         0         0         0         0         0         0         0         0
         0         0         0         0         0         0         0         0
         0         0         0         0         0         0         0         0
         0         0         0         0         0         0         0         0
         0         0         0         0         0         0         0         0
         0         0         0         0         0         0         0         0
         0         0         0         0         0         0         0         0
         0         0         0         0         0         0         0         0
         0         0         0         0         0         0         0         0
         0         0         0         0         0         0         0         0
         0         0         0         0         0         0         0         0
         0         0         0         0         0         0         0         0
         0         0         0         0         0         0         0         0
         0         0         0         0         0         0         0         0
         0         0         0         0         0         0         0         0
         0         0         0         0         0         0         0         0
         0         0         0         0         0         0         0         0
         0         0         0         0         0         0         0         0
         0         0         0         0         0         0         0         0
         0         0         0         0         0         0         0         0
         0         0         0         0         0         0         0         0
         0         0         0         0         0         0         0         0
         0         0         0         0         0         0         0         0
         0         0         0         0         0         0         0         0
         0         0         0         0         0         0         0         0
         0         0         0         0         0         0         0         0
         0         0         0         0         0         0         0         0
         0         0         0         0         0         0         0         0
         0         0         0         0         0         0         0         0
         0         0         0         0         0         0         0         0
         0         0         0         0         0         0         0         0
         0         0         0         0         0         0         0         0
         0         0         0         0         0         0         0         0
         0         0         0         0         0         0         0         0
         0         0         0         0         0         0         0         0
         0         0         0         0         0         0         0         0
         0         0         0         0         0         0         0         0
         0         0         0         0         0         0         0         0
         0         0         0         0         0         0         0         0
         0         0         0         0         0         0         0         0
         0         0         0         0         0         0         0         0
         0         0         0         0         0         0         0         0
         0         0         0         0         0         0         0         0
         0         0         0         0         0         0         0         0
         0         0         0         0         0         0         0         0
         0         0         0         0         0         0         0         0
         0         0         0         0         0         0         0         0
         0         0         0         0         0         0         0         0
         0         0         0         0         0         0         0         0
         0         0         0         0         0         0         0         0
         0         0         0         0         0         0         0         0
         0         0         0         0         0         0         0         0
         0         0         0         0         0         0         0         0
         0         0         0         0         0         0         0         0
         0         0         0         0         0         0         0         0
         0         0         0         0         0         0         0         0
         0         0         0         0         0         0         0         0
         0         0         0         0         0         0         0         0
         0         0         0         0         0         0         0         0
         0         0         0         0         0         0         0         0
         0         0         0         0         0         0         0         0
         0         0         0         0         0         0         0         0
         0         0         0         0         0         0         0         0
         0         0         0         0         0         0         0         0
         0         0         0         0         0         0         0         0
         0         0         0         0         0         0         0         0
         0         0         0         0         0         0         0         0
         0         0         0         0         0         0         0         0
         0         0         0         0         0         0         0         0
         0         0         0         0         0         0         0         0
         0         0         0         0         0         0         0         0
         0         0         0         0         0         0         0         0
         0         0         0         0         0         0         0         0
         0         0         0         0         0         0         0         0
         0         0         0         0         0         0         0         0
         0         0         0         0         0         0         0         0
         0         0         0         0         0         0         0         0
         0         0         0         0         0         0         0         0
         0         0         0         0         0         0         0         0
         0         0         0         0         0         0         0         0
         0         0         0         0         0         0         0         0
         0         0         0         0         0         0         0         0
         0         0         0         0         0         0         0         0
         0         0         0         0         0         0         0         0
         0         0         0         0         0         0         0         0
         0         0         0         0         0         0         0         0
         0         0         0         0         0         0         0         0
         0         0         0         0         0         0         0         0
         0         0         0         0         0         0         0         0
         0         0         0         0         0         0         0         0
         0         0         0         0         0         0         0         0
         0         0         0         0         0         0         0         0
         0         0         0         0         0         0         0         0
         0         0         0         0         0         0         0         0
         0         0         0         0         0         0         0         0
         0         0         0         0         0         0         0         0
         0         0         0         0         0         0         0         0
         0         0         0         0         0         0         0         0
         0         0         0         0         0         0         0         0
         0         0         0         0         0         0         0         0
         0         0         0         0         0         0         0         0
         0         0         0         0         0         0         0         0
         0         0         0         0         0         0         0         0
         0         0         0         0         0         0         0         0
         0         0         0         0         0         0         0         0
         0         0         0         0         0         0         0         0
         0         0         0         0         0         0         0         0
         0         0         0         0         0         0         0         0
         0         0         0         0         0         0         0         0
         0         0         0         0         0         0         0         0
         0         0         0         0         0         0         0         0
         0         0         0         0         0         0         0         0
         0         0         0         0         0         0         0         0
         0         0         0         0         0         0         0         0
         0         0         0         0         0         0         0         0
         0         0         0         0         0         0         0         0
         0         0         0         0         0         0         0         0
         0         0         0         0         0         0         0         0
         0         0         0         0         0         0         0         0
         0         0         0         0         0         0         0         0
         0         0         0         0         0         0         0         0
         0         0         0         0         0         0         0         0
         0         0         0         0         0         0         0         0
         0         0         0         0         0         0         0         0
         0         0         0         0         0         0         0         0
         0         0         0         0         0         0         0         0
         0         0         0         0         0         0         0         0
         0         0         0         0         0         0         0         0
         0         0         0         0         0         0         0         0
         0         0         0         0         0         0         0         0
         0         0         0         0         0         0         0         0
         0         0         0         0         0         0         0         0
         0         0         0         0         0         0         0         0
         0         0         0         0         0         0         0         0
         0         0         0         0         0         0         0         0
         0         0         0         0         0         0         0         0
         0         0         0         0         0         0         0         0
         0         0         0         0         0         0         0         0
         0         0         0         0         0         0         0         0
         0         0         0         0         0         0         0         0
         0         0         0         0         0         0         0         0
         0         0         0         0         0         0         0         0
         0         0         0         0         0         0         0         0
         0         0         0         0         0         0         0         0
         0         0         0         0         0         0         0         0
         0         0         0         0         0         0         0         0
         0         0         0         0         0         0         0         0
         0         0         0         0         0         0         0         0
         0         0         0         0         0         0         0         0
         0         0         0         0         0         0         0         0
         0         0         0         0         0         0         0         0
         0         0         0         0         0         0         0         0
         0         0         0         0         0         0         0         0
         0         0         0         0         0         0         0         0
         0         0         0         0         0         0         0         0
         0         0         0         0         0         0         0         0
         0         0         0         0         0         0         0         0
         0         0         0         0         0         0         0         0
         0         0         0         0         0         0         0         0
         0         0         0         0         0         0         0         0
         0         0         0         0         0         0         0         0
         0         0         0         0         0         0         0         0
         0         0         0         0         0         0         0         0
         0         0         0         0         0         0         0         0
         0         0         0         0         0         0         0         0
         0         0         0         0         0         0         0         0
         0         0         0         0         0         0         0         0
         0         0         0         0         0         0         0         0
         0         0         0         0         0         0         0         0
         0         0         0         0         0         0         0         0
         0         0         0         0         0         0         0         0
         0         0         0         0         0         0         0         0
         0         0         0         0         0         0         0         0
         0         0         0         0         0         0         0         0
         0         0         0         0         0         0         0         0
         0         0         0         0         0         0         0         0
         0         0         0         0         0         0         0         0
         0         0         0         0         0         0         0         0
         0         0         0         0         0         0         0         0
         0         0         0         0         0         0         0         0
         0         0         0         0         0         0         0         0
         0         0         0         0         0         0         0         0
         0         0         0         0         0         0         0         0
         0         0         0         0         0         0         0         0
         0         0         0         0         0         0         0         0
         0         0         0         0         0         0         0         0
         0         0         0         0         0         0         0         0
         0         0         0         0         0         0         0         0
         0         0         0         0         0         0         0         0
         0         0         0         0         0         0         0         0
         0         0         0         0         0         0         0         0
         0         0         0         0         0         0         0         0
         0         0         0         0         0         0         0         0
         0         0         0         0         0         0         0         0
         0         0         0         0         0         0         0         0
         0         0         0         0         0         0         0         0
         0         0         0         0         0         0         0         0
         0         0         0         0         0         0         0         0
         0         0         0         0         0         0         0         0
         0         0         0         0         0         0         0         0
         0         0         0         0         0         0         0         0
         0         0         0         0         0         0         0         0
         0         0         0         0         0         0         0         0
         0         0         0         0         0         0         0         0
         0         0         0         0         0         0         0         0
         0         0         0         0         0         0         0         0
         0         0         0         0         0         0         0         0
         0         0         0         0         0         0         0         0
         0         0         0         0         0         0         0         0
         0         0         0         0         0         0         0         0
         0         0         0         0         0         0         0         0
         0         0         0         0         0         0         0         0
         0         0         0         0         0         0         0         0
         0         0         0         0         0         0         0         0
         0         0         0         0         0         0         0         0
         0         0         0         0         0         0         0         0
         0         0         0         0         0         0         0         0
         0         0         0         0         0         0         0         0
         0         0         0         0         0         0         0         0
         0         0         0         0         0         0         0         0
         0         0         0         0         0         0         0         0
         0         0         0         0         0         0         0         0
         0         0         0         0         0         0         0         0
         0         0         0         0         0         0         0         0
         0         0         0         0         0         0         0         0
         0         0         0         0         0         0         0         0
         0         0         0         0         0         0         0         0
         0         0         0         0         0         0         0         0
         0         0         0         0         0         0         0         0
         0         0         0         0         0         0         0         0
         0         0         0         0         0         0         0         0
         0         0         0         0         0         0         0         0
         0         0         0         0         0         0         0         0
         0         0         0         0         0         0         0         0
         0         0         0         0         0         0         0         0
         0         0         0         0         0         0         0         0
         0         0         0         0         0         0         0         0
         0         0         0         0         0         0         0         0
         0         0         0         0         0         0         0         0
         0         0         0         0         0         0         0         0
         0         0         0         0         0         0         0         0
         0         0         0         0         0         0         0         0
         0         0         0         0         0         0         0         0
         0         0         0         0         0         0         0         0
         0         0         0         0         0         0         0         0
         0         0         0         0         0         0         0         0
         0         0         0         0         0         0         0         0
         0         0         0         0         0         0         0         0
         0         0         0         0         0         0         0         0
         0         0         0         0         0         0         0         0
         0         0         0         0         0         0         0         0
         0         0         0         0         0         0         0         0
         0         0         0         0         0         0         0         0
         0         0         0         0         0         0         0         0
         0         0         0         0         0         0         0         0
         0         0         0         0         0         0         0         0
         0         0         0         0         0         0         0         0
         0         0         0         0         0         0         0         0
         0         0         0         0         0         0         0         0
         0         0         0         0         0         0         0         0
         0         0         0         0         0         0         0         0
         0         0         0         0         0         0         0         0
         0         0         0         0         0         0         0         0
         0         0         0         0         0         0         0         0
         0         0         0         0         0         0         0         0
         0         0         0         0         0         0         0         0
         0         0         0         0         0         0         0         0
         0         0         0         0         0         0         0         0
         0         0         0         0         0         0         0         0
         0         0         0         0         0         0         0         0
         0         0         0         0         0         0         0         0
         0         0         0         0         0         0         0         0
         0         0         0         0         0         0         0         0
         0         0         0         0         0         0         0         0
         0         0         0         0         0         0         0         0
         0         0         0         0         0         0         0         0
         0         0         0         0         0         0         0         0
         0         0         0         0         0         0         0         0
         0         0         0         0         0         0         0         0
         0         0         0         0         0         0         0         0
         0         0         0         0         0         0         0         0
         0         0         0         0         0         0         0         0
         0         0         0         0         0         0         0         0
         0         0         0         0         0         0         0         0
         0         0         0         0         0         0         0         0
         0         0         0         0         0         0         0         0
         0         0         0         0         0         0         0         0
         0         0         0         0         0         0         0         0
         0         0         0         0         0         0         0         0
         0         0         0         0         0         0         0         0
         0         0         0         0         0         0         0         0
         0         0         0         0         0         0         0         0
         0         0         0         0         0         0         0         0
         0         0         0         0         0         0         0         0
         0         0         0         0         0         0         0         0
         0         0         0         0         0         0         0         0
         0         0         0         0         0         0         0         0
         0         0         0         0         0         0         0         0
         0         0         0         0         0         0         0         0
         0         0         0         0         0         0         0         0
         0         0         0         0         0         0         0         0
         0         0         0         0         0         0         0         0
         0         0         0         0         0         0         0         0
         0         0         0         0         0         0         0         0
         0         0         0         0         0         0         0         0
         0         0         0         0         0         0         0         0
         0         0         0         0         0         0         0         0
         0         0         0         0         0         0         0         0
         0         0         0         0         0         0         0         0
         0         0         0         0         0         0         0         0
         0         0         0         0         0         0         0         0
         0         0         0         0         0         0         0         0
         0         0         0         0         0         0         0         0
         0         0         0         0         0         0         0         0
         0         0         0         0         0         0         0         0
         0         0         0         0         0         0         0         0
         0         0         0         0         0         0         0         0
         0         0         0         0         0         0         0         0
         0         0         0         0         0         0         0         0
         0         0         0         0         0         0         0         0
         0         0         0         0         0         0         0         0
         0         0         0         0         0         0         0         0
         0         0         0         0         0         0         0         0
         0         0         0         0         0         0         0         0
         0         0         0         0         0         0         0         0
         0         0         0         0         0         0         0         0
         0         0         0         0         0         0         0         0
         0         0         0         0         0         0         0         0
         0         0         0         0         0         0         0         0
         0         0         0         0         0         0         0         0
         0         0         0         0         0         0         0         0
         0         0         0         0         0         0         0         0
         0         0         0         0         0         0         0         0
         0         0         0         0         0         0         0         0
         0         0         0         0         0         0         0         0
         0         0         0         0         0         0         0         0
         0         0         0         0         0         0         0         0
         0         0         0         0         0         0         0         0
         0         0         0         0         0         0         0         0
         0         0         0         0         0         0         0         0
         0         0         0         0         0         0         0         0
         0         0         0         0         0         0         0         0
         0         0         0         0         0         0         0         0
         0         0         0         0         0         0         0         0
         0         0         0         0         0         0         0         0
         0         0         0         0         0         0         0         0
         0         0         0         0         0         0         0         0
         0         0         0         0         0         0         0         0
         0         0         0         0         0         0         0         0
         0         0         0         0         0         0         0         0
         0         0         0         0         0         0         0         0
         0         0         0         0         0         0         0         0
         0         0         0         0         0         0         0         0
         0         0         0         0         0         0         0         0
         0         0         0         0         0         0         0         0
         0         0         0         0         0         0         0         0
         0         0         0         0         0         0         0         0
         0         0         0         0         0         0         0         0
         0         0         0         0         0         0         0         0
         0         0         0         0         0         0         0         0
         0         0         0         0         0         0         0         0
         0         0         0         0         0         0         0         0
         0         0         0         0         0         0         0         0
         0         0         0         0         0         0         0         0
         0         0         0         0         0         0         0         0
         0         0         0         0         0         0         0         0
         0         0         0         0         0         0         0         0
         0         0         0         0         0         0         0         0
         0         0         0         0         0         0         0         0
         0         0         0         0         0         0         0         0
         0         0         0         0         0         0         0         0
         0         0         0         0         0         0         0         0
         0         0         0         0         0         0         0         0
         0         0         0         0         0         0         0         0
         0         0         0         0         0         0         0         0
         0         0         0         0         0         0         0         0
         0         0         0         0         0         0         0         0
         0         0         0         0         0         0         0         0
         0         0         0         0         0         0         0         0
         0         0         0         0         0         0         0         0
         0         0         0         0         0         0         0         0
         0         0         0         0         0         0         0         0
         0         0         0         0         0         0         0         0
         0         0         0         0         0         0         0         0
         0         0         0         0         0         0         0         0
         0         0         0         0         0         0         0         0
         0         0         0         0         0         0         0         0
         0         0         0         0         0         0         0         0
         0         0         0         0         0         0         0         0
         0         0         0         0         0         0         0         0
         0         0         0         0         0         0         0         0
         0         0         0         0         0         0         0         0
         0         0         0         0         0         0         0         0
         0         0         0         0         0         0         0         0
         0         0         0         0         0         0         0         0
         0         0         0         0         0         0         0         0
         0         0         0         0         0         0         0         0
         0         0         0         0         0         0         0         0
         0         0         0         0         0         0         0         0
         0         0         0         0         0         0         0         0
         0         0         0         0         0         0         0         0
         0         0         0         0         0         0         0         0
         0         0         0         0         0         0         0         0
         0         0         0         0         0         0         0         0
         0         0         0         0         0         0         0         0
         0         0         0         0         0         0         0         0
         0         0         0         0         0         0         0         0
         0         0         0         0         0         0         0         0
         0         0         0         0         0         0         0         0
         0         0         0         0         0         0         0         0
         0         0         0         0         0         0         0         0
         0         0         0         0         0         0         0         0
         0         0         0         0         0         0         0         0
         0         0         0         0         0         0         0         0
         0         0         0         0         0         0         0         0
         0         0         0         0         0         0         0         0
         0         0         0         0         0         0         0         0
         0         0         0         0         0         0         0         0
         0         0         0         0         0         0         0         0
         0         0         0         0         0         0         0         0
         0         0         0         0         0         0         0         0
         0         0         0         0         0         0         0         0
         0         0         0         0         0         0         0         0
         0         0         0         0         0         0         0         0
         0         0         0         0         0         0         0         0
         0         0         0         0         0         0         0         0
         0         0         0         0         0         0         0         0
         0         0         0         0         0         0         0         0
         0         0         0         0         0         0         0         0
         0         0         0         0         0         0         0         0
         0         0         0         0         0         0         0         0
         0         0         0         0         0         0         0         0
         0         0         0         0         0         0         0         0
         0         0         0         0         0         0         0         0
         0         0         0         0         0         0         0         0
         0         0         0         0         0         0         0         0
         0         0         0         0         0         0         0         0
         0         0         0         0         0         0         0         0
         0         0         0         0         0         0         0         0
         0         0         0         0         0         0         0         0
         0         0         0         0         0         0         0         0
         0         0         0         0         0         0         0         0
         0         0         0         0         0         0         0         0
         0         0         0         0         0         0         0         0
         0         0         0         0         0         0         0         0
         0         0         0         0         0         0         0         0
         0         0         0         0         0         0         0         0
         0         0         0         0         0         0         0         0
         0         0         0         0         0         0         0         0
         0         0         0         0         0         0         0         0
         0         0         0         0         0         0         0         0
         0         0         0         0         0         0         0         0
         0         0         0         0         0         0         0         0
         0         0         0         0         0         0         0         0
         0         0         0         0         0         0         0         0
         0         0         0         0         0         0         0         0
         0         0         0         0         0         0         0         0
         0         0         0         0         0         0         0         0
         0         0         0         0         0         0         0         0
         0         0         0         0         0         0         0         0
         0         0         0         0         0         0         0         0
         0         0         0         0         0         0         0         0
         0         0         0         0         0         0         0         0
         0         0         0         0         0         0         0         0
         0         0         0         0         0         0         0         0
         0         0         0         0         0         0         0         0
         0         0         0         0         0         0         0         0
         0         0         0         0         0         0         0         0
         0         0         0         0         0         0         0         0
         0         0         0         0         0         0         0         0
         0         0         0         0         0         0         0         0
         0         0         0         0         0         0         0         0
         0         0         0         0         0         0         0         0
         0         0         0         0         0         0         0         0
         0         0         0         0         0         0         0         0
         0         0         0         0         0         0         0         0
         0         0         0         0         0         0         0         0
         0         0         0         0         0         0         0         0
         0         0         0         0         0         0         0         0
         0         0         0         0         0         0         0         0
         0         0         0         0         0         0         0         0
         0         0         0         0         0         0         0         0
         0         0         0         0         0         0         0         0
         0         0         0         0         0         0         0         0
         0         0         0         0         0         0         0         0
         0         0         0         0         0         0         0         0
         0         0         0         0         0         0         0         0
         0         0         0         0         0         0         0         0
         0         0         0         0         0         0         0         0
         0         0         0         0         0         0         0         0
         0         0         0         0         0         0         0         0
         0         0         0         0         0         0         0         0
         0         0         0         0         0         0         0         0
         0         0         0         0         0         0         0         0
         0         0         0         0         0         0         0         0
         0         0         0         0         0         0         0         0
         0         0         0         0         0         0         0         0
         0         0         0         0         0         0         0         0
         0         0         0         0         0         0         0         0
         0         0         0         0         0         0         0         0
         0         0         0         0         0         0         0         0
         0         0         0         0         0         0         0         0
         0         0         0         0         0         0         0         0
         0         0         0         0         0         0         0         0
         0         0         0         0         0         0         0         0
         0         0         0         0         0         0         0         0
         0         0         0         0         0         0         0         0
         0         0         0         0         0         0         0         0
         0         0         0         0         0         0         0         0
         0         0         0         0         0         0         0         0
         0         0         0         0         0         0         0         0
         0         0         0         0         0         0         0         0
         0         0         0         0         0         0         0         0
         0         0         0         0         0         0         0         0
         0         0         0         0         0         0         0         0
         0         0         0         0         0         0         0         0
         0         0         0         0         0         0         0         0
         0         0         0         0         0         0         0         0
         0         0         0         0         0         0         0         0
         0         0         0         0         0         0         0         0
         0         0         0         0         0         0         0         0
         0         0         0         0         0         0         0         0
         0         0         0         0         0         0         0         0
         0         0         0         0         0         0         0         0
         0         0         0         0         0         0         0         0
         0         0         0         0         0         0         0         0
         0         0         0         0         0         0         0         0
         0         0         0         0         0         0         0         0
         0         0         0         0         0         0         0         0
         0         0         0         0         0         0         0         0
         0         0         0         0         0         0         0         0
         0         0         0         0         0         0         0         0
         0         0         0         0         0         0         0         0
         0         0         0         0         0         0         0         0
         0         0         0         0         0         0         0         0
         0         0         0         0         0         0         0         0
         0         0         0         0         0         0         0         0
         0         0         0         0         0         0         0         0
         0         0         0         0         0         0         0         0
         0         0         0         0         0         0         0         0
         0         0         0         0         0         0         0         0
         0         0         0         0         0         0         0         0
         0         0         0         0         0         0         0         0
         0         0         0         0         0         0         0         0
         0         0         0         0         0         0         0         0
         0         0         0         0         0         0         0         0
         0         0         0         0         0         0         0         0
         0         0         0         0         0         0         0         0
         0         0         0         0         0         0         0         0
         0         0         0         0         0         0         0         0
         0         0         0         0         0         0         0         0
         0         0         0         0         0         0         0         0
         0         0         0         0         0         0         0         0
         0         0         0         0         0         0         0         0
         0         0         0         0         0         0         0         0
         0         0         0         0         0         0         0         0
         0         0         0         0         0         0         0         0
         0         0         0         0         0         0         0         0
         0         0         0         0         0         0         0         0
         0         0         0         0         0         0         0         0
         0         0         0         0         0         0         0         0
         0         0         0         0         0         0         0         0
         0         0         0         0         0         0         0         0
         0         0         0         0         0         0         0         0
         0         0         0         0         0         0         0         0
         0         0         0         0         0         0         0         0
         0         0         0         0         0         0         0         0
         0         0         0         0         0         0         0         0
         0         0         0         0         0         0         0         0
         0         0         0         0         0         0         0         0
         0         0         0         0         0         0         0         0
         0         0         0         0         0         0         0         0
         0         0         0         0         0         0         0         0
         0         0         0         0         0         0         0         0
         0         0         0         0         0         0         0         0
         0         0         0         0         0         0         0         0
         0         0         0         0         0         0         0         0
         0         0         0         0         0         0         0         0
         0         0         0         0         0         0         0         0
         0         0         0         0         0         0         0         0
         0         0         0         0         0         0         0         0
         0         0         0         0         0         0         0         0
         0         0         0         0         0         0         0         0
         0         0         0         0         0         0         0         0
         0         0         0         0         0         0         0         0
         0         0         0         0         0         0         0         0
         0         0         0         0         0         0         0         0
         0         0         0         0         0         0         0         0
         0         0         0         0         0         0         0         0
         0         0         0         0         0         0         0         0
         0         0         0         0         0         0         0         0
         0         0         0         0         0         0         0         0
         0         0         0         0         0         0         0         0
         0         0         0         0         0         0         0         0
         0         0         0         0         0         0         0         0
         0         0         0         0         0         0         0         0
         0         0         0         0         0         0         0         0
         0         0         0         0         0         0         0         0
         0         0         0         0         0         0         0         0
         0         0         0         0         0         0         0         0
         0         0         0         0         0         0         0         0
         0         0         0         0         0         0         0         0
         0         0         0         0         0         0         0         0
         0         0         0         0         0         0         0         0
         0         0         0         0         0         0         0         0
         0         0         0         0         0         0         0         0
         0         0         0         0         0         0         0         0
         0         0         0         0         0         0         0         0
         0         0         0         0         0         0         0         0
         0         0         0         0         0         0         0         0
         0         0         0         0         0         0         0         0
         0         0         0         0         0         0         0         0
         0         0         0         0         0         0         0         0
         0         0         0         0         0         0         0         0
         0         0         0         0         0         0         0         0
         0         0         0         0         0         0         0         0
         0         0         0         0         0         0         0         0
         0         0         0         0         0         0         0         0
         0         0         0         0         0         0         0         0
         0         0         0         0         0         0         0         0
         0         0         0         0         0         0         0         0
         0         0         0         0         0         0         0         0
         0         0         0         0         0         0         0         0
         0         0         0         0         0         0         0         0
         0         0         0         0         0         0         0         0
         0         0         0         0         0         0         0         0
         0         0         0         0         0         0         0         0
         0         0         0         0         0         0         0         0
         0         0         0         0         0         0         0         0
         0         0         0         0         0         0         0         0
         0         0         0         0         0         0         0         0
         0         0         0         0         0         0         0         0
         0         0         0         0         0         0         0         0
         0         0         0         0         0         0         0         0
         0         0         0         0         0         0         0         0
         0         0         0         0         0         0         0         0
         0         0         0         0         0         0         0         0
         0         0         0         0         0         0         0         0
         0         0         0         0         0         0         0         0
         0         0         0         0         0         0         0         0
         0         0         0         0         0         0         0         0
         0         0         0         0         0         0         0         0
         0         0         0         0         0         0         0         0
         0         0         0         0         0         0         0         0
         0         0         0         0         0         0         0         0
         0         0         0         0         0         0         0         0
         0         0         0         0         0         0         0         0
         0         0         0         0         0         0         0         0
         0         0         0         0         0         0         0         0
         0         0         0         0         0         0         0         0
         0         0         0         0         0         0         0         0
         0         0         0         0         0         0         0         0
         0         0         0         0         0         0         0         0
         0         0         0         0         0         0         0         0
         0         0         0         0         0         0         0         0
         0         0         0         0         0         0         0         0
         0         0         0         0         0         0         0         0
         0         0         0         0         0         0         0         0
         0         0         0         0         0         0         0         0
         0         0         0         0         0         0         0         0
         0         0         0         0         0         0         0         0
         0         0         0         0         0         0         0         0
         0         0         0         0         0         0         0         0
         0         0         0         0         0         0         0         0
         0         0         0         0         0         0         0         0
         0         0         0         0         0         0         0         0
         0         0         0         0         0         0         0         0
         0         0         0         0         0         0         0         0
         0         0         0         0         0         0         0         0
         0         0         0         0         0         0         0         0
         0         0         0         0         0         0         0         0
         0         0         0         0         0         0         0         0
         0         0         0         0         0         0         0         0
         0         0         0         0         0         0         0         0
         0         0         0         0         0         0         0         0
         0         0         0         0         0         0         0         0
         0         0         0         0         0         0         0         0
         0         0         0         0         0         0         0         0
         0         0         0         0         0         0         0         0
         0         0         0         0         0         0         0         0
         0         0         0         0         0         0         0         0
         0         0         0         0         0         0         0         0
         0         0         0         0         0         0         0         0
         0         0         0         0         0         0         0         0
         0         0         0         0         0         0         0         0
         0         0         0         0         0         0         0         0
         0         0         0         0         0         0         0         0
         0         0         0         0         0         0         0         0
         0         0         0         0         0         0         0         0
         0         0         0         0         0         0         0         0
         0         0         0         0         0         0         0         0
         0         0         0         0         0         0         0         0
         0         0         0         0         0         0         0         0
         0         0         0         0         0         0         0         0
         0         0         0         0         0         0         0         0
         0         0         0         0         0         0         0         0
         0         0         0         0         0         0         0         0
         0         0         0         0         0         0         0         0
         0         0         0         0         0         0         0         0
         0         0         0         0         0         0         0         0
         0         0         0         0         0         0         0         0
         0         0         0         0         0         0         0         0
         0         0         0         0         0         0         0         0
         0         0         0         0         0         0         0         0
         0         0         0         0         0         0         0         0
         0         0         0         0         0         0         0         0
         0         0         0         0         0         0         0         0
         0         0         0         0         0         0         0         0
         0         0         0         0         0         0         0         0
         0         0         0         0         0         0         0         0
         0         0         0         0         0         0         0         0
         0         0         0         0         0         0         0         0
         0         0         0         0         0         0         0         0
         0         0         0         0         0         0         0         0
         0         0         0         0         0         0         0         0
         0         0         0         0         0         0         0         0
         0         0         0         0         0         0         0         0
         0         0         0         0         0         0         0         0
         0         0         0         0         0         0         0         0
         0         0         0         0         0         0         0         0
         0         0         0         0         0         0         0         0
         0         0         0         0         0         0         0         0
         0         0         0         0         0         0         0         0
         0         0         0         0         0         0         0         0
         0         0         0         0         0         0         0         0
         0         0         0         0         0         0         0         0
         0         0         0         0         0         0         0         0
         0         0         0         0         0         0         0         0
         0         0         0         0         0         0         0         0
         0         0         0         0         0         0         0         0
         0         0         0         0         0         0         0         0
         0         0         0         0         0         0         0         0
         0         0         0         0         0         0         0         0
         0         0         0         0         0         0         0         0
         0         0         0         0         0         0         0         0
         0         0         0         0         0         0         0         0
         0         0         0         0         0         0         0         0
         0         0         0         0         0         0         0         0
         0         0         0         0         0         0         0         0
         0         0         0         0         0         0         0         0
         0         0         0         0         0         0         0         0
         0         0         0         0         0         0         0         0
         0         0         0         0         0         0         0         0
         0         0         0         0         0         0         0         0
         0         0         0         0         0         0         0         0
         0         0         0         0         0         0         0         0
         0         0         0         0         0         0         0         0
         0         0         0         0         0         0         0         0
         0         0         0         0         0         0         0         0
         0         0         0         0         0         0         0         0
         0         0         0         0         0         0         0         0
         0         0         0         0         0         0         0         0
         0         0         0         0         0         0         0         0
         0         0         0         0         0         0         0         0
         0         0         0         0         0         0         0         0
         0         0         0         0         0         0         0         0
         0         0         0         0         0         0         0         0
         0         0         0         0         0         0         0         0
         0         0         0         0         0         0         0         0
         0         0         0         0         0         0         0         0
         0         0         0         0         0         0         0         0
         0         0         0         0         0         0         0         0
         0         0         0         0         0         0         0         0
         0         0         0         0         0         0         0         0
         0         0         0         0         0         0         0         0
         0         0         0         0         0         0         0         0
         0         0         0         0         0         0         0         0
         0         0         0         0         0         0         0         0
         0         0         0         0         0         0         0         0
         0         0         0         0         0         0         0         0
         0         0         0         0         0         0         0         0
         0         0         0         0         0         0         0         0
         0         0         0         0         0         0         0         0
         0         0         0         0         0         0         0         0
         0         0         0         0         0         0         0         0
         0         0         0         0         0         0         0         0
         0         0         0         0         0         0         0         0
         0         0         0         0         0         0         0         0
         0         0         0         0         0         0         0         0
         0         0         0         0         0         0         0         0
         0         0         0         0         0         0         0         0
         0         0         0         0         0         0         0         0
         0         0         0         0         0         0         0         0
         0         0         0         0         0         0         0         0
         0         0         0         0         0         0         0         0
         0         0         0         0         0         0         0         0
         0         0         0         0         0         0         0         0
         0         0         0         0         0         0         0         0
         0         0         0         0         0         0         0         0
         0         0         0         0         0         0         0         0
         0         0         0         0         0         0         0         0
         0         0         0         0         0         0         0         0
         0         0         0         0         0         0         0         0
         0         0         0         0         0         0         0         0
         0         0         0         0         0         0         0         0
         0         0         0         0         0         0         0         0
         0         0         0         0         0         0         0         0
         0         0         0         0         0         0         0         0
         0         0         0         0         0         0         0         0
         0         0         0         0         0         0         0         0
         0         0         0         0         0         0         0         0
         0         0         0         0         0         0         0         0
         0         0         0         0         0         0         0         0
         0         0         0         0         0         0         0         0
         0         0         0         0         0         0         0         0
         0         0         0         0         0         0         0         0
         0         0         0         0         0         0         0         0
         0         0         0         0         0         0         0         0
         0         0         0         0         0         0         0         0
         0         0         0         0         0         0         0         0
         0         0         0         0         0         0         0         0
         0         0         0         0         0         0         0         0
         0         0         0         0         0         0         0         0
         0         0         0         0         0         0         0         0
         0         0         0         0         0         0         0         0
         0         0         0         0         0         0         0         0
         0         0         0         0         0         0         0         0
         0         0         0         0         0         0         0         0
         0         0         0         0         0         0         0         0
         0         0         0         0         0         0         0         0
         0         0         0         0         0         0         0         0
         0         0         0         0         0         0         0         0
         0         0         0         0         0         0         0         0
         0         0         0         0         0         0         0         0
         0         0         0         0         0         0         0         0
         0         0         0         0         0         0         0         0
         0         0         0         0         0         0         0         0
         0         0         0         0         0         0         0         0
         0         0         0         0         0         0         0         0
         0         0         0         0         0         0         0         0
         0         0         0         0         0         0         0         0
         0         0         0         0         0         0         0         0
         0         0         0         0         0         0         0         0
         0         0         0         0         0         0         0         0
         0         0         0         0         0         0         0         0
         0         0         0         0         0         0         0         0
         0         0         0         0         0         0         0         0
         0         0         0         0         0         0         0         0
         0         0         0         0         0         0         0         0
         0         0         0         0         0         0         0         0
         0         0         0         0         0         0         0         0
         0         0         0         0         0         0         0         0
         0         0         0         0         0         0         0         0
         0         0         0         0         0         0         0         0
         0         0         0         0         0         0         0         0
         0         0         0         0         0         0         0         0
         0         0         0         0         0         0         0         0
         0         0         0         0         0         0         0         0
         0         0         0         0         0         0         0         0
         0         0         0         0         0         0         0         0
         0         0         0         0         0         0         0         0
         0         0         0         0         0         0         0         0
         0         0         0         0         0         0         0         0
         0         0         0         0         0         0         0         0
         0         0         0         0         0         0         0         0
         0         0         0         0         0         0         0         0
         0         0         0         0         0         0         0         0
         0         0         0         0         0         0         0         0
         0         0         0         0         0         0         0         0
         0         0         0         0         0         0         0         0
         0         0         0         0         0         0         0         0
         0         0         0         0         0         0         0         0
         0         0         0         0         0         0         0         0
         0         0         0         0         0         0         0         0
         0         0         0         0         0         0         0         0
         0         0         0         0         0         0         0         0
         0         0         0         0         0         0         0         0
         0         0         0         0         0         0         0         0
         0         0         0         0         0         0         0         0
         0         0         0         0         0         0         0         0
         0         0         0         0         0         0         0         0
         0         0         0         0         0         0         0         0
         0         0         0         0         0         0         0         0
         0         0         0         0         0         0         0         0
         0         0         0         0         0         0         0         0
         0         0         0         0         0         0         0         0
         0         0         0         0         0         0         0         0
         0         0         0         0         0         0         0         0
         0         0         0         0         0         0         0         0
         0         0         0         0         0         0         0         0
         0         0         0         0         0         0         0         0
         0         0         0         0         0         0         0         0
         0         0         0         0         0         0         0         0
         0         0         0         0         0         0         0         0
         0         0         0         0         0         0         0         0
         0         0         0         0         0         0         0         0
         0         0         0         0         0         0         0         0
         0         0         0         0         0         0         0         0
         0         0         0         0         0         0         0         0
         0         0         0         0         0         0         0         0
         0         0         0         0         0         0         0         0
         0         0         0         0         0         0         0         0
         0         0         0         0         0         0         0         0
         0         0         0         0         0         0         0         0
         0         0         0         0         0         0         0         0
         0         0         0         0         0         0         0         0
         0         0         0         0         0         0         0         0
         0         0         0         0         0         0         0         0
         0         0         0         0         0         0         0         0
         0         0         0         0         0         0         0         0
         0         0         0         0         0         0         0         0
         0         0         0         0         0         0         0         0
         0         0         0         0         0         0         0         0
         0         0         0         0         0         0         0         0
         0         0         0         0         0         0         0         0
         0         0         0         0         0         0         0         0
         0         0         0         0         0         0         0         0
         0         0         0         0         0         0         0         0
         0         0         0         0         0         0         0         0
         0         0         0         0         0         0         0         0
         0         0         0         0         0         0         0         0
         0         0         0         0         0         0         0         0
         0         0         0         0         0         0         0         0
         0         0         0         0         0         0         0         0
         0         0         0         0         0         0         0         0
         0         0         0         0         0         0         0         0
         0         0         0         0         0         0         0         0
         0         0         0         0         0         0         0         0
         0         0         0         0         0         0         0         0
         0         0         0         0         0         0         0         0
         0         0         0         0         0         0         0         0
         0         0         0         0         0         0         0         0
         0         0         0         0         0         0         0         0
         0         0         0         0         0         0         0         0
         0         0         0         0         0         0         0         0
         0         0         0         0         0         0         0         0
         0         0         0         0         0         0         0         0
         0         0         0         0         0         0         0         0
         0         0         0         0         0         0         0         0
         0         0         0         0         0         0         0         0
         0         0         0         0         0         0         0         0
         0         0         0         0         0         0         0         0
         0         0         0         0         0         0         0         0
         0         0         0         0         0         0         0         0
         0         0         0         0         0         0         0         0
         0         0         0         0         0         0         0         0
         0         0         0         0         0         0         0         0
         0         0         0         0         0         0         0         0
         0         0         0         0         0         0         0         0
         0         0         0         0         0         0         0         0
         0         0         0         0         0         0         0         0
         0         0         0         0         0         0         0         0
         0         0         0         0         0         0         0         0
         0         0         0         0         0         0         0         0
         0         0         0         0         0         0         0         0
         0         0         0         0         0         0         0         0
         0         0         0         0         0         0         0         0
         0         0         0         0         0         0         0         0
         0         0         0         0         0         0         0         0
         0         0         0         0         0         0         0         0
         0         0         0         0         0         0         0         0
         0         0         0         0         0         0         0         0
         0         0         0         0         0         0         0         0
         0         0         0         0         0         0         0         0
         0         0         0         0         0         0         0         0
         0         0         0         0         0         0         0         0
         0         0         0         0         0         0         0         0
         0         0         0         0         0         0         0         0
         0         0         0         0         0         0         0         0
         0         0         0         0         0         0         0         0
         0         0         0         0         0         0         0         0
         0         0         0         0         0         0         0         0
         0         0         0         0         0         0         0         0
         0         0         0         0         0         0         0         0
         0         0         0         0         0         0         0         0
         0         0         0         0         0         0         0         0
         0         0         0         0         0         0         0         0
         0         0         0         0         0         0         0         0
         0         0         0         0         0         0         0         0
         0         0         0         0         0         0         0         0
         0         0         0         0         0         0         0         0
         0         0         0         0         0         0         0         0
         0         0         0         0         0         0         0         0
         0         0         0         0         0         0         0         0
         0         0         0         0         0         0         0         0
         0         0         0         0         0         0         0         0
         0         0         0         0         0         0         0         0
         0         0         0         0         0         0         0         0
         0         0         0         0         0         0         0         0
         0         0         0         0         0         0         0         0
         0         0         0         0         0         0         0         0
         0         0         0         0         0         0         0         0
         0         0         0         0         0         0         0         0
         0         0         0         0         0         0         0         0
         0         0         0         0         0         0         0         0
         0         0         0         0         0         0         0         0
         0         0         0         0         0         0         0         0
         0         0         0         0         0         0         0         0
         0         0         0         0         0         0         0         0
         0         0         0         0         0         0         0         0
         0         0         0         0         0         0         0         0
         0         0         0         0         0         0         0         0
         0         0         0         0         0         0         0         0
         0         0         0         0         0         0         0         0
         0         0         0         0         0         0         0         0
         0         0         0         0         0         0         0         0
         0         0         0         0         0         0         0         0
         0         0         0         0         0         0         0         0
         0         0         0         0         0         0         0         0
         0         0         0         0         0         0         0         0
         0         0         0         0         0         0         0         0
         0         0         0         0         0         0         0         0
         0         0         0         0         0         0         0         0
         0         0         0         0         0         0         0         0
         0         0         0         0         0         0         0         0
         0         0         0         0         0         0         0         0
         0         0         0         0         0         0         0         0
         0         0         0         0         0         0         0         0
         0         0         0         0         0         0         0         0
         0         0         0         0         0         0         0         0
         0         0         0         0         0         0         0         0
         0         0         0         0         0         0         0         0
         0         0         0         0         0         0         0         0
         0         0         0         0         0         0         0         0
         0         0         0         0         0         0         0         0
         0         0         0         0         0         0         0         0
         0         0         0         0         0         0         0         0
         0         0         0         0         0         0         0         0
         0         0         0         0         0         0         0         0
         0         0         0         0         0         0         0         0
         0         0         0         0         0         0         0         0
         0         0         0         0         0         0         0         0
         0         0         0         0         0         0         0         0
         0         0         0         0         0         0         0         0
         0         0         0         0         0         0         0         0
         0         0         0         0         0         0         0         0
         0         0         0         0         0         0         0         0
         0         0         0         0         0         0         0         0
         0         0         0         0         0         0         0         0
         0         0         0         0         0         0         0         0
         0         0         0         0         0         0         0         0
         0         0         0         0         0         0         0         0
         0         0         0         0         0         0         0         0
         0         0         0         0         0         0         0         0
         0         0         0         0         0         0         0         0
         0         0         0         0         0         0         0         0
         0         0         0         0         0         0         0         0
         0         0         0         0         0         0         0         0
         0         0         0         0         0         0         0         0
         0         0         0         0         0         0         0         0
         0         0         0         0         0         0         0         0
         0         0         0         0         0         0         0         0
         0         0         0         0         0         0         0         0
         0         0         0         0         0         0         0         0
         0         0         0         0         0         0         0         0
         0         0         0         0         0         0         0         0
         0         0         0         0         0         0         0         0
         0         0         0         0         0         0         0         0
         0         0         0         0         0         0         0         0
         0         0         0         0         0         0         0         0
         0         0         0         0         0         0         0         0
         0         0         0         0         0         0         0         0
         0         0         0         0         0         0         0         0
         0         0         0         0         0         0         0         0
         0         0         0         0         0         0         0         0
         0         0         0         0         0         0         0         0
         0         0         0         0         0         0         0         0
         0         0         0         0         0         0         0         0
         0         0         0         0         0         0         0         0
         0         0         0         0         0         0         0         0
         0         0         0         0         0         0         0         0
         0         0         0         0         0         0         0         0
         0         0         0         0         0         0         0         0
         0         0         0         0         0         0         0         0
         0         0         0         0         0         0         0         0
         0         0         0         0         0         0         0         0
         0         0         0         0         0         0         0         0
         0         0         0         0         0         0         0         0
         0         0         0         0         0         0         0         0
         0         0         0         0         0         0         0         0
         0         0         0         0         0         0         0         0
         0         0         0         0         0         0         0         0
         0         0         0         0         0         0         0         0
         0         0         0         0         0         0         0         0
         0         0         0         0         0         0         0         0
         0         0         0         0         0         0         0         0
         0         0         0         0         0         0         0         0
         0         0         0         0         0         0         0         0
         0         0         0         0         0         0         0         0
         0         0         0         0         0         0         0         0
         0         0         0         0         0         0         0         0
         0         0         0         0         0         0         0         0
         0         0         0         0         0         0         0         0
         0         0         0         0         0         0         0         0
         0         0         0         0         0         0         0         0
         0         0         0         0         0         0         0         0
         0         0         0         0         0         0         0         0
         0         0         0         0         0         0         0         0
         0         0         0         0         0         0         0         0
         0         0         0         0         0         0         0         0
         0         0         0         0         0         0         0         0
         0         0         0         0         0         0         0         0
         0         0         0         0         0         0         0         0
         0         0         0         0         0         0         0         0
         0         0         0         0         0         0         0         0
         0         0         0         0         0         0         0         0
         0         0         0         0         0         0         0         0
         0         0         0         0         0         0         0         0
         0         0         0         0         0         0         0         0
         0         0         0         0         0         0         0         0
         0         0         0         0         0         0         0         0
         0         0         0         0         0         0         0         0
         0         0         0         0         0         0         0         0
         0         0         0         0         0         0         0         0
         0         0         0         0         0         0         0         0
         0         0         0         0         0         0         0         0
         0         0         0         0         0         0         0         0
         0         0         0         0         0         0         0         0
         0         0         0         0         0         0         0         0
         0         0         0         0         0         0         0         0
         0         0         0         0         0         0         0         0
         0         0         0         0         0         0         0         0
         0         0         0         0         0         0         0         0
         0         0         0         0         0         0         0         0
         0         0         0         0         0         0         0         0
         0         0         0         0         0         0         0         0
         0         0         0         0         0         0         0         0
         0         0         0         0         0         0         0         0
         0         0         0         0         0         0         0         0
         0         0         0         0         0         0         0         0
         0         0         0         0         0         0         0         0
         0         0         0         0         0         0         0         0
         0         0         0         0         0         0         0         0
         0         0         0         0         0         0         0         0
         0         0         0         0         0         0         0         0
         0         0         0         0         0         0         0         0
         0         0         0         0         0         0         0         0
         0         0         0         0         0         0         0         0
         0         0         0         0         0         0         0         0
         0         0         0         0         0         0         0         0
         0         0         0         0         0         0         0         0
         0         0         0         0         0         0         0         0
         0         0         0         0         0         0         0         0
         0         0         0         0         0         0         0         0
         0         0         0         0         0         0         0         0
         0         0         0         0         0         0         0         0
         0         0         0         0         0         0         0         0
         0         0         0         0         0         0         0         0
         0         0         0         0         0         0         0         0
         0         0         0         0         0         0         0         0
         0         0         0         0         0         0         0         0
         0         0         0         0         0         0         0         0
         0         0         0         0         0         0         0         0
         0         0         0         0         0         0         0         0
         0         0         0         0         0         0         0         0
         0         0         0         0         0         0         0         0
         0         0         0         0         0         0         0         0
         0         0         0         0         0         0         0         0
         0         0         0         0         0         0         0         0
         0         0         0         0         0         0         0         0
         0         0         0         0         0         0         0         0
         0         0         0         0         0         0         0         0
         0         0         0         0         0         0         0         0
         0         0         0         0         0         0         0         0
         0         0         0         0         0         0         0         0
         0         0         0         0         0         0         0         0
         0         0         0         0         0         0         0         0
         0         0         0         0         0         0         0         0
         0         0         0         0         0         0         0         0
         0         0         0         0         0         0         0         0
         0         0         0         0         0         0         0         0
         0         0         0         0         0         0         0         0
         0         0         0         0         0         0         0         0
         0         0         0         0         0         0         0         0
         0         0         0         0         0         0         0         0
         0         0         0         0         0         0         0         0
         0         0         0         0         0         0         0         0
         0         0         0         0         0         0         0         0
         0         0         0         0         0         0         0         0
         0         0         0         0         0         0         0         0
         0         0         0         0         0         0         0         0
         0         0         0         0         0         0         0         0
         0         0         0         0         0         0         0         0
         0         0         0         0         0         0         0         0
         0         0         0         0         0         0         0         0
         0         0         0         0         0         0         0         0
         0         0         0         0         0         0         0         0
         0         0         0         0         0         0         0         0
         0         0         0         0         0         0         0         0
         0         0         0         0         0         0         0         0
         0         0         0         0         0         0         0         0
         0         0         0         0         0         0         0         0
         0         0         0         0         0         0         0         0
         0         0         0         0         0         0         0         0
         0         0         0         0         0         0         0         0
         0         0         0         0         0         0         0         0
         0         0         0         0         0         0         0         0
         0         0         0         0         0         0         0         0
         0         0         0         0         0         0         0         0
         0         0         0         0         0         0         0         0
         0         0         0         0         0         0         0         0
         0         0         0         0         0         0         0         0
         0         0         0         0         0         0         0         0
         0         0         0         0         0         0         0         0
         0         0         0         0         0         0         0         0
         0         0         0         0         0         0         0         0
         0         0         0         0         0         0         0         0
         0         0         0         0         0         0         0         0
         0         0         0         0         0         0         0         0
         0         0         0         0         0         0         0         0
         0         0         0         0         0         0         0         0
         0         0         0         0         0         0         0         0
         0         0         0         0         0         0         0         0
         0         0         0         0         0         0         0         0
         0         0         0         0         0         0         0         0
         0         0         0         0         0         0         0         0
         0         0         0         0         0         0         0         0
         0         0         0         0         0         0         0         0
         0         0         0         0         0         0         0         0
         0         0         0         0         0         0         0         0
         0         0         0         0         0         0         0         0
         0         0         0         0         0         0         0         0
         0         0         0         0         0         0         0         0
         0         0         0         0         0         0         0         0
         0         0         0         0         0         0         0         0
         0         0         0         0         0         0         0         0
         0         0         0         0         0         0         0         0
         0         0         0         0         0         0         0         0
         0         0         0         0         0         0         0         0
         0         0         0         0         0         0         0         0
         0         0         0         0         0         0         0         0
         0         0         0         0         0         0         0         0
         0         0         0         0         0         0         0         0
         0         0         0         0         0         0         0         0
         0         0         0         0         0         0         0         0
         0         0         0         0         0         0         0         0
         0         0         0         0         0         0         0         0
         0         0         0         0         0         0         0         0
         0         0         0         0         0         0         0         0
         0         0         0         0         0         0         0         0
         0         0         0         0         0         0         0         0
         0         0         0         0         0         0         0         0
         0         0         0         0         0         0         0         0
         0         0         0         0         0         0         0         0
         0         0         0         0         0         0         0         0
         0         0         0         0         0         0         0         0
         0         0         0         0         0         0         0         0
         0         0         0         0         0         0         0         0
         0         0         0         0         0         0         0         0
         0         0         0         0         0         0         0         0
         0         0         0         0         0         0         0         0
         0         0         0         0         0         0         0         0
         0         0         0         0         0         0         0         0
         0         0         0         0         0         0         0         0
         0         0         0         0         0         0         0         0
         0         0         0         0         0         0         0         0
         0         0         0         0         0         0         0         0
         0         0         0         0         0         0         0         0
         0         0         0         0         0         0         0         0
         0         0         0         0         0         0         0         0
         0         0         0         0         0         0         0         0
         0         0         0         0         0         0         0         0
         0         0         0         0         0         0         0         0
         0         0         0         0         0         0         0         0
         0         0         0         0         0         0         0         0
         0         0         0         0         0         0         0         0
         0         0         0         0         0         0         0         0
         0         0         0         0         0         0         0         0
         0         0         0         0         0         0         0         0
         0         0         0         0         0         0         0         0
         0         0         0         0         0         0         0         0
         0         0         0         0         0         0         0         0
         0         0         0         0         0         0         0         0
         0         0         0         0         0         0         0         0
         0         0         0         0         0         0         0         0
         0         0         0         0         0         0         0         0
         0         0         0         0         0         0         0         0
         0         0         0         0         0         0         0         0
         0         0         0         0         0         0         0         0
         0         0         0         0         0         0         0         0
         0         0         0         0         0         0         0         0
         0         0         0         0         0         0         0         0
         0         0         0         0         0         0         0         0
         0         0         0         0         0         0         0         0
         0         0         0         0         0         0         0         0
         0         0         0         0         0         0         0         0
         0         0         0         0         0         0         0         0
         0         0         0         0         0         0         0         0
         0         0         0         0         0         0         0         0
         0         0         0         0         0         0         0         0
         0         0         0         0         0         0         0         0
         0         0         0         0         0         0         0         0
         0         0         0         0         0         0         0         0
         0         0         0         0         0         0         0         0
         0         0         0         0         0         0         0         0
         0         0         0         0         0         0         0         0
         0         0         0         0         0         0         0         0
         0         0         0         0         0         0         0         0
         0         0         0         0         0         0         0         0
         0         0         0         0         0         0         0         0
         0         0         0         0         0         0         0         0
         0         0         0         0         0         0         0         0
         0         0         0         0         0         0         0         0
         0         0         0         0         0         0         0         0
         0         0         0         0         0         0         0         0
         0         0         0         0         0         0         0         0
         0         0         0         0         0         0         0         0
         0         0         0         0         0         0         0         0
         0         0         0         0         0         0         0         0
         0         0         0         0         0         0         0         0
         0         0         0         0         0         0         0         0
         0         0         0         0         0         0         0         0
         0         0         0         0         0         0         0         0
         0         0         0         0         0         0         0         0
         0         0         0         0         0         0         0         0
         0         0         0         0         0         0         0         0
         0         0         0         0         0         0         0         0
         0         0         0         0         0         0         0         0
         0         0         0         0         0         0         0         0
         0         0         0         0         0         0         0         0
         0         0         0         0         0         0         0         0
         0         0         0         0         0         0         0         0
         0         0         0         0         0         0         0         0
         0         0         0         0         0         0         0         0
         0         0         0         0         0         0         0         0
         0         0         0         0         0         0         0         0
         0         0         0         0         0         0         0         0
         0         0         0         0         0         0         0         0
         0         0         0         0         0         0         0         0
         0         0         0         0         0         0         0         0
         0         0         0         0         0         0         0         0
         0         0         0         0         0         0         0         0
         0         0         0         0         0         0         0         0
         0         0         0         0         0         0         0         0
         0         0         0         0         0         0         0         0
         0         0         0         0         0         0         0         0
         0         0         0         0         0         0         0         0
         0         0         0         0         0         0         0         0
         0         0         0         0         0         0         0         0
         0         0         0         0         0         0         0         0
         0         0         0         0         0         0         0         0
         0         0         0         0         0         0         0         0
         0         0         0         0         0         0         0         0
         0         0         0         0         0         0         0         0
         0         0         0         0         0         0         0         0
         0         0         0         0         0         0         0         0
         0         0         0         0         0         0         0         0
         0         0         0         0         0         0         0         0
         0         0         0         0         0         0         0         0
         0         0         0         0         0         0         0         0
         0         0         0         0         0         0         0         0
         0         0         0         0         0         0         0         0
         0         0         0         0         0         0         0         0
         0         0         0         0         0         0         0         0
         0         0         0         0         0         0         0         0
         0         0         0         0         0         0         0         0
         0         0         0         0         0         0         0         0
         0         0         0         0         0         0         0         0
         0         0         0         0         0         0         0         0
         0         0         0         0         0         0         0         0
         0         0         0         0         0         0         0         0
         0         0         0         0         0         0         0         0
         0         0         0         0         0         0         0         0
         0         0         0         0         0         0         0         0
         0         0         0         0         0         0         0         0
         0         0         0         0         0         0         0         0
         0         0         0         0         0         0         0         0
         0         0         0         0         0         0         0         0
         0         0         0         0         0         0         0         0
         0         0         0         0         0         0         0         0
         0         0         0         0         0         0         0         0
         0         0         0         0         0         0         0         0
         0         0         0         0         0         0         0         0
         0         0         0         0         0         0         0         0
         0         0         0         0         0         0         0         0
         0         0         0         0         0         0         0         0
         0         0         0         0         0         0         0         0
         0         0         0         0         0         0         0         0
         0         0         0         0         0         0         0         0
         0         0         0         0         0         0         0         0
         0         0         0         0         0         0         0         0
         0         0         0         0         0         0         0         0
         0         0         0         0         0         0         0         0
         0         0         0         0         0         0         0         0
         0         0         0         0         0         0         0         0
         0         0         0         0         0         0         0         0
         0         0         0         0         0         0         0         0
         0         0         0         0         0         0         0         0
         0         0         0         0         0         0         0         0
         0         0         0         0         0         0         0         0
         0         0         0         0         0         0         0         0
         0         0         0         0         0         0         0         0
         0         0         0         0         0         0         0         0
         0         0         0         0         0         0         0         0
         0         0         0         0         0         0         0         0
         0         0         0         0         0         0         0         0
         0         0         0         0         0         0         0         0
         0         0         0         0         0         0         0         0
         0         0         0         0         0         0         0         0
         0         0         0         0         0         0         0         0
         0         0         0         0         0         0         0         0
         0         0         0         0         0         0         0         0
         0         0         0         0         0         0         0         0
         0         0         0         0         0         0         0         0
         0         0         0         0         0         0         0         0
         0         0         0         0         0         0         0         0
         0         0         0         0         0         0         0         0
         0         0         0         0         0         0         0         0
         0         0         0         0         0         0         0         0
         0         0         0         0         0         0         0         0
         0         0         0         0         0         0         0         0
         0         0         0         0         0         0         0         0
         0         0         0         0         0         0         0         0
         0         0         0         0         0         0         0         0
         0         0         0         0         0         0         0         0
         0         0         0         0         0         0         0         0
         0         0         0         0         0         0         0         0
         0         0         0         0         0         0         0         0
         0         0         0         0         0         0         0         0
         0         0         0         0         0         0         0         0
         0         0         0         0         0         0         0         0
         0         0         0         0         0         0         0         0
         0         0         0         0         0         0         0         0
         0         0         0         0         0         0         0         0
         0         0         0         0         0         0         0         0
         0         0         0         0         0         0         0         0
         0         0         0         0         0         0         0         0
         0         0         0         0         0         0         0         0
         0         0         0         0         0         0         0         0
         0         0         0         0         0         0         0         0
         0         0         0         0         0         0         0         0
         0         0         0         0         0         0         0         0
         0         0         0         0         0         0         0         0
         0         0         0         0         0         0         0         0
         0         0         0         0         0         0         0         0
         0         0         0         0         0         0         0         0
         0         0         0         0         0         0         0         0
         0         0         0         0         0         0         0         0
         0         0         0         0         0         0         0         0
         0         0         0         0         0         0         0         0
         0         0         0         0         0         0         0         0
         0         0         0         0         0         0         0         0
         0         0         0         0         0         0         0         0
         0         0         0         0         0         0         0         0
         0         0         0         0         0         0         0         0
         0         0         0         0         0         0         0         0
         0         0         0         0         0         0         0         0
         0         0         0         0         0         0         0         0
         0         0         0         0         0         0         0         0
         0         0         0         0         0         0         0         0
         0         0         0         0         0         0         0         0
         0         0         0         0         0         0         0         0
         0         0         0         0         0         0         0         0
         0         0         0         0         0         0         0         0
         0         0         0         0         0         0         0         0
         0         0         0         0         0         0         0         0
         0         0         0         0         0         0         0         0
         0         0         0         0         0         0         0         0
         0         0         0         0         0         0         0         0
         0         0         0         0         0         0         0         0
         0         0         0         0         0         0         0         0
         0         0         0         0         0         0         0         0
         0         0         0         0         0         0         0         0
         0         0         0         0         0         0         0         0
         0         0         0         0         0         0         0         0
         0         0         0         0         0         0         0         0
         0         0         0         0         0         0         0         0
         0         0         0         0         0         0         0         0
         0         0         0         0         0         0         0         0
         0         0         0         0         0         0         0         0
         0         0         0         0         0         0         0         0
         0         0         0         0         0         0         0         0
         0         0         0         0         0         0         0         0
         0         0         0         0         0         0         0         0
         0         0         0         0         0         0         0         0
         0         0         0         0         0         0         0         0
         0         0         0         0         0         0         0         0
         0         0         0         0         0         0         0         0
         0         0         0         0         0         0         0         0
         0         0         0         0         0         0         0         0
         0         0         0         0         0         0         0         0
         0         0         0         0         0         0         0         0
         0         0         0         0         0         0         0         0
         0         0         0         0         0         0         0         0
         0         0         0         0         0         0         0         0
         0         0         0         0         0         0         0         0
         0         0         0         0         0         0         0         0
         0         0         0         0         0         0         0         0
         0         0         0         0         0         0         0         0
         0         0         0         0         0         0         0         0
         0         0         0         0         0         0         0         0
         0         0         0         0         0         0         0         0
         0         0         0         0         0         0         0         0
         0         0         0         0         0         0         0         0
         0         0         0         0         0         0         0         0
         0         0         0         0         0         0         0         0
         0         0         0         0         0         0         0         0
         0         0         0         0         0         0         0         0
         0         0         0         0         0         0         0         0
         0         0         0         0         0         0         0         0
         0         0         0         0         0         0         0         0
         0         0         0         0         0         0         0         0
         0         0         0         0         0         0         0         0
         0         0         0         0         0         0         0         0
         0         0         0         0         0         0         0         0
         0         0         0         0         0         0         0         0
         0         0         0         0         0         0         0         0
         0         0         0         0         0         0         0         0
         0         0         0         0         0         0         0         0
         0         0         0         0         0         0         0         0
         0         0         0         0         0         0         0         0
         0         0         0         0         0         0         0         0
         0         0         0         0         0         0         0         0
         0         0         0         0         0         0         0         0
         0         0         0         0         0         0         0         0
         0         0         0         0         0         0         0         0
         0         0         0         0         0         0         0         0
         0         0         0         0         0         0         0         0
         0         0         0         0         0         0         0         0
         0         0         0         0         0         0         0         0
         0         0         0         0         0         0         0         0
         0         0         0         0         0         0         0         0
         0         0         0         0         0         0         0         0
         0         0         0         0         0         0         0         0
         0         0         0         0         0         0         0         0
         0         0         0         0         0         0         0         0
         0         0         0         0         0         0         0         0
         0         0         0         0         0         0         0         0
         0         0         0         0         0         0         0         0
         0         0         0         0         0         0         0         0
         0         0         0         0         0         0         0         0
         0         0         0         0         0         0         0         0
         0         0         0         0         0         0         0         0
         0         0         0         0         0         0         0         0
         0         0         0         0         0         0         0         0
         0         0         0         0         0         0         0         0
         0         0         0         0         0         0         0         0
         0         0         0         0         0         0         0         0
         0         0         0         0         0         0         0         0
         0         0         0         0         0         0         0         0
         0         0         0         0         0         0         0         0
         0         0         0         0         0         0         0         0
         0         0         0         0         0         0         0         0
         0         0         0         0         0         0         0         0
         0         0         0         0         0         0         0         0
         0         0         0         0         0         0         0         0
         0         0         0         0         0         0         0         0
         0         0         0         0         0         0         0         0
         0         0         0         0         0         0         0         0
         0         0         0         0         0         0         0         0
         0         0         0         0         0         0         0         0
         0         0         0         0         0         0         0         0
         0         0         0         0         0         0         0         0
         0         0         0         0         0         0         0         0
         0         0         0         0         0         0         0         0
         0         0         0         0         0         0         0         0
         0         0         0         0         0         0         0         0
         0         0         0         0         0         0         0         0
         0         0         0         0         0         0         0         0
         0         0         0         0         0         0         0         0
         0         0         0         0         0         0         0         0
         0         0         0         0         0         0         0         0
         0         0         0         0         0         0         0         0
         0         0         0         0         0         0         0         0
         0         0         0         0         0         0         0         0
         0         0         0         0         0         0         0         0
         0         0         0         0         0         0         0         0
         0         0         0         0         0         0         0         0
         0         0         0         0         0         0         0         0
         0         0         0         0         0         0         0         0
         0         0         0         0         0         0         0         0
         0         0         0         0         0         0         0         0
         0         0         0         0         0         0         0         0
         0         0         0         0         0         0         0         0
         0         0         0         0         0         0         0         0
         0         0         0         0         0         0         0         0
         0         0         0         0         0         0         0         0
         0         0         0         0         0         0         0         0
         0         0         0         0         0         0         0         0
         0         0         0         0         0         0         0         0
         0         0         0         0         0         0         0         0
         0         0         0         0         0         0         0         0
         0         0         0         0         0         0         0         0
         0         0         0         0         0         0         0         0
         0         0         0         0         0         0         0         0
         0         0         0         0         0         0         0         0
         0         0         0         0         0         0         0         0
         0         0         0         0         0         0         0         0
         0         0         0         0         0         0         0         0
         0         0         0         0         0         0         0         0
         0         0         0         0         0         0         0         0
         0         0         0         0         0         0         0         0
         0         0         0         0         0         0         0         0
         0         0         0         0         0         0         0         0
         0         0         0         0         0         0         0         0
         0         0         0         0         0         0         0         0
         0         0         0         0         0         0         0         0
         0         0         0         0         0         0         0         0
         0         0         0         0         0         0         0         0
         0         0         0         0         0         0         0         0
         0         0         0         0         0         0         0         0
         0         0         0         0         0         0         0         0
         0         0         0         0         0         0         0         0
         0         0         0         0         0         0         0         0
         0         0         0         0         0         0         0         0
         0         0         0         0         0         0         0         0
         0         0         0         0         0         0         0         0
         0         0         0         0         0         0         0         0
         0         0         0         0         0         0         0         0
         0         0         0         0         0         0         0         0
         0         0         0         0         0         0         0         0
         0         0         0         0         0         0         0         0
         0         0         0         0         0         0         0         0
         0         0         0         0         0         0         0         0
         0         0         0         0         0         0         0         0
         0         0         0         0         0         0         0         0
         0         0         0         0         0         0         0         0
         0         0         0         0         0         0         0         0
         0         0         0         0         0         0         0         0
         0         0         0         0         0         0         0         0
         0         0         0         0         0         0         0         0
         0         0         0         0         0         0         0         0
         0         0         0         0         0         0         0         0
         0         0         0         0         0         0         0         0
         0         0         0         0         0         0         0         0
         0         0         0         0         0         0         0         0
         0         0         0         0         0         0         0         0
         0         0         0         0         0         0         0         0
         0         0         0         0         0         0         0         0
         0         0         0         0         0         0         0         0
         0         0         0         0         0         0         0         0
         0         0         0         0         0         0         0         0
         0         0         0         0         0         0         0         0
         0         0         0         0         0         0         0         0
         0         0         0         0         0         0         0         0
         0         0         0         0         0         0         0         0
         0         0         0         0         0         0         0         0
         0         0         0         0         0         0         0         0
         0         0         0         0         0         0         0         0
         0         0         0         0         0         0         0         0
         0         0         0         0         0         0         0         0
         0         0         0         0         0         0         0         0
         0         0         0         0         0         0         0         0
         0         0         0         0         0         0         0         0
         0         0         0         0         0         0         0         0
         0         0         0         0         0         0         0         0
         0         0         0         0         0         0         0         0
         0         0         0         0         0         0         0         0
         0         0         0         0         0         0         0         0
         0         0         0         0         0         0         0         0
         0         0         0         0         0         0         0         0
         0         0         0         0         0         0         0         0
         0         0         0         0         0         0         0         0
         0         0         0         0         0         0         0         0
         0         0         0         0         0         0         0         0
         0         0         0         0         0         0         0         0
         0         0         0         0         0         0         0         0
         0         0         0         0         0         0         0         0
         0         0         0         0         0         0         0         0
         0         0         0         0         0         0         0         0
         0         0         0         0         0         0         0         0
         0         0         0         0         0         0         0         0
         0         0         0         0         0         0         0         0
         0         0         0         0         0         0         0         0
         0         0         0         0         0         0         0         0
         0         0         0         0         0         0         0         0
         0         0         0         0         0         0         0         0
         0         0         0         0         0         0         0         0
         0         0         0         0         0         0         0         0
         0         0         0         0         0         0         0         0
         0         0         0         0         0         0         0         0
         0         0         0         0         0         0         0         0
         0         0         0         0         0         0         0         0
         0         0         0         0         0         0         0         0
         0         0         0         0         0         0         0         0
         0         0         0         0         0         0         0         0
         0         0         0         0         0         0         0         0
         0         0         0         0         0         0         0         0
         0         0         0         0         0         0         0         0
         0         0         0         0         0         0         0         0
         0         0         0         0         0         0         0         0
         0         0         0         0         0         0         0         0
         0         0         0         0         0         0         0         0
         0         0         0         0         0         0         0         0
         0         0         0         0         0         0         0         0
         0         0         0         0         0         0         0         0
         0         0         0         0         0         0         0         0
         0         0         0         0         0         0         0         0
         0         0         0         0         0         0         0         0
         0         0         0         0         0         0         0         0
         0         0         0         0         0         0         0         0
         0         0         0         0         0         0         0         0
         0         0         0         0         0         0         0         0
         0         0         0         0         0         0         0         0
         0         0         0         0         0         0         0         0
         0         0         0         0         0         0         0         0
         0         0         0         0         0         0         0         0
         0         0         0         0         0         0         0         0
         0         0         0         0         0         0         0         0
         0         0         0         0         0         0         0         0
         0         0         0         0         0         0         0         0
         0         0         0         0         0         0         0         0
         0         0         0         0         0         0         0         0
         0         0         0         0         0         0         0         0
         0         0         0         0         0         0         0         0
         0         0         0         0         0         0         0         0
         0         0         0         0         0         0         0         0
         0         0         0         0         0         0         0         0
         0         0         0         0         0         0         0         0
         0         0         0         0         0         0         0         0
         0         0         0         0         0         0         0         0
         0         0         0         0         0         0         0         0
         0         0         0         0         0         0         0         0
         0         0         0         0         0         0         0         0
         0         0         0         0         0         0         0         0
         0         0         0         0         0         0         0         0
         0         0         0         0         0         0         0         0
         0         0         0         0         0         0         0         0
         0         0         0         0         0         0         0         0
         0         0         0         0         0         0         0         0
         0         0         0         0         0         0         0         0
         0         0         0         0         0         0         0         0
         0         0         0         0         0         0         0         0
         0         0         0         0         0         0         0         0
         0         0         0         0         0         0         0         0
         0         0         0         0         0         0         0         0
         0         0         0         0         0         0         0         0
         0         0         0         0         0         0         0         0
         0         0         0         0         0         0         0         0
         0         0         0         0         0         0         0         0
         0         0         0         0         0         0         0         0
         0         0         0         0         0         0         0         0
         0         0         0         0         0         0         0         0
         0         0         0         0         0         0         0         0
         0         0         0         0         0         0         0         0
         0         0         0         0         0         0         0         0
         0         0         0         0         0         0         0         0
         0         0         0         0         0         0         0         0
         0         0         0         0         0         0         0         0
         0         0         0         0         0         0         0         0
         0         0         0         0         0         0         0         0
         0         0         0         0         0         0         0         0
         0         0         0         0         0         0         0         0
         0         0         0         0         0         0         0         0
         0         0         0         0         0         0         0         0
         0         0         0         0         0         0         0         0
         0         0         0         0         0         0         0         0
         0         0         0         0         0         0         0         0
         0         0         0         0         0         0         0         0
         0         0         0         0         0         0         0         0
         0         0         0         0         0         0         0         0
         0         0         0         0         0         0         0         0
         0         0         0         0         0         0         0         0
         0         0         0         0         0         0         0         0
         0         0         0         0         0         0         0         0
         0         0         0         0         0         0         0         0
         0         0         0         0         0         0         0         0
         0         0         0         0         0         0         0         0
         0         0         0         0         0         0         0         0
         0         0         0         0         0         0         0         0
         0         0         0         0         0         0         0         0
         0         0         0         0         0         0         0         0
         0         0         0         0         0         0         0         0
         0         0         0         0         0         0         0         0
         0         0         0         0         0         0         0         0
         0         0         0         0         0         0         0         0
         0         0         0         0         0         0         0         0
         0         0         0         0         0         0         0         0
         0         0         0         0         0         0         0         0
         0         0         0         0         0         0         0         0
         0         0         0         0         0         0         0         0
         0         0         0         0         0         0         0         0
         0         0         0         0         0         0         0         0
         0         0         0         0         0         0         0         0
         0         0         0         0         0         0         0         0
         0         0         0         0         0         0         0         0
         0         0         0         0         0         0         0         0
         0         0         0         0         0         0         0         0
         0         0         0         0         0         0         0         0
         0         0         0         0         0         0         0         0
         0         0         0         0         0         0         0         0
         0         0         0         0         0         0         0         0
         0         0         0         0         0         0         0         0
         0         0         0         0         0         0         0         0
         0         0         0         0         0         0         0         0
         0         0         0         0         0         0         0         0
         0         0         0         0         0         0         0         0
         0         0         0         0         0         0         0         0
         0         0         0         0         0         0         0         0
         0         0         0         0         0         0         0         0
         0         0         0         0         0         0         0         0
         0         0         0         0         0         0         0         0
         0         0         0         0         0         0         0         0
         0         0         0         0         0         0         0         0
         0         0         0         0         0         0         0         0
         0         0         0         0         0         0         0         0
         0         0         0         0         0         0         0         0
         0         0         0         0         0         0         0         0
         0         0         0         0         0         0         0         0
         0         0         0         0         0         0         0         0
         0         0         0         0         0         0         0         0
         0         0         0         0         0         0         0         0
         0         0         0         0         0         0         0         0
         0         0         0         0         0         0         0         0
         0         0         0         0         0         0         0         0
         0         0         0         0         0         0         0         0
         0         0         0         0         0         0         0         0
         0         0         0         0         0         0         0         0
         0         0         0         0         0         0         0         0
         0         0         0         0         0         0         0         0
         0         0         0         0         0         0         0         0
         0         0         0         0         0         0         0         0
         0         0         0         0         0         0         0         0
         0         0         0         0         0         0         0         0
         0         0         0         0         0         0         0         0
         0         0         0         0         0         0         0         0
         0         0         0         0         0         0         0         0
         0         0         0         0         0         0         0         0
         0         0         0         0         0         0         0         0
         0         0         0         0         0         0         0         0
         0         0         0         0         0         0         0         0
         0         0         0         0         0         0         0         0
         0         0         0         0         0         0         0         0
         0         0         0         0         0         0         0         0
         0         0         0         0         0         0         0         0
         0         0         0         0         0         0         0         0
         0         0         0         0         0         0         0         0
         0         0         0         0         0         0         0         0
         0         0         0         0         0         0         0         0
         0         0         0         0         0         0         0         0
         0         0         0         0         0         0         0         0
         0         0         0         0         0         0         0         0
         0         0         0         0         0         0         0         0
         0         0         0         0         0         0         0         0
         0         0         0         0         0         0         0         0
         0         0         0         0         0         0         0         0
         0         0         0         0         0         0         0         0
         0         0         0         0         0         0         0         0
         0         0         0         0         0         0         0         0
         0         0         0         0         0         0         0         0
         0         0         0         0         0         0         0         0
         0         0         0         0         0         0         0         0
         0         0         0         0         0         0         0         0
         0         0         0         0         0         0         0         0
         0         0         0         0         0         0         0         0
         0         0         0         0         0         0         0         0
         0         0         0         0         0         0         0         0
         0         0         0         0         0         0         0         0
         0         0         0         0         0         0         0         0
         0         0         0         0         0         0         0         0
         0         0         0         0         0         0         0         0
         0         0         0         0         0         0         0         0
         0         0         0         0         0         0         0         0
         0         0         0         0         0         0         0         0
         0         0         0         0         0         0         0         0
         0         0         0         0         0         0         0         0
         0         0         0         0         0         0         0         0
         0         0         0         0         0         0         0         0
         0         0         0         0         0         0         0         0
         0         0         0         0         0         0         0         0
         0         0         0         0         0         0         0         0
         0         0         0         0         0         0         0         0
         0         0         0         0         0         0         0         0
         0         0         0         0         0         0         0         0
         0         0         0         0         0         0         0         0
         0         0         0         0         0         0         0         0
         0         0         0         0         0         0         0         0
         0         0         0         0         0         0         0         0
         0         0         0         0         0         0         0         0
         0         0         0         0         0         0         0         0
         0         0         0         0         0         0         0         0
         0         0         0         0         0         0         0         0
         0         0         0         0         0         0         0         0
         0         0         0         0         0         0         0         0
         0         0         0         0         0         0         0         0
         0         0         0         0         0         0         0         0
         0         0         0         0         0         0         0         0
         0         0         0         0         0         0         0         0
         0         0         0         0         0         0         0         0
         0         0         0         0         0         0         0         0
         0         0         0         0         0         0         0         0
         0         0         0         0         0         0         0         0
         0         0         0         0         0         0         0         0
         0         0         0         0         0         0         0         0
         0         0         0         0         0         0         0         0
         0         0         0         0         0         0         0         0
         0         0         0         0         0         0         0         0
         0         0         0         0         0         0         0         0
         0         0         0         0         0         0         0         0
         0         0         0         0         0         0         0         0
         0         0         0         0         0         0         0         0
         0         0         0         0         0         0         0         0
         0         0         0         0         0         0         0         0
         0         0         0         0         0         0         0         0
         0         0         0         0         0         0         0         0
         0         0         0         0         0         0         0         0
         0         0         0         0         0         0         0         0
         0         0         0         0         0         0         0         0
         0         0         0         0         0         0         0         0
         0         0         0         0         0         0         0         0
         0         0         0         0         0         0         0         0
         0         0         0         0         0         0         0         0
         0         0         0         0         0         0         0         0
         0         0         0         0         0         0         0         0
         0         0         0         0         0         0         0         0
         0         0         0         0         0         0         0         0
         0         0         0         0         0         0         0         0
         0         0         0         0         0         0         0         0
         0         0         0         0         0         0         0         0
         0         0         0         0         0         0         0         0
         0         0         0         0         0         0         0         0
         0         0         0         0         0         0         0         0
         0         0         0         0         0         0         0         0
         0         0         0         0         0         0         0         0
         0         0         0         0         0         0         0         0
         0         0         0         0         0         0         0         0
         0         0         0         0         0         0         0         0
         0         0         0         0         0         0         0         0
         0         0         0         0         0         0         0         0
         0         0         0         0         0         0         0         0
         0         0         0         0         0         0         0         0
         0         0         0         0         0         0         0         0
         0         0         0         0         0         0         0         0
         0         0         0         0         0         0         0         0
         0         0         0         0         0         0         0         0
         0         0         0         0         0         0         0         0
         0         0         0         0         0         0         0         0
         0         0         0         0         0         0         0         0
         0         0         0         0         0         0         0         0
         0         0         0         0         0         0         0         0
         0         0         0         0         0         0         0         0
         0         0         0         0         0         0         0         0
         0         0         0         0         0         0         0         0
         0         0         0         0         0         0         0         0
         0         0         0         0         0         0         0         0
         0         0         0         0         0         0         0         0
         0         0         0         0         0         0         0         0
         0         0         0         0         0         0         0         0
         0         0         0         0         0         0         0         0
         0         0         0         0         0         0         0         0
         0         0         0         0         0         0         0         0
         0         0         0         0         0         0         0         0
         0         0         0         0         0         0         0         0
         0         0         0         0         0         0         0         0
         0         0         0         0         0         0         0         0
         0         0         0         0         0         0         0         0
         0         0         0         0         0         0         0         0
         0         0         0         0         0         0         0         0
         0         0         0         0         0         0         0         0
         0         0         0         0         0         0         0         0
         0         0         0         0         0         0         0         0
         0         0         0         0         0         0         0         0
         0         0         0         0         0         0         0         0
         0         0         0         0         0         0         0         0
         0         0         0         0         0         0         0         0
         0         0         0         0         0         0         0         0
         0         0         0         0         0         0         0         0
         0         0         0         0         0         0         0         0
         0         0         0         0         0         0         0         0
         0         0         0         0         0         0         0         0
         0         0         0         0         0         0         0         0
         0         0         0         0         0         0         0         0
         0         0         0         0         0         0         0         0
         0         0         0         0         0         0         0         0
         0         0         0         0         0         0         0         0
         0         0         0         0         0         0         0         0
         0         0         0         0         0         0         0         0
         0         0         0         0         0         0         0         0
         0         0         0         0         0         0         0         0
         0         0         0         0         0         0         0         0
         0         0         0         0         0         0         0         0
         0         0         0         0         0         0         0         0
         0         0         0         0         0         0         0         0
         0         0         0         0         0         0         0         0
         0         0         0         0         0         0         0         0
         0         0         0         0         0         0         0         0
         0         0         0         0         0         0         0         0
         0         0         0         0         0         0         0         0
         0         0         0         0         0         0         0         0
         0         0         0         0         0         0         0         0
         0         0         0         0         0         0         0         0
         0         0         0         0         0         0         0         0
         0         0         0         0         0         0         0         0
         0         0         0         0         0         0         0         0
         0         0         0         0         0         0         0         0
         0         0         0         0         0         0         0         0
         0         0         0         0         0         0         0         0
         0         0         0         0         0         0         0         0
         0         0         0         0         0         0         0         0
         0         0         0         0         0         0         0         0
         0         0         0         0         0         0         0         0
         0         0         0         0         0         0         0         0
         0         0         0         0         0         0         0         0
         0         0         0         0         0         0         0         0
         0         0         0         0         0         0         0         0
         0         0         0         0         0         0         0         0
         0         0         0         0         0         0         0         0
         0         0         0         0         0         0         0         0
         0         0         0         0         0         0         0         0
         0         0         0         0         0         0         0         0
         0         0         0         0         0         0         0         0
         0         0         0         0         0         0         0         0
         0         0         0         0         0         0         0         0
         0         0         0         0         0         0         0         0
         0         0         0         0         0         0         0         0
         0         0         0         0         0         0         0         0
         0         0         0         0         0         0         0         0
         0         0         0         0         0         0         0         0
         0         0         0         0         0         0         0         0
         0         0         0         0         0         0         0         0
         0         0         0         0         0         0         0         0
         0         0         0         0         0         0         0         0
         0         0         0         0         0         0         0         0
         0         0         0         0         0         0         0         0
         0         0         0         0         0         0         0         0
         0         0         0         0         0         0         0         0
         0         0         0         0         0         0         0         0
         0         0         0         0         0         0         0         0
         0         0         0         0         0         0         0         0
         0         0         0         0         0         0         0         0
         0         0         0         0         0         0         0         0
         0         0         0         0         0         0         0         0
         0         0         0         0         0         0         0         0
         0         0         0         0         0         0         0         0
         0         0         0         0         0         0         0         0
         0         0         0         0         0         0         0         0
         0         0         0         0         0         0         0         0
         0         0         0         0         0         0         0         0
         0         0         0         0         0         0         0         0
         0         0         0         0         0         0         0         0
         0         0         0         0         0         0         0         0
         0         0         0         0         0         0         0         0
         0         0         0         0         0         0         0         0
         0         0         0         0         0         0         0         0
         0         0         0         0         0         0         0         0
         0         0         0         0         0         0         0         0
         0         0         0         0         0         0         0         0
         0         0         0         0         0         0         0         0
         0         0         0         0         0         0         0         0
         0         0         0         0         0         0         0         0
         0         0         0         0         0         0         0         0
         0         0         0         0         0         0         0         0
         0         0         0         0         0         0         0         0
         0         0         0         0         0         0         0         0
         0         0         0         0         0         0         0         0
         0         0         0         0         0         0         0         0
         0         0         0         0         0         0         0         0
         0         0         0         0         0         0         0         0
         0         0         0         0         0         0         0         0
         0         0         0         0         0         0         0         0
         0         0         0         0         0         0         0         0
         0         0         0         0         0         0         0         0
         0         0         0         0         0         0         0         0
         0         0         0         0         0         0         0         0
         0         0         0         0         0         0         0         0
         0         0         0         0         0         0         0         0
         0         0         0         0         0         0         0         0
         0         0         0         0         0         0         0         0
         0         0         0         0         0         0         0         0
         0         0         0         0         0         0         0         0
         0         0         0         0         0         0         0         0
         0         0         0         0         0         0         0         0
         0         0         0         0         0         0         0         0
         0         0         0         0         0         0         0         0
         0         0         0         0         0         0         0         0
         0         0         0         0         0         0         0         0
         0         0         0         0         0         0         0         0
         0         0         0         0         0         0         0         0
         0         0         0         0         0         0         0         0
         0         0         0         0         0         0         0         0
         0         0         0         0         0         0         0         0
         0         0         0         0         0         0         0         0
         0         0         0         0         0         0         0         0
         0         0         0         0         0         0         0         0
         0         0         0         0         0         0         0         0
         0         0         0         0         0         0         0         0
         0         0         0         0         0         0         0         0
         0         0         0         0         0         0         0         0
         0         0         0         0         0         0         0         0
         0         0         0         0         0         0         0         0
         0         0         0         0         0         0         0         0
         0         0         0         0         0         0         0         0
         0         0         0         0         0         0         0         0
         0         0         0         0         0         0         0         0
         0         0         0         0         0         0         0         0
         0         0         0         0         0         0         0         0
         0         0         0         0         0         0         0         0
         0         0         0         0         0         0         0         0
         0         0         0         0         0         0         0         0
         0         0         0         0         0         0         0         0
         0         0         0         0         0         0         0         0
         0         0         0         0         0         0         0         0
         0         0         0         0         0         0         0         0
         0         0         0         0         0         0         0         0
         0         0         0         0         0         0         0         0
         0         0         0         0         0         0         0         0
         0         0         0         0         0         0         0         0
         0         0         0         0         0         0         0         0
         0         0         0         0         0         0         0         0
         0         0         0         0         0         0         0         0
         0         0         0         0         0         0         0         0
         0         0         0         0         0         0         0         0
         0         0         0         0         0         0         0         0
         0         0         0         0         0         0         0         0
         0         0         0         0         0         0         0         0
         0         0         0         0         0         0         0         0
         0         0         0         0         0         0         0         0
         0         0         0         0         0         0         0         0
         0         0         0         0         0         0         0         0
         0         0         0         0         0         0         0         0
         0         0         0         0         0         0         0         0
         0         0         0         0         0         0         0         0
         0         0         0         0         0         0         0         0
         0         0         0         0         0         0         0         0
         0         0         0         0         0         0         0         0
         0         0         0         0         0         0         0         0
         0         0         0         0         0         0         0         0
         0         0         0         0         0         0         0         0
         0         0         0         0         0         0         0         0
         0         0         0         0         0         0         0         0
         0         0         0         0         0         0         0         0
         0         0         0         0         0         0         0         0
         0         0         0         0         0         0         0         0
         0         0         0         0         0         0         0         0
         0         0         0         0         0         0         0         0
         0         0         0         0         0         0         0         0
         0         0         0         0         0         0         0         0
         0         0         0         0         0         0         0         0
         0         0         0         0         0         0         0         0
         0         0         0         0         0         0         0         0
         0         0         0         0         0         0         0         0
         0         0         0         0         0         0         0         0
         0         0         0         0         0         0         0         0
         0         0         0         0         0         0         0         0
         0         0         0         0         0         0         0         0
         0         0         0         0         0         0         0         0
         0         0         0         0         0         0         0         0
         0         0         0         0         0         0         0         0
         0         0         0         0         0         0         0         0
         0         0         0         0         0         0         0         0
         0         0         0         0         0         0         0         0
         0         0         0         0         0         0         0         0
         0         0         0         0         0         0         0         0
         0         0         0         0         0         0         0         0
         0         0         0         0         0         0         0         0
         0         0         0         0         0         0         0         0
         0         0         0         0         0         0         0         0
         0         0         0         0         0         0         0         0
         0         0         0         0         0         0         0         0
         0         0         0         0         0         0         0         0
         0         0         0         0         0         0         0         0
         0         0         0         0         0         0         0         0
         0         0         0         0         0         0         0         0
         0         0         0         0         0         0         0         0
         0         0         0         0         0         0         0         0
         0         0         0         0         0         0         0         0
         0         0         0         0         0         0         0         0
         0         0         0         0         0         0         0         0
         0         0         0         0         0         0         0         0
         0         0         0         0         0         0         0         0
         0         0         0         0         0         0         0         0
         0         0         0         0         0         0         0         0
         0         0         0         0         0         0         0         0
         0         0         0         0         0         0         0         0
         0         0         0         0         0         0         0         0
         0         0         0         0         0         0         0         0
         0         0         0         0         0         0         0         0
         0         0         0         0         0         0         0         0
         0         0         0         0         0         0         0         0
         0         0         0         0         0         0         0         0
         0         0         0         0         0         0         0         0
         0         0         0         0         0         0         0         0
         0         0         0         0         0         0         0         0
         0         0         0         0         0         0         0         0
         0         0         0         0         0         0         0         0
         0         0         0         0         0         0         0         0
         0         0         0         0         0         0         0         0
         0         0         0         0         0         0         0         0
         0         0         0         0         0         0         0         0
         0         0         0         0         0         0         0         0
         0         0         0         0         0         0         0         0
         0         0         0         0         0         0         0         0
         0         0         0         0         0         0         0         0
         0         0         0         0         0         0         0         0
         0         0         0         0         0         0         0         0
         0         0         0         0         0         0         0         0
         0         0         0         0         0         0         0         0
         0         0         0         0         0         0         0         0
         0         0         0         0         0         0         0         0
         0         0         0         0         0         0         0         0
         0         0         0         0         0         0         0         0
         0         0         0         0         0         0         0         0
         0         0         0         0         0         0         0         0
         0         0         0         0         0         0         0         0
         0         0         0         0         0         0         0         0
         0         0         0         0         0         0         0         0
         0         0         0         0         0         0         0         0
         0         0         0         0         0         0         0         0
         0         0         0         0         0         0         0         0
         0         0         0         0         0         0         0         0
         0         0         0         0         0         0         0         0
         0         0         0         0         0         0         0         0
         0         0         0         0         0         0         0         0
         0         0         0         0         0         0         0         0
         0         0         0         0         0         0         0         0
         0         0         0         0         0         0         0         0
         0         0         0         0         0         0         0         0
         0         0         0         0         0         0         0         0
         0         0         0         0         0         0         0         0
         0         0         0         0         0         0         0         0
         0         0         0         0         0         0         0         0
         0         0         0         0         0         0         0         0
         0         0         0         0         0         0         0         0
         0         0         0         0         0         0         0         0
         0         0         0         0         0         0         0         0
         0         0         0         0         0         0         0         0
         0         0         0         0         0         0         0         0
         0         0         0         0         0         0         0         0
         0         0         0         0         0         0         0         0
         0         0         0         0         0         0         0         0
         0         0         0         0         0         0         0         0
         0         0         0         0         0         0         0         0
         0         0         0         0         0         0         0         0
         0         0         0         0         0         0         0         0
         0         0         0         0         0         0         0         0
         0         0         0         0         0         0         0         0
         0         0         0         0         0         0         0         0
         0         0         0         0         0         0         0         0
         0         0         0         0         0         0         0         0
         0         0         0         0         0         0         0         0
         0         0         0         0         0         0         0         0
         0         0         0         0         0         0         0         0
         0         0         0         0         0         0         0         0
         0         0         0         0         0         0         0         0
         0         0         0         0         0         0         0         0
         0         0         0         0         0         0         0         0
         0         0         0         0         0         0         0         0
         0         0         0         0         0         0         0         0
         0         0         0         0         0         0         0         0
         0         0         0         0         0         0         0         0
         0         0         0         0         0         0         0         0
         0         0         0         0         0         0         0         0
         0         0         0         0         0         0         0         0
         0         0         0         0         0         0         0         0
         0         0         0         0         0         0         0         0
         0         0         0         0         0         0         0         0
         0         0         0         0         0         0         0         0
         0         0         0         0         0         0         0         0
         0         0         0         0         0         0         0         0
         0         0         0         0         0         0         0         0
         0         0         0         0         0         0         0         0
         0         0         0         0         0         0         0         0
         0         0         0         0         0         0         0         0
         0         0         0         0         0         0         0         0
         0         0         0         0         0         0         0         0
         0         0         0         0         0         0         0         0
         0         0         0         0         0         0         0         0
         0         0         0         0         0         0         0         0
         0         0         0         0         0         0         0         0
         0         0         0         0         0         0         0         0
         0         0         0         0         0         0         0         0
         0         0         0         0         0         0         0         0
         0         0         0         0         0         0         0         0
         0         0         0         0         0         0         0         0
         0         0         0         0         0         0         0         0
         0         0         0         0         0         0         0         0
         0         0         0         0         0         0         0         0
         0         0         0         0         0         0         0         0
         0         0         0         0         0         0         0         0
         0         0         0         0         0         0         0         0
         0         0         0         0         0         0         0         0
         0         0         0         0         0         0         0         0
         0         0         0         0         0         0         0         0
         0         0         0         0         0         0         0         0
         0         0         0         0         0         0         0         0
         0         0         0         0         0         0         0         0
         0         0         0         0         0         0         0         0
         0         0         0         0         0         0         0         0
         0         0         0         0         0         0         0         0
         0         0         0         0         0         0         0         0
         0         0         0         0         0         0         0         0
         0         0         0         0         0         0         0         0
         0         0         0         0         0         0         0         0
         0         0         0         0         0         0         0         0
         0         0         0         0         0         0         0         0
         0         0         0         0         0         0         0         0
         0         0         0         0         0         0         0         0
         0         0         0         0         0         0         0         0
         0         0         0         0         0         0         0         0
         0         0         0         0         0         0         0         0
         0         0         0         0         0         0         0         0
         0         0         0         0         0         0         0         0
         0         0         0         0         0         0         0         0
         0         0         0         0         0         0         0         0
         0         0         0         0         0         0         0         0
         0         0         0         0         0         0         0         0
         0         0         0         0         0         0         0         0
         0         0         0         0         0         0         0         0
         0         0         0         0         0         0         0         0
         0         0         0         0         0         0         0         0
         0         0         0         0         0         0         0         0
         0         0         0         0         0         0         0         0
         0         0         0         0         0         0         0         0
         0         0         0         0         0         0         0         0
         0         0         0         0         0         0         0         0
         0         0         0         0         0         0         0         0
         0         0         0         0         0         0         0         0
         0         0         0         0         0         0         0         0
         0         0         0         0         0         0         0         0
         0         0         0         0         0         0         0         0
         0         0         0         0         0         0         0         0
         0         0         0         0         0         0         0         0
         0         0         0         0         0         0         0         0
         0         0         0         0         0         0         0         0
         0         0         0         0         0         0         0         0
         0         0         0         0         0         0         0         0
         0         0         0         0         0         0         0         0
         0         0         0         0         0         0         0         0
         0         0         0         0         0         0         0         0
         0         0         0         0         0         0         0         0
         0         0         0         0         0         0         0         0
         0         0         0         0         0         0         0         0
         0         0         0         0         0         0         0         0
         0         0         0         0         0         0         0         0
         0         0         0         0         0         0         0         0
         0         0         0         0         0         0         0         0
         0         0         0         0         0         0         0         0
         0         0         0         0         0         0         0         0
         0         0         0         0         0         0         0         0
         0         0         0         0         0         0         0         0
         0         0         0         0         0         0         0         0
         0         0         0         0         0         0         0         0
         0         0         0         0         0         0         0         0
         0         0         0         0         0         0         0         0
         0         0         0         0         0         0         0         0
         0         0         0         0         0         0         0         0
         0         0         0         0         0         0         0         0
         0         0         0         0         0         0         0         0
         0         0         0         0         0         0         0         0
         0         0         0         0         0         0         0         0
         0         0         0         0         0         0         0         0
         0         0         0         0         0         0         0         0
         0         0         0         0         0         0         0         0
         0         0         0         0         0         0         0         0
         0         0         0         0         0         0         0         0
         0         0         0         0         0         0         0         0
         0         0         0         0         0         0         0         0
         0         0         0         0         0         0         0         0
         0         0         0         0         0         0         0         0
         0         0         0         0         0         0         0         0
         0         0         0         0         0         0         0         0
         0         0         0         0         0         0         0         0
         0         0         0         0         0         0         0         0
         0         0         0         0         0         0         0         0
         0         0         0         0         0         0         0         0
         0         0         0         0         0         0         0         0
         0         0         0         0         0         0         0         0
         0         0         0         0         0         0         0         0
         0         0         0         0         0         0         0         0
         0         0         0         0         0         0         0         0
         0         0         0         0         0         0         0         0
         0         0         0         0         0         0         0         0
         0         0         0         0         0         0         0         0
         0         0         0         0         0         0         0         0
         0         0         0         0         0         0         0         0
         0         0         0         0         0         0         0         0
         0         0         0         0         0         0         0         0
         0         0         0         0         0         0         0         0
         0         0         0         0         0         0         0         0
         0         0         0         0         0         0         0         0
         0         0         0         0         0         0         0         0
         0         0         0         0         0         0         0         0
         0         0         0         0         0         0         0         0
         0         0         0         0         0         0         0         0
         0         0         0         0         0         0         0         0
         0         0         0         0         0         0         0         0
         0         0         0         0         0         0         0         0
         0         0         0         0         0         0         0         0
         0         0         0         0         0         0         0         0
         0         0         0         0         0         0         0         0
         0         0         0         0         0         0         0         0
         0         0         0         0         0         0         0         0
         0         0         0         0         0         0         0         0
         0         0         0         0         0         0         0         0
         0         0         0         0         0         0         0         0
         0         0         0         0         0         0         0         0
         0         0         0         0         0         0         0         0
         0         0         0         0         0         0         0         0
         0         0         0         0         0         0         0         0
         0         0         0         0         0         0         0         0
         0         0         0         0         0         0         0         0
         0         0         0         0         0         0         0         0
         0         0         0         0         0         0         0         0
         0         0         0         0         0         0         0         0
         0         0         0         0         0         0         0         0
         0         0         0         0         0         0         0         0
         0         0         0         0         0         0         0         0
         0         0         0         0         0         0         0         0
         0         0         0         0         0         0         0         0
         0         0         0         0         0         0         0         0
         0         0         0         0         0         0         0         0
         0         0         0         0         0         0         0         0
         0         0         0         0         0         0         0         0
         0         0         0         0         0         0         0         0
         0         0         0         0         0         0         0         0
         0         0         0         0         0         0         0         0
         0         0         0         0         0         0         0         0
         0         0         0         0         0         0         0         0
         0         0         0         0         0         0         0         0
         0         0         0         0         0         0         0         0
         0         0         0         0         0         0         0         0
         0         0         0         0         0         0         0         0
         0         0         0         0         0         0         0         0
         0         0         0         0         0         0         0         0
         0         0         0         0         0         0         0         0
         0         0         0         0         0         0         0         0
         0         0         0         0         0         0         0         0
         0         0         0         0         0         0         0         0
         0         0         0         0         0         0         0         0
         0         0         0         0         0         0         0         0
         0         0         0         0         0         0         0         0
         0         0         0         0         0         0         0         0
         0         0         0         0         0         0         0         0
         0         0         0         0         0         0         0         0
         0         0         0         0         0         0         0         0
         0         0         0         0         0         0         0         0
         0         0         0         0         0         0         0         0
         0         0         0         0         0         0         0         0
         0         0         0         0         0         0         0         0
         0         0         0         0         0         0         0         0
         0         0         0         0         0         0         0         0
         0         0         0         0         0         0         0         0
         0         0         0         0         0         0         0         0
         0         0         0         0         0         0         0         0
         0         0         0         0         0         0         0         0
         0         0         0         0         0         0         0         0
         0         0         0         0         0         0         0         0
         0         0         0         0         0         0         0         0
         0         0         0         0         0         0         0         0
         0         0         0         0         0         0         0         0
         0         0         0         0         0         0         0         0
         0         0         0         0         0         0         0         0
         0         0         0         0         0         0         0         0
         0         0         0         0         0         0         0         0
         0         0         0         0         0         0         0         0
         0         0         0         0         0         0         0         0
         0         0         0         0         0         0         0         0
         0         0         0         0         0         0         0         0
         0         0         0         0         0         0         0         0
         0         0         0         0         0         0         0         0
         0         0         0         0         0         0         0         0
         0         0         0         0         0         0         0         0
         0         0         0         0         0         0         0         0
         0         0         0         0         0         0         0         0
         0         0         0         0         0         0         0         0
         0         0         0         0         0         0         0         0
         0         0         0         0         0         0         0         0
         0         0         0         0         0         0         0         0
         0         0         0         0         0         0         0         0
         0         0         0         0         0         0         0         0
         0         0         0         0         0         0         0         0
         0         0         0         0         0         0         0         0
         0         0         0         0         0         0         0         0
         0         0         0         0         0         0         0         0
         0

      4457         0 !NGRP NST2
         0         2         0        20         2         0        40         2         0
        60         2         0        80         2         0       100         2         0
       120         2         0       140         2         0       160         2         0
       180         2         0       200         2         0       220         2         0
       240         2         0       260         2         0       280         2         0
       300         2         0       320         2         0       340         2         0
       360         2         0       380         2         0       400         2         0
       420         2         0       440         2         0       460         2         0
       480         2         0       500         2         0       520         2         0
       540         2         0       560         2         0       580         2         0
       600         2         0       620         2         0       640         2         0
       660         2         0       680         2         0       700         2         0
       720         2         0       740         2         0       760         2         0
       780         2         0       800         2         0       820         2         0
       840         2         0       860         2         0       880         2         0
       900         2         0       920         2         0       940         2         0
       960         2         0       980         2         0      1000         2         0
      1020         2         0      1040         2         0      1060         2         0
      1080         2         0      1100         2         0      1120         2         0
      1140         2         0      1160         2         0      1180         2         0
      1200         2         0      1220         2         0      1240         2         0
      1260         2         0      1280         2         0      1300         2         0
      1320         2         0      1340         2         0      1360         2         0
      1380         2         0      1400         2         0      1420         2         0
      1440         2         0      1460         2         0      1480         2         0
      1500         2         0      1520         2         0      1540         2         0
      1560         2         0      1580         2         0      1600         2         0
      1620         2         0      1640         2         0      1660         2         0
      1680         2         0      1700         2         0      1720         2         0
      1740         2         0      1760         2         0      1780         2         0
      1800         2         0      1820         2         0      1840         2         0
      1860         2         0      1880         2         0      1900         2         0
      1920         2         0      1940         2         0      1960         2         0
      1980         2         0      2000         2         0      2020         2         0
      2040         2         0      2060         2         0      2080         2         0
      2100         2         0      2120         2         0      2140         2         0
      2160         2         0      2180         2         0      2200         2         0
      2220         2         0      2240         2         0      2260         2         0
      2280         2         0      2300         2         0      2320         2         0
      2340         2         0      2360         2         0      2380         2         0
      2400         2         0      2420         2         0      2440         2         0
      2460         2         0      2480         2         0      2500         2         0
      2520         2         0      2540         2         0      2560         2         0
      2580         2         0      2600         2         0      2620         2         0
      2640         2         0      2660         2         0      2680         2         0
      2700         2         0      2720         2         0      2740         2         0
      2760         2         0      2780         2         0      2800         2         0
      2820         2         0      2840         2         0      2860         2         0
      2880         2         0      2900         2         0      2920         2         0
      2940         2         0      2956         2         0      2972         2         0
      2988         2         0      3004         2         0      3020         2         0
      3036         2         0      3052         2         0      3068         2         0
      3084         2         0      3100         2         0      3116         2         0
      3132         2         0      3148         2         0      3164         2         0
      3180         2         0      3196         2         0      3212         2         0
      3228         2         0      3244         2         0      3260         2         0
      3276         2         0      3292         2         0      3308         2         0
      3324         2         0      3340         2         0      3356         2         0
      3372         2         0      3388         2         0      3404         2         0
      3420         2         0      3436         2         0      3452         2         0
      3468         2         0      3484         2         0      3500         2         0
      3516         2         0      3532         2         0      3548         2         0
      3564         2         0      3580         2         0      3596         2         0
      3612         2         0      3628         2         0      3644         2         0
      3660         2         0      3676         2         0      3692         2         0
      3708         2         0      3724         2         0      3740         2         0
      3756         2         0      3772         2         0      3788         2         0
      3804         2         0      3820         2         0      3836         2         0
      3852         2         0      3868         2         0      3884         2         0
      3900         2         0      3916         2         0      3932         2         0
      3948         2         0      3964         2         0      3980         2         0
      3996         2         0      4012         2         0      4028         2         0
      4044         2         0      4060         2         0      4076         2         0
      4092         2         0      4108         2         0      4124         2         0
      4140         2         0      4156         2         0      4172         2         0
      4188         2         0      4204         2         0      4220         2         0
      4236         2         0      4252         2         0      4268         2         0
      4284         2         0      4300         2         0      4316         2         0
      4332         2         0      4348         2         0      4364         2         0
      4380         2         0      4396         2         0      4412         2         0
      4428         1         0      4448         1         0      4468         1         0
      4488         1         0      4508         1         0      4528         1         0
      4548         1         0      4568         1         0      4588         1         0
      4608         1         0      4628         1         0      4648         1         0
      4668         1         0      4688         1         0      4708         1         0
      4728         1         0      4748         1         0      4768         1         0
      4788         1         0      4808         1         0      4828         1         0
      4848         1         0      4868         1         0      4888         1         0
      4908         1         0      4928         1         0      4948         1         0
      4968         1         0      4988         1         0      5008         1         0
      5028         1         0      5048         1         0      5068         1         0
      5088         1         0      5108         1         0      5128         1         0
      5148         1         0      5168         1         0      5188         1         0
      5208         1         0      5228         1         0      5248         1         0
      5268         1         0      5288         1         0      5308         1         0
      5328         1         0      5348         1         0      5368         1         0
      5388         1         0      5408         1         0      5428         1         0
      5448         1         0      5468         1         0      5488         1         0
      5508         1         0      5528         1         0      5548         1         0
      5568         1         0      5588         1         0      5608         1         0
      5628         1         0      5648         1         0      5668         1         0
      5688         1         0      5708         1         0      5728         1         0
      5748         1         0      5768         1         0      5788         1         0
      5808         1         0      5828         1         0      5848         1         0
      5868         1         0      5888         1         0      5908         1         0
      5928         1         0      5948         1         0      5968         1         0
      5988         1         0      6008         1         0      6028         1         0
      6048         1         0      6068         1         0      6088         1         0
      6108         1         0      6128         1         0      6148         1         0
      6168         1         0      6188         1         0      6208         1         0
      6228         1         0      6248         1         0      6268         1         0
      6288         1         0      6308         1         0      6328         1         0
      6348         1         0      6368         1         0      6388         1         0
      6408         1         0      6428         1         0      6448         1         0
      6468         1         0      6488         1         0      6508         1         0
      6528         1         0      6548         1         0      6568         1         0
      6588         1         0      6608         1         0      6628         1         0
      6648         1         0      6668         1         0      6688         1         0
      6708         1         0      6728         1         0      6748         1         0
      6768         1         0      6788         1         0      6808         1         0
      6828         1         0      6848         1         0      6868         1         0
      6888         1         0      6908         1         0      6928         1         0
      6948         1         0      6968         1         0      6988         1         0
      7008         1         0      7028         1         0      7048         1         0
      7068         1         0      7088         1         0      7108         1         0
      7128         1         0      7148         1         0      7168         1         0
      7188         1         0      7208         1         0      7228         1         0
      7248         1         0      7268         1         0      7288         1         0
      7308         1         0      7328         1         0      7348         1         0
      7368         1         0      7388         1         0      7408         1         0
      7428         1         0      7448         1         0      7468         1         0
      7488         1         0      7508         1         0      7528         1         0
      7548         1         0      7568         1         0      7588         1         0
      7608         1         0      7628         1         0      7648         1         0
      7668         1         0      7688         1         0      7708         1         0
      7728         1         0      7748         1         0      7768         1         0
      7788         1         0      7808         1         0      7828         1         0
      7848         1         0      7868         1         0      7888         1         0
      7908         1         0      7928         1         0      7948         1         0
      7968         1         0      7988         1         0      8008         1         0
      8028         1         0      8048         1         0      8068         1         0
      8088         1         0      8108         1         0      8128         1         0
      8148         1         0      8168         1         0      8188         1         0
      8208         1         0      8228         1         0      8248         1         0
      8268         1         0      8288         1         0      8308         1         0
      8328         1         0      8348         1         0      8368         1         0
      8388         1         0      8408         1         0      8428         1         0
      8448         1         0      8468         1         0      8488         1         0
      8508         1         0      8528         1         0      8548         1         0
      8568         1         0      8588         1         0      8608         1         0
      8628         1         0      8648         1         0      8668         1         0
      8688         1         0      8708         1         0      8728         1         0
      8748         1         0      8768         1         0      8784         1         0
      8800         1         0      8816         1         0      8832         1         0
      8848         1         0      8864         1         0      8880         1         0
      8896         1         0      8912         1         0      8928         1         0
      8944         1         0      8960         1         0      8976         1         0
      8992         1         0      9008         1         0      9024         1         0
      9040         1         0      9056         1         0      9072         1         0
      9088         1         0      9104         1         0      9120         1         0
      9136         1         0      9152         1         0      9168         1         0
      9184         1         0      9200         1         0      9216         1         0
      9232         1         0      9248         1         0      9264         1         0
      9280         1         0      9296         1         0      9312         1         0
      9328         1         0      9344         1         0      9360         1         0
      9376         1         0      9392         1         0      9408         1         0
      9424         1         0      9440         1         0      9456         1         0
      9472         1         0      9488         1         0      9504         1         0
      9520         1         0      9536         1         0      9552         1         0
      9568         1         0      9584         1         0      9600         1         0
      9616         1         0      9632         1         0      9648         1         0
      9664         1         0      9680         1         0      9696         1         0
      9712         1         0      9728         1         0      9744         1         0
      9760         1         0      9776         1         0      9792         1         0
      9808         1         0      9824         1         0      9840         1         0
      9856         1         0      9872         1         0      9888         1         0
      9904         1         0      9920         1         0      9936         1         0
      9952         1         0      9968         1         0      9984         1         0
     10000         1         0     10016         1         0     10032         1         0
     10048         1         0     10064         1         0     10080         1         0
     10096         1         0     10112         1         0     10128         1         0
     10144         1         0     10160         1         0     10176         1         0
     10192         1         0     10208         1         0     10224         1         0
     10240         1         0     10256         1         0     10272         1         0
     10288         1         0     10304         1         0     10320         1         0
     10336         1         0     10352         1         0     10368         1         0
     10384         1         0     10400         1         0     10416         1         0
     10432         1         0     10448         1         0     10464         1         0
     10480         1         0     10496         1         0     10512         1         0
     10528         1         0     10544         1         0     10560         1         0
     10576         1         0     10592         1         0     10608         1         0
     10624         1         0     10640         1         0     10656         1         0
     10672         1         0     10688         1         0     10704         1         0
     10720         1         0     10736         1         0     10752         1         0
     10768         1         0     10784         1         0     10800         1         0
     10816         1         0     10832         1         0     10848         1         0
     10864         1         0     10880         1         0     10896         1         0
     10912         1         0     10928         1         0     10944         1         0
     10960         1         0     10976         1         0     10992         1         0
     11008         1         0     11024         1         0     11040         1         0
     11056         1         0     11072         1         0     11088         1         0
     11104         1         0     11120         1         0     11136         1         0
     11152         1         0     11168         1         0     11184         1         0
     11200         1         0     11216         1         0     11232         1         0
     11248         1         0     11264         1         0     11280         1         0
     11296         1         0     11312         1         0     11328         1         0
     11344         1         0     11360         1         0     11376         1         0
     11392         1         0     11408         1         0     11424         1         0
     11440         1         0     11456         1         0     11472         1         0
     11488         1         0     11504         1         0     11520         1         0
     11536         1         0     11552         1         0     11568         1         0
     11584         1         0     11600         1         0     11616         1         0
     11632         1         0     11648         1         0     11664         1         0
     11680         1         0     11696         1         0     11712         1         0
     11728         1         0     11744         1         0     11760         1         0
     11776         1         0     11792         1         0     11808         1         0
     11824         1         0     11840         1         0     11856         1         0
     11872         1         0     11888         1         0     11904         1         0
     11920         1         0     11936         1         0     11952         1         0
     11968         1         0     11984         1         0     12000         1         0
     12016         1         0     12032         1         0     12048         1         0
     12064         1         0     12080         1         0     12096         1         0
     12112         1         0     12128         1         0     12144         1         0
     12160         1         0     12176         1         0     12192         1         0
     12208         1         0     12224         1         0     12240         2         0
     12325         2         0     12410         2         0     12495         2         0
     12580         2         0     12665         2         0     12750         2         0
     12835         2         0     12920         2         0     13005         2         0
     13090         2         0     13175         2         0     13260         2         0
     13345         2         0     13430         2         0     13515         2         0
     13600         2         0     13685         2         0     13770         1         0
     13781         1         0     13792         1         0     13803         1         0
     13814         1         0     13825         1         0     13836         1         0
     13847         1         0     13858         1         0     13869         1         0
     13880         1         0     13891         1         0     13902         1         0
     13913         1         0     13924         1         0     13935         1         0
     13946         1         0     13957         1         0     13968         1         0
     13979         1         0     13990         1         0     14001         1         0
     14012         1         0     14023         1         0     14034         1         0
     14045         1         0     14056         1         0     14067         1         0
     14078         1         0     14089         1         0     14100         1         0
     14111         1         0     14122         1         0     14133         1         0
     14144         1         0     14155         1         0     14166         1         0
     14177         1         0     14188         1         0     14199         1         0
     14210         1         0     14221         1         0     14232         1         0
     14243         1         0     14254         1         0     14265         1         0
     14276         1         0     14287         1         0     14298         1         0
     14309         1         0     14320         1         0     14331         1         0
     14342         1         0     14353         1         0     14364         1         0
     14375         1         0     14386         1         0     14397         1         0
     14408         1         0     14419         1         0     14430         1         0
     14441         1         0     14452         1         0     14463         1         0
     14474         1         0     14485         1         0     14496         1         0
     14507         1         0     14518         1         0     14529         1         0
     14540         1         0     14551         1         0     14562         1         0
     14573         1         0     14584         1         0     14595         1         0
     14606         1         0     14617         1         0     14628         1         0
     14639         1         0     14650         1         0     14661         1         0
     14672         1         0     14683         1         0     14694         1         0
     14705         1         0     14716         1         0     14727         1         0
     14738         1         0     14749         1         0     14760         1         0
     14771         1         0     14782         1         0     14793         1         0
     14804         1         0     14815         1         0     14826         1         0
     14837         1         0     14848         1         0     14859         1         0
     14870         1         0     14881         1         0     14892         1         0
     14903         1         0     14914         1         0     14925         1         0
     14936         1         0     14947         1         0     14958         1         0
     14969         1         0     14980         1         0     14991         1         0
     15002         1         0     15013         1         0     15024         1         0
     15035         1         0     15046         1         0     15057         1         0
     15068         1         0     15079         1         0     15090         1         0
     15101         1         0     15112         1         0     15123         1         0
     15134         1         0     15145         1         0     15156         1         0
     15167         1         0     15178         1         0     15189         1         0
     15200         1         0     15211         1         0     15222         1         0
     15233         1         0     15244         1         0     15255         1         0
     15266         1         0     15277         1         0     15288         1         0
     15299         1         0     15310         1         0     15321         1         0
     15332         1         0     15343         1         0     15354         1         0
     15365         1         0     15376         1         0     15387         1         0
     15398         1         0     15409         1         0     15420         1         0
     15431         1         0     15442         1         0     15453         1         0
     15464         1         0     15475         1         0     15486         1         0
     15497         1         0     15508         1         0     15519         1         0
     15530         1         0     15541         1         0     15552         1         0
     15563         1         0     15574         1         0     15585         1         0
     15596         1         0     15607         1         0     15618         1         0
     15629         1         0     15640         1         0     15651         1         0
     15662         1         0     15673         1         0     15684         1         0
     15695         1         0     15706         1         0     15717         1         0
     15728         1         0     15739         1         0     15750         1         0
     15761         1         0     15772         1         0     15783         1         0
     15794         1         0     15805         1         0     15816         1         0
     15827         1         0     15838         1         0     15849         1         0
     15860         1         0     15871         1         0     15882         1         0
     15893         1         0     15904         1         0     15915         1         0
     15926         1         0     15937         1         0     15948         1         0
     15959         1         0     15970         1         0     15981         1         0
     15992         1         0     16003         1         0     16014         1         0
     16025         1         0     16036         1         0     16047         1         0
     16058         1         0     16069         1         0     16080         1         0
     16091         1         0     16102         1         0     16113         1         0
     16124         1         0     16135         1         0     16146         1         0
     16157         1         0     16168         1         0     16179         1         0
     16190         1         0     16201         1         0     16212         1         0
     16223         1         0     16234         1         0     16245         1         0
     16256         1         0     16267         1         0     16278         1         0
     16289         1         0     16300         1         0     16311         1         0
     16322         1         0     16333         1         0     16344         1         0
     16355         1         0     16366         1         0     16377         1         0
     16388         1         0     16399         1         0     16410         1         0
     16421         1         0     16432         1         0     16443         1         0
     16454         1         0     16465         1         0     16476         1         0
     16487         1         0     16498         1         0     16509         1         0
     16520         1         0     16531         1         0     16542         1         0
     16553         1         0     16564         1         0     16575         1         0
     16586         1         0     16597         1         0     16608         1         0
     16619         1         0     16630         1         0     16641         1         0
     16652         1         0     16663         1         0     16674         1         0
     16685         1         0     16696         1         0     16707         1         0
     16718         1         0     16729         1         0     16740         1         0
     16751         1         0     16762         1         0     16773         1         0
     16784         1         0     16795         1         0     16806         1         0
     16817         1         0     16828         1         0     16839         1         0
     16850         1         0     16861         1         0     16872         1         0
     16883         1         0     16894         1         0     16905         1         0
     16916         1         0     16927         1         0     16938         1         0
     16949         1         0     16960         1         0     16971         1         0
     16982         1         0     16993         1         0     17004         1         0
     17015         1         0     17026         1         0     17037         1         0
     17048         1         0     17059         1         0     17070         1         0
     17081         1         0     17092         1         0     17103         1         0
     17114         1         0     17125         1         0     17136         1         0
     17147         1         0     17158         1         0     17169         1         0
     17180         1         0     17191         1         0     17202         1         0
     17213         1         0     17224         1         0     17235         1         0
     17246         1         0     17257         1         0     17268         1         0
     17279         1         0     17290         1         0     17301         1         0
     17312         1         0     17323         1         0     17334         1         0
     17345         1         0     17356         1         0     17367         1         0
     17378         1         0     17389         1         0     17400         1         0
     17411         1         0     17422         1         0     17433         1         0
     17444         1         0     17455         1         0     17466         1         0
     17477         1         0     17488         1         0     17499         1         0
     17510         1         0     17521         1         0     17532         1         0
     17543         1         0     17554         1         0     17565         1         0
     17576         1         0     17587         1         0     17598         1         0
     17609         1         0     17620         1         0     17631         1         0
     17642         1         0     17653         1         0     17664         1         0
     17675         1         0     17686         1         0     17697         1         0
     17708         1         0     17719         1         0     17730         1         0
     17741         1         0     17752         1         0     17763         1         0
     17774         1         0     17785         1         0     17796         1         0
     17807         1         0     17818         1         0     17829         1         0
     17840         1         0     17851         1         0     17862         1         0
     17873         1         0     17884         1         0     17895         1         0
     17906         1         0     17917         1         0     17928         1         0
     17939         1         0     17950         1         0     17961         1         0
     17972         1         0     17983         1         0     17994         1         0
     18005         1         0     18016         1         0     18027         1         0
     18038         1         0     18049         1         0     18060         1         0
     18071         1         0     18082         1         0     18093         1         0
     18104         1         0     18115         1         0     18126         1         0
     18137         1         0     18148         1         0     18159         1         0
     18170         1         0     18181         1         0     18192         1         0
     18203         1         0     18214         1         0     18225         1         0
     18236         1         0     18247         1         0     18258         1         0
     18269         1         0     18280         1         0     18291         1         0
     18302         1         0     18313         1         0     18324         1         0
     18335         1         0     18346         1         0     18357         1         0
     18368         1         0     18379         1         0     18390         1         0
     18401         1         0     18412         1         0     18423         1         0
     18434         1         0     18445         1         0     18456         1         0
     18467         1         0     18478         1         0     18489         1         0
     18500         1         0     18511         1         0     18522         1         0
     18533         1         0     18544         1         0     18555         1         0
     18566         1         0     18577         1         0     18588         1         0
     18599         1         0     18610         1         0     18621         1         0
     18632         1         0     18643         1         0     18654         1         0
     18665         1         0     18676         1         0     18687         1         0
     18698         1         0     18709         1         0     18720         1         0
     18731         1         0     18742         1         0     18753         1         0
     18764         1         0     18775         1         0     18786         1         0
     18797         1         0     18808         1         0     18819         1         0
     18830         1         0     18841         1         0     18852         1         0
     18863         1         0     18874         1         0     18885         1         0
     18896         1         0     18907         1         0     18918         1         0
     18929         1         0     18940         1         0     18951         1         0
     18962         1         0     18973         1         0     18984         1         0
     18995         1         0     19006         1         0     19017         1         0
     19028         1         0     19039         1         0     19050         1         0
     19061         1         0     19072         1         0     19083         1         0
     19094         1         0     19105         1         0     19116         1         0
     19127         1         0     19138         1         0     19149         1         0
     19160         1         0     19171         1         0     19182         1         0
     19193         1         0     19204         1         0     19215         1         0
     19226         1         0     19237         1         0     19248         1         0
     19259         1         0     19270         1         0     19281         1         0
     19292         1         0     19303         1         0     19314         1         0
     19325         1         0     19336         1         0     19347         1         0
     19358         1         0     19369         1         0     19380         1         0
     19391         1         0     19402         1         0     19413         1         0
     19424         1         0     19435         1         0     19446         1         0
     19457         1         0     19468         1         0     19479         1         0
     19490         1         0     19501         1         0     19512         1         0
     19523         1         0     19534         1         0     19545         1         0
     19556         1         0     19567         1         0     19578         1         0
     19589         1         0     19600         1         0     19611         1         0
     19622         1         0     19633         1         0     19644         1         0
     19655         1         0     19666         1         0     19677         1         0
     19688         1         0     19699         1         0     19710         1         0
     19721         1         0     19732         1         0     19743         1         0
     19754         1         0     19765         1         0     19776         1         0
     19787         1         0     19798         1         0     19809         1         0
     19820         1         0     19831         1         0     19842         1         0
     19853         1         0     19864         1         0     19875         1         0
     19886         1         0     19897         1         0     19908         1         0
     19919         1         0     19930         1         0     19941         1         0
     19952         1         0     19963         1         0     19974         1         0
     19985         1         0     19996         1         0     20007         1         0
     20018         1         0     20029         1         0     20040         1         0
     20051         1         0     20062         1         0     20073         1         0
     20084         1         0     20095         1         0     20106         1         0
     20117         1         0     20128         1         0     20139         1         0
     20150         1         0     20161         1         0     20172         1         0
     20183         1         0     20194         1         0     20205         1         0
     20216         1         0     20227         1         0     20238         1         0
     20249         1         0     20260         1         0     20271         1         0
     20282         1         0     20293         1         0     20304         1         0
     20315         1         0     20326         1         0     20337         1         0
     20348         1         0     20359         1         0     20370         1         0
     20381         1         0     20392         1         0     20403         1         0
     20414         1         0     20425         1         0     20436         1         0
     20447         1         0     20458         1         0     20469         1         0
     20480         1         0     20491         1         0     20502         1         0
     20513         1         0     20524         1         0     20535         1         0
     20546         1         0     20557         1         0     20568         1         0
     20579         1         0     20590         1         0     20601         1         0
     20612         1         0     20623         1         0     20634         1         0
     20645         1         0     20656         1         0     20667         1         0
     20678         1         0     20689         1         0     20700         1         0
     20711         1         0     20722         1         0     20733         1         0
     20744         1         0     20755         1         0     20766         1         0
     20777         1         0     20788         1         0     20799         1         0
     20810         1         0     20821         1         0     20832         1         0
     20843         1         0     20854         1         0     20865         1         0
     20876         1         0     20887         1         0     20898         1         0
     20909         1         0     20920         1         0     20931         1         0
     20942         1         0     20953         1         0     20964         1         0
     20975         1         0     20986         1         0     20997         1         0
     21008         1         0     21019         1         0     21030         1         0
     21041         1         0     21052         1         0     21063         1         0
     21074         1         0     21085         1         0     21096         1         0
     21107         1         0     21118         1         0     21129         1         0
     21140         1         0     21151         1         0     21162         1         0
     21173         1         0     21184         1         0     21195         1         0
     21206         1         0     21217         1         0     21228         1         0
     21239         1         0     21250         1         0     21261         1         0
     21272         1         0     21283         1         0     21294         1         0
     21305         1         0     21316         1         0     21327         1         0
     21338         1         0     21349         1         0     21360         1         0
     21371         1         0     21382         1         0     21393         1         0
     21404         1         0     21415         1         0     21426         1         0
     21437         1         0     21448         1         0     21459         1         0
     21470         1         0     21481         1         0     21492         1         0
     21503         1         0     21514         1         0     21525         1         0
     21536         1         0     21547         1         0     21558         1         0
     21569         1         0     21580         1         0     21591         1         0
     21602         1         0     21613         1         0     21624         1         0
     21635         1         0     21646         1         0     21657         1         0
     21668         1         0     21679         1         0     21690         1         0
     21701         1         0     21712         1         0     21723         1         0
     21734         1         0     21745         1         0     21756         1         0
     21767         1         0     21778         1         0     21789         1         0
     21800         1         0     21811         1         0     21822         1         0
     21833         1         0     21844         1         0     21855         1         0
     21866         1         0     21877         1         0     21888         1         0
     21899         1         0     21910         1         0     21921         1         0
     21932         1         0     21943         1         0     21954         1         0
     21965         1         0     21976         1         0     21987         1         0
     21998         1         0     22009         1         0     22020         1         0
     22031         1         0     22042         1         0     22053         1         0
     22064         1         0     22075         1         0     22086         1         0
     22097         1         0     22108         1         0     22119         1         0
     22130         1         0     22141         1         0     22152         1         0
     22163         1         0     22174         1         0     22185         1         0
     22196         1         0     22207         1         0     22218         1         0
     22229         1         0     22240         1         0     22251         1         0
     22262         1         0     22273         1         0     22284         1         0
     22295         1         0     22306         1         0     22317         1         0
     22328         1         0     22339         1         0     22350         1         0
     22361         1         0     22372         1         0     22383         1         0
     22394         1         0     22405         1         0     22416         1         0
     22427         1         0     22438         1         0     22449         1         0
     22460         1         0     22471         1         0     22482         1         0
     22493         1         0     22504         1         0     22515         1         0
     22526         1         0     22537         1         0     22548         1         0
     22559         1         0     22570         1         0     22581         1         0
     22592         1         0     22603         1         0     22614         1         0
     22625         1         0     22636         1         0     22647         1         0
     22658         1         0     22669         1         0     22680         1         0
     22691         1         0     22702         1         0     22713         1         0
     22724         1         0     22735         1         0     22746         1         0
     22757         1         0     22768         1         0     22779         1         0
     22790         1         0     22801         1         0     22812         1         0
     22823         1         0     22834         1         0     22845         1         0
     22856         1         0     22867         1         0     22878         1         0
     22889         1         0     22900         1         0     22911         1         0
     22922         1         0     22933         1         0     22944         1         0
     22955         1         0     22966         1         0     22977         1         0
     22988         1         0     22999         1         0     23010         1         0
     23021         1         0     23032         1         0     23043         1         0
     23054         1         0     23065         1         0     23076         1         0
     23087         1         0     23098         1         0     23109         1         0
     23120         1         0     23131         1         0     23142         1         0
     23153         1         0     23164         1         0     23175         1         0
     23186         1         0     23197         1         0     23208         1         0
     23219         1         0     23230         1         0     23241         1         0
     23252         1         0     23263         1         0     23274         1         0
     23285         1         0     23296         1         0     23307         1         0
     23318         1         0     23329         1         0     23340         1         0
     23351         1         0     23362         1         0     23373         1         0
     23384         1         0     23395         1         0     23406         1         0
     23417         1         0     23428         1         0     23439         1         0
     23450         1         0     23461         1         0     23472         1         0
     23483         1         0     23494         1         0     23505         1         0
     23516         1         0     23527         1         0     23538         1         0
     23549         1         0     23560         1         0     23571         1         0
     23582         1         0     23593         1         0     23604         1         0
     23615         1         0     23626         1         0     23637         1         0
     23648         1         0     23659         1         0     23670         1         0
     23681         1         0     23692         1         0     23703         1         0
     23714         1         0     23725         1         0     23736         1         0
     23747         1         0     23758         1         0     23769         1         0
     23780         1         0     23791         1         0     23802         1         0
     23813         1         0     23824         1         0     23835         1         0
     23846         1         0     23857         1         0     23868         1         0
     23879         1         0     23890         1         0     23901         1         0
     23912         1         0     23923         1         0     23934         1         0
     23945         1         0     23956         1         0     23967         1         0
     23978         1         0     23989         1         0     24000         1         0
     24011         1         0     24022         1         0     24033         1         0
     24044         1         0     24055         1         0     24066         1         0
     24077         1         0     24088         1         0     24099         1         0
     24110         1         0     24121         1         0     24132         1         0
     24143         1         0     24154         1         0     24165         1         0
     24176         1         0     24187         1         0     24198         1         0
     24209         1         0     24220         1         0     24231         1         0
     24242         1         0     24253         1         0     24264         1         0
     24275         1         0     24286         1         0     24297         1         0
     24308         1         0     24319         1         0     24330         1         0
     24341         1         0     24352         1         0     24363         1         0
     24374         1         0     24385         1         0     24396         1         0
     24407         1         0     24418         1         0     24429         1         0
     24440         1         0     24451         1         0     24462         1         0
     24473         1         0     24484         1         0     24495         1         0
     24506         1         0     24517         1         0     24528         1         0
     24539         1         0     24550         1         0     24561         1         0
     24572         1         0     24583         1         0     24594         1         0
     24605         1         0     24616         1         0     24627         1         0
     24638         1         0     24649         1         0     24660         1         0
     24671         1         0     24682         1         0     24693         1         0
     24704         1         0     24715         1         0     24726         1         0
     24737         1         0     24748         1         0     24759         1         0
     24770         1         0     24781         1         0     24792         1         0
     24803         1         0     24814         1         0     24825         1         0
     24836         1         0     24847         1         0     24858         1         0
     24869         1         0     24880         1         0     24891         1         0
     24902         1         0     24913         1         0     24924         1         0
     24935         1         0     24946         1         0     24957         1         0
     24968         1         0     24979         1         0     24990         1         0
     25001         1         0     25012         1         0     25023         1         0
     25034         1         0     25045         1         0     25056         1         0
     25067         1         0     25078         1         0     25089         1         0
     25100         1         0     25111         1         0     25122         1         0
     25133         1         0     25144         1         0     25155         1         0
     25166         1         0     25177         1         0     25188         1         0
     25199         1         0     25210         1         0     25221         1         0
     25232         1         0     25243         1         0     25254         1         0
     25265         1         0     25276         1         0     25287         1         0
     25298         1         0     25309         1         0     25320         1         0
     25331         1         0     25342         1         0     25353         1         0
     25364         1         0     25375         1         0     25386         1         0
     25397         1         0     25408         1         0     25419         1         0
     25430         1         0     25441         1         0     25452         1         0
     25463         1         0     25474         1         0     25485         1         0
     25496         1         0     25507         1         0     25518         1         0
     25529         1         0     25540         1         0     25551         1         0
     25562         1         0     25573         1         0     25584         1         0
     25595         1         0     25606         1         0     25617         1         0
     25628         1         0     25639         1         0     25650         1         0
     25661         1         0     25672         1         0     25683         1         0
     25694         1         0     25705         1         0     25716         1         0
     25727         1         0     25738         1         0     25749         1         0
     25760         1         0     25771         1         0     25782         1         0
     25793         1         0     25804         1         0     25815         1         0
     25826         1         0     25837         1         0     25848         1         0
     25859         1         0     25870         1         0     25881         1         0
     25892         1         0     25903         1         0     25914         1         0
     25925         1         0     25936         1         0     25947         1         0
     25958         1         0     25969         1         0     25980         1         0
     25991         1         0     26002         1         0     26013         1         0
     26024         1         0     26035         1         0     26046         1         0
     26057         1         0     26068         1         0     26079         1         0
     26090         1         0     26101         1         0     26112         1         0
     26123         1         0     26134         1         0     26145         1         0
     26156         1         0     26167         1         0     26178         1         0
     26189         1         0     26200         1         0     26211         1         0
     26222         1         0     26233         1         0     26244         1         0
     26255         1         0     26266         1         0     26277         1         0
     26288         1         0     26299         1         0     26310         1         0
     26321         1         0     26332         1         0     26343         1         0
     26354         1         0     26365         1         0     26376         1         0
     26387         1         0     26398         1         0     26409         1         0
     26420         1         0     26431         1         0     26442         1         0
     26453         1         0     26464         1         0     26475         1         0
     26486         1         0     26497         1         0     26508         1         0
     26519         1         0     26530         1         0     26541         1         0
     26552         1         0     26563         1         0     26574         1         0
     26585         1         0     26596         1         0     26607         1         0
     26618         1         0     26629         1         0     26640         1         0
     26651         1         0     26662         1         0     26673         1         0
     26684         1         0     26695         1         0     26706         1         0
     26717         1         0     26728         1         0     26739         1         0
     26750         1         0     26761         1         0     26772         1         0
     26783         1         0     26794         1         0     26805         1         0
     26816         1         0     26827         1         0     26838         1         0
     26849         1         0     26860         1         0     26871         1         0
     26882         1         0     26893         1         0     26904         1         0
     26915         1         0     26926         1         0     26937         1         0
     26948         1         0     26959         1         0     26970         1         0
     26981         1         0     26992         1         0     27003         1         0
     27014         1         0     27025         1         0     27036         1         0
     27047         1         0     27058         1         0     27069         1         0
     27080         1         0     27091         1         0     27102         1         0
     27113         1         0     27124         1         0     27135         1         0
     27146         1         0     27157         1         0     27168         1         0
     27179         1         0     27190         1         0     27201         1         0
     27212         1         0     27223         1         0     27234         1         0
     27245         1         0     27256         1         0     27267         1         0
     27278         1         0     27289         1         0     27300         1         0
     27311         1         0     27322         1         0     27333         1         0
     27344         1         0     27355         1         0     27366         1         0
     27377         1         0     27388         1         0     27399         1         0
     27410         1         0     27421         1         0     27432         1         0
     27443         1         0     27454         1         0     27465         1         0
     27476         1         0     27487         1         0     27498         1         0
     27509         1         0     27520         1         0     27531         1         0
     27542         1         0     27553         1         0     27564         1         0
     27575         1         0     27586         1         0     27597         1         0
     27608         1         0     27619         1         0     27630         1         0
     27641         1         0     27652         1         0     27663         1         0
     27674         1         0     27685         1         0     27696         1         0
     27707         1         0     27718         1         0     27729         1         0
     27740         1         0     27751         1         0     27762         1         0
     27773         1         0     27784         1         0     27795         1         0
     27806         1         0     27817         1         0     27828         1         0
     27839         1         0     27850         1         0     27861         1         0
     27872         1         0     27883         1         0     27894         1         0
     27905         1         0     27916         1         0     27927         1         0
     27938         1         0     27949         1         0     27960         1         0
     27971         1         0     27982         1         0     27993         1         0
     28004         1         0     28015         1         0     28026         1         0
     28037         1         0     28048         1         0     28059         1         0
     28070         1         0     28081         1         0     28092         1         0
     28103         1         0     28114         1         0     28125         1         0
     28136         1         0     28147         1         0     28158         1         0
     28169         1         0     28180         1         0     28191         1         0
     28202         1         0     28213         1         0     28224         1         0
     28235         1         0     28246         1         0     28257         1         0
     28268         1         0     28279         1         0     28290         1         0
     28301         1         0     28312         1         0     28323         1         0
     28334         1         0     28345         1         0     28356         1         0
     28367         1         0     28378         1         0     28389         1         0
     28400         1         0     28411         1         0     28422         1         0
     28433         1         0     28444         1         0     28455         1         0
     28466         1         0     28477         1         0     28488         1         0
     28499         1         0     28510         1         0     28521         1         0
     28532         1         0     28543         1         0     28554         1         0
     28565         1         0     28576         1         0     28587         1         0
     28598         1         0     28609         1         0     28620         1         0
     28631         1         0     28642         1         0     28653         1         0
     28664         1         0     28675         1         0     28686         1         0
     28697         1         0     28708         1         0     28719         1         0
     28730         1         0     28741         1         0     28752         1         0
     28763         1         0     28774         1         0     28785         1         0
     28796         1         0     28807         1         0     28818         1         0
     28829         1         0     28840         1         0     28851         1         0
     28862         1         0     28873         1         0     28884         1         0
     28895         1         0     28906         1         0     28917         1         0
     28928         1         0     28939         1         0     28950         1         0
     28961         1         0     28972         1         0     28983         1         0
     28994         1         0     29005         1         0     29016         1         0
     29027         1         0     29038         1         0     29049         1         0
     29060         1         0     29071         1         0     29082         1         0
     29093         1         0     29104         1         0     29115         1         0
     29126         1         0     29137         1         0     29148         1         0
     29159         1         0     29170         1         0     29181         1         0
     29192         1         0     29203         1         0     29214         1         0
     29225         1         0     29236         1         0     29247         1         0
     29258         1         0     29269         1         0     29280         1         0
     29291         1         0     29302         1         0     29313         1         0
     29324         1         0     29335         1         0     29346         1         0
     29357         1         0     29368         1         0     29379         1         0
     29390         1         0     29401         1         0     29412         1         0
     29423         1         0     29434         1         0     29445         1         0
     29456         1         0     29467         1         0     29478         1         0
     29489         1         0     29500         1         0     29511         1         0
     29522         1         0     29533         1         0     29544         1         0
     29555         1         0     29566         1         0     29577         1         0
     29588         1         0     29599         1         0     29610         1         0
     29621         1         0     29632         1         0     29643         1         0
     29654         1         0     29665         1         0     29676         1         0
     29687         1         0     29698         1         0     29709         1         0
     29720         1         0     29731         1         0     29742         1         0
     29753         1         0     29764         1         0     29775         1         0
     29786         1         0     29797         1         0     29808         1         0
     29819         1         0     29830         1         0     29841         1         0
     29852         1         0     29863         1         0     29874         1         0
     29885         1         0     29896         1         0     29907         1         0
     29918         1         0     29929         1         0     29940         1         0
     29951         1         0     29962         1         0     29973         1         0
     29984         1         0     29995         1         0     30006         1         0
     30017         1         0     30028         1         0     30039         1         0
     30050         1         0     30061         1         0     30072         1         0
     30083         1         0     30094         1         0     30105         1         0
     30116         1         0     30127         1         0     30138         1         0
     30149         1         0     30160         1         0     30171         1         0
     30182         1         0     30193         1         0     30204         1         0
     30215         1         0     30226         1         0     30237         1         0
     30248         1         0     30259         1         0     30270         1         0
     30281         1         0     30292         1         0     30303         1         0
     30314         1         0     30325         1         0     30336         1         0
     30347         1         0     30358         1         0     30369         1         0
     30380         1         0     30391         1         0     30402         1         0
     30413         1         0     30424         1         0     30435         1         0
     30446         1         0     30457         1         0     30468         1         0
     30479         1         0     30490         1         0     30501         1         0
     30512         1         0     30523         1         0     30534         1         0
     30545         1         0     30556         1         0     30567         1         0
     30578         1         0     30589         1         0     30600         1         0
     30611         1         0     30622         1         0     30633         1         0
     30644         1         0     30655         1         0     30666         1         0
     30677         1         0     30688         1         0     30699         1         0
     30710         1         0     30721         1         0     30732         1         0
     30743         1         0     30754         1         0     30765         1         0
     30776         1         0     30787         1         0     30798         1         0
     30809         1         0     30820         1         0     30831         1         0
     30842         1         0     30853         1         0     30864         1         0
     30875         1         0     30886         1         0     30897         1         0
     30908         1         0     30919         1         0     30930         1         0
     30941         1         0     30952         1         0     30963         1         0
     30974         1         0     30985         1         0     30996         1         0
     31007         1         0     31018         1         0     31029         1         0
     31040         1         0     31051         1         0     31062         1         0
     31073         1         0     31084         1         0     31095         1         0
     31106         1         0     31117         1         0     31128         1         0
     31139         1         0     31150         1         0     31161         1         0
     31172         1         0     31183         1         0     31194         1         0
     31205         1         0     31216         1         0     31227         1         0
     31238         1         0     31249         1         0     31260         1         0
     31271         1         0     31282         1         0     31293         1         0
     31304         1         0     31315         1         0     31326         1         0
     31337         1         0     31348         1         0     31359         1         0
     31370         1         0     31381         1         0     31392         1         0
     31403         1         0     31414         1         0     31425         1         0
     31436         1         0     31447         1         0     31458         1         0
     31469         1         0     31480         1         0     31491         1         0
     31502         1         0     31513         1         0     31524         1         0
     31535         1         0     31546         1         0     31557         1         0
     31568         1         0     31579         1         0     31590         1         0
     31601         1         0     31612         1         0     31623         1         0
     31634         1         0     31645         1         0     31656         1         0
     31667         1         0     31678         1         0     31689         1         0
     31700         1         0     31711         1         0     31722         1         0
     31733         1         0     31744         1         0     31755         1         0
     31766         1         0     31777         1         0     31788         1         0
     31799         1         0     31810         1         0     31821         1         0
     31832         1         0     31843         1         0     31854         1         0
     31865         1         0     31876         1         0     31887         1         0
     31898         1         0     31909         1         0     31920         1         0
     31931         1         0     31942         1         0     31953         1         0
     31964         1         0     31975         1         0     31986         1         0
     31997         1         0     32008         1         0     32019         1         0
     32030         1         0     32041         1         0     32052         1         0
     32063         1         0     32074         1         0     32085         1         0
     32096         1         0     32107         1         0     32118         1         0
     32129         1         0     32140         1         0     32151         1         0
     32162         1         0     32173         1         0     32184         1         0
     32195         1         0     32206         1         0     32217         1         0
     32228         1         0     32239         1         0     32250         1         0
     32261         1         0     32272         1         0     32283         1         0
     32294         1         0     32305         1         0     32316         1         0
     32327         1         0     32338         1         0     32349         1         0
     32360         1         0     32371         1         0     32382         1         0
     32393         1         0     32404         1         0     32415         1         0
     32426         1         0     32437         1         0     32448         1         0
     32459         1         0     32470         1         0     32481         1         0
     32492         1         0     32503         1         0     32514         1         0
     32525         1         0     32536         1         0     32547         1         0
     32558         1         0     32569         1         0     32580         1         0
     32591         1         0     32602         1         0     32613         1         0
     32624         1         0     32635         1         0     32646         1         0
     32657         1         0     32668         1         0     32679         1         0
     32690         1         0     32701         1         0     32712         1         0
     32723         1         0     32734         1         0     32745         1         0
     32756         1         0     32767         1         0     32778         1         0
     32789         1         0     32800         1         0     32811         1         0
     32822         1         0     32833         1         0     32844         1         0
     32855         1         0     32866         1         0     32877         1         0
     32888         1         0     32899         1         0     32910         1         0
     32921         1         0     32932         1         0     32943         1         0
     32954         1         0     32965         1         0     32976         1         0
     32987         1         0     32998         1         0     33009         1         0
     33020         1         0     33031         1         0     33042         1         0
     33053         1         0     33064         1         0     33075         1         0
     33086         1         0     33097         1         0     33108         1         0
     33119         1         0     33130         1         0     33141         1         0
     33152         1         0     33163         1         0     33174         1         0
     33185         1         0     33196         1         0     33207         1         0
     33218         1         0     33229         1         0     33240         1         0
     33251         1         0     33262         1         0     33273         1         0
     33284         1         0     33295         1         0     33306         1         0
     33317         1         0     33328         1         0     33339         1         0
     33350         1         0     33361         1         0     33372         1         0
     33383         1         0     33394         1         0     33405         1         0
     33416         1         0     33427         1         0     33438         1         0
     33449         1         0     33460         1         0     33471         1         0
     33482         1         0     33493         1         0     33504         1         0
     33515         1         0     33526         1         0     33537         1         0
     33548         1         0     33559         1         0     33570         1         0
     33581         1         0     33592         1         0     33603         1         0
     33614         1         0     33625         1         0     33636         1         0
     33647         1         0     33658         1         0     33669         1         0
     33680         1         0     33691         1         0     33702         1         0
     33713         1         0     33724         1         0     33735         1         0
     33746         1         0     33757         1         0     33768         1         0
     33779         1         0     33790         1         0     33801         1         0
     33812         1         0     33823         1         0     33834         1         0
     33845         1         0     33856         1         0     33867         1         0
     33878         1         0     33889         1         0     33900         1         0
     33911         1         0     33922         1         0     33933         1         0
     33944         1         0     33955         1         0     33966         1         0
     33977         1         0     33988         1         0     33999         1         0
     34010         1         0     34021         1         0     34032         1         0
     34043         1         0     34054         1         0     34065         1         0
     34076         1         0     34087         1         0     34098         1         0
     34109         1         0     34120         1         0     34131         1         0
     34142         1         0     34153         1         0     34164         1         0
     34175         1         0     34186         1         0     34197         1         0
     34208         1         0     34219         1         0     34230         1         0
     34241         1         0     34252         1         0     34263         1         0
     34274         1         0     34285         1         0     34296         1         0
     34307         1         0     34318         1         0     34329         1         0
     34340         1         0     34351         1         0     34362         1         0
     34373         1         0     34384         1         0     34395         1         0
     34406         1         0     34417         1         0     34428         1         0
     34439         1         0     34450         1         0     34461         1         0
     34472         1         0     34483         1         0     34494         1         0
     34505         1         0     34516         1         0     34527         1         0
     34538         1         0     34549         1         0     34560         1         0
     34571         1         0     34582         1         0     34593         1         0
     34604         1         0     34615         1         0     34626         1         0
     34637         1         0     34648         1         0     34659         1         0
     34670         1         0     34681         1         0     34692         1         0
     34703         1         0     34714         1         0     34725         1         0
     34736         1         0     34747         1         0     34758         1         0
     34769         1         0     34780         1         0     34791         1         0
     34802         1         0     34813         1         0     34824         1         0
     34835         1         0     34846         1         0     34857         1         0
     34868         1         0     34879         1         0     34890         1         0
     34901         1         0     34912         1         0     34923         1         0
     34934         1         0     34945         1         0     34956         1         0
     34967         1         0     34978         1         0     34989         1         0
     35000         1         0     35011         1         0     35022         1         0
     35033         1         0     35044         1         0     35055         1         0
     35066         1         0     35077         1         0     35088         1         0
     35099         1         0     35110         1         0     35121         1         0
     35132         1         0     35143         1         0     35154         1         0
     35165         1         0     35176         1         0     35187         1         0
     35198         1         0     35209         1         0     35220         1         0
     35231         1         0     35242         1         0     35253         1         0
     35264         1         0     35275         1         0     35286         1         0
     35297         1         0     35308         1         0     35319         1         0
     35330         1         0     35341         1         0     35352         1         0
     35363         1         0     35374         1         0     35385         1         0
     35396         1         0     35407         1         0     35418         1         0
     35429         1         0     35440         1         0     35451         1         0
     35462         1         0     35473         1         0     35484         1         0
     35495         1         0     35506         1         0     35517         1         0
     35528         1         0     35539         1         0     35550         1         0
     35561         1         0     35572         1         0     35583         1         0
     35594         1         0     35605         1         0     35616         1         0
     35627         1         0     35638         1         0     35649         1         0
     35660         1         0     35671         1         0     35682         1         0
     35693         1         0     35704         1         0     35715         1         0
     35726         1         0     35737         1         0     35748         1         0
     35759         1         0     35770         1         0     35781         1         0
     35792         1         0     35803         1         0     35814         1         0
     35825         1         0     35836         1         0     35847         1         0
     35858         1         0     35869         1         0     35880         1         0
     35891         1         0     35902         1         0     35913         1         0
     35924         1         0     35935         1         0     35946         1         0
     35957         1         0     35968         1         0     35979         1         0
     35990         1         0     36001         1         0     36012         1         0
     36023         1         0     36034         1         0     36045         1         0
     36056         1         0     36067         1         0     36078         1         0
     36089         1         0     36100         1         0     36111         1         0
     36122         1         0     36133         1         0     36144         1         0
     36155         1         0     36166         1         0     36177         1         0
     36188         1         0     36199         1         0     36210         1         0
     36221         1         0     36232         1         0     36243         1         0
     36254         1         0     36265         1         0     36276         1         0
     36287         1         0     36298         1         0     36309         1         0
     36320         1         0     36331         1         0     36342         1         0
     36353         1         0     36364         1         0     36375         1         0
     36386         1         0     36397         1         0     36408         1         0
     36419         1         0     36430         1         0     36441         1         0
     36452         1         0     36463         1         0     36474         1         0
     36485         1         0     36496         1         0     36507         1         0
     36518         1         0     36529         1         0     36540         1         0
     36551         1         0     36562         1         0     36573         1         0
     36584         1         0     36595         1         0     36606         1         0
     36617         1         0     36628         1         0     36639         1         0
     36650         1         0     36661         1         0     36672         1         0
     36683         1         0     36694         1         0     36705         1         0
     36716         1         0     36727         1         0     36738         1         0
     36749         1         0     36760         1         0     36771         1         0
     36782         1         0     36793         1         0     36804         1         0
     36815         1         0     36826         1         0     36837         1         0
     36848         1         0     36859         1         0     36870         1         0
     36881         1         0     36892         1         0     36903         1         0
     36914         1         0     36925         1         0     36936         1         0
     36947         1         0     36958         1         0     36969         1         0
     36980         1         0     36991         1         0     37002         1         0
     37013         1         0     37024         1         0     37035         1         0
     37046         1         0     37057         1         0     37068         1         0
     37079         1         0     37090         1         0     37101         1         0
     37112         1         0     37123         1         0     37134         1         0
     37145         1         0     37156         1         0     37167         1         0
     37178         1         0     37189         1         0     37200         1         0
     37211         1         0     37222         1         0     37233         1         0
     37244         1         0     37255         1         0     37266         1         0
     37277         1         0     37288         1         0     37299         1         0
     37310         1         0     37321         1         0     37332         1         0
     37343         1         0     37354         1         0     37365         1         0
     37376         1         0     37387         1         0     37398         1         0
     37409         1         0     37420         1         0     37431         1         0
     37442         1         0     37453         1         0     37464         1         0
     37475         1         0     37486         1         0     37497         1         0
     37508         1         0     37519         1         0     37530         1         0
     37541         1         0     37552         1         0     37563         1         0
     37574         1         0     37585         1         0     37596         1         0
     37607         1         0     37618         1         0     37629         1         0
     37640         1         0     37651         1         0     37662         1         0
     37673         1         0     37684         1         0     37695         1         0
     37706         1         0     37717         1         0     37728         1         0
     37739         1         0     37750         1         0     37761         1         0
     37772         1         0     37783         1         0     37794         1         0
     37805         1         0     37816         1         0     37827         1         0
     37838         1         0     37849         1         0     37860         1         0
     37871         1         0     37882         1         0     37893         1         0
     37904         1         0     37915         1         0     37926         1         0
     37937         1         0     37948         1         0     37959         1         0
     37970         1         0     37981         1         0     37992         1         0
     38003         1         0     38014         1         0     38025         1         0
     38036         1         0     38047         1         0     38058         1         0
     38069         1         0     38080         1         0     38091         1         0
     38102         1         0     38113         1         0     38124         1         0
     38135         1         0     38146         1         0     38157         1         0
     38168         1         0     38179         1         0     38190         1         0
     38201         1         0     38212         1         0     38223         1         0
     38234         1         0     38245         1         0     38256         1         0
     38267         1         0     38278         1         0     38289         1         0
     38300         1         0     38311         1         0     38322         1         0
     38333         1         0     38344         1         0     38355         1         0
     38366         1         0     38377         1         0     38388         1         0
     38399         1         0     38410         1         0     38421         1         0
     38432         1         0     38443         1         0     38454         1         0
     38465         1         0     38476         1         0     38487         1         0
     38498         1         0     38509         1         0     38520         1         0
     38531         1         0     38542         1         0     38553         1         0
     38564         1         0     38575         1         0     38586         1         0
     38597         1         0     38608         1         0     38619         1         0
     38630         1         0     38641         1         0     38652         1         0
     38663         1         0     38674         1         0     38685         1         0
     38696         1         0     38707         1         0     38718         1         0
     38729         1         0     38740         1         0     38751         1         0
     38762         1         0     38773         1         0     38784         1         0
     38795         1         0     38806         1         0     38817         1         0
     38828         1         0     38839         1         0     38850         1         0
     38861         1         0     38872         1         0     38883         1         0
     38894         1         0     38905         1         0     38916         1         0
     38927         1         0     38938         1         0     38949         1         0
     38960         1         0     38971         1         0     38982         1         0
     38993         1         0     39004         1         0     39015         1         0
     39026         1         0     39037         1         0     39048         1         0
     39059         1         0     39070         1         0     39081         1         0
     39092         1         0     39103         1         0     39114         1         0
     39125         1         0     39136         1         0     39147         1         0
     39158         1         0     39169         1         0     39180         1         0
     39191         1         0     39202         1         0     39213         1         0
     39224         1         0     39235         1         0     39246         1         0
     39257         1         0     39268         1         0     39279         1         0
     39290         1         0     39301         1         0     39312         1         0
     39323         1         0     39334         1         0     39345         1         0
     39356         1         0     39367         1         0     39378         1         0
     39389         1         0     39400         1         0     39411         1         0
     39422         1         0     39433         1         0     39444         1         0
     39455         1         0     39466         1         0     39477         1         0
     39488         1         0     39499         1         0     39510         1         0
     39521         1         0     39532         1         0     39543         1         0
     39554         1         0     39565         1         0     39576         1         0
     39587         1         0     39598         1         0     39609         1         0
     39620         1         0     39631         1         0     39642         1         0
     39653         1         0     39664         1         0     39675         1         0
     39686         1         0     39697         1         0     39708         1         0
     39719         1         0     39730         1         0     39741         1         0
     39752         1         0     39763         1         0     39774         1         0
     39785         1         0     39796         1         0     39807         1         0
     39818         1         0     39829         1         0     39840         1         0
     39851         1         0     39862         1         0     39873         1         0
     39884         1         0     39895         1         0     39906         1         0
     39917         1         0     39928         1         0     39939         1         0
     39950         1         0     39961         1         0     39972         1         0
     39983         1         0     39994         1         0     40005         1         0
     40016         1         0     40027         1         0     40038         1         0
     40049         1         0     40060         1         0     40071         1         0
     40082         1         0     40093         1         0     40104         1         0
     40115         1         0     40126         1         0     40137         1         0
     40148         1         0     40159         1         0     40170         1         0
     40181         1         0     40192         1         0     40203         1         0
     40214         1         0     40225         1         0     40236         1         0
     40247         1         0     40258         1         0     40269         1         0
     40280         1         0     40291         1         0     40302         1         0
     40313         1         0     40324         1         0     40335         1         0
     40346         1         0     40357         1         0     40368         1         0
     40379         1         0     40390         1         0     40401         1         0
     40412         1         0     40423         1         0     40434         1         0
     40445         1         0     40456         1         0     40467         1         0
     40478         1         0     40489         1         0     40500         1         0
     40511         1         0     40522         1         0     40533         1         0
     40544         1         0     40555         1         0     40566         1         0
     40577         1         0     40588         1         0     40599         1         0
     40610         1         0     40621         1         0     40632         1         0
     40643         1         0     40654         1         0     40665         1         0
     40676         1         0     40687         1         0     40698         1         0
     40709         1         0     40720         1         0     40731         1         0
     40742         1         0     40753         1         0     40764         1         0
     40775         1         0     40786         1         0     40797         1         0
     40808         1         0     40819         1         0     40830         1         0
     40841         1         0     40852         1         0     40863         1         0
     40874         1         0     40885         1         0     40896         1         0
     40907         1         0     40918         1         0     40929         1         0
     40940         1         0     40951         1         0     40962         1         0
     40973         1         0     40984         1         0     40995         1         0
     41006         1         0     41017         1         0     41028         1         0
     41039         1         0     41050         1         0     41061         1         0
     41072         1         0     41083         1         0     41094         1         0
     41105         1         0     41116         1         0     41127         1         0
     41138         1         0     41149         1         0     41160         1         0
     41171         1         0     41182         1         0     41193         1         0
     41204         1         0     41215         1         0     41226         1         0
     41237         1         0     41248         1         0     41259         1         0
     41270         1         0     41281         1         0     41292         1         0
     41303         1         0     41314         1         0     41325         1         0
     41336         1         0     41347         1         0     41358         1         0
     41369         1         0     41380         1         0     41391         1         0
     41402         1         0     41413         1         0     41424         1         0
     41435         1         0     41446         1         0     41457         1         0
     41468         1         0     41479         1         0     41490         1         0
     41501         1         0     41512         1         0     41523         1         0
     41534         1         0     41545         1         0     41556         1         0
     41567         1         0     41578         1         0     41589         1         0
     41600         1         0     41611         1         0     41622         1         0
     41633         1         0     41644         1         0     41655         1         0
     41666         1         0     41677         1         0     41688         1         0
     41699         1         0     41710         1         0     41721         1         0
     41732         1         0     41743         1         0     41754         1         0
     41765         1         0     41776         1         0     41787         1         0
     41798         1         0     41809         1         0     41820         1         0
     41831         1         0     41842         1         0     41853         1         0
     41864         1         0     41875         1         0     41886         1         0
     41897         1         0     41908         1         0     41919         1         0
     41930         1         0     41941         1         0     41952         1         0
     41963         1         0     41974         1         0     41985         1         0
     41996         1         0     42007         1         0     42018         1         0
     42029         1         0     42040         1         0     42051         1         0
     42062         1         0     42073         1         0     42084         1         0
     42095         1         0     42106         1         0     42117         1         0
     42128         1         0     42139         1         0     42150         1         0
     42161         1         0     42172         1         0     42183         1         0
     42194         1         0     42205         1         0     42216         1         0
     42227         1         0     42238         1         0     42249         1         0
     42260         1         0     42271         1         0     42282         1         0
     42293         1         0     42304         1         0     42315         1         0
     42326         1         0     42337         1         0     42348         1         0
     42359         1         0     42370         1         0     42381         1         0
     42392         1         0     42403         1         0     42414         1         0
     42425         1         0     42436         1         0     42447         1         0
     42458         1         0     42469         1         0     42480         1         0
     42491         1         0     42502         1         0     42513         1         0
     42524         1         0     42535         1         0     42546         1         0
     42557         1         0     42568         1         0     42579         1         0
     42590         1         0     42601         1         0     42612         1         0
     42623         1         0     42634         1         0     42645         1         0
     42656         1         0     42667         1         0     42678         1         0
     42689         1         0     42700         1         0     42711         1         0
     42722         1         0     42733         1         0     42744         1         0
     42755         1         0     42766         1         0     42777         1         0
     42788         1         0     42799         1         0     42810         1         0
     42821         1         0     42832         1         0     42843         1         0
     42854         1         0     42865         1         0     42876         1         0
     42887         1         0     42898         1         0     42909         1         0
     42920         1         0     42931         1         0     42942         1         0
     42953         1         0     42964         1         0     42975         1         0
     42986         1         0     42997         1         0     43008         1         0
     43019         1         0     43030         1         0     43041         1         0
     43052         1         0     43063         1         0     43074         1         0
     43085         1         0     43096         1         0     43107         1         0
     43118         1         0     43129         1         0     43140         1         0
     43151         1         0     43162         1         0     43173         1         0
     43184         1         0     43195         1         0     43206         1         0
     43217         1         0     43228         1         0     43239         1         0
     43250         1         0     43261         1         0     43272         1         0
     43283         1         0     43294         1         0     43305         1         0
     43316         1         0     43327         1         0     43338         1         0
     43349         1         0     43360         1         0     43371         1         0
     43382         1         0     43393         1         0     43404         1         0
     43415         1         0     43426         1         0     43437         1         0
     43448         1         0     43459         1         0     43470         1         0
     43481         1         0     43492         1         0     43503         1         0
     43514         1         0     43525         1         0     43536         1         0
     43547         1         0     43558         1         0     43569         1         0
     43580         1         0     43591         1         0     43602         1         0
     43613         1         0     43624         1         0     43635         1         0
     43646         1         0     43657         1         0     43668         1         0
     43679         1         0     43690         1         0     43701         1         0
     43712         1         0     43723         1         0     43734         1         0
     43745         1         0     43756         1         0     43767         1         0
     43778         1         0     43789         1         0     43800         1         0
     43811         1         0     43822         1         0     43833         1         0
     43844         1         0     43855         1         0     43866         1         0
     43877         1         0     43888         1         0     43899         1         0
     43910         1         0     43921         1         0     43932         1         0
     43943         1         0     43954         1         0     43965         1         0
     43976         1         0     43987         1         0     43998         1         0
     44009         1         0     44020         1         0     44031         1         0
     44042         1         0     44053         1         0     44064         1         0
     44075         1         0     44086         1         0     44097         1         0
     44108         1         0     44119         1         0     44130         1         0
     44141         1         0     44152         1         0     44163         1         0
     44174         1         0     44185         1         0     44196         1         0
     44207         1         0     44218         1         0     44229         1         0
     44240         1         0     44251         1         0     44262         1         0
     44273         1         0     44284         1         0     44295         1         0
     44306         1         0     44317         1         0     44328         1         0
     44339         1         0     44350         1         0     44361         1         0
     44372         1         0     44383         1         0     44394         1         0
     44405         1         0     44416         1         0     44427         1         0
     44438         1         0     44449         1         0     44460         1         0
     44471         1         0     44482         1         0     44493         1         0
     44504         1         0     44515         1         0     44526         1         0
     44537         1         0     44548         1         0     44559         1         0
     44570         1         0     44581         1         0     44592         1         0
     44603         1         0     44614         1         0     44625         1         0
     44636         1         0     44647         1         0     44658         1         0
     44669         1         0     44680         1         0     44691         1         0
     44702         1         0     44713         1         0     44724         1         0
     44735         1         0     44746         1         0     44757         1         0
     44768         1         0     44779         1         0     44790         1         0
     44801         1         0     44812         1         0     44823         1         0
     44834         1         0     44845         1         0     44856         1         0
     44867         1         0     44878         1         0     44889         1         0
     44900         1         0     44911         1         0     44922         1         0
     44933         1         0     44944         1         0     44955         1         0
     44966         1         0     44977         1         0     44988         1         0
     44999         1         0     45010         1         0     45021         1         0
     45032         1         0     45043         1         0     45054         1         0
     45065         1         0     45076         1         0     45087         1         0
     45098         1         0     45109         1         0     45120         1         0
     45131         1         0     45142         1         0     45153         1         0
     45164         1         0     45175         1         0     45186         1         0
     45197         1         0     45208         1         0     45219         1         0
     45230         1         0     45241         1         0     45252         1         0
     45263         1         0     45274         1         0     45285         1         0
     45296         1         0     45307         1         0     45318         1         0
     45329         1         0     45340         1         0     45351         1         0
     45362         1         0     45373         1         0     45384         1         0
     45395         1         0     45406         1         0     45417         1         0
     45428         1         0     45439         1         0     45450         1         0
     45461         1         0     45472         1         0     45483         1         0
     45494         1         0     45505         1         0     45516         1         0
     45527         1         0     45538         1         0     45549         1         0
     45560         1         0     45571         1         0     45582         1         0
     45593         1         0     45604         1         0     45615         1         0
     45626         1         0     45637         1         0     45648         1         0
     45659         1         0     45670         1         0     45681         1         0
     45692         1         0     45703         1         0     45714         1         0
     45725         1         0     45736         1         0     45747         1         0
     45758         1         0     45769         1         0     45780         1         0
     45791         1         0     45802         1         0     45813         1         0
     45824         1         0     45835         1         0     45846         1         0
     45857         1         0     45868         1         0     45879         1         0
     45890         1         0     45901         1         0     45912         1         0
     45923         1         0     45934         1         0     45945         1         0
     45956         1         0     45967         1         0     45978         1         0
     45989         1         0     46000         1         0     46011         1         0
     46022         1         0     46033         1         0     46044         1         0
     46055         1         0     46066         1         0     46077         1         0
     46088         1         0     46099         1         0     46110         1         0
     46121         1         0     46132         1         0     46143         1         0
     46154         1         0     46165         1         0     46176         1         0
     46187         1         0     46198         1         0     46209         1         0
     46220         1         0     46231         1         0     46242         1         0
     46253         1         0     46264         1         0     46275         1         0
     46286         1         0     46297         1         0     46308         1         0
     46319         1         0     46330         1         0     46341         1         0
     46352         1         0     46363         1         0     46374         1         0
     46385         1         0     46396         1         0     46407         1         0
     46418         1         0     46429         1         0     46440         1         0
     46451         1         0     46462         1         0     46473         1         0
     46484         1         0     46495         1         0     46506         1         0
     46517         1         0     46528         1         0     46539         1         0
     46550         1         0     46561         1         0     46572         1         0
     46583         1         0     46594         1         0     46605         1         0
     46616         1         0     46627         1         0     46638         1         0
     46649         1         0     46660         1         0     46671         1         0
     46682         1         0     46693         1         0     46704         1         0
     46715         1         0     46726         1         0     46737         1         0
     46748         1         0     46759         1         0     46770         1         0
     46781         1         0     46792         1         0     46803         1         0
     46814         1         0     46825         1         0     46836         1         0
     46847         1         0     46858         1         0     46869         1         0
     46880         1         0     46891         1         0     46902         1         0
     46913         1         0     46924         1         0     46935         1         0
     46946         1         0     46957         1         0     46968         1         0
     46979         1         0     46990         1         0     47001         1         0
     47012         1         0     47023         1         0     47034         1         0
     47045         1         0     47056         1         0     47067         1         0
     47078         1         0     47089         1         0     47100         1         0
     47111         1         0     47122         1         0     47133         1         0
     47144         1         0     47155         1         0     47166         1         0
     47177         1         0     47188         1         0     47199         1         0
     47210         1         0     47221         1         0     47232         1         0
     47243         1         0     47254         1         0     47265         1         0
     47276         1         0     47287         1         0     47298         1         0
     47309         1         0     47320         1         0     47331         1         0
     47342         1         0     47353         1         0     47364         1         0
     47375         1         0     47386         1         0     47397         1         0
     47408         1         0     47419         1         0     47430         1         0
     47441         1         0     47452         1         0     47463         1         0
     47474         1         0     47485         1         0     47496         1         0
     47507         1         0     47518         1         0     47529         1         0
     47540         1         0     47551         1         0     47562         1         0
     47573         1         0     47584         1         0     47595         1         0
     47606         1         0     47617         1         0     47628         1         0
     47639         1         0     47650         1         0     47661         1         0
     47672         1         0     47683         1         0     47694         1         0
     47705         1         0     47716         1         0     47727         1         0
     47738         1         0     47749         1         0     47760         1         0
     47771         1         0     47782         1         0     47793         1         0
     47804         1         0     47815         1         0     47826         1         0
     47837         1         0     47848         1         0     47859         1         0
     47870         1         0     47881         1         0     47892         1         0
     47903         1         0     47914         1         0     47925         1         0
     47936         1         0     47947         1         0     47958         1         0
     47969         1         0     47980         1         0     47991         1         0
     48002         1         0     48013         1         0     48024         1         0
     48035         1         0     48046         1         0     48057         1         0
     48068         1         0     48079         1         0     48090         1         0
     48101         1         0     48112         1         0     48123         1         0
     48134         1         0     48145         1         0     48156         1         0
     48167         1         0     48178         1         0     48189         1         0
     48200         1         0     48211         1         0     48222         1         0
     48233         1         0     48244         1         0     48255         1         0
     48266         1         0     48277         1         0     48288         1         0
     48299         1         0     48310         1         0     48321         1         0
     48332         1         0     48343         1         0     48354         1         0
     48365         1         0     48376         1         0     48387         1         0
     48398         1         0     48409         1         0     48420         1         0
     48431         1         0     48442         1         0     48453         1         0
     48464         1         0     48475         1         0     48486         1         0
     48497         1         0     48508         1         0     48519         1         0
     48530         1         0     48541         1         0     48552         1         0
     48563         1         0     48574         1         0     48585         1         0
     48596         1         0     48607         1         0     48618         1         0
     48629         1         0     48640         1         0     48651         1         0
     48662         1         0     48673         1         0     48684         1         0
     48695         1         0     48706         1         0     48717         1         0
     48728         1         0     48739         1         0     48750         1         0
     48761         1         0     48772         1         0     48783         1         0
     48794         1         0     48805         1         0     48816         1         0
     48827         1         0     48838         1         0     48849         1         0
     48860         1         0     48871         1         0     48882         1         0
     48893         1         0     48904         1         0     48915         1         0
     48926         1         0     48937         1         0     48948         1         0
     48959         1         0     48970         1         0     48981         1         0
     48992         1         0     49003         1         0     49014         1         0
     49025         1         0     49036         1         0     49047         1         0
     49058         1         0     49069         1         0     49080         1         0
     49091         1         0     49102         1         0     49113         1         0
     49124         1         0     49135         1         0     49146         1         0
     49157         1         0     49168         1         0     49179         1         0
     49190         1         0     49201         1         0     49212         1         0
     49223         1         0     49234         1         0     49245         1         0
     49256         1         0     49267         1         0     49278         1         0
     49289         1         0     49300         1         0     49311         1         0
     49322         1         0     49333         1         0     49344         1         0
     49355         1         0     49366         1         0     49377         1         0
     49388         1         0     49399         1         0     49410         1         0
     49421         1         0     49432         1         0     49443         1         0
     49454         1         0     49465         1         0     49476         1         0
     49487         1         0     49498         1         0     49509         1         0
     49520         1         0     49531         1         0     49542         1         0
     49553         1         0     49564         1         0     49575         1         0
     49586         1         0     49597         1         0     49608         1         0
     49619         1         0     49630         1         0     49641         1         0
     49652         1         0     49663         1         0     49674         1         0
     49685         1         0     49696         1         0     49707         1         0
     49718         1         0     49729         1         0     49740         1         0
     49751         1         0     49762         1         0     49773         1         0
     49784         1         0     49795         1         0     49806         1         0
     49817         1         0     49828         1         0     49839         1         0
     49850         1         0     49861         1         0     49872         1         0
     49883         1         0     49894         1         0     49905         1         0
     49916         1         0     49927         1         0     49938         1         0
     49949         1         0     49960         1         0     49971         1         0
     49982         1         0     49993         1         0     50004         1         0
     50015         1         0     50026         1         0     50037         1         0
     50048         1         0     50059         1         0     50070         1         0
     50081         1         0     50092         1         0     50103         1         0
     50114         1         0     50125         1         0     50136         1         0
     50147         1         0     50158         1         0     50169         1         0
     50180         1         0     50191         1         0     50202         1         0
     50213         1         0     50224         1         0     50235         1         0
     50246         1         0     50257         1         0     50268         1         0
     50279         1         0     50290         1         0     50301         1         0
     50312         1         0     50323         1         0     50334         1         0
     50345         1         0     50356         1         0     50367         1         0
     50378         1         0     50389         1         0     50400         1         0
     50411         1         0     50422         1         0     50433         1         0
     50444         1         0     50455         1         0     50466         1         0
     50477         1         0     50488         1         0     50499         1         0
     50510         1         0     50521         1         0     50532         1         0
     50543         1         0     50554         1         0     50565         1         0
     50576         1         0     50587         1         0     50598         1         0
     50609         1         0     50620         1         0     50631         1         0
     50642         1         0     50653         1         0     50664         1         0
     50675         1         0     50686         1         0     50697         1         0
     50708         1         0     50719         1         0     50730         1         0
     50741         1         0     50752         1         0     50763         1         0
     50774         1         0     50785         1         0     50796         1         0
     50807         1         0     50818         1         0     50829         1         0
     50840         1         0     50851         1         0     50862         1         0
     50873         1         0     50884         1         0     50895         1         0
     50906         1         0     50917         1         0     50928         1         0
     50939         1         0     50950         1         0     50961         1         0
     50972         1         0     50983         1         0     50994         1         0
     51005         1         0     51016         1         0     51027         1         0
     51038         1         0     51049         1         0     51060         1         0
     51071         1         0     51082         1         0     51093         1         0
     51104         1         0     51115         1         0     51126         1         0
     51137         1         0     51148         1         0     51159         1         0
     51170         1         0     51181         1         0     51192         1         0
     51203         1         0     51214         1         0     51225         1         0
     51236         1         0     51247         1         0     51258         1         0
     51269         1         0     51280         1         0     51291         1         0
     51302         1         0     51313         1         0     51324         1         0
     51335         1         0     51346         1         0     51357         1         0
     51368         1         0     51379         1         0     51390         1         0
     51401         1         0     51412         1         0     51423         1         0
     51434         1         0     51445         1         0     51456         1         0
     51467         1         0     51478         1         0     51489         1         0
     51500         1         0     51511         1         0     51522         1         0
     51533         1         0     51544         1         0     51555         1         0
     51566         1         0     51577         1         0     51588         1         0
     51599         1         0     51610         1         0     51621         1         0
     51632         1         0     51643         1         0     51654         1         0
     51665         1         0     51676         1         0     51687         1         0
     51698         1         0     51709         1         0     51720         1         0
     51731         1         0     51742         1         0     51753         1         0
     51764         1         0     51775         1         0     51786         1         0
     51797         1         0     51808         1         0     51819         1         0
     51830         1         0     51841         1         0     51852         1         0
     51863         1         0     51874         1         0     51885         1         0
     51896         1         0     51907         1         0     51918         1         0
     51929         1         0     51940         1         0     51951         1         0
     51962         1         0     51973         1         0     51984         1         0
     51995         1         0     52006         1         0     52017         1         0
     52028         1         0     52039         1         0     52050         1         0
     52061         1         0     52072         1         0     52083         1         0
     52094         1         0     52105         1         0     52116         1         0
     52127         1         0     52138         1         0     52149         1         0
     52160         1         0     52171         1         0     52182         1         0
     52193         1         0     52204         1         0     52215         1         0
     52226         1         0     52237         1         0     52248         1         0
     52259         1         0     52270         1         0     52281         1         0
     52292         1         0     52303         1         0     52314         1         0
     52325         1         0     52336         1         0     52347         1         0
     52358         1         0     52369         1         0     52380         1         0
     52391         1         0     52402         1         0     52413         1         0
     52424         1         0     52435         1         0     52446         1         0
     52457         1         0     52468         1         0     52479         1         0
     52490         1         0     52501         1         0     52512         1         0
     52523         1         0     52534         1         0     52545         1         0
     52556         1         0     52567         1         0     52578         1         0
     52589         1         0     52600         1         0     52611         1         0
     52622         1         0     52633         1         0     52644         1         0
     52655         1         0     52666         1         0     52677         1         0
     52688         1         0     52699         1         0     52710         1         0
     52721         1         0     52732         1         0     52743         1         0
     52754         1         0     52765         1         0     52776         1         0
     52787         1         0     52798         1         0     52809         1         0
     52820         1         0     52831         1         0     52842         1         0
     52853         1         0     52864         1         0     52875         1         0
     52886         1         0     52897         1         0     52908         1         0
     52919         1         0     52930         1         0     52941         1         0
     52952         1         0     52963         1         0     52974         1         0
     52985         1         0     52996         1         0     53007         1         0
     53018         1         0     53029         1         0     53040         1         0
     53051         1         0     53062         1         0     53073         1         0
     53084         1         0     53095         1         0     53106         1         0
     53117         1         0     53128         1         0     53139         1         0
     53150         1         0     53161         1         0     53172         1         0
     53183         1         0     53194         1         0     53205         1         0
     53216         1         0     53227         1         0     53238         1         0
     53249         1         0     53260         1         0     53271         1         0
     53282         1         0     53293         1         0     53304         1         0
     53315         1         0     53326         1         0     53337         1         0
     53348         1         0     53359         1         0     53370         1         0
     53381         1         0     53392         1         0     53403         1         0
     53414         1         0     53425         1         0     53436         1         0
     53447         1         0     53458         1         0     53469         1         0
     53480         1         0     53491         1         0     53502         1         0
     53513         1         0     53524         1         0     53535         1         0
     53546         1         0     53557         1         0     53568         1         0
     53579         1         0     53590         1         0     53601         1         0
     53612         1         0     53623         1         0     53634         1         0
     53645         1         0     53656         1         0     53667         1         0
     53678         1         0     53689         1         0     53700         1         0
     53711         1         0     53722         1         0     53733         1         0
     53744         1         0     53755         1         0     53766         1         0
     53777         1         0     53788         1         0     53799         1         0
     53810         1         0     53821         1         0     53832         1         0
     53843         1         0     53854         1         0     53865         1         0
     53876         1         0     53887         1         0     53898         1         0
     53909         1         0     53920         1         0     53931         1         0
     53942         1         0     53953         1         0     53964         1         0
     53975         1         0     53986         1         0     53997         1         0
     54008         1         0     54019         1         0     54030         1         0
     54041         1         0     54052         1         0     54063         1         0
     54074         1         0     54085         1         0     54096         1         0
     54107         1         0     54118         1         0     54129         1         0
     54140         1         0     54151         1         0     54162         1         0
     54173         1         0     54184         1         0     54195         1         0
     54206         1         0     54217         1         0     54228         1         0
     54239         1         0     54250         1         0     54261         1         0
     54272         1         0     54283         1         0     54294         1         0
     54305         1         0     54316         1         0     54327         1         0
     54338         1         0     54349         1         0     54360         1         0
     54371         1         0     54382         1         0     54393         1         0
     54404         1         0     54415         1         0     54426         1         0
     54437         1         0     54448         1         0     54459         1         0
     54470         1         0     54481         1         0     54492         1         0
     54503         1         0     54514         1         0     54525         1         0
     54536         1         0     54547         1         0     54558         1         0
     54569         1         0     54580         1         0     54591         1         0
     54602         1         0     54613         1         0     54624         1         0
     54635         1         0     54646         1         0     54657         1         0
     54668         1         0     54679         1         0     54690         1         0
     54701         1         0     54712         1         0     54723         1         0
     54734         1         0     54745         1         0     54756         1         0
     54767         1         0     54778         1         0     54789         1         0
     54800         1         0     54811         1         0     54822         1         0
     54833         1         0     54844         1         0     54855         1         0
     54866         1         0     54877         1         0     54888         1         0
     54899         1         0     54910         1         0     54921         1         0
     54932         1         0     54943         1         0     54954         1         0
     54965         1         0     54976         1         0     54987         1         0
     54998         1         0     55009         1         0     55020         1         0
     55031         1         0     55042         1         0     55053         1         0
     55064         1         0     55075         1         0     55086         1         0
     55097         1         0     55108         1         0     55119         1         0
     55130         1         0     55141         1         0     55152         1         0
     55163         1         0     55174         1         0

      4457 !MOLNT
         1         1         1         1         1         1         1         1
         1         1         1         1         1         1         1         1
         1         1         1         1         2         2         2         2
         2         2         2         2         2         2         2         2
         2         2         2         2         2         2         2         2
         3         3         3         3         3         3         3         3
         3         3         3         3         3         3         3         3
         3         3         3         3         4         4         4         4
         4         4         4         4         4         4         4         4
         4         4         4         4         4         4         4         4
         5         5         5         5         5         5         5         5
         5         5         5         5         5         5         5         5
         5         5         5         5         6         6         6         6
         6         6         6         6         6         6         6         6
         6         6         6         6         6         6         6         6
         7         7         7         7         7         7         7         7
         7         7         7         7         7         7         7         7
         7         7         7         7         8         8         8         8
         8         8         8         8         8         8         8         8
         8         8         8         8         8         8         8         8
         9         9         9         9         9         9         9         9
         9         9         9         9         9         9         9         9
         9         9         9         9        10        10        10        10
        10        10        10        10        10        10        10        10
        10        10        10        10        10        10        10        10
        11        11        11        11        11        11        11        11
        11        11        11        11        11        11        11        11
        11        11        11        11        12        12        12        12
        12        12        12        12        12        12        12        12
        12        12        12        12        12        12        12        12
        13        13        13        13        13        13        13        13
        13        13        13        13        13        13        13        13
        13        13        13        13        14        14        14        14
        14        14        14        14        14        14        14        14
        14        14        14        14        14        14        14        14
        15        15        15        15        15        15        15        15
        15        15        15        15        15        15        15        15
        15        15        15        15        16        16        16        16
        16        16        16        16        16        16        16        16
        16        16        16        16        16        16        16        16
        17        17        17        17        17        17        17        17
        17        17        17        17        17        17        17        17
        17        17        17        17        18        18        18        18
        18        18        18        18        18        18        18        18
        18        18        18        18        18        18        18        18
        19        19        19        19        19        19        19        19
        19        19        19        19        19        19        19        19
        19        19        19        19        20        20        20        20
        20        20        20        20        20        20        20        20
        20        20        20        20        20        20        20        20
        21        21        21        21        21        21        21        21
        21        21        21        21        21        21        21        21
        21        21        21        21        22        22        22        22
        22        22        22        22        22        22        22        22
        22        22        22        22        22        22        22        22
        23        23        23        23        23        23        23        23
        23        23        23        23        23        23        23        23
        23        23        23        23        24        24        24        24
        24        24        24        24        24        24        24        24
        24        24        24        24        24        24        24        24
        25        25        25        25        25        25        25        25
        25        25        25        25        25        25        25        25
        25        25        25        25        26        26        26        26
        26        26        26        26        26        26        26        26
        26        26        26        26        26        26        26        26
        27        27        27        27        27        27        27        27
        27        27        27        27        27        27        27        27
        27        27        27        27        28        28        28        28
        28        28        28        28        28        28        28        28
        28        28        28        28        28        28        28        28
        29        29        29        29        29        29        29        29
        29        29        29        29        29        29        29        29
        29        29        29        29        30        30        30        30
        30        30        30        30        30        30        30        30
        30        30        30        30        30        30        30        30
        31        31        31        31        31        31        31        31
        31        31        31        31        31        31        31        31
        31        31        31        31        32        32        32        32
        32        32        32        32        32        32        32        32
        32        32        32        32        32        32        32        32
        33        33        33        33        33        33        33        33
        33        33        33        33        33        33        33        33
        33        33        33        33        34        34        34        34
        34        34        34        34        34        34        34        34
        34        34        34        34        34        34        34        34
        35        35        35        35        35        35        35        35
        35        35        35        35        35        35        35        35
        35        35        35        35        36        36        36        36
        36        36        36        36        36        36        36        36
        36        36        36        36        36        36        36        36
        37        37        37        37        37        37        37        37
        37        37        37        37        37        37        37        37
        37        37        37        37        38        38        38        38
        38        38        38        38        38        38        38        38
        38        38        38        38        38        38        38        38
        39        39        39        39        39        39        39        39
        39        39        39        39        39        39        39        39
        39        39        39        39        40        40        40        40
        40        40        40        40        40        40        40        40
        40        40        40        40        40        40        40        40
        41        41        41        41        41        41        41        41
        41        41        41        41        41        41        41        41
        41        41        41        41        42        42        42        42
        42        42        42        42        42        42        42        42
        42        42        42        42        42        42        42        42
        43        43        43        43        43        43        43        43
        43        43        43        43        43        43        43        43
        43        43        43        43        44        44        44        44
        44        44        44        44        44        44        44        44
        44        44        44        44        44        44        44        44
        45        45        45        45        45        45        45        45
        45        45        45        45        45        45        45        45
        45        45        45        45        46        46        46        46
        46        46        46        46        46        46        46        46
        46        46        46        46        46        46        46        46
        47        47        47        47        47        47        47        47
        47        47        47        47        47        47        47        47
        47        47        47        47        48        48        48        48
        48        48        48        48        48        48        48        48
        48        48        48        48        48        48        48        48
        49        49        49        49        49        49        49        49
        49        49        49        49        49        49        49        49
        49        49        49        49        50        50        50        50
        50        50        50        50        50        50        50        50
        50        50        50        50        50        50        50        50
        51        51        51        51        51        51        51        51
        51        51        51        51        51        51        51        51
        51        51        51        51        52        52        52        52
        52        52        52        52        52        52        52        52
        52        52        52        52        52        52        52        52
        53        53        53        53        53        53        53        53
        53        53        53        53        53        53        53        53
        53        53        53        53        54        54        54        54
        54        54        54        54        54        54        54        54
        54        54        54        54        54        54        54        54
        55        55        55        55        55        55        55        55
        55        55        55        55        55        55        55        55
        55        55        55        55        56        56        56        56
        56        56        56        56        56        56        56        56
        56        56        56        56        56        56        56        56
        57        57        57        57        57        57        57        57
        57        57        57        57        57        57        57        57
        57        57        57        57        58        58        58        58
        58        58        58        58        58        58        58        58
        58        58        58        58        58        58        58        58
        59        59        59        59        59        59        59        59
        59        59        59        59        59        59        59        59
        59        59        59        59        60        60        60        60
        60        60        60        60        60        60        60        60
        60        60        60        60        60        60        60        60
        61        61        61        61        61        61        61        61
        61        61        61        61        61        61        61        61
        61        61        61        61        62        62        62        62
        62        62        62        62        62        62        62        62
        62        62        62        62        62        62        62        62
        63        63        63        63        63        63        63        63
        63        63        63        63        63        63        63        63
        63        63        63        63        64        64        64        64
        64        64        64        64        64        64        64        64
        64        64        64        64        64        64        64        64
        65        65        65        65        65        65        65        65
        65        65        65        65        65        65        65        65
        65        65        65        65        66        66        66        66
        66        66        66        66        66        66        66        66
        66        66        66        66        66        66        66        66
        67        67        67        67        67        67        67        67
        67        67        67        67        67        67        67        67
        67        67        67        67        68        68        68        68
        68        68        68        68        68        68        68        68
        68        68        68        68        68        68        68        68
        69        69        69        69        69        69        69        69
        69        69        69        69        69        69        69        69
        69        69        69        69        70        70        70        70
        70        70        70        70        70        70        70        70
        70        70        70        70        70        70        70        70
        71        71        71        71        71        71        71        71
        71        71        71        71        71        71        71        71
        71        71        71        71        72        72        72        72
        72        72        72        72        72        72        72        72
        72        72        72        72        72        72        72        72
        73        73        73        73        73        73        73        73
        73        73        73        73        73        73        73        73
        73        73        73        73        74        74        74        74
        74        74        74        74        74        74        74        74
        74        74        74        74        74        74        74        74
        75        75        75        75        75        75        75        75
        75        75        75        75        75        75        75        75
        75        75        75        75        76        76        76        76
        76        76        76        76        76        76        76        76
        76        76        76        76        76        76        76        76
        77        77        77        77        77        77        77        77
        77        77        77        77        77        77        77        77
        77        77        77        77        78        78        78        78
        78        78        78        78        78        78        78        78
        78        78        78        78        78        78        78        78
        79        79        79        79        79        79        79        79
        79        79        79        79        79        79        79        79
        79        79        79        79        80        80        80        80
        80        80        80        80        80        80        80        80
        80        80        80        80        80        80        80        80
        81        81        81        81        81        81        81        81
        81        81        81        81        81        81        81        81
        81        81        81        81        82        82        82        82
        82        82        82        82        82        82        82        82
        82        82        82        82        82        82        82        82
        83        83        83        83        83        83        83        83
        83        83        83        83        83        83        83        83
        83        83        83        83        84        84        84        84
        84        84        84        84        84        84        84        84
        84        84        84        84        84        84        84        84
        85        85        85        85        85        85        85        85
        85        85        85        85        85        85        85        85
        85        85        85        85        86        86        86        86
        86        86        86        86        86        86        86        86
        86        86        86        86        86        86        86        86
        87        87        87        87        87        87        87        87
        87        87        87        87        87        87        87        87
        87        87        87        87        88        88        88        88
        88        88        88        88        88        88        88        88
        88        88        88        88        88        88        88        88
        89        89        89        89        89        89        89        89
        89        89        89        89        89        89        89        89
        89        89        89        89        90        90        90        90
        90        90        90        90        90        90        90        90
        90        90        90        90        90        90        90        90
        91        91        91        91        91        91        91        91
        91        91        91        91        91        91        91        91
        91        91        91        91        92        92        92        92
        92        92        92        92        92        92        92        92
        92        92        92        92        92        92        92        92
        93        93        93        93        93        93        93        93
        93        93        93        93        93        93        93        93
        93        93        93        93        94        94        94        94
        94        94        94        94        94        94        94        94
        94        94        94        94        94        94        94        94
        95        95        95        95        95        95        95        95
        95        95        95        95        95        95        95        95
        95        95        95        95        96        96        96        96
        96        96        96        96        96        96        96        96
        96        96        96        96        96        96        96        96
        97        97        97        97        97        97        97        97
        97        97        97        97        97        97        97        97
        97        97        97        97        98        98        98        98
        98        98        98        98        98        98        98        98
        98        98        98        98        98        98        98        98
        99        99        99        99        99        99        99        99
        99        99        99        99        99        99        99        99
        99        99        99        99       100       100       100       100
       100       100       100       100       100       100       100       100
       100       100       100       100       100       100       100       100
       101       101       101       101       101       101       101       101
       101       101       101       101       101       101       101       101
       101       101       101       101       102       102       102       102
       102       102       102       102       102       102       102       102
       102       102       102       102       102       102       102       102
       103       103       103       103       103       103       103       103
       103       103       103       103       103       103       103       103
       103       103       103       103       104       104       104       104
       104       104       104       104       104       104       104       104
       104       104       104       104       104       104       104       104
       105       105       105       105       105       105       105       105
       105       105       105       105       105       105       105       105
       105       105       105       105       106       106       106       106
       106       106       106       106       106       106       106       106
       106       106       106       106       106       106       106       106
       107       107       107       107       107       107       107       107
       107       107       107       107       107       107       107       107
       107       107       107       107       108       108       108       108
       108       108       108       108       108       108       108       108
       108       108       108       108       108       108       108       108
       109       109       109       109       109       109       109       109
       109       109       109       109       109       109       109       109
       109       109       109       109       110       110       110       110
       110       110       110       110       110       110       110       110
       110       110       110       110       110       110       110       110
       111       111       111       111       111       111       111       111
       111       111       111       111       111       111       111       111
       111       111       111       111       112       112       112       112
       112       112       112       112       112       112       112       112
       112       112       112       112       112       112       112       112
       113       113       113       113       113       113       113       113
       113       113       113       113       113       113       113       113
       113       113       113       113       114       114       114       114
       114       114       114       114       114       114       114       114
       114       114       114       114       114       114       114       114
       115       115       115       115       115       115       115       115
       115       115       115       115       115       115       115       115
       115       115       115       115       116       116       116       116
       116       116       116       116       116       116       116       116
       116       116       116       116       116       116       116       116
       117       117       117       117       117       117       117       117
       117       117       117       117       117       117       117       117
       117       117       117       117       118       118       118       118
       118       118       118       118       118       118       118       118
       118       118       118       118       118       118       118       118
       119       119       119       119       119       119       119       119
       119       119       119       119       119       119       119       119
       119       119       119       119       120       120       120       120
       120       120       120       120       120       120       120       120
       120       120       120       120       120       120       120       120
       121       121       121       121       121       121       121       121
       121       121       121       121       121       121       121       121
       121       121       121       121       122       122       122       122
       122       122       122       122       122       122       122       122
       122       122       122       122       122       122       122       122
       123       123       123       123       123       123       123       123
       123       123       123       123       123       123       123       123
       123       123       123       123       124       124       124       124
       124       124       124       124       124       124       124       124
       124       124       124       124       124       124       124       124
       125       125       125       125       125       125       125       125
       125       125       125       125       125       125       125       125
       125       125       125       125       126       126       126       126
       126       126       126       126       126       126       126       126
       126       126       126       126       126       126       126       126
       127       127       127       127       127       127       127       127
       127       127       127       127       127       127       127       127
       127       127       127       127       128       128       128       128
       128       128       128       128       128       128       128       128
       128       128       128       128       128       128       128       128
       129       129       129       129       129       129       129       129
       129       129       129       129       129       129       129       129
       129       129       129       129       130       130       130       130
       130       130       130       130       130       130       130       130
       130       130       130       130       130       130       130       130
       131       131       131       131       131       131       131       131
       131       131       131       131       131       131       131       131
       131       131       131       131       132       132       132       132
       132       132       132       132       132       132       132       132
       132       132       132       132       132       132       132       132
       133       133       133       133       133       133       133       133
       133       133       133       133       133       133       133       133
       133       133       133       133       134       134       134       134
       134       134       134       134       134       134       134       134
       134       134       134       134       134       134       134       134
       135       135       135       135       135       135       135       135
       135       135       135       135       135       135       135       135
       135       135       135       135       136       136       136       136
       136       136       136       136       136       136       136       136
       136       136       136       136       136       136       136       136
       137       137       137       137       137       137       137       137
       137       137       137       137       137       137       137       137
       137       137       137       137       138       138       138       138
       138       138       138       138       138       138       138       138
       138       138       138       138       138       138       138       138
       139       139       139       139       139       139       139       139
       139       139       139       139       139       139       139       139
       139       139       139       139       140       140       140       140
       140       140       140       140       140       140       140       140
       140       140       140       140       140       140       140       140
       141       141       141       141       141       141       141       141
       141       141       141       141       141       141       141       141
       141       141       141       141       142       142       142       142
       142       142       142       142       142       142       142       142
       142       142       142       142       142       142       142       142
       143       143       143       143       143       143       143       143
       143       143       143       143       143       143       143       143
       143       143       143       143       144       144       144       144
       144       144       144       144       144       144       144       144
       144       144       144       144       144       144       144       144
       145       145       145       145       145       145       145       145
       145       145       145       145       145       145       145       145
       145       145       145       145       146       146       146       146
       146       146       146       146       146       146       146       146
       146       146       146       146       146       146       146       146
       147       147       147       147       147       147       147       147
       147       147       147       147       147       147       147       147
       147       147       147       147       148       148       148       148
       148       148       148       148       148       148       148       148
       148       148       148       148       149       149       149       149
       149       149       149       149       149       149       149       149
       149       149       149       149       150       150       150       150
       150       150       150       150       150       150       150       150
       150       150       150       150       151       151       151       151
       151       151       151       151       151       151       151       151
       151       151       151       151       152       152       152       152
       152       152       152       152       152       152       152       152
       152       152       152       152       153       153       153       153
       153       153       153       153       153       153       153       153
       153       153       153       153       154       154       154       154
       154       154       154       154       154       154       154       154
       154       154       154       154       155       155       155       155
       155       155       155       155       155       155       155       155
       155       155       155       155       156       156       156       156
       156       156       156       156       156       156       156       156
       156       156       156       156       157       157       157       157
       157       157       157       157       157       157       157       157
       157       157       157       157       158       158       158       158
       158       158       158       158       158       158       158       158
       158       158       158       158       159       159       159       159
       159       159       159       159       159       159       159       159
       159       159       159       159       160       160       160       160
       160       160       160       160       160       160       160       160
       160       160       160       160       161       161       161       161
       161       161       161       161       161       161       161       161
       161       161       161       161       162       162       162       162
       162       162       162       162       162       162       162       162
       162       162       162       162       163       163       163       163
       163       163       163       163       163       163       163       163
       163       163       163       163       164       164       164       164
       164       164       164       164       164       164       164       164
       164       164       164       164       165       165       165       165
       165       165       165       165       165       165       165       165
       165       165       165       165       166       166       166       166
       166       166       166       166       166       166       166       166
       166       166       166       166       167       167       167       167
       167       167       167       167       167       167       167       167
       167       167       167       167       168       168       168       168
       168       168       168       168       168       168       168       168
       168       168       168       168       169       169       169       169
       169       169       169       169       169       169       169       169
       169       169       169       169       170       170       170       170
       170       170       170       170       170       170       170       170
       170       170       170       170       171       171       171       171
       171       171       171       171       171       171       171       171
       171       171       171       171       172       172       172       172
       172       172       172       172       172       172       172       172
       172       172       172       172       173       173       173       173
       173       173       173       173       173       173       173       173
       173       173       173       173       174       174       174       174
       174       174       174       174       174       174       174       174
       174       174       174       174       175       175       175       175
       175       175       175       175       175       175       175       175
       175       175       175       175       176       176       176       176
       176       176       176       176       176       176       176       176
       176       176       176       176       177       177       177       177
       177       177       177       177       177       177       177       177
       177       177       177       177       178       178       178       178
       178       178       178       178       178       178       178       178
       178       178       178       178       179       179       179       179
       179       179       179       179       179       179       179       179
       179       179       179       179       180       180       180       180
       180       180       180       180       180       180       180       180
       180       180       180       180       181       181       181       181
       181       181       181       181       181       181       181       181
       181       181       181       181       182       182       182       182
       182       182       182       182       182       182       182       182
       182       182       182       182       183       183       183       183
       183       183       183       183       183       183       183       183
       183       183       183       183       184       184       184       184
       184       184       184       184       184       184       184       184
       184       184       184       184       185       185       185       185
       185       185       185       185       185       185       185       185
       185       185       185       185       186       186       186       186
       186       186       186       186       186       186       186       186
       186       186       186       186       187       187       187       187
       187       187       187       187       187       187       187       187
       187       187       187       187       188       188       188       188
       188       188       188       188       188       188       188       188
       188       188       188       188       189       189       189       189
       189       189       189       189       189       189       189       189
       189       189       189       189       190       190       190       190
       190       190       190       190       190       190       190       190
       190       190       190       190       191       191       191       191
       191       191       191       191       191       191       191       191
       191       191       191       191       192       192       192       192
       192       192       192       192       192       192       192       192
       192       192       192       192       193       193       193       193
       193       193       193       193       193       193       193       193
       193       193       193       193       194       194       194       194
       194       194       194       194       194       194       194       194
       194       194       194       194       195       195       195       195
       195       195       195       195       195       195       195       195
       195       195       195       195       196       196       196       196
       196       196       196       196       196       196       196       196
       196       196       196       196       197       197       197       197
       197       197       197       197       197       197       197       197
       197       197       197       197       198       198       198       198
       198       198       198       198       198       198       198       198
       198       198       198       198       199       199       199       199
       199       199       199       199       199       199       199       199
       199       199       199       199       200       200       200       200
       200       200       200       200       200       200       200       200
       200       200       200       200       201       201       201       201
       201       201       201       201       201       201       201       201
       201       201       201       201       202       202       202       202
       202       202       202       202       202       202       202       202
       202       202       202       202       203       203       203       203
       203       203       203       203       203       203       203       203
       203       203       203       203       204       204       204       204
       204       204       204       204       204       204       204       204
       204       204       204       204       205       205       205       205
       205       205       205       205       205       205       205       205
       205       205       205       205       206       206       206       206
       206       206       206       206       206       206       206       206
       206       206       206       206       207       207       207       207
       207       207       207       207       207       207       207       207
       207       207       207       207       208       208       208       208
       208       208       208       208       208       208       208       208
       208       208       208       208       209       209       209       209
       209       209       209       209       209       209       209       209
       209       209       209       209       210       210       210       210
       210       210       210       210       210       210       210       210
       210       210       210       210       211       211       211       211
       211       211       211       211       211       211       211       211
       211       211       211       211       212       212       212       212
       212       212       212       212       212       212       212       212
       212       212       212       212       213       213       213       213
       213       213       213       213       213       213       213       213
       213       213       213       213       214       214       214       214
       214       214       214       214       214       214       214       214
       214       214       214       214       215       215       215       215
       215       215       215       215       215       215       215       215
       215       215       215       215       216       216       216       216
       216       216       216       216       216       216       216       216
       216       216       216       216       217       217       217       217
       217       217       217       217       217       217       217       217
       217       217       217       217       218       218       218       218
       218       218       218       218       218       218       218       218
       218       218       218       218       219       219       219       219
       219       219       219       219       219       219       219       219
       219       219       219       219       220       220       220       220
       220       220       220       220       220       220       220       220
       220       220       220       220       221       221       221       221
       221       221       221       221       221       221       221       221
       221       221       221       221       222       222       222       222
       222       222       222       222       222       222       222       222
       222       222       222       222       223       223       223       223
       223       223       223       223       223       223       223       223
       223       223       223       223       224       224       224       224
       224       224       224       224       224       224       224       224
       224       224       224       224       225       225       225       225
       225       225       225       225       225       225       225       225
       225       225       225       225       226       226       226       226
       226       226       226       226       226       226       226       226
       226       226       226       226       227       227       227       227
       227       227       227       227       227       227       227       227
       227       227       227       227       228       228       228       228
       228       228       228       228       228       228       228       228
       228       228       228       228       229       229       229       229
       229       229       229       229       229       229       229       229
       229       229       229       229       230       230       230       230
       230       230       230       230       230       230       230       230
       230       230       230       230       231       231       231       231
       231       231       231       231       231       231       231       231
       231       231       231       231       232       232       232       232
       232       232       232       232       232       232       232       232
       232       232       232       232       233       233       233       233
       233       233       233       233       233       233       233       233
       233       233       233       233       234       234       234       234
       234       234       234       234       234       234       234       234
       234       234       234       234       235       235       235       235
       235       235       235       235       235       235       235       235
       235       235       235       235       236       236       236       236
       236       236       236       236       236       236       236       236
       236       236       236       236       237       237       237       237
       237       237       237       237       237       237       237       237
       237       237       237       237       238       238       238       238
       238       238       238       238       238       238       238       238
       238       238       238       238       239       239       239       239
       239       239       239       239       239       239       239       239
       239       239       239       239       240       240       240       240
       240       240       240       240       240       240       240       240
       240       240       240       240       241       241       241       241
       241       241       241       241       241       241       241       241
       241       241       241       241       241       241       241       241
       242       242       242       242       242       242       242       242
       242       242       242       242       242       242       242       242
       242       242       242       242       243       243       243       243
       243       243       243       243       243       243       243       243
       243       243       243       243       243       243       243       243
       244       244       244       244       244       244       244       244
       244       244       244       244       244       244       244       244
       244       244       244       244       245       245       245       245
       245       245       245       245       245       245       245       245
       245       245       245       245       245       245       245       245
       246       246       246       246       246       246       246       246
       246       246       246       246       246       246       246       246
       246       246       246       246       247       247       247       247
       247       247       247       247       247       247       247       247
       247       247       247       247       247       247       247       247
       248       248       248       248       248       248       248       248
       248       248       248       248       248       248       248       248
       248       248       248       248       249       249       249       249
       249       249       249       249       249       249       249       249
       249       249       249       249       249       249       249       249
       250       250       250       250       250       250       250       250
       250       250       250       250       250       250       250       250
       250       250       250       250       251       251       251       251
       251       251       251       251       251       251       251       251
       251       251       251       251       251       251       251       251
       252       252       252       252       252       252       252       252
       252       252       252       252       252       252       252       252
       252       252       252       252       253       253       253       253
       253       253       253       253       253       253       253       253
       253       253       253       253       253       253       253       253
       254       254       254       254       254       254       254       254
       254       254       254       254       254       254       254       254
       254       254       254       254       255       255       255       255
       255       255       255       255       255       255       255       255
       255       255       255       255       255       255       255       255
       256       256       256       256       256       256       256       256
       256       256       256       256       256       256       256       256
       256       256       256       256       257       257       257       257
       257       257       257       257       257       257       257       257
       257       257       257       257       257       257       257       257
       258       258       258       258       258       258       258       258
       258       258       258       258       258       258       258       258
       258       258       258       258       259       259       259       259
       259       259       259       259       259       259       259       259
       259       259       259       259       259       259       259       259
       260       260       260       260       260       260       260       260
       260       260       260       260       260       260       260       260
       260       260       260       260       261       261       261       261
       261       261       261       261       261       261       261       261
       261       261       261       261       261       261       261       261
       262       262       262       262       262       262       262       262
       262       262       262       262       262       262       262       262
       262       262       262       262       263       263       263       263
       263       263       263       263       263       263       263       263
       263       263       263       263       263       263       263       263
       264       264       264       264       264       264       264       264
       264       264       264       264       264       264       264       264
       264       264       264       264       265       265       265       265
       265       265       265       265       265       265       265       265
       265       265       265       265       265       265       265       265
       266       266       266       266       266       266       266       266
       266       266       266       266       266       266       266       266
       266       266       266       266       267       267       267       267
       267       267       267       267       267       267       267       267
       267       267       267       267       267       267       267       267
       268       268       268       268       268       268       268       268
       268       268       268       268       268       268       268       268
       268       268       268       268       269       269       269       269
       269       269       269       269       269       269       269       269
       269       269       269       269       269       269       269       269
       270       270       270       270       270       270       270       270
       270       270       270       270       270       270       270       270
       270       270       270       270       271       271       271       271
       271       271       271       271       271       271       271       271
       271       271       271       271       271       271       271       271
       272       272       272       272       272       272       272       272
       272       272       272       272       272       272       272       272
       272       272       272       272       273       273       273       273
       273       273       273       273       273       273       273       273
       273       273       273       273       273       273       273       273
       274       274       274       274       274       274       274       274
       274       274       274       274       274       274       274       274
       274       274       274       274       275       275       275       275
       275       275       275       275       275       275       275       275
       275       275       275       275       275       275       275       275
       276       276       276       276       276       276       276       276
       276       276       276       276       276       276       276       276
       276       276       276       276       277       277       277       277
       277       277       277       277       277       277       277       277
       277       277       277       277       277       277       277       277
       278       278       278       278       278       278       278       278
       278       278       278       278       278       278       278       278
       278       278       278       278       279       279       279       279
       279       279       279       279       279       279       279       279
       279       279       279       279       279       279       279       279
       280       280       280       280       280       280       280       280
       280       280       280       280       280       280       280       280
       280       280       280       280       281       281       281       281
       281       281       281       281       281       281       281       281
       281       281       281       281       281       281       281       281
       282       282       282       282       282       282       282       282
       282       282       282       282       282       282       282       282
       282       282       282       282       283       283       283       283
       283       283       283       283       283       283       283       283
       283       283       283       283       283       283       283       283
       284       284       284       284       284       284       284       284
       284       284       284       284       284       284       284       284
       284       284       284       284       285       285       285       285
       285       285       285       285       285       285       285       285
       285       285       285       285       285       285       285       285
       286       286       286       286       286       286       286       286
       286       286       286       286       286       286       286       286
       286       286       286       286       287       287       287       287
       287       287       287       287       287       287       287       287
       287       287       287       287       287       287       287       287
       288       288       288       288       288       288       288       288
       288       288       288       288       288       288       288       288
       288       288       288       288       289       289       289       289
       289       289       289       289       289       289       289       289
       289       289       289       289       289       289       289       289
       290       290       290       290       290       290       290       290
       290       290       290       290       290       290       290       290
       290       290       290       290       291       291       291       291
       291       291       291       291       291       291       291       291
       291       291       291       291       291       291       291       291
       292       292       292       292       292       292       292       292
       292       292       292       292       292       292       292       292
       292       292       292       292       293       293       293       293
       293       293       293       293       293       293       293       293
       293       293       293       293       293       293       293       293
       294       294       294       294       294       294       294       294
       294       294       294       294       294       294       294       294
       294       294       294       294       295       295       295       295
       295       295       295       295       295       295       295       295
       295       295       295       295       295       295       295       295
       296       296       296       296       296       296       296       296
       296       296       296       296       296       296       296       296
       296       296       296       296       297       297       297       297
       297       297       297       297       297       297       297       297
       297       297       297       297       297       297       297       297
       298       298       298       298       298       298       298       298
       298       298       298       298       298       298       298       298
       298       298       298       298       299       299       299       299
       299       299       299       299       299       299       299       299
       299       299       299       299       299       299       299       299
       300       300       300       300       300       300       300       300
       300       300       300       300       300       300       300       300
       300       300       300       300       301       301       301       301
       301       301       301       301       301       301       301       301
       301       301       301       301       301       301       301       301
       302       302       302       302       302       302       302       302
       302       302       302       302       302       302       302       302
       302       302       302       302       303       303       303       303
       303       303       303       303       303       303       303       303
       303       303       303       303       303       303       303       303
       304       304       304       304       304       304       304       304
       304       304       304       304       304       304       304       304
       304       304       304       304       305       305       305       305
       305       305       305       305       305       305       305       305
       305       305       305       305       305       305       305       305
       306       306       306       306       306       306       306       306
       306       306       306       306       306       306       306       306
       306       306       306       306       307       307       307       307
       307       307       307       307       307       307       307       307
       307       307       307       307       307       307       307       307
       308       308       308       308       308       308       308       308
       308       308       308       308       308       308       308       308
       308       308       308       308       309       309       309       309
       309       309       309       309       309       309       309       309
       309       309       309       309       309       309       309       309
       310       310       310       310       310       310       310       310
       310       310       310       310       310       310       310       310
       310       310       310       310       311       311       311       311
       311       311       311       311       311       311       311       311
       311       311       311       311       311       311       311       311
       312       312       312       312       312       312       312       312
       312       312       312       312       312       312       312       312
       312       312       312       312       313       313       313       313
       313       313       313       313       313       313       313       313
       313       313       313       313       313       313       313       313
       314       314       314       314       314       314       314       314
       314       314       314       314       314       314       314       314
       314       314       314       314       315       315       315       315
       315       315       315       315       315       315       315       315
       315       315       315       315       315       315       315       315
       316       316       316       316       316       316       316       316
       316       316       316       316       316       316       316       316
       316       316       316       316       317       317       317       317
       317       317       317       317       317       317       317       317
       317       317       317       317       317       317       317       317
       318       318       318       318       318       318       318       318
       318       318       318       318       318       318       318       318
       318       318       318       318       319       319       319       319
       319       319       319       319       319       319       319       319
       319       319       319       319       319       319       319       319
       320       320       320       320       320       320       320       320
       320       320       320       320       320       320       320       320
       320       320       320       320       321       321       321       321
       321       321       321       321       321       321       321       321
       321       321       321       321       321       321       321       321
       322       322       322       322       322       322       322       322
       322       322       322       322       322       322       322       322
       322       322       322       322       323       323       323       323
       323       323       323       323       323       323       323       323
       323       323       323       323       323       323       323       323
       324       324       324       324       324       324       324       324
       324       324       324       324       324       324       324       324
       324       324       324       324       325       325       325       325
       325       325       325       325       325       325       325       325
       325       325       325       325       325       325       325       325
       326       326       326       326       326       326       326       326
       326       326       326       326       326       326       326       326
       326       326       326       326       327       327       327       327
       327       327       327       327       327       327       327       327
       327       327       327       327       327       327       327       327
       328       328       328       328       328       328       328       328
       328       328       328       328       328       328       328       328
       328       328       328       328       329       329       329       329
       329       329       329       329       329       329       329       329
       329       329       329       329       329       329       329       329
       330       330       330       330       330       330       330       330
       330       330       330       330       330       330       330       330
       330       330       330       330       331       331       331       331
       331       331       331       331       331       331       331       331
       331       331       331       331       331       331       331       331
       332       332       332       332       332       332       332       332
       332       332       332       332       332       332       332       332
       332       332       332       332       333       333       333       333
       333       333       333       333       333       333       333       333
       333       333       333       333       333       333       333       333
       334       334       334       334       334       334       334       334
       334       334       334       334       334       334       334       334
       334       334       334       334       335       335       335       335
       335       335       335       335       335       335       335       335
       335       335       335       335       335       335       335       335
       336       336       336       336       336       336       336       336
       336       336       336       336       336       336       336       336
       336       336       336       336       337       337       337       337
       337       337       337       337       337       337       337       337
       337       337       337       337       337       337       337       337
       338       338       338       338       338       338       338       338
       338       338       338       338       338       338       338       338
       338       338       338       338       339       339       339       339
       339       339       339       339       339       339       339       339
       339       339       339       339       339       339       339       339
       340       340       340       340       340       340       340       340
       340       340       340       340       340       340       340       340
       340       340       340       340       341       341       341       341
       341       341       341       341       341       341       341       341
       341       341       341       341       341       341       341       341
       342       342       342       342       342       342       342       342
       342       342       342       342       342       342       342       342
       342       342       342       342       343       343       343       343
       343       343       343       343       343       343       343       343
       343       343       343       343       343       343       343       343
       344       344       344       344       344       344       344       344
       344       344       344       344       344       344       344       344
       344       344       344       344       345       345       345       345
       345       345       345       345       345       345       345       345
       345       345       345       345       345       345       345       345
       346       346       346       346       346       346       346       346
       346       346       346       346       346       346       346       346
       346       346       346       346       347       347       347       347
       347       347       347       347       347       347       347       347
       347       347       347       347       347       347       347       347
       348       348       348       348       348       348       348       348
       348       348       348       348       348       348       348       348
       348       348       348       348       349       349       349       349
       349       349       349       349       349       349       349       349
       349       349       349       349       349       349       349       349
       350       350       350       350       350       350       350       350
       350       350       350       350       350       350       350       350
       350       350       350       350       351       351       351       351
       351       351       351       351       351       351       351       351
       351       351       351       351       351       351       351       351
       352       352       352       352       352       352       352       352
       352       352       352       352       352       352       352       352
       352       352       352       352       353       353       353       353
       353       353       353       353       353       353       353       353
       353       353       353       353       353       353       353       353
       354       354       354       354       354       354       354       354
       354       354       354       354       354       354       354       354
       354       354       354       354       355       355       355       355
       355       355       355       355       355       355       355       355
       355       355       355       355       355       355       355       355
       356       356       356       356       356       356       356       356
       356       356       356       356       356       356       356       356
       356       356       356       356       357       357       357       357
       357       357       357       357       357       357       357       357
       357       357       357       357       357       357       357       357
       358       358       358       358       358       358       358       358
       358       358       358       358       358       358       358       358
       358       358       358       358       359       359       359       359
       359       359       359       359       359       359       359       359
       359       359       359       359       359       359       359       359
       360       360       360       360       360       360       360       360
       360       360       360       360       360       360       360       360
       360       360       360       360       361       361       361       361
       361       361       361       361       361       361       361       361
       361       361       361       361       361       361       361       361
       362       362       362       362       362       362       362       362
       362       362       362       362       362       362       362       362
       362       362       362       362       363       363       363       363
       363       363       363       363       363       363       363       363
       363       363       363       363       363       363       363       363
       364       364       364       364       364       364       364       364
       364       364       364       364       364       364       364       364
       364       364       364       364       365       365       365       365
       365       365       365       365       365       365       365       365
       365       365       365       365       365       365       365       365
       366       366       366       366       366       366       366       366
       366       366       366       366       366       366       366       366
       366       366       366       366       367       367       367       367
       367       367       367       367       367       367       367       367
       367       367       367       367       367       367       367       367
       368       368       368       368       368       368       368       368
       368       368       368       368       368       368       368       368
       368       368       368       368       369       369       369       369
       369       369       369       369       369       369       369       369
       369       369       369       369       369       369       369       369
       370       370       370       370       370       370       370       370
       370       370       370       370       370       370       370       370
       370       370       370       370       371       371       371       371
       371       371       371       371       371       371       371       371
       371       371       371       371       371       371       371       371
       372       372       372       372       372       372       372       372
       372       372       372       372       372       372       372       372
       372       372       372       372       373       373       373       373
       373       373       373       373       373       373       373       373
       373       373       373       373       373       373       373       373
       374       374       374       374       374       374       374       374
       374       374       374       374       374       374       374       374
       374       374       374       374       375       375       375       375
       375       375       375       375       375       375       375       375
       375       375       375       375       375       375       375       375
       376       376       376       376       376       376       376       376
       376       376       376       376       376       376       376       376
       376       376       376       376       377       377       377       377
       377       377       377       377       377       377       377       377
       377       377       377       377       377       377       377       377
       378       378       378       378       378       378       378       378
       378       378       378       378       378       378       378       378
       378       378       378       378       379       379       379       379
       379       379       379       379       379       379       379       379
       379       379       379       379       379       379       379       379
       380       380       380       380       380       380       380       380
       380       380       380       380       380       380       380       380
       380       380       380       380       381       381       381       381
       381       381       381       381       381       381       381       381
       381       381       381       381       381       381       381       381
       382       382       382       382       382       382       382       382
       382       382       382       382       382       382       382       382
       382       382       382       382       383       383       383       383
       383       383       383       383       383       383       383       383
       383       383       383       383       383       383       383       383
       384       384       384       384       384       384       384       384
       384       384       384       384       384       384       384       384
       384       384       384       384       385       385       385       385
       385       385       385       385       385       385       385       385
       385       385       385       385       385       385       385       385
       386       386       386       386       386       386       386       386
       386       386       386       386       386       386       386       386
       386       386       386       386       387       387       387       387
       387       387       387       387       387       387       387       387
       387       387       387       387       387       387       387       387
       388       388       388       388       388       388       388       388
       388       388       388       388       388       388       388       388
       388       388       388       388       389       389       389       389
       389       389       389       389       389       389       389       389
       389       389       389       389       389       389       389       389
       390       390       390       390       390       390       390       390
       390       390       390       390       390       390       390       390
       390       390       390       390       391       391       391       391
       391       391       391       391       391       391       391       391
       391       391       391       391       391       391       391       391
       392       392       392       392       392       392       392       392
       392       392       392       392       392       392       392       392
       392       392       392       392       393       393       393       393
       393       393       393       393       393       393       393       393
       393       393       393       393       393       393       393       393
       394       394       394       394       394       394       394       394
       394       394       394       394       394       394       394       394
       394       394       394       394       395       395       395       395
       395       395       395       395       395       395       395       395
       395       395       395       395       395       395       395       395
       396       396       396       396       396       396       396       396
       396       396       396       396       396       396       396       396
       396       396       396       396       397       397       397       397
       397       397       397       397       397       397       397       397
       397       397       397       397       397       397       397       397
       398       398       398       398       398       398       398       398
       398       398       398       398       398       398       398       398
       398       398       398       398       399       399       399       399
       399       399       399       399       399       399       399       399
       399       399       399       399       399       399       399       399
       400       400       400       400       400       400       400       400
       400       400       400       400       400       400       400       400
       400       400       400       400       401       401       401       401
       401       401       401       401       401       401       401       401
       401       401       401       401       401       401       401       401
       402       402       402       402       402       402       402       402
       402       402       402       402       402       402       402       402
       402       402       402       402       403       403       403       403
       403       403       403       403       403       403       403       403
       403       403       403       403       403       403       403       403
       404       404       404       404       404       404       404       404
       404       404       404       404       404       404       404       404
       404       404       404       404       405       405       405       405
       405       405       405       405       405       405       405       405
       405       405       405       405       405       405       405       405
       406       406       406       406       406       406       406       406
       406       406       406       406       406       406       406       406
       406       406       406       406       407       407       407       407
       407       407       407       407       407       407       407       407
       407       407       407       407       407       407       407       407
       408       408       408       408       408       408       408       408
       408       408       408       408       408       408       408       408
       408       408       408       408       409       409       409       409
       409       409       409       409       409       409       409       409
       409       409       409       409       409       409       409       409
       410       410       410       410       410       410       410       410
       410       410       410       410       410       410       410       410
       410       410       410       410       411       411       411       411
       411       411       411       411       411       411       411       411
       411       411       411       411       411       411       411       411
       412       412       412       412       412       412       412       412
       412       412       412       412       412       412       412       412
       412       412       412       412       413       413       413       413
       413       413       413       413       413       413       413       413
       413       413       413       413       413       413       413       413
       414       414       414       414       414       414       414       414
       414       414       414       414       414       414       414       414
       414       414       414       414       415       415       415       415
       415       415       415       415       415       415       415       415
       415       415       415       415       415       415       415       415
       416       416       416       416       416       416       416       416
       416       416       416       416       416       416       416       416
       416       416       416       416       417       417       417       417
       417       417       417       417       417       417       417       417
       417       417       417       417       417       417       417       417
       418       418       418       418       418       418       418       418
       418       418       418       418       418       418       418       418
       418       418       418       418       419       419       419       419
       419       419       419       419       419       419       419       419
       419       419       419       419       419       419       419       419
       420       420       420       420       420       420       420       420
       420       420       420       420       420       420       420       420
       420       420       420       420       421       421       421       421
       421       421       421       421       421       421       421       421
       421       421       421       421       421       421       421       421
       422       422       422       422       422       422       422       422
       422       422       422       422       422       422       422       422
       422       422       422       422       423       423       423       423
       423       423       423       423       423       423       423       423
       423       423       423       423       423       423       423       423
       424       424       424       424       424       424       424       424
       424       424       424       424       424       424       424       424
       424       424       424       424       425       425       425       425
       425       425       425       425       425       425       425       425
       425       425       425       425       425       425       425       425
       426       426       426       426       426       426       426       426
       426       426       426       426       426       426       426       426
       426       426       426       426       427       427       427       427
       427       427       427       427       427       427       427       427
       427       427       427       427       427       427       427       427
       428       428       428       428       428       428       428       428
       428       428       428       428       428       428       428       428
       428       428       428       428       429       429       429       429
       429       429       429       429       429       429       429       429
       429       429       429       429       429       429       429       429
       430       430       430       430       430       430       430       430
       430       430       430       430       430       430       430       430
       430       430       430       430       431       431       431       431
       431       431       431       431       431       431       431       431
       431       431       431       431       431       431       431       431
       432       432       432       432       432       432       432       432
       432       432       432       432       432       432       432       432
       432       432       432       432       433       433       433       433
       433       433       433       433       433       433       433       433
       433       433       433       433       433       433       433       433
       434       434       434       434       434       434       434       434
       434       434       434       434       434       434       434       434
       434       434       434       434       435       435       435       435
       435       435       435       435       435       435       435       435
       435       435       435       435       435       435       435       435
       436       436       436       436       436       436       436       436
       436       436       436       436       436       436       436       436
       436       436       436       436       437       437       437       437
       437       437       437       437       437       437       437       437
       437       437       437       437       437       437       437       437
       438       438       438       438       438       438       438       438
       438       438       438       438       438       438       438       438
       438       438       438       438       439       439       439       439
       439       439       439       439       439       439       439       439
       439       439       439       439       439       439       439       439
       440       440       440       440       440       440       440       440
       440       440       440       440       440       440       440       440
       440       440       440       440       441       441       441       441
       441       441       441       441       441       441       441       441
       441       441       441       441       441       441       441       441
       442       442       442       442       442       442       442       442
       442       442       442       442       442       442       442       442
       442       442       442       442       443       443       443       443
       443       443       443       443       443       443       443       443
       443       443       443       443       443       443       443       443
       444       444       444       444       444       444       444       444
       444       444       444       444       444       444       444       444
       444       444       444       444       445       445       445       445
       445       445       445       445       445       445       445       445
       445       445       445       445       445       445       445       445
       446       446       446       446       446       446       446       446
       446       446       446       446       446       446       446       446
       446       446       446       446       447       447       447       447
       447       447       447       447       447       447       447       447
       447       447       447       447       447       447       447       447
       448       448       448       448       448       448       448       448
       448       448       448       448       448       448       448       448
       448       448       448       448       449       449       449       449
       449       449       449       449       449       449       449       449
       449       449       449       449       449       449       449       449
       450       450       450       450       450       450       450       450
       450       450       450       450       450       450       450       450
       450       450       450       450       451       451       451       451
       451       451       451       451       451       451       451       451
       451       451       451       451       451       451       451       451
       452       452       452       452       452       452       452       452
       452       452       452       452       452       452       452       452
       452       452       452       452       453       453       453       453
       453       453       453       453       453       453       453       453
       453       453       453       453       453       453       453       453
       454       454       454       454       454       454       454       454
       454       454       454       454       454       454       454       454
       454       454       454       454       455       455       455       455
       455       455       455       455       455       455       455       455
       455       455       455       455       455       455       455       455
       456       456       456       456       456       456       456       456
       456       456       456       456       456       456       456       456
       456       456       456       456       457       457       457       457
       457       457       457       457       457       457       457       457
       457       457       457       457       457       457       457       457
       458       458       458       458       458       458       458       458
       458       458       458       458       458       458       458       458
       459       459       459       459       459       459       459       459
       459       459       459       459       459       459       459       459
       460       460       460       460       460       460       460       460
       460       460       460       460       460       460       460       460
       461       461       461       461       461       461       461       461
       461       461       461       461       461       461       461       461
       462       462       462       462       462       462       462       462
       462       462       462       462       462       462       462       462
       463       463       463       463       463       463       463       463
       463       463       463       463       463       463       463       463
       464       464       464       464       464       464       464       464
       464       464       464       464       464       464       464       464
       465       465       465       465       465       465       465       465
       465       465       465       465       465       465       465       465
       466       466       466       466       466       466       466       466
       466       466       466       466       466       466       466       466
       467       467       467       467       467       467       467       467
       467       467       467       467       467       467       467       467
       468       468       468       468       468       468       468       468
       468       468       468       468       468       468       468       468
       469       469       469       469       469       469       469       469
       469       469       469       469       469       469       469       469
       470       470       470       470       470       470       470       470
       470       470       470       470       470       470       470       470
       471       471       471       471       471       471       471       471
       471       471       471       471       471       471       471       471
       472       472       472       472       472       472       472       472
       472       472       472       472       472       472       472       472
       473       473       473       473       473       473       473       473
       473       473       473       473       473       473       473       473
       474       474       474       474       474       474       474       474
       474       474       474       474       474       474       474       474
       475       475       475       475       475       475       475       475
       475       475       475       475       475       475       475       475
       476       476       476       476       476       476       476       476
       476       476       476       476       476       476       476       476
       477       477       477       477       477       477       477       477
       477       477       477       477       477       477       477       477
       478       478       478       478       478       478       478       478
       478       478       478       478       478       478       478       478
       479       479       479       479       479       479       479       479
       479       479       479       479       479       479       479       479
       480       480       480       480       480       480       480       480
       480       480       480       480       480       480       480       480
       481       481       481       481       481       481       481       481
       481       481       481       481       481       481       481       481
       482       482       482       482       482       482       482       482
       482       482       482       482       482       482       482       482
       483       483       483       483       483       483       483       483
       483       483       483       483       483       483       483       483
       484       484       484       484       484       484       484       484
       484       484       484       484       484       484       484       484
       485       485       485       485       485       485       485       485
       485       485       485       485       485       485       485       485
       486       486       486       486       486       486       486       486
       486       486       486       486       486       486       486       486
       487       487       487       487       487       487       487       487
       487       487       487       487       487       487       487       487
       488       488       488       488       488       488       488       488
       488       488       488       488       488       488       488       488
       489       489       489       489       489       489       489       489
       489       489       489       489       489       489       489       489
       490       490       490       490       490       490       490       490
       490       490       490       490       490       490       490       490
       491       491       491       491       491       491       491       491
       491       491       491       491       491       491       491       491
       492       492       492       492       492       492       492       492
       492       492       492       492       492       492       492       492
       493       493       493       493       493       493       493       493
       493       493       493       493       493       493       493       493
       494       494       494       494       494       494       494       494
       494       494       494       494       494       494       494       494
       495       495       495       495       495       495       495       495
       495       495       495       495       495       495       495       495
       496       496       496       496       496       496       496       496
       496       496       496       496       496       496       496       496
       497       497       497       497       497       497       497       497
       497       497       497       497       497       497       497       497
       498       498       498       498       498       498       498       498
       498       498       498       498       498       498       498       498
       499       499       499       499       499       499       499       499
       499       499       499       499       499       499       499       499
       500       500       500       500       500       500       500       500
       500       500       500       500       500       500       500       500
       501       501       501       501       501       501       501       501
       501       501       501       501       501       501       501       501
       502       502       502       502       502       502       502       502
       502       502       502       502       502       502       502       502
       503       503       503       503       503       503       503       503
       503       503       503       503       503       503       503       503
       504       504       504       504       504       504       504       504
       504       504       504       504       504       504       504       504
       505       505       505       505       505       505       505       505
       505       505       505       505       505       505       505       505
       506       506       506       506       506       506       506       506
       506       506       506       506       506       506       506       506
       507       507       507       507       507       507       507       507
       507       507       507       507       507       507       507       507
       508       508       508       508       508       508       508       508
       508       508       508       508       508       508       508       508
       509       509       509       509       509       509       509       509
       509       509       509       509       509       509       509       509
       510       510       510       510       510       510       510       510
       510       510       510       510       510       510       510       510
       511       511       511       511       511       511       511       511
       511       511       511       511       511       511       511       511
       512       512       512       512       512       512       512       512
       512       512       512       512       512       512       512       512
       513       513       513       513       513       513       513       513
       513       513       513       513       513       513       513       513
       514       514       514       514       514       514       514       514
       514       514       514       514       514       514       514       514
       515       515       515       515       515       515       515       515
       515       515       515       515       515       515       515       515
       516       516       516       516       516       516       516       516
       516       516       516       516       516       516       516       516
       517       517       517       517       517       517       517       517
       517       517       517       517       517       517       517       517
       518       518       518       518       518       518       518       518
       518       518       518       518       518       518       518       518
       519       519       519       519       519       519       519       519
       519       519       519       519       519       519       519       519
       520       520       520       520       520       520       520       520
       520       520       520       520       520       520       520       520
       521       521       521       521       521       521       521       521
       521       521       521       521       521       521       521       521
       522       522       522       522       522       522       522       522
       522       522       522       522       522       522       522       522
       523       523       523       523       523       523       523       523
       523       523       523       523       523       523       523       523
       524       524       524       524       524       524       524       524
       524       524       524       524       524       524       524       524
       525       525       525       525       525       525       525       525
       525       525       525       525       525       525       525       525
       526       526       526       526       526       526       526       526
       526       526       526       526       526       526       526       526
       527       527       527       527       527       527       527       527
       527       527       527       527       527       527       527       527
       528       528       528       528       528       528       528       528
       528       528       528       528       528       528       528       528
       529       529       529       529       529       529       529       529
       529       529       529       529       529       529       529       529
       530       530       530       530       530       530       530       530
       530       530       530       530       530       530       530       530
       531       531       531       531       531       531       531       531
       531       531       531       531       531       531       531       531
       532       532       532       532       532       532       532       532
       532       532       532       532       532       532       532       532
       533       533       533       533       533       533       533       533
       533       533       533       533       533       533       533       533
       534       534       534       534       534       534       534       534
       534       534       534       534       534       534       534       534
       535       535       535       535       535       535       535       535
       535       535       535       535       535       535       535       535
       536       536       536       536       536       536       536       536
       536       536       536       536       536       536       536       536
       537       537       537       537       537       537       537       537
       537       537       537       537       537       537       537       537
       538       538       538       538       538       538       538       538
       538       538       538       538       538       538       538       538
       539       539       539       539       539       539       539       539
       539       539       539       539       539       539       539       539
       540       540       540       540       540       540       540       540
       540       540       540       540       540       540       540       540
       541       541       541       541       541       541       541       541
       541       541       541       541       541       541       541       541
       542       542       542       542       542       542       542       542
       542       542       542       542       542       542       542       542
       543       543       543       543       543       543       543       543
       543       543       543       543       543       543       543       543
       544       544       544       544       544       544       544       544
       544       544       544       544       544       544       544       544
       545       545       545       545       545       545       545       545
       545       545       545       545       545       545       545       545
       546       546       546       546       546       546       546       546
       546       546       546       546       546       546       546       546
       547       547       547       547       547       547       547       547
       547       547       547       547       547       547       547       547
       548       548       548       548       548       548       548       548
       548       548       548       548       548       548       548       548
       549       549       549       549       549       549       549       549
       549       549       549       549       549       549       549       549
       550       550       550       550       550       550       550       550
       550       550       550       550       550       550       550       550
       551       551       551       551       551       551       551       551
       551       551       551       551       551       551       551       551
       552       552       552       552       552       552       552       552
       552       552       552       552       552       552       552       552
       553       553       553       553       553       553       553       553
       553       553       553       553       553       553       553       553
       554       554       554       554       554       554       554       554
       554       554       554       554       554       554       554       554
       555       555       555       555       555       555       555       555
       555       555       555       555       555       555       555       555
       556       556       556       556       556       556       556       556
       556       556       556       556       556       556       556       556
       557       557       557       557       557       557       557       557
       557       557       557       557       557       557       557       557
       558       558       558       558       558       558       558       558
       558       558       558       558       558       558       558       558
       559       559       559       559       559       559       559       559
       559       559       559       559       559       559       559       559
       560       560       560       560       560       560       560       560
       560       560       560       560       560       560       560       560
       561       561       561       561       561       561       561       561
       561       561       561       561       561       561       561       561
       562       562       562       562       562       562       562       562
       562       562       562       562       562       562       562       562
       563       563       563       563       563       563       563       563
       563       563       563       563       563       563       563       563
       564       564       564       564       564       564       564       564
       564       564       564       564       564       564       564       564
       565       565       565       565       565       565       565       565
       565       565       565       565       565       565       565       565
       566       566       566       566       566       566       566       566
       566       566       566       566       566       566       566       566
       567       567       567       567       567       567       567       567
       567       567       567       567       567       567       567       567
       568       568       568       568       568       568       568       568
       568       568       568       568       568       568       568       568
       569       569       569       569       569       569       569       569
       569       569       569       569       569       569       569       569
       570       570       570       570       570       570       570       570
       570       570       570       570       570       570       570       570
       571       571       571       571       571       571       571       571
       571       571       571       571       571       571       571       571
       572       572       572       572       572       572       572       572
       572       572       572       572       572       572       572       572
       573       573       573       573       573       573       573       573
       573       573       573       573       573       573       573       573
       574       574       574       574       574       574       574       574
       574       574       574       574       574       574       574       574
       575       575       575       575       575       575       575       575
       575       575       575       575       575       575       575       575
       576       576       576       576       576       576       576       576
       576       576       576       576       576       576       576       576
       577       577       577       577       577       577       577       577
       577       577       577       577       577       577       577       577
       578       578       578       578       578       578       578       578
       578       578       578       578       578       578       578       578
       579       579       579       579       579       579       579       579
       579       579       579       579       579       579       579       579
       580       580       580       580       580       580       580       580
       580       580       580       580       580       580       580       580
       581       581       581       581       581       581       581       581
       581       581       581       581       581       581       581       581
       582       582       582       582       582       582       582       582
       582       582       582       582       582       582       582       582
       583       583       583       583       583       583       583       583
       583       583       583       583       583       583       583       583
       584       584       584       584       584       584       584       584
       584       584       584       584       584       584       584       584
       585       585       585       585       585       585       585       585
       585       585       585       585       585       585       585       585
       586       586       586       586       586       586       586       586
       586       586       586       586       586       586       586       586
       587       587       587       587       587       587       587       587
       587       587       587       587       587       587       587       587
       588       588       588       588       588       588       588       588
       588       588       588       588       588       588       588       588
       589       589       589       589       589       589       589       589
       589       589       589       589       589       589       589       589
       590       590       590       590       590       590       590       590
       590       590       590       590       590       590       590       590
       591       591       591       591       591       591       591       591
       591       591       591       591       591       591       591       591
       592       592       592       592       592       592       592       592
       592       592       592       592       592       592       592       592
       593       593       593       593       593       593       593       593
       593       593       593       593       593       593       593       593
       594       594       594       594       594       594       594       594
       594       594       594       594       594       594       594       594
       595       595       595       595       595       595       595       595
       595       595       595       595       595       595       595       595
       596       596       596       596       596       596       596       596
       596       596       596       596       596       596       596       596
       597       597       597       597       597       597       597       597
       597       597       597       597       597       597       597       597
       598       598       598       598       598       598       598       598
       598       598       598       598       598       598       598       598
       599       599       599       599       599       599       599       599
       599       599       599       599       599       599       599       599
       600       600       600       600       600       600       600       600
       600       600       600       600       600       600       600       600
       601       601       601       601       601       601       601       601
       601       601       601       601       601       601       601       601
       602       602       602       602       602       602       602       602
       602       602       602       602       602       602       602       602
       603       603       603       603       603       603       603       603
       603       603       603       603       603       603       603       603
       604       604       604       604       604       604       604       604
       604       604       604       604       604       604       604       604
       605       605       605       605       605       605       605       605
       605       605       605       605       605       605       605       605
       606       606       606       606       606       606       606       606
       606       606       606       606       606       606       606       606
       607       607       607       607       607       607       607       607
       607       607       607       607       607       607       607       607
       608       608       608       608       608       608       608       608
       608       608       608       608       608       608       608       608
       609       609       609       609       609       609       609       609
       609       609       609       609       609       609       609       609
       610       610       610       610       610       610       610       610
       610       610       610       610       610       610       610       610
       611       611       611       611       611       611       611       611
       611       611       611       611       611       611       611       611
       612       612       612       612       612       612       612       612
       612       612       612       612       612       612       612       612
       613       613       613       613       613       613       613       613
       613       613       613       613       613       613       613       613
       614       614       614       614       614       614       614       614
       614       614       614       614       614       614       614       614
       615       615       615       615       615       615       615       615
       615       615       615       615       615       615       615       615
       616       616       616       616       616       616       616       616
       616       616       616       616       616       616       616       616
       617       617       617       617       617       617       617       617
       617       617       617       617       617       617       617       617
       618       618       618       618       618       618       618       618
       618       618       618       618       618       618       618       618
       619       619       619       619       619       619       619       619
       619       619       619       619       619       619       619       619
       620       620       620       620       620       620       620       620
       620       620       620       620       620       620       620       620
       621       621       621       621       621       621       621       621
       621       621       621       621       621       621       621       621
       622       622       622       622       622       622       622       622
       622       622       622       622       622       622       622       622
       623       623       623       623       623       623       623       623
       623       623       623       623       623       623       623       623
       624       624       624       624       624       624       624       624
       624       624       624       624       624       624       624       624
       625       625       625       625       625       625       625       625
       625       625       625       625       625       625       625       625
       626       626       626       626       626       626       626       626
       626       626       626       626       626       626       626       626
       627       627       627       627       627       627       627       627
       627       627       627       627       627       627       627       627
       628       628       628       628       628       628       628       628
       628       628       628       628       628       628       628       628
       629       629       629       629       629       629       629       629
       629       629       629       629       629       629       629       629
       630       630       630       630       630       630       630       630
       630       630       630       630       630       630       630       630
       631       631       631       631       631       631       631       631
       631       631       631       631       631       631       631       631
       632       632       632       632       632       632       632       632
       632       632       632       632       632       632       632       632
       633       633       633       633       633       633       633       633
       633       633       633       633       633       633       633       633
       634       634       634       634       634       634       634       634
       634       634       634       634       634       634       634       634
       635       635       635       635       635       635       635       635
       635       635       635       635       635       635       635       635
       636       636       636       636       636       636       636       636
       636       636       636       636       636       636       636       636
       637       637       637       637       637       637       637       637
       637       637       637       637       637       637       637       637
       638       638       638       638       638       638       638       638
       638       638       638       638       638       638       638       638
       639       639       639       639       639       639       639       639
       639       639       639       639       639       639       639       639
       640       640       640       640       640       640       640       640
       640       640       640       640       640       640       640       640
       641       641       641       641       641       641       641       641
       641       641       641       641       641       641       641       641
       642       642       642       642       642       642       642       642
       642       642       642       642       642       642       642       642
       643       643       643       643       643       643       643       643
       643       643       643       643       643       643       643       643
       644       644       644       644       644       644       644       644
       644       644       644       644       644       644       644       644
       645       645       645       645       645       645       645       645
       645       645       645       645       645       645       645       645
       646       646       646       646       646       646       646       646
       646       646       646       646       646       646       646       646
       647       647       647       647       647       647       647       647
       647       647       647       647       647       647       647       647
       648       648       648       648       648       648       648       648
       648       648       648       648       648       648       648       648
       649       649       649       649       649       649       649       649
       649       649       649       649       649       649       649       649
       650       650       650       650       650       650       650       650
       650       650       650       650       650       650       650       650
       651       651       651       651       651       651       651       651
       651       651       651       651       651       651       651       651
       652       652       652       652       652       652       652       652
       652       652       652       652       652       652       652       652
       653       653       653       653       653       653       653       653
       653       653       653       653       653       653       653       653
       654       654       654       654       654       654       654       654
       654       654       654       654       654       654       654       654
       655       655       655       655       655       655       655       655
       655       655       655       655       655       655       655       655
       656       656       656       656       656       656       656       656
       656       656       656       656       656       656       656       656
       657       657       657       657       657       657       657       657
       657       657       657       657       657       657       657       657
       658       658       658       658       658       658       658       658
       658       658       658       658       658       658       658       658
       659       659       659       659       659       659       659       659
       659       659       659       659       659       659       659       659
       660       660       660       660       660       660       660       660
       660       660       660       660       660       660       660       660
       661       661       661       661       661       661       661       661
       661       661       661       661       661       661       661       661
       662       662       662       662       662       662       662       662
       662       662       662       662       662       662       662       662
       663       663       663       663       663       663       663       663
       663       663       663       663       663       663       663       663
       664       664       664       664       664       664       664       664
       664       664       664       664       664       664       664       664
       665       665       665       665       665       665       665       665
       665       665       665       665       665       665       665       665
       666       666       666       666       666       666       666       666
       666       666       666       666       666       666       666       666
       667       667       667       667       667       667       667       667
       667       667       667       667       667       667       667       667
       668       668       668       668       668       668       668       668
       668       668       668       668       668       668       668       668
       669       669       669       669       669       669       669       669
       669       669       669       669       669       669       669       669
       670       670       670       670       670       670       670       670
       670       670       670       670       670       670       670       670
       671       671       671       671       671       671       671       671
       671       671       671       671       671       671       671       671
       672       672       672       672       672       672       672       672
       672       672       672       672       672       672       672       672
       673       673       673       673       673       673       673       673
       673       673       673       673       673       673       673       673
       674       674       674       674       674       674       674       674
       674       674       674       674       674       674       674       674
       675       675       675       675       675       675       675       675
       675       675       675       675       675       675       675       675
       675       675       675       675       675       675       675       675
       675       675       675       675       675       675       675       675
       675       675       675       675       675       675       675       675
       675       675       675       675       675       675       675       675
       675       675       675       675       675       675       675       675
       675       675       675       675       675       675       675       675
       675       675       675       675       675       675       675       675
       675       675       675       675       675       675       675       675
       675       675       675       675       675       676       676       676
       676       676       676       676       676       676       676       676
       676       676       676       676       676       676       676       676
       676       676       676       676       676       676       676       676
       676       676       676       676       676       676       676       676
       676       676       676       676       676       676       676       676
       676       676       676       676       676       676       676       676
       676       676       676       676       676       676       676       676
       676       676       676       676       676       676       676       676
       676       676       676       676       676       676       676       676
       676       676       676       676       676       676       676       676
       676       676       677       677       677       677       677       677
       677       677       677       677       677       677       677       677
       677       677       677       677       677       677       677       677
       677       677       677       677       677       677       677       677
       677       677       677       677       677       677       677       677
       677       677       677       677       677       677       677       677
       677       677       677       677       677       677       677       677
       677       677       677       677       677       677       677       677
       677       677       677       677       677       677       677       677
       677       677       677       677       677       677       677       677
       677       677       677       677       677       677       677       678
       678       678       678       678       678       678       678       678
       678       678       678       678       678       678       678       678
       678       678       678       678       678       678       678       678
       678       678       678       678       678       678       678       678
       678       678       678       678       678       678       678       678
       678       678       678       678       678       678       678       678
       678       678       678       678       678       678       678       678
       678       678       678       678       678       678       678       678
       678       678       678       678       678       678       678       678
       678       678       678       678       678       678       678       678
       678       678       678       678       679       679       679       679
       679       679       679       679       679       679       679       679
       679       679       679       679       679       679       679       679
       679       679       679       679       679       679       679       679
       679       679       679       679       679       679       679       679
       679       679       679       679       679       679       679       679
       679       679       679       679       679       679       679       679
       679       679       679       679       679       679       679       679
       679       679       679       679       679       679       679       679
       679       679       679       679       679       679       679       679
       679       679       679       679       679       679       679       679
       679       680       680       680       680       680       680       680
       680       680       680       680       680       680       680       680
       680       680       680       680       680       680       680       680
       680       680       680       680       680       680       680       680
       680       680       680       680       680       680       680       680
       680       680       680       680       680       680       680       680
       680       680       680       680       680       680       680       680
       680       680       680       680       680       680       680       680
       680       680       680       680       680       680       680       680
       680       680       680       680       680       680       680       680
       680       680       680       680       680       680       681       681
       681       681       681       681       681       681       681       681
       681       681       681       681       681       681       681       681
       681       681       681       681       681       681       681       681
       681       681       681       681       681       681       681       681
       681       681       681       681       681       681       681       681
       681       681       681       681       681       681       681       681
       681       681       681       681       681       681       681       681
       681       681       681       681       681       681       681       681
       681       681       681       681       681       681       681       681
       681       681       681       681       681       681       681       681
       681       681       681       682       682       682       682       682
       682       682       682       682       682       682       682       682
       682       682       682       682       682       682       682       682
       682       682       682       682       682       682       682       682
       682       682       682       682       682       682       682       682
       682       682       682       682       682       682       682       682
       682       682       682       682       682       682       682       682
       682       682       682       682       682       682       682       682
       682       682       682       682       682       682       682       682
       682       682       682       682       682       682       682       682
       682       682       682       682       682       682       682       682
       683       683       683       683       683       683       683       683
       683       683       683       683       683       683       683       683
       683       683       683       683       683       683       683       683
       683       683       683       683       683       683       683       683
       683       683       683       683       683       683       683       683
       683       683       683       683       683       683       683       683
       683       683       683       683       683       683       683       683
       683       683       683       683       683       683       683       683
       683       683       683       683       683       683       683       683
       683       683       683       683       683       683       683       683
       683       683       683       683       683       684       684       684
       684       684       684       684       684       684       684       684
       684       684       684       684       684       684       684       684
       684       684       684       684       684       684       684       684
       684       684       684       684       684       684       684       684
       684       684       684       684       684       684       684       684
       684       684       684       684       684       684       684       684
       684       684       684       684       684       684       684       684
       684       684       684       684       684       684       684       684
       684       684       684       684       684       684       684       684
       684       684       684       684       684       684       684       684
       684       684       685       685       685       685       685       685
       685       685       685       685       685       685       685       685
       685       685       685       685       685       685       685       685
       685       685       685       685       685       685       685       685
       685       685       685       685       685       685       685       685
       685       685       685       685       685       685       685       685
       685       685       685       685       685       685       685       685
       685       685       685       685       685       685       685       685
       685       685       685       685       685       685       685       685
       685       685       685       685       685       685       685       685
       685       685       685       685       685       685       685       686
       686       686       686       686       686       686       686       686
       686       686       686       686       686       686       686       686
       686       686       686       686       686       686       686       686
       686       686       686       686       686       686       686       686
       686       686       686       686       686       686       686       686
       686       686       686       686       686       686       686       686
       686       686       686       686       686       686       686       686
       686       686       686       686       686       686       686       686
       686       686       686       686       686       686       686       686
       686       686       686       686       686       686       686       686
       686       686       686       686       687       687       687       687
       687       687       687       687       687       687       687       687
       687       687       687       687       687       687       687       687
       687       687       687       687       687       687       687       687
       687       687       687       687       687       687       687       687
       687       687       687       687       687       687       687       687
       687       687       687       687       687       687       687       687
       687       687       687       687       687       687       687       687
       687       687       687       687       687       687       687       687
       687       687       687       687       687       687       687       687
       687       687       687       687       687       687       687       687
       687       688       688       688       688       688       688       688
       688       688       688       688       688       688       688       688
       688       688       688       688       688       688       688       688
       688       688       688       688       688       688       688       688
       688       688       688       688       688       688       688       688
       688       688       688       688       688       688       688       688
       688       688       688       688       688       688       688       688
       688       688       688       688       688       688       688       688
       688       688       688       688       688       688       688       688
       688       688       688       688       688       688       688       688
       688       688       688       688       688       688       689       689
       689       689       689       689       689       689       689       689
       689       689       689       689       689       689       689       689
       689       689       689       689       689       689       689       689
       689       689       689       689       689       689       689       689
       689       689       689       689       689       689       689       689
       689       689       689       689       689       689       689       689
       689       689       689       689       689       689       689       689
       689       689       689       689       689       689       689       689
       689       689       689       689       689       689       689       689
       689       689       689       689       689       689       689       689
       689       689       689       690       690       690       690       690
       690       690       690       690       690       690       690       690
       690       690       690       690       690       690       690       690
       690       690       690       690       690       690       690       690
       690       690       690       690       690       690       690       690
       690       690       690       690       690       690       690       690
       690       690       690       690       690       690       690       690
       690       690       690       690       690       690       690       690
       690       690       690       690       690       690       690       690
       690       690       690       690       690       690       690       690
       690       690       690       690       690       690       690       690
       691       691       691       691       691       691       691       691
       691       691       691       691       691       691       691       691
       691       691       691       691       691       691       691       691
       691       691       691       691       691       691       691       691
       691       691       691       691       691       691       691       691
       691       691       691       691       691       691       691       691
       691       691       691       691       691       691       691       691
       691       691       691       691       691       691       691       691
       691       691       691       691       691       691       691       691
       691       691       691       691       691       691       691       691
       691       691       691       691       691       692       692       692
       692       692       692       692       692       692       692       692
       692       692       692       692       692       692       692       692
       692       692       692       692       692       692       692       692
       692       692       692       692       692       692       692       692
       692       692       692       692       692       692       692       692
       692       692       692       692       692       692       692       692
       692       692       692       692       692       692       692       692
       692       692       692       692       692       692       692       692
       692       692       692       692       692       692       692       692
       692       692       692       692       692       692       692       692
       692       692       693       693       693       693       693       693
       693       693       693       693       693       694       694       694
       694       694       694       694       694       694       694       694
       695       695       695       695       695       695       695       695
       695       695       695       696       696       696       696       696
       696       696       696       696       696       696       697       697
       697       697       697       697       697       697       697       697
       697       698       698       698       698       698       698       698
       698       698       698       698       699       699       699       699
       699       699       699       699       699       699       699       700
       700       700       700       700       700       700       700       700
       700       700       701       701       701       701       701       701
       701       701       701       701       701       702       702       702
       702       702       702       702       702       702       702       702
       703       703       703       703       703       703       703       703
       703       703       703       704       704       704       704       704
       704       704       704       704       704       704       705       705
       705       705       705       705       705       705       705       705
       705       706       706       706       706       706       706       706
       706       706       706       706       707       707       707       707
       707       707       707       707       707       707       707       708
       708       708       708       708       708       708       708       708
       708       708       709       709       709       709       709       709
       709       709       709       709       709       710       710       710
       710       710       710       710       710       710       710       710
       711       711       711       711       711       711       711       711
       711       711       711       712       712       712       712       712
       712       712       712       712       712       712       713       713
       713       713       713       713       713       713       713       713
       713       714       714       714       714       714       714       714
       714       714       714       714       715       715       715       715
       715       715       715       715       715       715       715       716
       716       716       716       716       716       716       716       716
       716       716       717       717       717       717       717       717
       717       717       717       717       717       718       718       718
       718       718       718       718       718       718       718       718
       719       719       719       719       719       719       719       719
       719       719       719       720       720       720       720       720
       720       720       720       720       720       720       721       721
       721       721       721       721       721       721       721       721
       721       722       722       722       722       722       722       722
       722       722       722       722       723       723       723       723
       723       723       723       723       723       723       723       724
       724       724       724       724       724       724       724       724
       724       724       725       725       725       725       725       725
       725       725       725       725       725       726       726       726
       726       726       726       726       726       726       726       726
       727       727       727       727       727       727       727       727
       727       727       727       728       728       728       728       728
       728       728       728       728       728       728       729       729
       729       729       729       729       729       729       729       729
       729       730       730       730       730       730       730       730
       730       730       730       730       731       731       731       731
       731       731       731       731       731       731       731       732
       732       732       732       732       732       732       732       732
       732       732       733       733       733       733       733       733
       733       733       733       733       733       734       734       734
       734       734       734       734       734       734       734       734
       735       735       735       735       735       735       735       735
       735       735       735       736       736       736       736       736
       736       736       736       736       736       736       737       737
       737       737       737       737       737       737       737       737
       737       738       738       738       738       738       738       738
       738       738       738       738       739       739       739       739
       739       739       739       739       739       739       739       740
       740       740       740       740       740       740       740       740
       740       740       741       741       741       741       741       741
       741       741       741       741       741       742       742       742
       742       742       742       742       742       742       742       742
       743       743       743       743       743       743       743       743
       743       743       743       744       744       744       744       744
       744       744       744       744       744       744       745       745
       745       745       745       745       745       745       745       745
       745       746       746       746       746       746       746       746
       746       746       746       746       747       747       747       747
       747       747       747       747       747       747       747       748
       748       748       748       748       748       748       748       748
       748       748       749       749       749       749       749       749
       749       749       749       749       749       750       750       750
       750       750       750       750       750       750       750       750
       751       751       751       751       751       751       751       751
       751       751       751       752       752       752       752       752
       752       752       752       752       752       752       753       753
       753       753       753       753       753       753       753       753
       753       754       754       754       754       754       754       754
       754       754       754       754       755       755       755       755
       755       755       755       755       755       755       755       756
       756       756       756       756       756       756       756       756
       756       756       757       757       757       757       757       757
       757       757       757       757       757       758       758       758
       758       758       758       758       758       758       758       758
       759       759       759       759       759       759       759       759
       759       759       759       760       760       760       760       760
       760       760       760       760       760       760       761       761
       761       761       761       761       761       761       761       761
       761       762       762       762       762       762       762       762
       762       762       762       762       763       763       763       763
       763       763       763       763       763       763       763       764
       764       764       764       764       764       764       764       764
       764       764       765       765       765       765       765       765
       765       765       765       765       765       766       766       766
       766       766       766       766       766       766       766       766
       767       767       767       767       767       767       767       767
       767       767       767       768       768       768       768       768
       768       768       768       768       768       768       769       769
       769       769       769       769       769       769       769       769
       769       770       770       770       770       770       770       770
       770       770       770       770       771       771       771       771
       771       771       771       771       771       771       771       772
       772       772       772       772       772       772       772       772
       772       772       773       773       773       773       773       773
       773       773       773       773       773       774       774       774
       774       774       774       774       774       774       774       774
       775       775       775       775       775       775       775       775
       775       775       775       776       776       776       776       776
       776       776       776       776       776       776       777       777
       777       777       777       777       777       777       777       777
       777       778       778       778       778       778       778       778
       778       778       778       778       779       779       779       779
       779       779       779       779       779       779       779       780
       780       780       780       780       780       780       780       780
       780       780       781       781       781       781       781       781
       781       781       781       781       781       782       782       782
       782       782       782       782       782       782       782       782
       783       783       783       783       783       783       783       783
       783       783       783       784       784       784       784       784
       784       784       784       784       784       784       785       785
       785       785       785       785       785       785       785       785
       785       786       786       786       786       786       786       786
       786       786       786       786       787       787       787       787
       787       787       787       787       787       787       787       788
       788       788       788       788       788       788       788       788
       788       788       789       789       789       789       789       789
       789       789       789       789       789       790       790       790
       790       790       790       790       790       790       790       790
       791       791       791       791       791       791       791       791
       791       791       791       792       792       792       792       792
       792       792       792       792       792       792       793       793
       793       793       793       793       793       793       793       793
       793       794       794       794       794       794       794       794
       794       794       794       794       795       795       795       795
       795       795       795       795       795       795       795       796
       796       796       796       796       796       796       796       796
       796       796       797       797       797       797       797       797
       797       797       797       797       797       798       798       798
       798       798       798       798       798       798       798       798
       799       799       799       799       799       799       799       799
       799       799       799       800       800       800       800       800
       800       800       800       800       800       800       801       801
       801       801       801       801       801       801       801       801
       801       802       802       802       802       802       802       802
       802       802       802       802       803       803       803       803
       803       803       803       803       803       803       803       804
       804       804       804       804       804       804       804       804
       804       804       805       805       805       805       805       805
       805       805       805       805       805       806       806       806
       806       806       806       806       806       806       806       806
       807       807       807       807       807       807       807       807
       807       807       807       808       808       808       808       808
       808       808       808       808       808       808       809       809
       809       809       809       809       809       809       809       809
       809       810       810       810       810       810       810       810
       810       810       810       810       811       811       811       811
       811       811       811       811       811       811       811       812
       812       812       812       812       812       812       812       812
       812       812       813       813       813       813       813       813
       813       813       813       813       813       814       814       814
       814       814       814       814       814       814       814       814
       815       815       815       815       815       815       815       815
       815       815       815       816       816       816       816       816
       816       816       816       816       816       816       817       817
       817       817       817       817       817       817       817       817
       817       818       818       818       818       818       818       818
       818       818       818       818       819       819       819       819
       819       819       819       819       819       819       819       820
       820       820       820       820       820       820       820       820
       820       820       821       821       821       821       821       821
       821       821       821       821       821       822       822       822
       822       822       822       822       822       822       822       822
       823       823       823       823       823       823       823       823
       823       823       823       824       824       824       824       824
       824       824       824       824       824       824       825       825
       825       825       825       825       825       825       825       825
       825       826       826       826       826       826       826       826
       826       826       826       826       827       827       827       827
       827       827       827       827       827       827       827       828
       828       828       828       828       828       828       828       828
       828       828       829       829       829       829       829       829
       829       829       829       829       829       830       830       830
       830       830       830       830       830       830       830       830
       831       831       831       831       831       831       831       831
       831       831       831       832       832       832       832       832
       832       832       832       832       832       832       833       833
       833       833       833       833       833       833       833       833
       833       834       834       834       834       834       834       834
       834       834       834       834       835       835       835       835
       835       835       835       835       835       835       835       836
       836       836       836       836       836       836       836       836
       836       836       837       837       837       837       837       837
       837       837       837       837       837       838       838       838
       838       838       838       838       838       838       838       838
       839       839       839       839       839       839       839       839
       839       839       839       840       840       840       840       840
       840       840       840       840       840       840       841       841
       841       841       841       841       841       841       841       841
       841       842       842       842       842       842       842       842
       842       842       842       842       843       843       843       843
       843       843       843       843       843       843       843       844
       844       844       844       844       844       844       844       844
       844       844       845       845       845       845       845       845
       845       845       845       845       845       846       846       846
       846       846       846       846       846       846       846       846
       847       847       847       847       847       847       847       847
       847       847       847       848       848       848       848       848
       848       848       848       848       848       848       849       849
       849       849       849       849       849       849       849       849
       849       850       850       850       850       850       850       850
       850       850       850       850       851       851       851       851
       851       851       851       851       851       851       851       852
       852       852       852       852       852       852       852       852
       852       852       853       853       853       853       853       853
       853       853       853       853       853       854       854       854
       854       854       854       854       854       854       854       854
       855       855       855       855       855       855       855       855
       855       855       855       856       856       856       856       856
       856       856       856       856       856       856       857       857
       857       857       857       857       857       857       857       857
       857       858       858       858       858       858       858       858
       858       858       858       858       859       859       859       859
       859       859       859       859       859       859       859       860
       860       860       860       860       860       860       860       860
       860       860       861       861       861       861       861       861
       861       861       861       861       861       862       862       862
       862       862       862       862       862       862       862       862
       863       863       863       863       863       863       863       863
       863       863       863       864       864       864       864       864
       864       864       864       864       864       864       865       865
       865       865       865       865       865       865       865       865
       865       866       866       866       866       866       866       866
       866       866       866       866       867       867       867       867
       867       867       867       867       867       867       867       868
       868       868       868       868       868       868       868       868
       868       868       869       869       869       869       869       869
       869       869       869       869       869       870       870       870
       870       870       870       870       870       870       870       870
       871       871       871       871       871       871       871       871
       871       871       871       872       872       872       872       872
       872       872       872       872       872       872       873       873
       873       873       873       873       873       873       873       873
       873       874       874       874       874       874       874       874
       874       874       874       874       875       875       875       875
       875       875       875       875       875       875       875       876
       876       876       876       876       876       876       876       876
       876       876       877       877       877       877       877       877
       877       877       877       877       877       878       878       878
       878       878       878       878       878       878       878       878
       879       879       879       879       879       879       879       879
       879       879       879       880       880       880       880       880
       880       880       880       880       880       880       881       881
       881       881       881       881       881       881       881       881
       881       882       882       882       882       882       882       882
       882       882       882       882       883       883       883       883
       883       883       883       883       883       883       883       884
       884       884       884       884       884       884       884       884
       884       884       885       885       885       885       885       885
       885       885       885       885       885       886       886       886
       886       886       886       886       886       886       886       886
       887       887       887       887       887       887       887       887
       887       887       887       888       888       888       888       888
       888       888       888       888       888       888       889       889
       889       889       889       889       889       889       889       889
       889       890       890       890       890       890       890       890
       890       890       890       890       891       891       891       891
       891       891       891       891       891       891       891       892
       892       892       892       892       892       892       892       892
       892       892       893       893       893       893       893       893
       893       893       893       893       893       894       894       894
       894       894       894       894       894       894       894       894
       895       895       895       895       895       895       895       895
       895       895       895       896       896       896       896       896
       896       896       896       896       896       896       897       897
       897       897       897       897       897       897       897       897
       897       898       898       898       898       898       898       898
       898       898       898       898       899       899       899       899
       899       899       899       899       899       899       899       900
       900       900       900       900       900       900       900       900
       900       900       901       901       901       901       901       901
       901       901       901       901       901       902       902       902
       902       902       902       902       902       902       902       902
       903       903       903       903       903       903       903       903
       903       903       903       904       904       904       904       904
       904       904       904       904       904       904       905       905
       905       905       905       905       905       905       905       905
       905       906       906       906       906       906       906       906
       906       906       906       906       907       907       907       907
       907       907       907       907       907       907       907       908
       908       908       908       908       908       908       908       908
       908       908       909       909       909       909       909       909
       909       909       909       909       909       910       910       910
       910       910       910       910       910       910       910       910
       911       911       911       911       911       911       911       911
       911       911       911       912       912       912       912       912
       912       912       912       912       912       912       913       913
       913       913       913       913       913       913       913       913
       913       914       914       914       914       914       914       914
       914       914       914       914       915       915       915       915
       915       915       915       915       915       915       915       916
       916       916       916       916       916       916       916       916
       916       916       917       917       917       917       917       917
       917       917       917       917       917       918       918       918
       918       918       918       918       918       918       918       918
       919       919       919       919       919       919       919       919
       919       919       919       920       920       920       920       920
       920       920       920       920       920       920       921       921
       921       921       921       921       921       921       921       921
       921       922       922       922       922       922       922       922
       922       922       922       922       923       923       923       923
       923       923       923       923       923       923       923       924
       924       924       924       924       924       924       924       924
       924       924       925       925       925       925       925       925
       925       925       925       925       925       926       926       926
       926       926       926       926       926       926       926       926
       927       927       927       927       927       927       927       927
       927       927       927       928       928       928       928       928
       928       928       928       928       928       928       929       929
       929       929       929       929       929       929       929       929
       929       930       930       930       930       930       930       930
       930       930       930       930       931       931       931       931
       931       931       931       931       931       931       931       932
       932       932       932       932       932       932       932       932
       932       932       933       933       933       933       933       933
       933       933       933       933       933       934       934       934
       934       934       934       934       934       934       934       934
       935       935       935       935       935       935       935       935
       935       935       935       936       936       936       936       936
       936       936       936       936       936       936       937       937
       937       937       937       937       937       937       937       937
       937       938       938       938       938       938       938       938
       938       938       938       938       939       939       939       939
       939       939       939       939       939       939       939       940
       940       940       940       940       940       940       940       940
       940       940       941       941       941       941       941       941
       941       941       941       941       941       942       942       942
       942       942       942       942       942       942       942       942
       943       943       943       943       943       943       943       943
       943       943       943       944       944       944       944       944
       944       944       944       944       944       944       945       945
       945       945       945       945       945       945       945       945
       945       946       946       946       946       946       946       946
       946       946       946       946       947       947       947       947
       947       947       947       947       947       947       947       948
       948       948       948       948       948       948       948       948
       948       948       949       949       949       949       949       949
       949       949       949       949       949       950       950       950
       950       950       950       950       950       950       950       950
       951       951       951       951       951       951       951       951
       951       951       951       952       952       952       952       952
       952       952       952       952       952       952       953       953
       953       953       953       953       953       953       953       953
       953       954       954       954       954       954       954       954
       954       954       954       954       955       955       955       955
       955       955       955       955       955       955       955       956
       956       956       956       956       956       956       956       956
       956       956       957       957       957       957       957       957
       957       957       957       957       957       958       958       958
       958       958       958       958       958       958       958       958
       959       959       959       959       959       959       959       959
       959       959       959       960       960       960       960       960
       960       960       960       960       960       960       961       961
       961       961       961       961       961       961       961       961
       961       962       962       962       962       962       962       962
       962       962       962       962       963       963       963       963
       963       963       963       963       963       963       963       964
       964       964       964       964       964       964       964       964
       964       964       965       965       965       965       965       965
       965       965       965       965       965       966       966       966
       966       966       966       966       966       966       966       966
       967       967       967       967       967       967       967       967
       967       967       967       968       968       968       968       968
       968       968       968       968       968       968       969       969
       969       969       969       969       969       969       969       969
       969       970       970       970       970       970       970       970
       970       970       970       970       971       971       971       971
       971       971       971       971       971       971       971       972
       972       972       972       972       972       972       972       972
       972       972       973       973       973       973       973       973
       973       973       973       973       973       974       974       974
       974       974       974       974       974       974       974       974
       975       975       975       975       975       975       975       975
       975       975       975       976       976       976       976       976
       976       976       976       976       976       976       977       977
       977       977       977       977       977       977       977       977
       977       978       978       978       978       978       978       978
       978       978       978       978       979       979       979       979
       979       979       979       979       979       979       979       980
       980       980       980       980       980       980       980       980
       980       980       981       981       981       981       981       981
       981       981       981       981       981       982       982       982
       982       982       982       982       982       982       982       982
       983       983       983       983       983       983       983       983
       983       983       983       984       984       984       984       984
       984       984       984       984       984       984       985       985
       985       985       985       985       985       985       985       985
       985       986       986       986       986       986       986       986
       986       986       986       986       987       987       987       987
       987       987       987       987       987       987       987       988
       988       988       988       988       988       988       988       988
       988       988       989       989       989       989       989       989
       989       989       989       989       989       990       990       990
       990       990       990       990       990       990       990       990
       991       991       991       991       991       991       991       991
       991       991       991       992       992       992       992       992
       992       992       992       992       992       992       993       993
       993       993       993       993       993       993       993       993
       993       994       994       994       994       994       994       994
       994       994       994       994       995       995       995       995
       995       995       995       995       995       995       995       996
       996       996       996       996       996       996       996       996
       996       996       997       997       997       997       997       997
       997       997       997       997       997       998       998       998
       998       998       998       998       998       998       998       998
       999       999       999       999       999       999       999       999
       999       999       999      1000      1000      1000      1000      1000
      1000      1000      1000      1000      1000      1000      1001      1001
      1001      1001      1001      1001      1001      1001      1001      1001
      1001      1002      1002      1002      1002      1002      1002      1002
      1002      1002      1002      1002      1003      1003      1003      1003
      1003      1003      1003      1003      1003      1003      1003      1004
      1004      1004      1004      1004      1004      1004      1004      1004
      1004      1004      1005      1005      1005      1005      1005      1005
      1005      1005      1005      1005      1005      1006      1006      1006
      1006      1006      1006      1006      1006      1006      1006      1006
      1007      1007      1007      1007      1007      1007      1007      1007
      1007      1007      1007      1008      1008      1008      1008      1008
      1008      1008      1008      1008      1008      1008      1009      1009
      1009      1009      1009      1009      1009      1009      1009      1009
      1009      1010      1010      1010      1010      1010      1010      1010
      1010      1010      1010      1010      1011      1011      1011      1011
      1011      1011      1011      1011      1011      1011      1011      1012
      1012      1012      1012      1012      1012      1012      1012      1012
      1012      1012      1013      1013      1013      1013      1013      1013
      1013      1013      1013      1013      1013      1014      1014      1014
      1014      1014      1014      1014      1014      1014      1014      1014
      1015      1015      1015      1015      1015      1015      1015      1015
      1015      1015      1015      1016      1016      1016      1016      1016
      1016      1016      1016      1016      1016      1016      1017      1017
      1017      1017      1017      1017      1017      1017      1017      1017
      1017      1018      1018      1018      1018      1018      1018      1018
      1018      1018      1018      1018      1019      1019      1019      1019
      1019      1019      1019      1019      1019      1019      1019      1020
      1020      1020      1020      1020      1020      1020      1020      1020
      1020      1020      1021      1021      1021      1021      1021      1021
      1021      1021      1021      1021      1021      1022      1022      1022
      1022      1022      1022      1022      1022      1022      1022      1022
      1023      1023      1023      1023      1023      1023      1023      1023
      1023      1023      1023      1024      1024      1024      1024      1024
      1024      1024      1024      1024      1024      1024      1025      1025
      1025      1025      1025      1025      1025      1025      1025      1025
      1025      1026      1026      1026      1026      1026      1026      1026
      1026      1026      1026      1026      1027      1027      1027      1027
      1027      1027      1027      1027      1027      1027      1027      1028
      1028      1028      1028      1028      1028      1028      1028      1028
      1028      1028      1029      1029      1029      1029      1029      1029
      1029      1029      1029      1029      1029      1030      1030      1030
      1030      1030      1030      1030      1030      1030      1030      1030
      1031      1031      1031      1031      1031      1031      1031      1031
      1031      1031      1031      1032      1032      1032      1032      1032
      1032      1032      1032      1032      1032      1032      1033      1033
      1033      1033      1033      1033      1033      1033      1033      1033
      1033      1034      1034      1034      1034      1034      1034      1034
      1034      1034      1034      1034      1035      1035      1035      1035
      1035      1035      1035      1035      1035      1035      1035      1036
      1036      1036      1036      1036      1036      1036      1036      1036
      1036      1036      1037      1037      1037      1037      1037      1037
      1037      1037      1037      1037      1037      1038      1038      1038
      1038      1038      1038      1038      1038      1038      1038      1038
      1039      1039      1039      1039      1039      1039      1039      1039
      1039      1039      1039      1040      1040      1040      1040      1040
      1040      1040      1040      1040      1040      1040      1041      1041
      1041      1041      1041      1041      1041      1041      1041      1041
      1041      1042      1042      1042      1042      1042      1042      1042
      1042      1042      1042      1042      1043      1043      1043      1043
      1043      1043      1043      1043      1043      1043      1043      1044
      1044      1044      1044      1044      1044      1044      1044      1044
      1044      1044      1045      1045      1045      1045      1045      1045
      1045      1045      1045      1045      1045      1046      1046      1046
      1046      1046      1046      1046      1046      1046      1046      1046
      1047      1047      1047      1047      1047      1047      1047      1047
      1047      1047      1047      1048      1048      1048      1048      1048
      1048      1048      1048      1048      1048      1048      1049      1049
      1049      1049      1049      1049      1049      1049      1049      1049
      1049      1050      1050      1050      1050      1050      1050      1050
      1050      1050      1050      1050      1051      1051      1051      1051
      1051      1051      1051      1051      1051      1051      1051      1052
      1052      1052      1052      1052      1052      1052      1052      1052
      1052      1052      1053      1053      1053      1053      1053      1053
      1053      1053      1053      1053      1053      1054      1054      1054
      1054      1054      1054      1054      1054      1054      1054      1054
      1055      1055      1055      1055      1055      1055      1055      1055
      1055      1055      1055      1056      1056      1056      1056      1056
      1056      1056      1056      1056      1056      1056      1057      1057
      1057      1057      1057      1057      1057      1057      1057      1057
      1057      1058      1058      1058      1058      1058      1058      1058
      1058      1058      1058      1058      1059      1059      1059      1059
      1059      1059      1059      1059      1059      1059      1059      1060
      1060      1060      1060      1060      1060      1060      1060      1060
      1060      1060      1061      1061      1061      1061      1061      1061
      1061      1061      1061      1061      1061      1062      1062      1062
      1062      1062      1062      1062      1062      1062      1062      1062
      1063      1063      1063      1063      1063      1063      1063      1063
      1063      1063      1063      1064      1064      1064      1064      1064
      1064      1064      1064      1064      1064      1064      1065      1065
      1065      1065      1065      1065      1065      1065      1065      1065
      1065      1066      1066      1066      1066      1066      1066      1066
      1066      1066      1066      1066      1067      1067      1067      1067
      1067      1067      1067      1067      1067      1067      1067      1068
      1068      1068      1068      1068      1068      1068      1068      1068
      1068      1068      1069      1069      1069      1069      1069      1069
      1069      1069      1069      1069      1069      1070      1070      1070
      1070      1070      1070      1070      1070      1070      1070      1070
      1071      1071      1071      1071      1071      1071      1071      1071
      1071      1071      1071      1072      1072      1072      1072      1072
      1072      1072      1072      1072      1072      1072      1073      1073
      1073      1073      1073      1073      1073      1073      1073      1073
      1073      1074      1074      1074      1074      1074      1074      1074
      1074      1074      1074      1074      1075      1075      1075      1075
      1075      1075      1075      1075      1075      1075      1075      1076
      1076      1076      1076      1076      1076      1076      1076      1076
      1076      1076      1077      1077      1077      1077      1077      1077
      1077      1077      1077      1077      1077      1078      1078      1078
      1078      1078      1078      1078      1078      1078      1078      1078
      1079      1079      1079      1079      1079      1079      1079      1079
      1079      1079      1079      1080      1080      1080      1080      1080
      1080      1080      1080      1080      1080      1080      1081      1081
      1081      1081      1081      1081      1081      1081      1081      1081
      1081      1082      1082      1082      1082      1082      1082      1082
      1082      1082      1082      1082      1083      1083      1083      1083
      1083      1083      1083      1083      1083      1083      1083      1084
      1084      1084      1084      1084      1084      1084      1084      1084
      1084      1084      1085      1085      1085      1085      1085      1085
      1085      1085      1085      1085      1085      1086      1086      1086
      1086      1086      1086      1086      1086      1086      1086      1086
      1087      1087      1087      1087      1087      1087      1087      1087
      1087      1087      1087      1088      1088      1088      1088      1088
      1088      1088      1088      1088      1088      1088      1089      1089
      1089      1089      1089      1089      1089      1089      1089      1089
      1089      1090      1090      1090      1090      1090      1090      1090
      1090      1090      1090      1090      1091      1091      1091      1091
      1091      1091      1091      1091      1091      1091      1091      1092
      1092      1092      1092      1092      1092      1092      1092      1092
      1092      1092      1093      1093      1093      1093      1093      1093
      1093      1093      1093      1093      1093      1094      1094      1094
      1094      1094      1094      1094      1094      1094      1094      1094
      1095      1095      1095      1095      1095      1095      1095      1095
      1095      1095      1095      1096      1096      1096      1096      1096
      1096      1096      1096      1096      1096      1096      1097      1097
      1097      1097      1097      1097      1097      1097      1097      1097
      1097      1098      1098      1098      1098      1098      1098      1098
      1098      1098      1098      1098      1099      1099      1099      1099
      1099      1099      1099      1099      1099      1099      1099      1100
      1100      1100      1100      1100      1100      1100      1100      1100
      1100      1100      1101      1101      1101      1101      1101      1101
      1101      1101      1101      1101      1101      1102      1102      1102
      1102      1102      1102      1102      1102      1102      1102      1102
      1103      1103      1103      1103      1103      1103      1103      1103
      1103      1103      1103      1104      1104      1104      1104      1104
      1104      1104      1104      1104      1104      1104      1105      1105
      1105      1105      1105      1105      1105      1105      1105      1105
      1105      1106      1106      1106      1106      1106      1106      1106
      1106      1106      1106      1106      1107      1107      1107      1107
      1107      1107      1107      1107      1107      1107      1107      1108
      1108      1108      1108      1108      1108      1108      1108      1108
      1108      1108      1109      1109      1109      1109      1109      1109
      1109      1109      1109      1109      1109      1110      1110      1110
      1110      1110      1110      1110      1110      1110      1110      1110
      1111      1111      1111      1111      1111      1111      1111      1111
      1111      1111      1111      1112      1112      1112      1112      1112
      1112      1112      1112      1112      1112      1112      1113      1113
      1113      1113      1113      1113      1113      1113      1113      1113
      1113      1114      1114      1114      1114      1114      1114      1114
      1114      1114      1114      1114      1115      1115      1115      1115
      1115      1115      1115      1115      1115      1115      1115      1116
      1116      1116      1116      1116      1116      1116      1116      1116
      1116      1116      1117      1117      1117      1117      1117      1117
      1117      1117      1117      1117      1117      1118      1118      1118
      1118      1118      1118      1118      1118      1118      1118      1118
      1119      1119      1119      1119      1119      1119      1119      1119
      1119      1119      1119      1120      1120      1120      1120      1120
      1120      1120      1120      1120      1120      1120      1121      1121
      1121      1121      1121      1121      1121      1121      1121      1121
      1121      1122      1122      1122      1122      1122      1122      1122
      1122      1122      1122      1122      1123      1123      1123      1123
      1123      1123      1123      1123      1123      1123      1123      1124
      1124      1124      1124      1124      1124      1124      1124      1124
      1124      1124      1125      1125      1125      1125      1125      1125
      1125      1125      1125      1125      1125      1126      1126      1126
      1126      1126      1126      1126      1126      1126      1126      1126
      1127      1127      1127      1127      1127      1127      1127      1127
      1127      1127      1127      1128      1128      1128      1128      1128
      1128      1128      1128      1128      1128      1128      1129      1129
      1129      1129      1129      1129      1129      1129      1129      1129
      1129      1130      1130      1130      1130      1130      1130      1130
      1130      1130      1130      1130      1131      1131      1131      1131
      1131      1131      1131      1131      1131      1131      1131      1132
      1132      1132      1132      1132      1132      1132      1132      1132
      1132      1132      1133      1133      1133      1133      1133      1133
      1133      1133      1133      1133      1133      1134      1134      1134
      1134      1134      1134      1134      1134      1134      1134      1134
      1135      1135      1135      1135      1135      1135      1135      1135
      1135      1135      1135      1136      1136      1136      1136      1136
      1136      1136      1136      1136      1136      1136      1137      1137
      1137      1137      1137      1137      1137      1137      1137      1137
      1137      1138      1138      1138      1138      1138      1138      1138
      1138      1138      1138      1138      1139      1139      1139      1139
      1139      1139      1139      1139      1139      1139      1139      1140
      1140      1140      1140      1140      1140      1140      1140      1140
      1140      1140      1141      1141      1141      1141      1141      1141
      1141      1141      1141      1141      1141      1142      1142      1142
      1142      1142      1142      1142      1142      1142      1142      1142
      1143      1143      1143      1143      1143      1143      1143      1143
      1143      1143      1143      1144      1144      1144      1144      1144
      1144      1144      1144      1144      1144      1144      1145      1145
      1145      1145      1145      1145      1145      1145      1145      1145
      1145      1146      1146      1146      1146      1146      1146      1146
      1146      1146      1146      1146      1147      1147      1147      1147
      1147      1147      1147      1147      1147      1147      1147      1148
      1148      1148      1148      1148      1148      1148      1148      1148
      1148      1148      1149      1149      1149      1149      1149      1149
      1149      1149      1149      1149      1149      1150      1150      1150
      1150      1150      1150      1150      1150      1150      1150      1150
      1151      1151      1151      1151      1151      1151      1151      1151
      1151      1151      1151      1152      1152      1152      1152      1152
      1152      1152      1152      1152      1152      1152      1153      1153
      1153      1153      1153      1153      1153      1153      1153      1153
      1153      1154      1154      1154      1154      1154      1154      1154
      1154      1154      1154      1154      1155      1155      1155      1155
      1155      1155      1155      1155      1155      1155      1155      1156
      1156      1156      1156      1156      1156      1156      1156      1156
      1156      1156      1157      1157      1157      1157      1157      1157
      1157      1157      1157      1157      1157      1158      1158      1158
      1158      1158      1158      1158      1158      1158      1158      1158
      1159      1159      1159      1159      1159      1159      1159      1159
      1159      1159      1159      1160      1160      1160      1160      1160
      1160      1160      1160      1160      1160      1160      1161      1161
      1161      1161      1161      1161      1161      1161      1161      1161
      1161      1162      1162      1162      1162      1162      1162      1162
      1162      1162      1162      1162      1163      1163      1163      1163
      1163      1163      1163      1163      1163      1163      1163      1164
      1164      1164      1164      1164      1164      1164      1164      1164
      1164      1164      1165      1165      1165      1165      1165      1165
      1165      1165      1165      1165      1165      1166      1166      1166
      1166      1166      1166      1166      1166      1166      1166      1166
      1167      1167      1167      1167      1167      1167      1167      1167
      1167      1167      1167      1168      1168      1168      1168      1168
      1168      1168      1168      1168      1168      1168      1169      1169
      1169      1169      1169      1169      1169      1169      1169      1169
      1169      1170      1170      1170      1170      1170      1170      1170
      1170      1170      1170      1170      1171      1171      1171      1171
      1171      1171      1171      1171      1171      1171      1171      1172
      1172      1172      1172      1172      1172      1172      1172      1172
      1172      1172      1173      1173      1173      1173      1173      1173
      1173      1173      1173      1173      1173      1174      1174      1174
      1174      1174      1174      1174      1174      1174      1174      1174
      1175      1175      1175      1175      1175      1175      1175      1175
      1175      1175      1175      1176      1176      1176      1176      1176
      1176      1176      1176      1176      1176      1176      1177      1177
      1177      1177      1177      1177      1177      1177      1177      1177
      1177      1178      1178      1178      1178      1178      1178      1178
      1178      1178      1178      1178      1179      1179      1179      1179
      1179      1179      1179      1179      1179      1179      1179      1180
      1180      1180      1180      1180      1180      1180      1180      1180
      1180      1180      1181      1181      1181      1181      1181      1181
      1181      1181      1181      1181      1181      1182      1182      1182
      1182      1182      1182      1182      1182      1182      1182      1182
      1183      1183      1183      1183      1183      1183      1183      1183
      1183      1183      1183      1184      1184      1184      1184      1184
      1184      1184      1184      1184      1184      1184      1185      1185
      1185      1185      1185      1185      1185      1185      1185      1185
      1185      1186      1186      1186      1186      1186      1186      1186
      1186      1186      1186      1186      1187      1187      1187      1187
      1187      1187      1187      1187      1187      1187      1187      1188
      1188      1188      1188      1188      1188      1188      1188      1188
      1188      1188      1189      1189      1189      1189      1189      1189
      1189      1189      1189      1189      1189      1190      1190      1190
      1190      1190      1190      1190      1190      1190      1190      1190
      1191      1191      1191      1191      1191      1191      1191      1191
      1191      1191      1191      1192      1192      1192      1192      1192
      1192      1192      1192      1192      1192      1192      1193      1193
      1193      1193      1193      1193      1193      1193      1193      1193
      1193      1194      1194      1194      1194      1194      1194      1194
      1194      1194      1194      1194      1195      1195      1195      1195
      1195      1195      1195      1195      1195      1195      1195      1196
      1196      1196      1196      1196      1196      1196      1196      1196
      1196      1196      1197      1197      1197      1197      1197      1197
      1197      1197      1197      1197      1197      1198      1198      1198
      1198      1198      1198      1198      1198      1198      1198      1198
      1199      1199      1199      1199      1199      1199      1199      1199
      1199      1199      1199      1200      1200      1200      1200      1200
      1200      1200      1200      1200      1200      1200      1201      1201
      1201      1201      1201      1201      1201      1201      1201      1201
      1201      1202      1202      1202      1202      1202      1202      1202
      1202      1202      1202      1202      1203      1203      1203      1203
      1203      1203      1203      1203      1203      1203      1203      1204
      1204      1204      1204      1204      1204      1204      1204      1204
      1204      1204      1205      1205      1205      1205      1205      1205
      1205      1205      1205      1205      1205      1206      1206      1206
      1206      1206      1206      1206      1206      1206      1206      1206
      1207      1207      1207      1207      1207      1207      1207      1207
      1207      1207      1207      1208      1208      1208      1208      1208
      1208      1208      1208      1208      1208      1208      1209      1209
      1209      1209      1209      1209      1209      1209      1209      1209
      1209      1210      1210      1210      1210      1210      1210      1210
      1210      1210      1210      1210      1211      1211      1211      1211
      1211      1211      1211      1211      1211      1211      1211      1212
      1212      1212      1212      1212      1212      1212      1212      1212
      1212      1212      1213      1213      1213      1213      1213      1213
      1213      1213      1213      1213      1213      1214      1214      1214
      1214      1214      1214      1214      1214      1214      1214      1214
      1215      1215      1215      1215      1215      1215      1215      1215
      1215      1215      1215      1216      1216      1216      1216      1216
      1216      1216      1216      1216      1216      1216      1217      1217
      1217      1217      1217      1217      1217      1217      1217      1217
      1217      1218      1218      1218      1218      1218      1218      1218
      1218      1218      1218      1218      1219      1219      1219      1219
      1219      1219      1219      1219      1219      1219      1219      1220
      1220      1220      1220      1220      1220      1220      1220      1220
      1220      1220      1221      1221      1221      1221      1221      1221
      1221      1221      1221      1221      1221      1222      1222      1222
      1222      1222      1222      1222      1222      1222      1222      1222
      1223      1223      1223      1223      1223      1223      1223      1223
      1223      1223      1223      1224      1224      1224      1224      1224
      1224      1224      1224      1224      1224      1224      1225      1225
      1225      1225      1225      1225      1225      1225      1225      1225
      1225      1226      1226      1226      1226      1226      1226      1226
      1226      1226      1226      1226      1227      1227      1227      1227
      1227      1227      1227      1227      1227      1227      1227      1228
      1228      1228      1228      1228      1228      1228      1228      1228
      1228      1228      1229      1229      1229      1229      1229      1229
      1229      1229      1229      1229      1229      1230      1230      1230
      1230      1230      1230      1230      1230      1230      1230      1230
      1231      1231      1231      1231      1231      1231      1231      1231
      1231      1231      1231      1232      1232      1232      1232      1232
      1232      1232      1232      1232      1232      1232      1233      1233
      1233      1233      1233      1233      1233      1233      1233      1233
      1233      1234      1234      1234      1234      1234      1234      1234
      1234      1234      1234      1234      1235      1235      1235      1235
      1235      1235      1235      1235      1235      1235      1235      1236
      1236      1236      1236      1236      1236      1236      1236      1236
      1236      1236      1237      1237      1237      1237      1237      1237
      1237      1237      1237      1237      1237      1238      1238      1238
      1238      1238      1238      1238      1238      1238      1238      1238
      1239      1239      1239      1239      1239      1239      1239      1239
      1239      1239      1239      1240      1240      1240      1240      1240
      1240      1240      1240      1240      1240      1240      1241      1241
      1241      1241      1241      1241      1241      1241      1241      1241
      1241      1242      1242      1242      1242      1242      1242      1242
      1242      1242      1242      1242      1243      1243      1243      1243
      1243      1243      1243      1243      1243      1243      1243      1244
      1244      1244      1244      1244      1244      1244      1244      1244
      1244      1244      1245      1245      1245      1245      1245      1245
      1245      1245      1245      1245      1245      1246      1246      1246
      1246      1246      1246      1246      1246      1246      1246      1246
      1247      1247      1247      1247      1247      1247      1247      1247
      1247      1247      1247      1248      1248      1248      1248      1248
      1248      1248      1248      1248      1248      1248      1249      1249
      1249      1249      1249      1249      1249      1249      1249      1249
      1249      1250      1250      1250      1250      1250      1250      1250
      1250      1250      1250      1250      1251      1251      1251      1251
      1251      1251      1251      1251      1251      1251      1251      1252
      1252      1252      1252      1252      1252      1252      1252      1252
      1252      1252      1253      1253      1253      1253      1253      1253
      1253      1253      1253      1253      1253      1254      1254      1254
      1254      1254      1254      1254      1254      1254      1254      1254
      1255      1255      1255      1255      1255      1255      1255      1255
      1255      1255      1255      1256      1256      1256      1256      1256
      1256      1256      1256      1256      1256      1256      1257      1257
      1257      1257      1257      1257      1257      1257      1257      1257
      1257      1258      1258      1258      1258      1258      1258      1258
      1258      1258      1258      1258      1259      1259      1259      1259
      1259      1259      1259      1259      1259      1259      1259      1260
      1260      1260      1260      1260      1260      1260      1260      1260
      1260      1260      1261      1261      1261      1261      1261      1261
      1261      1261      1261      1261      1261      1262      1262      1262
      1262      1262      1262      1262      1262      1262      1262      1262
      1263      1263      1263      1263      1263      1263      1263      1263
      1263      1263      1263      1264      1264      1264      1264      1264
      1264      1264      1264      1264      1264      1264      1265      1265
      1265      1265      1265      1265      1265      1265      1265      1265
      1265      1266      1266      1266      1266      1266      1266      1266
      1266      1266      1266      1266      1267      1267      1267      1267
      1267      1267      1267      1267      1267      1267      1267      1268
      1268      1268      1268      1268      1268      1268      1268      1268
      1268      1268      1269      1269      1269      1269      1269      1269
      1269      1269      1269      1269      1269      1270      1270      1270
      1270      1270      1270      1270      1270      1270      1270      1270
      1271      1271      1271      1271      1271      1271      1271      1271
      1271      1271      1271      1272      1272      1272      1272      1272
      1272      1272      1272      1272      1272      1272      1273      1273
      1273      1273      1273      1273      1273      1273      1273      1273
      1273      1274      1274      1274      1274      1274      1274      1274
      1274      1274      1274      1274      1275      1275      1275      1275
      1275      1275      1275      1275      1275      1275      1275      1276
      1276      1276      1276      1276      1276      1276      1276      1276
      1276      1276      1277      1277      1277      1277      1277      1277
      1277      1277      1277      1277      1277      1278      1278      1278
      1278      1278      1278      1278      1278      1278      1278      1278
      1279      1279      1279      1279      1279      1279      1279      1279
      1279      1279      1279      1280      1280      1280      1280      1280
      1280      1280      1280      1280      1280      1280      1281      1281
      1281      1281      1281      1281      1281      1281      1281      1281
      1281      1282      1282      1282      1282      1282      1282      1282
      1282      1282      1282      1282      1283      1283      1283      1283
      1283      1283      1283      1283      1283      1283      1283      1284
      1284      1284      1284      1284      1284      1284      1284      1284
      1284      1284      1285      1285      1285      1285      1285      1285
      1285      1285      1285      1285      1285      1286      1286      1286
      1286      1286      1286      1286      1286      1286      1286      1286
      1287      1287      1287      1287      1287      1287      1287      1287
      1287      1287      1287      1288      1288      1288      1288      1288
      1288      1288      1288      1288      1288      1288      1289      1289
      1289      1289      1289      1289      1289      1289      1289      1289
      1289      1290      1290      1290      1290      1290      1290      1290
      1290      1290      1290      1290      1291      1291      1291      1291
      1291      1291      1291      1291      1291      1291      1291      1292
      1292      1292      1292      1292      1292      1292      1292      1292
      1292      1292      1293      1293      1293      1293      1293      1293
      1293      1293      1293      1293      1293      1294      1294      1294
      1294      1294      1294      1294      1294      1294      1294      1294
      1295      1295      1295      1295      1295      1295      1295      1295
      1295      1295      1295      1296      1296      1296      1296      1296
      1296      1296      1296      1296      1296      1296      1297      1297
      1297      1297      1297      1297      1297      1297      1297      1297
      1297      1298      1298      1298      1298      1298      1298      1298
      1298      1298      1298      1298      1299      1299      1299      1299
      1299      1299      1299      1299      1299      1299      1299      1300
      1300      1300      1300      1300      1300      1300      1300      1300
      1300      1300      1301      1301      1301      1301      1301      1301
      1301      1301      1301      1301      1301      1302      1302      1302
      1302      1302      1302      1302      1302      1302      1302      1302
      1303      1303      1303      1303      1303      1303      1303      1303
      1303      1303      1303      1304      1304      1304      1304      1304
      1304      1304      1304      1304      1304      1304      1305      1305
      1305      1305      1305      1305      1305      1305      1305      1305
      1305      1306      1306      1306      1306      1306      1306      1306
      1306      1306      1306      1306      1307      1307      1307      1307
      1307      1307      1307      1307      1307      1307      1307      1308
      1308      1308      1308      1308      1308      1308      1308      1308
      1308      1308      1309      1309      1309      1309      1309      1309
      1309      1309      1309      1309      1309      1310      1310      1310
      1310      1310      1310      1310      1310      1310      1310      1310
      1311      1311      1311      1311      1311      1311      1311      1311
      1311      1311      1311      1312      1312      1312      1312      1312
      1312      1312      1312      1312      1312      1312      1313      1313
      1313      1313      1313      1313      1313      1313      1313      1313
      1313      1314      1314      1314      1314      1314      1314      1314
      1314      1314      1314      1314      1315      1315      1315      1315
      1315      1315      1315      1315      1315      1315      1315      1316
      1316      1316      1316      1316      1316      1316      1316      1316
      1316      1316      1317      1317      1317      1317      1317      1317
      1317      1317      1317      1317      1317      1318      1318      1318
      1318      1318      1318      1318      1318      1318      1318      1318
      1319      1319      1319      1319      1319      1319      1319      1319
      1319      1319      1319      1320      1320      1320      1320      1320
      1320      1320      1320      1320      1320      1320      1321      1321
      1321      1321      1321      1321      1321      1321      1321      1321
      1321      1322      1322      1322      1322      1322      1322      1322
      1322      1322      1322      1322      1323      1323      1323      1323
      1323      1323      1323      1323      1323      1323      1323      1324
      1324      1324      1324      1324      1324      1324      1324      1324
      1324      1324      1325      1325      1325      1325      1325      1325
      1325      1325      1325      1325      1325      1326      1326      1326
      1326      1326      1326      1326      1326      1326      1326      1326
      1327      1327      1327      1327      1327      1327      1327      1327
      1327      1327      1327      1328      1328      1328      1328      1328
      1328      1328      1328      1328      1328      1328      1329      1329
      1329      1329      1329      1329      1329      1329      1329      1329
      1329      1330      1330      1330      1330      1330      1330      1330
      1330      1330      1330      1330      1331      1331      1331      1331
      1331      1331      1331      1331      1331      1331      1331      1332
      1332      1332      1332      1332      1332      1332      1332      1332
      1332      1332      1333      1333      1333      1333      1333      1333
      1333      1333      1333      1333      1333      1334      1334      1334
      1334      1334      1334      1334      1334      1334      1334      1334
      1335      1335      1335      1335      1335      1335      1335      1335
      1335      1335      1335      1336      1336      1336      1336      1336
      1336      1336      1336      1336      1336      1336      1337      1337
      1337      1337      1337      1337      1337      1337      1337      1337
      1337      1338      1338      1338      1338      1338      1338      1338
      1338      1338      1338      1338      1339      1339      1339      1339
      1339      1339      1339      1339      1339      1339      1339      1340
      1340      1340      1340      1340      1340      1340      1340      1340
      1340      1340      1341      1341      1341      1341      1341      1341
      1341      1341      1341      1341      1341      1342      1342      1342
      1342      1342      1342      1342      1342      1342      1342      1342
      1343      1343      1343      1343      1343      1343      1343      1343
      1343      1343      1343      1344      1344      1344      1344      1344
      1344      1344      1344      1344      1344      1344      1345      1345
      1345      1345      1345      1345      1345      1345      1345      1345
      1345      1346      1346      1346      1346      1346      1346      1346
      1346      1346      1346      1346      1347      1347      1347      1347
      1347      1347      1347      1347      1347      1347      1347      1348
      1348      1348      1348      1348      1348      1348      1348      1348
      1348      1348      1349      1349      1349      1349      1349      1349
      1349      1349      1349      1349      1349      1350      1350      1350
      1350      1350      1350      1350      1350      1350      1350      1350
      1351      1351      1351      1351      1351      1351      1351      1351
      1351      1351      1351      1352      1352      1352      1352      1352
      1352      1352      1352      1352      1352      1352      1353      1353
      1353      1353      1353      1353      1353      1353      1353      1353
      1353      1354      1354      1354      1354      1354      1354      1354
      1354      1354      1354      1354      1355      1355      1355      1355
      1355      1355      1355      1355      1355      1355      1355      1356
      1356      1356      1356      1356      1356      1356      1356      1356
      1356      1356      1357      1357      1357      1357      1357      1357
      1357      1357      1357      1357      1357      1358      1358      1358
      1358      1358      1358      1358      1358      1358      1358      1358
      1359      1359      1359      1359      1359      1359      1359      1359
      1359      1359      1359      1360      1360      1360      1360      1360
      1360      1360      1360      1360      1360      1360      1361      1361
      1361      1361      1361      1361      1361      1361      1361      1361
      1361      1362      1362      1362      1362      1362      1362      1362
      1362      1362      1362      1362      1363      1363      1363      1363
      1363      1363      1363      1363      1363      1363      1363      1364
      1364      1364      1364      1364      1364      1364      1364      1364
      1364      1364      1365      1365      1365      1365      1365      1365
      1365      1365      1365      1365      1365      1366      1366      1366
      1366      1366      1366      1366      1366      1366      1366      1366
      1367      1367      1367      1367      1367      1367      1367      1367
      1367      1367      1367      1368      1368      1368      1368      1368
      1368      1368      1368      1368      1368      1368      1369      1369
      1369      1369      1369      1369      1369      1369      1369      1369
      1369      1370      1370      1370      1370      1370      1370      1370
      1370      1370      1370      1370      1371      1371      1371      1371
      1371      1371      1371      1371      1371      1371      1371      1372
      1372      1372      1372      1372      1372      1372      1372      1372
      1372      1372      1373      1373      1373      1373      1373      1373
      1373      1373      1373      1373      1373      1374      1374      1374
      1374      1374      1374      1374      1374      1374      1374      1374
      1375      1375      1375      1375      1375      1375      1375      1375
      1375      1375      1375      1376      1376      1376      1376      1376
      1376      1376      1376      1376      1376      1376      1377      1377
      1377      1377      1377      1377      1377      1377      1377      1377
      1377      1378      1378      1378      1378      1378      1378      1378
      1378      1378      1378      1378      1379      1379      1379      1379
      1379      1379      1379      1379      1379      1379      1379      1380
      1380      1380      1380      1380      1380      1380      1380      1380
      1380      1380      1381      1381      1381      1381      1381      1381
      1381      1381      1381      1381      1381      1382      1382      1382
      1382      1382      1382      1382      1382      1382      1382      1382
      1383      1383      1383      1383      1383      1383      1383      1383
      1383      1383      1383      1384      1384      1384      1384      1384
      1384      1384      1384      1384      1384      1384      1385      1385
      1385      1385      1385      1385      1385      1385      1385      1385
      1385      1386      1386      1386      1386      1386      1386      1386
      1386      1386      1386      1386      1387      1387      1387      1387
      1387      1387      1387      1387      1387      1387      1387      1388
      1388      1388      1388      1388      1388      1388      1388      1388
      1388      1388      1389      1389      1389      1389      1389      1389
      1389      1389      1389      1389      1389      1390      1390      1390
      1390      1390      1390      1390      1390      1390      1390      1390
      1391      1391      1391      1391      1391      1391      1391      1391
      1391      1391      1391      1392      1392      1392      1392      1392
      1392      1392      1392      1392      1392      1392      1393      1393
      1393      1393      1393      1393      1393      1393      1393      1393
      1393      1394      1394      1394      1394      1394      1394      1394
      1394      1394      1394      1394      1395      1395      1395      1395
      1395      1395      1395      1395      1395      1395      1395      1396
      1396      1396      1396      1396      1396      1396      1396      1396
      1396      1396      1397      1397      1397      1397      1397      1397
      1397      1397      1397      1397      1397      1398      1398      1398
      1398      1398      1398      1398      1398      1398      1398      1398
      1399      1399      1399      1399      1399      1399      1399      1399
      1399      1399      1399      1400      1400      1400      1400      1400
      1400      1400      1400      1400      1400      1400      1401      1401
      1401      1401      1401      1401      1401      1401      1401      1401
      1401      1402      1402      1402      1402      1402      1402      1402
      1402      1402      1402      1402      1403      1403      1403      1403
      1403      1403      1403      1403      1403      1403      1403      1404
      1404      1404      1404      1404      1404      1404      1404      1404
      1404      1404      1405      1405      1405      1405      1405      1405
      1405      1405      1405      1405      1405      1406      1406      1406
      1406      1406      1406      1406      1406      1406      1406      1406
      1407      1407      1407      1407      1407      1407      1407      1407
      1407      1407      1407      1408      1408      1408      1408      1408
      1408      1408      1408      1408      1408      1408      1409      1409
      1409      1409      1409      1409      1409      1409      1409      1409
      1409      1410      1410      1410      1410      1410      1410      1410
      1410      1410      1410      1410      1411      1411      1411      1411
      1411      1411      1411      1411      1411      1411      1411      1412
      1412      1412      1412      1412      1412      1412      1412      1412
      1412      1412      1413      1413      1413      1413      1413      1413
      1413      1413      1413      1413      1413      1414      1414      1414
      1414      1414      1414      1414      1414      1414      1414      1414
      1415      1415      1415      1415      1415      1415      1415      1415
      1415      1415      1415      1416      1416      1416      1416      1416
      1416      1416      1416      1416      1416      1416      1417      1417
      1417      1417      1417      1417      1417      1417      1417      1417
      1417      1418      1418      1418      1418      1418      1418      1418
      1418      1418      1418      1418      1419      1419      1419      1419
      1419      1419      1419      1419      1419      1419      1419      1420
      1420      1420      1420      1420      1420      1420      1420      1420
      1420      1420      1421      1421      1421      1421      1421      1421
      1421      1421      1421      1421      1421      1422      1422      1422
      1422      1422      1422      1422      1422      1422      1422      1422
      1423      1423      1423      1423      1423      1423      1423      1423
      1423      1423      1423      1424      1424      1424      1424      1424
      1424      1424      1424      1424      1424      1424      1425      1425
      1425      1425      1425      1425      1425      1425      1425      1425
      1425      1426      1426      1426      1426      1426      1426      1426
      1426      1426      1426      1426      1427      1427      1427      1427
      1427      1427      1427      1427      1427      1427      1427      1428
      1428      1428      1428      1428      1428      1428      1428      1428
      1428      1428      1429      1429      1429      1429      1429      1429
      1429      1429      1429      1429      1429      1430      1430      1430
      1430      1430      1430      1430      1430      1430      1430      1430
      1431      1431      1431      1431      1431      1431      1431      1431
      1431      1431      1431      1432      1432      1432      1432      1432
      1432      1432      1432      1432      1432      1432      1433      1433
      1433      1433      1433      1433      1433      1433      1433      1433
      1433      1434      1434      1434      1434      1434      1434      1434
      1434      1434      1434      1434      1435      1435      1435      1435
      1435      1435      1435      1435      1435      1435      1435      1436
      1436      1436      1436      1436      1436      1436      1436      1436
      1436      1436      1437      1437      1437      1437      1437      1437
      1437      1437      1437      1437      1437      1438      1438      1438
      1438      1438      1438      1438      1438      1438      1438      1438
      1439      1439      1439      1439      1439      1439      1439      1439
      1439      1439      1439      1440      1440      1440      1440      1440
      1440      1440      1440      1440      1440      1440      1441      1441
      1441      1441      1441      1441      1441      1441      1441      1441
      1441      1442      1442      1442      1442      1442      1442      1442
      1442      1442      1442      1442      1443      1443      1443      1443
      1443      1443      1443      1443      1443      1443      1443      1444
      1444      1444      1444      1444      1444      1444      1444      1444
      1444      1444      1445      1445      1445      1445      1445      1445
      1445      1445      1445      1445      1445      1446      1446      1446
      1446      1446      1446      1446      1446      1446      1446      1446
      1447      1447      1447      1447      1447      1447      1447      1447
      1447      1447      1447      1448      1448      1448      1448      1448
      1448      1448      1448      1448      1448      1448      1449      1449
      1449      1449      1449      1449      1449      1449      1449      1449
      1449      1450      1450      1450      1450      1450      1450      1450
      1450      1450      1450      1450      1451      1451      1451      1451
      1451      1451      1451      1451      1451      1451      1451      1452
      1452      1452      1452      1452      1452      1452      1452      1452
      1452      1452      1453      1453      1453      1453      1453      1453
      1453      1453      1453      1453      1453      1454      1454      1454
      1454      1454      1454      1454      1454      1454      1454      1454
      1455      1455      1455      1455      1455      1455      1455      1455
      1455      1455      1455      1456      1456      1456      1456      1456
      1456      1456      1456      1456      1456      1456      1457      1457
      1457      1457      1457      1457      1457      1457      1457      1457
      1457      1458      1458      1458      1458      1458      1458      1458
      1458      1458      1458      1458      1459      1459      1459      1459
      1459      1459      1459      1459      1459      1459      1459      1460
      1460      1460      1460      1460      1460      1460      1460      1460
      1460      1460      1461      1461      1461      1461      1461      1461
      1461      1461      1461      1461      1461      1462      1462      1462
      1462      1462      1462      1462      1462      1462      1462      1462
      1463      1463      1463      1463      1463      1463      1463      1463
      1463      1463      1463      1464      1464      1464      1464      1464
      1464      1464      1464      1464      1464      1464      1465      1465
      1465      1465      1465      1465      1465      1465      1465      1465
      1465      1466      1466      1466      1466      1466      1466      1466
      1466      1466      1466      1466      1467      1467      1467      1467
      1467      1467      1467      1467      1467      1467      1467      1468
      1468      1468      1468      1468      1468      1468      1468      1468
      1468      1468      1469      1469      1469      1469      1469      1469
      1469      1469      1469      1469      1469      1470      1470      1470
      1470      1470      1470      1470      1470      1470      1470      1470
      1471      1471      1471      1471      1471      1471      1471      1471
      1471      1471      1471      1472      1472      1472      1472      1472
      1472      1472      1472      1472      1472      1472      1473      1473
      1473      1473      1473      1473      1473      1473      1473      1473
      1473      1474      1474      1474      1474      1474      1474      1474
      1474      1474      1474      1474      1475      1475      1475      1475
      1475      1475      1475      1475      1475      1475      1475      1476
      1476      1476      1476      1476      1476      1476      1476      1476
      1476      1476      1477      1477      1477      1477      1477      1477
      1477      1477      1477      1477      1477      1478      1478      1478
      1478      1478      1478      1478      1478      1478      1478      1478
      1479      1479      1479      1479      1479      1479      1479      1479
      1479      1479      1479      1480      1480      1480      1480      1480
      1480      1480      1480      1480      1480      1480      1481      1481
      1481      1481      1481      1481      1481      1481      1481      1481
      1481      1482      1482      1482      1482      1482      1482      1482
      1482      1482      1482      1482      1483      1483      1483      1483
      1483      1483      1483      1483      1483      1483      1483      1484
      1484      1484      1484      1484      1484      1484      1484      1484
      1484      1484      1485      1485      1485      1485      1485      1485
      1485      1485      1485      1485      1485      1486      1486      1486
      1486      1486      1486      1486      1486      1486      1486      1486
      1487      1487      1487      1487      1487      1487      1487      1487
      1487      1487      1487      1488      1488      1488      1488      1488
      1488      1488      1488      1488      1488      1488      1489      1489
      1489      1489      1489      1489      1489      1489      1489      1489
      1489      1490      1490      1490      1490      1490      1490      1490
      1490      1490      1490      1490      1491      1491      1491      1491
      1491      1491      1491      1491      1491      1491      1491      1492
      1492      1492      1492      1492      1492      1492      1492      1492
      1492      1492      1493      1493      1493      1493      1493      1493
      1493      1493      1493      1493      1493      1494      1494      1494
      1494      1494      1494      1494      1494      1494      1494      1494
      1495      1495      1495      1495      1495      1495      1495      1495
      1495      1495      1495      1496      1496      1496      1496      1496
      1496      1496      1496      1496      1496      1496      1497      1497
      1497      1497      1497      1497      1497      1497      1497      1497
      1497      1498      1498      1498      1498      1498      1498      1498
      1498      1498      1498      1498      1499      1499      1499      1499
      1499      1499      1499      1499      1499      1499      1499      1500
      1500      1500      1500      1500      1500      1500      1500      1500
      1500      1500      1501      1501      1501      1501      1501      1501
      1501      1501      1501      1501      1501      1502      1502      1502
      1502      1502      1502      1502      1502      1502      1502      1502
      1503      1503      1503      1503      1503      1503      1503      1503
      1503      1503      1503      1504      1504      1504      1504      1504
      1504      1504      1504      1504      1504      1504      1505      1505
      1505      1505      1505      1505      1505      1505      1505      1505
      1505      1506      1506      1506      1506      1506      1506      1506
      1506      1506      1506      1506      1507      1507      1507      1507
      1507      1507      1507      1507      1507      1507      1507      1508
      1508      1508      1508      1508      1508      1508      1508      1508
      1508      1508      1509      1509      1509      1509      1509      1509
      1509      1509      1509      1509      1509      1510      1510      1510
      1510      1510      1510      1510      1510      1510      1510      1510
      1511      1511      1511      1511      1511      1511      1511      1511
      1511      1511      1511      1512      1512      1512      1512      1512
      1512      1512      1512      1512      1512      1512      1513      1513
      1513      1513      1513      1513      1513      1513      1513      1513
      1513      1514      1514      1514      1514      1514      1514      1514
      1514      1514      1514      1514      1515      1515      1515      1515
      1515      1515      1515      1515      1515      1515      1515      1516
      1516      1516      1516      1516      1516      1516      1516      1516
      1516      1516      1517      1517      1517      1517      1517      1517
      1517      1517      1517      1517      1517      1518      1518      1518
      1518      1518      1518      1518      1518      1518      1518      1518
      1519      1519      1519      1519      1519      1519      1519      1519
      1519      1519      1519      1520      1520      1520      1520      1520
      1520      1520      1520      1520      1520      1520      1521      1521
      1521      1521      1521      1521      1521      1521      1521      1521
      1521      1522      1522      1522      1522      1522      1522      1522
      1522      1522      1522      1522      1523      1523      1523      1523
      1523      1523      1523      1523      1523      1523      1523      1524
      1524      1524      1524      1524      1524      1524      1524      1524
      1524      1524      1525      1525      1525      1525      1525      1525
      1525      1525      1525      1525      1525      1526      1526      1526
      1526      1526      1526      1526      1526      1526      1526      1526
      1527      1527      1527      1527      1527      1527      1527      1527
      1527      1527      1527      1528      1528      1528      1528      1528
      1528      1528      1528      1528      1528      1528      1529      1529
      1529      1529      1529      1529      1529      1529      1529      1529
      1529      1530      1530      1530      1530      1530      1530      1530
      1530      1530      1530      1530      1531      1531      1531      1531
      1531      1531      1531      1531      1531      1531      1531      1532
      1532      1532      1532      1532      1532      1532      1532      1532
      1532      1532      1533      1533      1533      1533      1533      1533
      1533      1533      1533      1533      1533      1534      1534      1534
      1534      1534      1534      1534      1534      1534      1534      1534
      1535      1535      1535      1535      1535      1535      1535      1535
      1535      1535      1535      1536      1536      1536      1536      1536
      1536      1536      1536      1536      1536      1536      1537      1537
      1537      1537      1537      1537      1537      1537      1537      1537
      1537      1538      1538      1538      1538      1538      1538      1538
      1538      1538      1538      1538      1539      1539      1539      1539
      1539      1539      1539      1539      1539      1539      1539      1540
      1540      1540      1540      1540      1540      1540      1540      1540
      1540      1540      1541      1541      1541      1541      1541      1541
      1541      1541      1541      1541      1541      1542      1542      1542
      1542      1542      1542      1542      1542      1542      1542      1542
      1543      1543      1543      1543      1543      1543      1543      1543
      1543      1543      1543      1544      1544      1544      1544      1544
      1544      1544      1544      1544      1544      1544      1545      1545
      1545      1545      1545      1545      1545      1545      1545      1545
      1545      1546      1546      1546      1546      1546      1546      1546
      1546      1546      1546      1546      1547      1547      1547      1547
      1547      1547      1547      1547      1547      1547      1547      1548
      1548      1548      1548      1548      1548      1548      1548      1548
      1548      1548      1549      1549      1549      1549      1549      1549
      1549      1549      1549      1549      1549      1550      1550      1550
      1550      1550      1550      1550      1550      1550      1550      1550
      1551      1551      1551      1551      1551      1551      1551      1551
      1551      1551      1551      1552      1552      1552      1552      1552
      1552      1552      1552      1552      1552      1552      1553      1553
      1553      1553      1553      1553      1553      1553      1553      1553
      1553      1554      1554      1554      1554      1554      1554      1554
      1554      1554      1554      1554      1555      1555      1555      1555
      1555      1555      1555      1555      1555      1555      1555      1556
      1556      1556      1556      1556      1556      1556      1556      1556
      1556      1556      1557      1557      1557      1557      1557      1557
      1557      1557      1557      1557      1557      1558      1558      1558
      1558      1558      1558      1558      1558      1558      1558      1558
      1559      1559      1559      1559      1559      1559      1559      1559
      1559      1559      1559      1560      1560      1560      1560      1560
      1560      1560      1560      1560      1560      1560      1561      1561
      1561      1561      1561      1561      1561      1561      1561      1561
      1561      1562      1562      1562      1562      1562      1562      1562
      1562      1562      1562      1562      1563      1563      1563      1563
      1563      1563      1563      1563      1563      1563      1563      1564
      1564      1564      1564      1564      1564      1564      1564      1564
      1564      1564      1565      1565      1565      1565      1565      1565
      1565      1565      1565      1565      1565      1566      1566      1566
      1566      1566      1566      1566      1566      1566      1566      1566
      1567      1567      1567      1567      1567      1567      1567      1567
      1567      1567      1567      1568      1568      1568      1568      1568
      1568      1568      1568      1568      1568      1568      1569      1569
      1569      1569      1569      1569      1569      1569      1569      1569
      1569      1570      1570      1570      1570      1570      1570      1570
      1570      1570      1570      1570      1571      1571      1571      1571
      1571      1571      1571      1571      1571      1571      1571      1572
      1572      1572      1572      1572      1572      1572      1572      1572
      1572      1572      1573      1573      1573      1573      1573      1573
      1573      1573      1573      1573      1573      1574      1574      1574
      1574      1574      1574      1574      1574      1574      1574      1574
      1575      1575      1575      1575      1575      1575      1575      1575
      1575      1575      1575      1576      1576      1576      1576      1576
      1576      1576      1576      1576      1576      1576      1577      1577
      1577      1577      1577      1577      1577      1577      1577      1577
      1577      1578      1578      1578      1578      1578      1578      1578
      1578      1578      1578      1578      1579      1579      1579      1579
      1579      1579      1579      1579      1579      1579      1579      1580
      1580      1580      1580      1580      1580      1580      1580      1580
      1580      1580      1581      1581      1581      1581      1581      1581
      1581      1581      1581      1581      1581      1582      1582      1582
      1582      1582      1582      1582      1582      1582      1582      1582
      1583      1583      1583      1583      1583      1583      1583      1583
      1583      1583      1583      1584      1584      1584      1584      1584
      1584      1584      1584      1584      1584      1584      1585      1585
      1585      1585      1585      1585      1585      1585      1585      1585
      1585      1586      1586      1586      1586      1586      1586      1586
      1586      1586      1586      1586      1587      1587      1587      1587
      1587      1587      1587      1587      1587      1587      1587      1588
      1588      1588      1588      1588      1588      1588      1588      1588
      1588      1588      1589      1589      1589      1589      1589      1589
      1589      1589      1589      1589      1589      1590      1590      1590
      1590      1590      1590      1590      1590      1590      1590      1590
      1591      1591      1591      1591      1591      1591      1591      1591
      1591      1591      1591      1592      1592      1592      1592      1592
      1592      1592      1592      1592      1592      1592      1593      1593
      1593      1593      1593      1593      1593      1593      1593      1593
      1593      1594      1594      1594      1594      1594      1594      1594
      1594      1594      1594      1594      1595      1595      1595      1595
      1595      1595      1595      1595      1595      1595      1595      1596
      1596      1596      1596      1596      1596      1596      1596      1596
      1596      1596      1597      1597      1597      1597      1597      1597
      1597      1597      1597      1597      1597      1598      1598      1598
      1598      1598      1598      1598      1598      1598      1598      1598
      1599      1599      1599      1599      1599      1599      1599      1599
      1599      1599      1599      1600      1600      1600      1600      1600
      1600      1600      1600      1600      1600      1600      1601      1601
      1601      1601      1601      1601      1601      1601      1601      1601
      1601      1602      1602      1602      1602      1602      1602      1602
      1602      1602      1602      1602      1603      1603      1603      1603
      1603      1603      1603      1603      1603      1603      1603      1604
      1604      1604      1604      1604      1604      1604      1604      1604
      1604      1604      1605      1605      1605      1605      1605      1605
      1605      1605      1605      1605      1605      1606      1606      1606
      1606      1606      1606      1606      1606      1606      1606      1606
      1607      1607      1607      1607      1607      1607      1607      1607
      1607      1607      1607      1608      1608      1608      1608      1608
      1608      1608      1608      1608      1608      1608      1609      1609
      1609      1609      1609      1609      1609      1609      1609      1609
      1609      1610      1610      1610      1610      1610      1610      1610
      1610      1610      1610      1610      1611      1611      1611      1611
      1611      1611      1611      1611      1611      1611      1611      1612
      1612      1612      1612      1612      1612      1612      1612      1612
      1612      1612      1613      1613      1613      1613      1613      1613
      1613      1613      1613      1613      1613      1614      1614      1614
      1614      1614      1614      1614      1614      1614      1614      1614
      1615      1615      1615      1615      1615      1615      1615      1615
      1615      1615      1615      1616      1616      1616      1616      1616
      1616      1616      1616      1616      1616      1616      1617      1617
      1617      1617      1617      1617      1617      1617      1617      1617
      1617      1618      1618      1618      1618      1618      1618      1618
      1618      1618      1618      1618      1619      1619      1619      1619
      1619      1619      1619      1619      1619      1619      1619      1620
      1620      1620      1620      1620      1620      1620      1620      1620
      1620      1620      1621      1621      1621      1621      1621      1621
      1621      1621      1621      1621      1621      1622      1622      1622
      1622      1622      1622      1622      1622      1622      1622      1622
      1623      1623      1623      1623      1623      1623      1623      1623
      1623      1623      1623      1624      1624      1624      1624      1624
      1624      1624      1624      1624      1624      1624      1625      1625
      1625      1625      1625      1625      1625      1625      1625      1625
      1625      1626      1626      1626      1626      1626      1626      1626
      1626      1626      1626      1626      1627      1627      1627      1627
      1627      1627      1627      1627      1627      1627      1627      1628
      1628      1628      1628      1628      1628      1628      1628      1628
      1628      1628      1629      1629      1629      1629      1629      1629
      1629      1629      1629      1629      1629      1630      1630      1630
      1630      1630      1630      1630      1630      1630      1630      1630
      1631      1631      1631      1631      1631      1631      1631      1631
      1631      1631      1631      1632      1632      1632      1632      1632
      1632      1632      1632      1632      1632      1632      1633      1633
      1633      1633      1633      1633      1633      1633      1633      1633
      1633      1634      1634      1634      1634      1634      1634      1634
      1634      1634      1634      1634      1635      1635      1635      1635
      1635      1635      1635      1635      1635      1635      1635      1636
      1636      1636      1636      1636      1636      1636      1636      1636
      1636      1636      1637      1637      1637      1637      1637      1637
      1637      1637      1637      1637      1637      1638      1638      1638
      1638      1638      1638      1638      1638      1638      1638      1638
      1639      1639      1639      1639      1639      1639      1639      1639
      1639      1639      1639      1640      1640      1640      1640      1640
      1640      1640      1640      1640      1640      1640      1641      1641
      1641      1641      1641      1641      1641      1641      1641      1641
      1641      1642      1642      1642      1642      1642      1642      1642
      1642      1642      1642      1642      1643      1643      1643      1643
      1643      1643      1643      1643      1643      1643      1643      1644
      1644      1644      1644      1644      1644      1644      1644      1644
      1644      1644      1645      1645      1645      1645      1645      1645
      1645      1645      1645      1645      1645      1646      1646      1646
      1646      1646      1646      1646      1646      1646      1646      1646
      1647      1647      1647      1647      1647      1647      1647      1647
      1647      1647      1647      1648      1648      1648      1648      1648
      1648      1648      1648      1648      1648      1648      1649      1649
      1649      1649      1649      1649      1649      1649      1649      1649
      1649      1650      1650      1650      1650      1650      1650      1650
      1650      1650      1650      1650      1651      1651      1651      1651
      1651      1651      1651      1651      1651      1651      1651      1652
      1652      1652      1652      1652      1652      1652      1652      1652
      1652      1652      1653      1653      1653      1653      1653      1653
      1653      1653      1653      1653      1653      1654      1654      1654
      1654      1654      1654      1654      1654      1654      1654      1654
      1655      1655      1655      1655      1655      1655      1655      1655
      1655      1655      1655      1656      1656      1656      1656      1656
      1656      1656      1656      1656      1656      1656      1657      1657
      1657      1657      1657      1657      1657      1657      1657      1657
      1657      1658      1658      1658      1658      1658      1658      1658
      1658      1658      1658      1658      1659      1659      1659      1659
      1659      1659      1659      1659      1659      1659      1659      1660
      1660      1660      1660      1660      1660      1660      1660      1660
      1660      1660      1661      1661      1661      1661      1661      1661
      1661      1661      1661      1661      1661      1662      1662      1662
      1662      1662      1662      1662      1662      1662      1662      1662
      1663      1663      1663      1663      1663      1663      1663      1663
      1663      1663      1663      1664      1664      1664      1664      1664
      1664      1664      1664      1664      1664      1664      1665      1665
      1665      1665      1665      1665      1665      1665      1665      1665
      1665      1666      1666      1666      1666      1666      1666      1666
      1666      1666      1666      1666      1667      1667      1667      1667
      1667      1667      1667      1667      1667      1667      1667      1668
      1668      1668      1668      1668      1668      1668      1668      1668
      1668      1668      1669      1669      1669      1669      1669      1669
      1669      1669      1669      1669      1669      1670      1670      1670
      1670      1670      1670      1670      1670      1670      1670      1670
      1671      1671      1671      1671      1671      1671      1671      1671
      1671      1671      1671      1672      1672      1672      1672      1672
      1672      1672      1672      1672      1672      1672      1673      1673
      1673      1673      1673      1673      1673      1673      1673      1673
      1673      1674      1674      1674      1674      1674      1674      1674
      1674      1674      1674      1674      1675      1675      1675      1675
      1675      1675      1675      1675      1675      1675      1675      1676
      1676      1676      1676      1676      1676      1676      1676      1676
      1676      1676      1677      1677      1677      1677      1677      1677
      1677      1677      1677      1677      1677      1678      1678      1678
      1678      1678      1678      1678      1678      1678      1678      1678
      1679      1679      1679      1679      1679      1679      1679      1679
      1679      1679      1679      1680      1680      1680      1680      1680
      1680      1680      1680      1680      1680      1680      1681      1681
      1681      1681      1681      1681      1681      1681      1681      1681
      1681      1682      1682      1682      1682      1682      1682      1682
      1682      1682      1682      1682      1683      1683      1683      1683
      1683      1683      1683      1683      1683      1683      1683      1684
      1684      1684      1684      1684      1684      1684      1684      1684
      1684      1684      1685      1685      1685      1685      1685      1685
      1685      1685      1685      1685      1685      1686      1686      1686
      1686      1686      1686      1686      1686      1686      1686      1686
      1687      1687      1687      1687      1687      1687      1687      1687
      1687      1687      1687      1688      1688      1688      1688      1688
      1688      1688      1688      1688      1688      1688      1689      1689
      1689      1689      1689      1689      1689      1689      1689      1689
      1689      1690      1690      1690      1690      1690      1690      1690
      1690      1690      1690      1690      1691      1691      1691      1691
      1691      1691      1691      1691      1691      1691      1691      1692
      1692      1692      1692      1692      1692      1692      1692      1692
      1692      1692      1693      1693      1693      1693      1693      1693
      1693      1693      1693      1693      1693      1694      1694      1694
      1694      1694      1694      1694      1694      1694      1694      1694
      1695      1695      1695      1695      1695      1695      1695      1695
      1695      1695      1695      1696      1696      1696      1696      1696
      1696      1696      1696      1696      1696      1696      1697      1697
      1697      1697      1697      1697      1697      1697      1697      1697
      1697      1698      1698      1698      1698      1698      1698      1698
      1698      1698      1698      1698      1699      1699      1699      1699
      1699      1699      1699      1699      1699      1699      1699      1700
      1700      1700      1700      1700      1700      1700      1700      1700
      1700      1700      1701      1701      1701      1701      1701      1701
      1701      1701      1701      1701      1701      1702      1702      1702
      1702      1702      1702      1702      1702      1702      1702      1702
      1703      1703      1703      1703      1703      1703      1703      1703
      1703      1703      1703      1704      1704      1704      1704      1704
      1704      1704      1704      1704      1704      1704      1705      1705
      1705      1705      1705      1705      1705      1705      1705      1705
      1705      1706      1706      1706      1706      1706      1706      1706
      1706      1706      1706      1706      1707      1707      1707      1707
      1707      1707      1707      1707      1707      1707      1707      1708
      1708      1708      1708      1708      1708      1708      1708      1708
      1708      1708      1709      1709      1709      1709      1709      1709
      1709      1709      1709      1709      1709      1710      1710      1710
      1710      1710      1710      1710      1710      1710      1710      1710
      1711      1711      1711      1711      1711      1711      1711      1711
      1711      1711      1711      1712      1712      1712      1712      1712
      1712      1712      1712      1712      1712      1712      1713      1713
      1713      1713      1713      1713      1713      1713      1713      1713
      1713      1714      1714      1714      1714      1714      1714      1714
      1714      1714      1714      1714      1715      1715      1715      1715
      1715      1715      1715      1715      1715      1715      1715      1716
      1716      1716      1716      1716      1716      1716      1716      1716
      1716      1716      1717      1717      1717      1717      1717      1717
      1717      1717      1717      1717      1717      1718      1718      1718
      1718      1718      1718      1718      1718      1718      1718      1718
      1719      1719      1719      1719      1719      1719      1719      1719
      1719      1719      1719      1720      1720      1720      1720      1720
      1720      1720      1720      1720      1720      1720      1721      1721
      1721      1721      1721      1721      1721      1721      1721      1721
      1721      1722      1722      1722      1722      1722      1722      1722
      1722      1722      1722      1722      1723      1723      1723      1723
      1723      1723      1723      1723      1723      1723      1723      1724
      1724      1724      1724      1724      1724      1724      1724      1724
      1724      1724      1725      1725      1725      1725      1725      1725
      1725      1725      1725      1725      1725      1726      1726      1726
      1726      1726      1726      1726      1726      1726      1726      1726
      1727      1727      1727      1727      1727      1727      1727      1727
      1727      1727      1727      1728      1728      1728      1728      1728
      1728      1728      1728      1728      1728      1728      1729      1729
      1729      1729      1729      1729      1729      1729      1729      1729
      1729      1730      1730      1730      1730      1730      1730      1730
      1730      1730      1730      1730      1731      1731      1731      1731
      1731      1731      1731      1731      1731      1731      1731      1732
      1732      1732      1732      1732      1732      1732      1732      1732
      1732      1732      1733      1733      1733      1733      1733      1733
      1733      1733      1733      1733      1733      1734      1734      1734
      1734      1734      1734      1734      1734      1734      1734      1734
      1735      1735      1735      1735      1735      1735      1735      1735
      1735      1735      1735      1736      1736      1736      1736      1736
      1736      1736      1736      1736      1736      1736      1737      1737
      1737      1737      1737      1737      1737      1737      1737      1737
      1737      1738      1738      1738      1738      1738      1738      1738
      1738      1738      1738      1738      1739      1739      1739      1739
      1739      1739      1739      1739      1739      1739      1739      1740
      1740      1740      1740      1740      1740      1740      1740      1740
      1740      1740      1741      1741      1741      1741      1741      1741
      1741      1741      1741      1741      1741      1742      1742      1742
      1742      1742      1742      1742      1742      1742      1742      1742
      1743      1743      1743      1743      1743      1743      1743      1743
      1743      1743      1743      1744      1744      1744      1744      1744
      1744      1744      1744      1744      1744      1744      1745      1745
      1745      1745      1745      1745      1745      1745      1745      1745
      1745      1746      1746      1746      1746      1746      1746      1746
      1746      1746      1746      1746      1747      1747      1747      1747
      1747      1747      1747      1747      1747      1747      1747      1748
      1748      1748      1748      1748      1748      1748      1748      1748
      1748      1748      1749      1749      1749      1749      1749      1749
      1749      1749      1749      1749      1749      1750      1750      1750
      1750      1750      1750      1750      1750      1750      1750      1750
      1751      1751      1751      1751      1751      1751      1751      1751
      1751      1751      1751      1752      1752      1752      1752      1752
      1752      1752      1752      1752      1752      1752      1753      1753
      1753      1753      1753      1753      1753      1753      1753      1753
      1753      1754      1754      1754      1754      1754      1754      1754
      1754      1754      1754      1754      1755      1755      1755      1755
      1755      1755      1755      1755      1755      1755      1755      1756
      1756      1756      1756      1756      1756      1756      1756      1756
      1756      1756      1757      1757      1757      1757      1757      1757
      1757      1757      1757      1757      1757      1758      1758      1758
      1758      1758      1758      1758      1758      1758      1758      1758
      1759      1759      1759      1759      1759      1759      1759      1759
      1759      1759      1759      1760      1760      1760      1760      1760
      1760      1760      1760      1760      1760      1760      1761      1761
      1761      1761      1761      1761      1761      1761      1761      1761
      1761      1762      1762      1762      1762      1762      1762      1762
      1762      1762      1762      1762      1763      1763      1763      1763
      1763      1763      1763      1763      1763      1763      1763      1764
      1764      1764      1764      1764      1764      1764      1764      1764
      1764      1764      1765      1765      1765      1765      1765      1765
      1765      1765      1765      1765      1765      1766      1766      1766
      1766      1766      1766      1766      1766      1766      1766      1766
      1767      1767      1767      1767      1767      1767      1767      1767
      1767      1767      1767      1768      1768      1768      1768      1768
      1768      1768      1768      1768      1768      1768      1769      1769
      1769      1769      1769      1769      1769      1769      1769      1769
      1769      1770      1770      1770      1770      1770      1770      1770
      1770      1770      1770      1770      1771      1771      1771      1771
      1771      1771      1771      1771      1771      1771      1771      1772
      1772      1772      1772      1772      1772      1772      1772      1772
      1772      1772      1773      1773      1773      1773      1773      1773
      1773      1773      1773      1773      1773      1774      1774      1774
      1774      1774      1774      1774      1774      1774      1774      1774
      1775      1775      1775      1775      1775      1775      1775      1775
      1775      1775      1775      1776      1776      1776      1776      1776
      1776      1776      1776      1776      1776      1776      1777      1777
      1777      1777      1777      1777      1777      1777      1777      1777
      1777      1778      1778      1778      1778      1778      1778      1778
      1778      1778      1778      1778      1779      1779      1779      1779
      1779      1779      1779      1779      1779      1779      1779      1780
      1780      1780      1780      1780      1780      1780      1780      1780
      1780      1780      1781      1781      1781      1781      1781      1781
      1781      1781      1781      1781      1781      1782      1782      1782
      1782      1782      1782      1782      1782      1782      1782      1782
      1783      1783      1783      1783      1783      1783      1783      1783
      1783      1783      1783      1784      1784      1784      1784      1784
      1784      1784      1784      1784      1784      1784      1785      1785
      1785      1785      1785      1785      1785      1785      1785      1785
      1785      1786      1786      1786      1786      1786      1786      1786
      1786      1786      1786      1786      1787      1787      1787      1787
      1787      1787      1787      1787      1787      1787      1787      1788
      1788      1788      1788      1788      1788      1788      1788      1788
      1788      1788      1789      1789      1789      1789      1789      1789
      1789      1789      1789      1789      1789      1790      1790      1790
      1790      1790      1790      1790      1790      1790      1790      1790
      1791      1791      1791      1791      1791      1791      1791      1791
      1791      1791      1791      1792      1792      1792      1792      1792
      1792      1792      1792      1792      1792      1792      1793      1793
      1793      1793      1793      1793      1793      1793      1793      1793
      1793      1794      1794      1794      1794      1794      1794      1794
      1794      1794      1794      1794      1795      1795      1795      1795
      1795      1795      1795      1795      1795      1795      1795      1796
      1796      1796      1796      1796      1796      1796      1796      1796
      1796      1796      1797      1797      1797      1797      1797      1797
      1797      1797      1797      1797      1797      1798      1798      1798
      1798      1798      1798      1798      1798      1798      1798      1798
      1799      1799      1799      1799      1799      1799      1799      1799
      1799      1799      1799      1800      1800      1800      1800      1800
      1800      1800      1800      1800      1800      1800      1801      1801
      1801      1801      1801      1801      1801      1801      1801      1801
      1801      1802      1802      1802      1802      1802      1802      1802
      1802      1802      1802      1802      1803      1803      1803      1803
      1803      1803      1803      1803      1803      1803      1803      1804
      1804      1804      1804      1804      1804      1804      1804      1804
      1804      1804      1805      1805      1805      1805      1805      1805
      1805      1805      1805      1805      1805      1806      1806      1806
      1806      1806      1806      1806      1806      1806      1806      1806
      1807      1807      1807      1807      1807      1807      1807      1807
      1807      1807      1807      1808      1808      1808      1808      1808
      1808      1808      1808      1808      1808      1808      1809      1809
      1809      1809      1809      1809      1809      1809      1809      1809
      1809      1810      1810      1810      1810      1810      1810      1810
      1810      1810      1810      1810      1811      1811      1811      1811
      1811      1811      1811      1811      1811      1811      1811      1812
      1812      1812      1812      1812      1812      1812      1812      1812
      1812      1812      1813      1813      1813      1813      1813      1813
      1813      1813      1813      1813      1813      1814      1814      1814
      1814      1814      1814      1814      1814      1814      1814      1814
      1815      1815      1815      1815      1815      1815      1815      1815
      1815      1815      1815      1816      1816      1816      1816      1816
      1816      1816      1816      1816      1816      1816      1817      1817
      1817      1817      1817      1817      1817      1817      1817      1817
      1817      1818      1818      1818      1818      1818      1818      1818
      1818      1818      1818      1818      1819      1819      1819      1819
      1819      1819      1819      1819      1819      1819      1819      1820
      1820      1820      1820      1820      1820      1820      1820      1820
      1820      1820      1821      1821      1821      1821      1821      1821
      1821      1821      1821      1821      1821      1822      1822      1822
      1822      1822      1822      1822      1822      1822      1822      1822
      1823      1823      1823      1823      1823      1823      1823      1823
      1823      1823      1823      1824      1824      1824      1824      1824
      1824      1824      1824      1824      1824      1824      1825      1825
      1825      1825      1825      1825      1825      1825      1825      1825
      1825      1826      1826      1826      1826      1826      1826      1826
      1826      1826      1826      1826      1827      1827      1827      1827
      1827      1827      1827      1827      1827      1827      1827      1828
      1828      1828      1828      1828      1828      1828      1828      1828
      1828      1828      1829      1829      1829      1829      1829      1829
      1829      1829      1829      1829      1829      1830      1830      1830
      1830      1830      1830      1830      1830      1830      1830      1830
      1831      1831      1831      1831      1831      1831      1831      1831
      1831      1831      1831      1832      1832      1832      1832      1832
      1832      1832      1832      1832      1832      1832      1833      1833
      1833      1833      1833      1833      1833      1833      1833      1833
      1833      1834      1834      1834      1834      1834      1834      1834
      1834      1834      1834      1834      1835      1835      1835      1835
      1835      1835      1835      1835      1835      1835      1835      1836
      1836      1836      1836      1836      1836      1836      1836      1836
      1836      1836      1837      1837      1837      1837      1837      1837
      1837      1837      1837      1837      1837      1838      1838      1838
      1838      1838      1838      1838      1838      1838      1838      1838
      1839      1839      1839      1839      1839      1839      1839      1839
      1839      1839      1839      1840      1840      1840      1840      1840
      1840      1840      1840      1840      1840      1840      1841      1841
      1841      1841      1841      1841      1841      1841      1841      1841
      1841      1842      1842      1842      1842      1842      1842      1842
      1842      1842      1842      1842      1843      1843      1843      1843
      1843      1843      1843      1843      1843      1843      1843      1844
      1844      1844      1844      1844      1844      1844      1844      1844
      1844      1844      1845      1845      1845      1845      1845      1845
      1845      1845      1845      1845      1845      1846      1846      1846
      1846      1846      1846      1846      1846      1846      1846      1846
      1847      1847      1847      1847      1847      1847      1847      1847
      1847      1847      1847      1848      1848      1848      1848      1848
      1848      1848      1848      1848      1848      1848      1849      1849
      1849      1849      1849      1849      1849      1849      1849      1849
      1849      1850      1850      1850      1850      1850      1850      1850
      1850      1850      1850      1850      1851      1851      1851      1851
      1851      1851      1851      1851      1851      1851      1851      1852
      1852      1852      1852      1852      1852      1852      1852      1852
      1852      1852      1853      1853      1853      1853      1853      1853
      1853      1853      1853      1853      1853      1854      1854      1854
      1854      1854      1854      1854      1854      1854      1854      1854
      1855      1855      1855      1855      1855      1855      1855      1855
      1855      1855      1855      1856      1856      1856      1856      1856
      1856      1856      1856      1856      1856      1856      1857      1857
      1857      1857      1857      1857      1857      1857      1857      1857
      1857      1858      1858      1858      1858      1858      1858      1858
      1858      1858      1858      1858      1859      1859      1859      1859
      1859      1859      1859      1859      1859      1859      1859      1860
      1860      1860      1860      1860      1860      1860      1860      1860
      1860      1860      1861      1861      1861      1861      1861      1861
      1861      1861      1861      1861      1861      1862      1862      1862
      1862      1862      1862      1862      1862      1862      1862      1862
      1863      1863      1863      1863      1863      1863      1863      1863
      1863      1863      1863      1864      1864      1864      1864      1864
      1864      1864      1864      1864      1864      1864      1865      1865
      1865      1865      1865      1865      1865      1865      1865      1865
      1865      1866      1866      1866      1866      1866      1866      1866
      1866      1866      1866      1866      1867      1867      1867      1867
      1867      1867      1867      1867      1867      1867      1867      1868
      1868      1868      1868      1868      1868      1868      1868      1868
      1868      1868      1869      1869      1869      1869      1869      1869
      1869      1869      1869      1869      1869      1870      1870      1870
      1870      1870      1870      1870      1870      1870      1870      1870
      1871      1871      1871      1871      1871      1871      1871      1871
      1871      1871      1871      1872      1872      1872      1872      1872
      1872      1872      1872      1872      1872      1872      1873      1873
      1873      1873      1873      1873      1873      1873      1873      1873
      1873      1874      1874      1874      1874      1874      1874      1874
      1874      1874      1874      1874      1875      1875      1875      1875
      1875      1875      1875      1875      1875      1875      1875      1876
      1876      1876      1876      1876      1876      1876      1876      1876
      1876      1876      1877      1877      1877      1877      1877      1877
      1877      1877      1877      1877      1877      1878      1878      1878
      1878      1878      1878      1878      1878      1878      1878      1878
      1879      1879      1879      1879      1879      1879      1879      1879
      1879      1879      1879      1880      1880      1880      1880      1880
      1880      1880      1880      1880      1880      1880      1881      1881
      1881      1881      1881      1881      1881      1881      1881      1881
      1881      1882      1882      1882      1882      1882      1882      1882
      1882      1882      1882      1882      1883      1883      1883      1883
      1883      1883      1883      1883      1883      1883      1883      1884
      1884      1884      1884      1884      1884      1884      1884      1884
      1884      1884      1885      1885      1885      1885      1885      1885
      1885      1885      1885      1885      1885      1886      1886      1886
      1886      1886      1886      1886      1886      1886      1886      1886
      1887      1887      1887      1887      1887      1887      1887      1887
      1887      1887      1887      1888      1888      1888      1888      1888
      1888      1888      1888      1888      1888      1888      1889      1889
      1889      1889      1889      1889      1889      1889      1889      1889
      1889      1890      1890      1890      1890      1890      1890      1890
      1890      1890      1890      1890      1891      1891      1891      1891
      1891      1891      1891      1891      1891      1891      1891      1892
      1892      1892      1892      1892      1892      1892      1892      1892
      1892      1892      1893      1893      1893      1893      1893      1893
      1893      1893      1893      1893      1893      1894      1894      1894
      1894      1894      1894      1894      1894      1894      1894      1894
      1895      1895      1895      1895      1895      1895      1895      1895
      1895      1895      1895      1896      1896      1896      1896      1896
      1896      1896      1896      1896      1896      1896      1897      1897
      1897      1897      1897      1897      1897      1897      1897      1897
      1897      1898      1898      1898      1898      1898      1898      1898
      1898      1898      1898      1898      1899      1899      1899      1899
      1899      1899      1899      1899      1899      1899      1899      1900
      1900      1900      1900      1900      1900      1900      1900      1900
      1900      1900      1901      1901      1901      1901      1901      1901
      1901      1901      1901      1901      1901      1902      1902      1902
      1902      1902      1902      1902      1902      1902      1902      1902
      1903      1903      1903      1903      1903      1903      1903      1903
      1903      1903      1903      1904      1904      1904      1904      1904
      1904      1904      1904      1904      1904      1904      1905      1905
      1905      1905      1905      1905      1905      1905      1905      1905
      1905      1906      1906      1906      1906      1906      1906      1906
      1906      1906      1906      1906      1907      1907      1907      1907
      1907      1907      1907      1907      1907      1907      1907      1908
      1908      1908      1908      1908      1908      1908      1908      1908
      1908      1908      1909      1909      1909      1909      1909      1909
      1909      1909      1909      1909      1909      1910      1910      1910
      1910      1910      1910      1910      1910      1910      1910      1910
      1911      1911      1911      1911      1911      1911      1911      1911
      1911      1911      1911      1912      1912      1912      1912      1912
      1912      1912      1912      1912      1912      1912      1913      1913
      1913      1913      1913      1913      1913      1913      1913      1913
      1913      1914      1914      1914      1914      1914      1914      1914
      1914      1914      1914      1914      1915      1915      1915      1915
      1915      1915      1915      1915      1915      1915      1915      1916
      1916      1916      1916      1916      1916      1916      1916      1916
      1916      1916      1917      1917      1917      1917      1917      1917
      1917      1917      1917      1917      1917      1918      1918      1918
      1918      1918      1918      1918      1918      1918      1918      1918
      1919      1919      1919      1919      1919      1919      1919      1919
      1919      1919      1919      1920      1920      1920      1920      1920
      1920      1920      1920      1920      1920      1920      1921      1921
      1921      1921      1921      1921      1921      1921      1921      1921
      1921      1922      1922      1922      1922      1922      1922      1922
      1922      1922      1922      1922      1923      1923      1923      1923
      1923      1923      1923      1923      1923      1923      1923      1924
      1924      1924      1924      1924      1924      1924      1924      1924
      1924      1924      1925      1925      1925      1925      1925      1925
      1925      1925      1925      1925      1925      1926      1926      1926
      1926      1926      1926      1926      1926      1926      1926      1926
      1927      1927      1927      1927      1927      1927      1927      1927
      1927      1927      1927      1928      1928      1928      1928      1928
      1928      1928      1928      1928      1928      1928      1929      1929
      1929      1929      1929      1929      1929      1929      1929      1929
      1929      1930      1930      1930      1930      1930      1930      1930
      1930      1930      1930      1930      1931      1931      1931      1931
      1931      1931      1931      1931      1931      1931      1931      1932
      1932      1932      1932      1932      1932      1932      1932      1932
      1932      1932      1933      1933      1933      1933      1933      1933
      1933      1933      1933      1933      1933      1934      1934      1934
      1934      1934      1934      1934      1934      1934      1934      1934
      1935      1935      1935      1935      1935      1935      1935      1935
      1935      1935      1935      1936      1936      1936      1936      1936
      1936      1936      1936      1936      1936      1936      1937      1937
      1937      1937      1937      1937      1937      1937      1937      1937
      1937      1938      1938      1938      1938      1938      1938      1938
      1938      1938      1938      1938      1939      1939      1939      1939
      1939      1939      1939      1939      1939      1939      1939      1940
      1940      1940      1940      1940      1940      1940      1940      1940
      1940      1940      1941      1941      1941      1941      1941      1941
      1941      1941      1941      1941      1941      1942      1942      1942
      1942      1942      1942      1942      1942      1942      1942      1942
      1943      1943      1943      1943      1943      1943      1943      1943
      1943      1943      1943      1944      1944      1944      1944      1944
      1944      1944      1944      1944      1944      1944      1945      1945
      1945      1945      1945      1945      1945      1945      1945      1945
      1945      1946      1946      1946      1946      1946      1946      1946
      1946      1946      1946      1946      1947      1947      1947      1947
      1947      1947      1947      1947      1947      1947      1947      1948
      1948      1948      1948      1948      1948      1948      1948      1948
      1948      1948      1949      1949      1949      1949      1949      1949
      1949      1949      1949      1949      1949      1950      1950      1950
      1950      1950      1950      1950      1950      1950      1950      1950
      1951      1951      1951      1951      1951      1951      1951      1951
      1951      1951      1951      1952      1952      1952      1952      1952
      1952      1952      1952      1952      1952      1952      1953      1953
      1953      1953      1953      1953      1953      1953      1953      1953
      1953      1954      1954      1954      1954      1954      1954      1954
      1954      1954      1954      1954      1955      1955      1955      1955
      1955      1955      1955      1955      1955      1955      1955      1956
      1956      1956      1956      1956      1956      1956      1956      1956
      1956      1956      1957      1957      1957      1957      1957      1957
      1957      1957      1957      1957      1957      1958      1958      1958
      1958      1958      1958      1958      1958      1958      1958      1958
      1959      1959      1959      1959      1959      1959      1959      1959
      1959      1959      1959      1960      1960      1960      1960      1960
      1960      1960      1960      1960      1960      1960      1961      1961
      1961      1961      1961      1961      1961      1961      1961      1961
      1961      1962      1962      1962      1962      1962      1962      1962
      1962      1962      1962      1962      1963      1963      1963      1963
      1963      1963      1963      1963      1963      1963      1963      1964
      1964      1964      1964      1964      1964      1964      1964      1964
      1964      1964      1965      1965      1965      1965      1965      1965
      1965      1965      1965      1965      1965      1966      1966      1966
      1966      1966      1966      1966      1966      1966      1966      1966
      1967      1967      1967      1967      1967      1967      1967      1967
      1967      1967      1967      1968      1968      1968      1968      1968
      1968      1968      1968      1968      1968      1968      1969      1969
      1969      1969      1969      1969      1969      1969      1969      1969
      1969      1970      1970      1970      1970      1970      1970      1970
      1970      1970      1970      1970      1971      1971      1971      1971
      1971      1971      1971      1971      1971      1971      1971      1972
      1972      1972      1972      1972      1972      1972      1972      1972
      1972      1972      1973      1973      1973      1973      1973      1973
      1973      1973      1973      1973      1973      1974      1974      1974
      1974      1974      1974      1974      1974      1974      1974      1974
      1975      1975      1975      1975      1975      1975      1975      1975
      1975      1975      1975      1976      1976      1976      1976      1976
      1976      1976      1976      1976      1976      1976      1977      1977
      1977      1977      1977      1977      1977      1977      1977      1977
      1977      1978      1978      1978      1978      1978      1978      1978
      1978      1978      1978      1978      1979      1979      1979      1979
      1979      1979      1979      1979      1979      1979      1979      1980
      1980      1980      1980      1980      1980      1980      1980      1980
      1980      1980      1981      1981      1981      1981      1981      1981
      1981      1981      1981      1981      1981      1982      1982      1982
      1982      1982      1982      1982      1982      1982      1982      1982
      1983      1983      1983      1983      1983      1983      1983      1983
      1983      1983      1983      1984      1984      1984      1984      1984
      1984      1984      1984      1984      1984      1984      1985      1985
      1985      1985      1985      1985      1985      1985      1985      1985
      1985      1986      1986      1986      1986      1986      1986      1986
      1986      1986      1986      1986      1987      1987      1987      1987
      1987      1987      1987      1987      1987      1987      1987      1988
      1988      1988      1988      1988      1988      1988      1988      1988
      1988      1988      1989      1989      1989      1989      1989      1989
      1989      1989      1989      1989      1989      1990      1990      1990
      1990      1990      1990      1990      1990      1990      1990      1990
      1991      1991      1991      1991      1991      1991      1991      1991
      1991      1991      1991      1992      1992      1992      1992      1992
      1992      1992      1992      1992      1992      1992      1993      1993
      1993      1993      1993      1993      1993      1993      1993      1993
      1993      1994      1994      1994      1994      1994      1994      1994
      1994      1994      1994      1994      1995      1995      1995      1995
      1995      1995      1995      1995      1995      1995      1995      1996
      1996      1996      1996      1996      1996      1996      1996      1996
      1996      1996      1997      1997      1997      1997      1997      1997
      1997      1997      1997      1997      1997      1998      1998      1998
      1998      1998      1998      1998      1998      1998      1998      1998
      1999      1999      1999      1999      1999      1999      1999      1999
      1999      1999      1999      2000      2000      2000      2000      2000
      2000      2000      2000      2000      2000      2000      2001      2001
      2001      2001      2001      2001      2001      2001      2001      2001
      2001      2002      2002      2002      2002      2002      2002      2002
      2002      2002      2002      2002      2003      2003      2003      2003
      2003      2003      2003      2003      2003      2003      2003      2004
      2004      2004      2004      2004      2004      2004      2004      2004
      2004      2004      2005      2005      2005      2005      2005      2005
      2005      2005      2005      2005      2005      2006      2006      2006
      2006      2006      2006      2006      2006      2006      2006      2006
      2007      2007      2007      2007      2007      2007      2007      2007
      2007      2007      2007      2008      2008      2008      2008      2008
      2008      2008      2008      2008      2008      2008      2009      2009
      2009      2009      2009      2009      2009      2009      2009      2009
      2009      2010      2010      2010      2010      2010      2010      2010
      2010      2010      2010      2010      2011      2011      2011      2011
      2011      2011      2011      2011      2011      2011      2011      2012
      2012      2012      2012      2012      2012      2012      2012      2012
      2012      2012      2013      2013      2013      2013      2013      2013
      2013      2013      2013      2013      2013      2014      2014      2014
      2014      2014      2014      2014      2014      2014      2014      2014
      2015      2015      2015      2015      2015      2015      2015      2015
      2015      2015      2015      2016      2016      2016      2016      2016
      2016      2016      2016      2016      2016      2016      2017      2017
      2017      2017      2017      2017      2017      2017      2017      2017
      2017      2018      2018      2018      2018      2018      2018      2018
      2018      2018      2018      2018      2019      2019      2019      2019
      2019      2019      2019      2019      2019      2019      2019      2020
      2020      2020      2020      2020      2020      2020      2020      2020
      2020      2020      2021      2021      2021      2021      2021      2021
      2021      2021      2021      2021      2021      2022      2022      2022
      2022      2022      2022      2022      2022      2022      2022      2022
      2023      2023      2023      2023      2023      2023      2023      2023
      2023      2023      2023      2024      2024      2024      2024      2024
      2024      2024      2024      2024      2024      2024      2025      2025
      2025      2025      2025      2025      2025      2025      2025      2025
      2025      2026      2026      2026      2026      2026      2026      2026
      2026      2026      2026      2026      2027      2027      2027      2027
      2027      2027      2027      2027      2027      2027      2027      2028
      2028      2028      2028      2028      2028      2028      2028      2028
      2028      2028      2029      2029      2029      2029      2029      2029
      2029      2029      2029      2029      2029      2030      2030      2030
      2030      2030      2030      2030      2030      2030      2030      2030
      2031      2031      2031      2031      2031      2031      2031      2031
      2031      2031      2031      2032      2032      2032      2032      2032
      2032      2032      2032      2032      2032      2032      2033      2033
      2033      2033      2033      2033      2033      2033      2033      2033
      2033      2034      2034      2034      2034      2034      2034      2034
      2034      2034      2034      2034      2035      2035      2035      2035
      2035      2035      2035      2035      2035      2035      2035      2036
      2036      2036      2036      2036      2036      2036      2036      2036
      2036      2036      2037      2037      2037      2037      2037      2037
      2037      2037      2037      2037      2037      2038      2038      2038
      2038      2038      2038      2038      2038      2038      2038      2038
      2039      2039      2039      2039      2039      2039      2039      2039
      2039      2039      2039      2040      2040      2040      2040      2040
      2040      2040      2040      2040      2040      2040      2041      2041
      2041      2041      2041      2041      2041      2041      2041      2041
      2041      2042      2042      2042      2042      2042      2042      2042
      2042      2042      2042      2042      2043      2043      2043      2043
      2043      2043      2043      2043      2043      2043      2043      2044
      2044      2044      2044      2044      2044      2044      2044      2044
      2044      2044      2045      2045      2045      2045      2045      2045
      2045      2045      2045      2045      2045      2046      2046      2046
      2046      2046      2046      2046      2046      2046      2046      2046
      2047      2047      2047      2047      2047      2047      2047      2047
      2047      2047      2047      2048      2048      2048      2048      2048
      2048      2048      2048      2048      2048      2048      2049      2049
      2049      2049      2049      2049      2049      2049      2049      2049
      2049      2050      2050      2050      2050      2050      2050      2050
      2050      2050      2050      2050      2051      2051      2051      2051
      2051      2051      2051      2051      2051      2051      2051      2052
      2052      2052      2052      2052      2052      2052      2052      2052
      2052      2052      2053      2053      2053      2053      2053      2053
      2053      2053      2053      2053      2053      2054      2054      2054
      2054      2054      2054      2054      2054      2054      2054      2054
      2055      2055      2055      2055      2055      2055      2055      2055
      2055      2055      2055      2056      2056      2056      2056      2056
      2056      2056      2056      2056      2056      2056      2057      2057
      2057      2057      2057      2057      2057      2057      2057      2057
      2057      2058      2058      2058      2058      2058      2058      2058
      2058      2058      2058      2058      2059      2059      2059      2059
      2059      2059      2059      2059      2059      2059      2059      2060
      2060      2060      2060      2060      2060      2060      2060      2060
      2060      2060      2061      2061      2061      2061      2061      2061
      2061      2061      2061      2061      2061      2062      2062      2062
      2062      2062      2062      2062      2062      2062      2062      2062
      2063      2063      2063      2063      2063      2063      2063      2063
      2063      2063      2063      2064      2064      2064      2064      2064
      2064      2064      2064      2064      2064      2064      2065      2065
      2065      2065      2065      2065      2065      2065      2065      2065
      2065      2066      2066      2066      2066      2066      2066      2066
      2066      2066      2066      2066      2067      2067      2067      2067
      2067      2067      2067      2067      2067      2067      2067      2068
      2068      2068      2068      2068      2068      2068      2068      2068
      2068      2068      2069      2069      2069      2069      2069      2069
      2069      2069      2069      2069      2069      2070      2070      2070
      2070      2070      2070      2070      2070      2070      2070      2070
      2071      2071      2071      2071      2071      2071      2071      2071
      2071      2071      2071      2072      2072      2072      2072      2072
      2072      2072      2072      2072      2072      2072      2073      2073
      2073      2073      2073      2073      2073      2073      2073      2073
      2073      2074      2074      2074      2074      2074      2074      2074
      2074      2074      2074      2074      2075      2075      2075      2075
      2075      2075      2075      2075      2075      2075      2075      2076
      2076      2076      2076      2076      2076      2076      2076      2076
      2076      2076      2077      2077      2077      2077      2077      2077
      2077      2077      2077      2077      2077      2078      2078      2078
      2078      2078      2078      2078      2078      2078      2078      2078
      2079      2079      2079      2079      2079      2079      2079      2079
      2079      2079      2079      2080      2080      2080      2080      2080
      2080      2080      2080      2080      2080      2080      2081      2081
      2081      2081      2081      2081      2081      2081      2081      2081
      2081      2082      2082      2082      2082      2082      2082      2082
      2082      2082      2082      2082      2083      2083      2083      2083
      2083      2083      2083      2083      2083      2083      2083      2084
      2084      2084      2084      2084      2084      2084      2084      2084
      2084      2084      2085      2085      2085      2085      2085      2085
      2085      2085      2085      2085      2085      2086      2086      2086
      2086      2086      2086      2086      2086      2086      2086      2086
      2087      2087      2087      2087      2087      2087      2087      2087
      2087      2087      2087      2088      2088      2088      2088      2088
      2088      2088      2088      2088      2088      2088      2089      2089
      2089      2089      2089      2089      2089      2089      2089      2089
      2089      2090      2090      2090      2090      2090      2090      2090
      2090      2090      2090      2090      2091      2091      2091      2091
      2091      2091      2091      2091      2091      2091      2091      2092
      2092      2092      2092      2092      2092      2092      2092      2092
      2092      2092      2093      2093      2093      2093      2093      2093
      2093      2093      2093      2093      2093      2094      2094      2094
      2094      2094      2094      2094      2094      2094      2094      2094
      2095      2095      2095      2095      2095      2095      2095      2095
      2095      2095      2095      2096      2096      2096      2096      2096
      2096      2096      2096      2096      2096      2096      2097      2097
      2097      2097      2097      2097      2097      2097      2097      2097
      2097      2098      2098      2098      2098      2098      2098      2098
      2098      2098      2098      2098      2099      2099      2099      2099
      2099      2099      2099      2099      2099      2099      2099      2100
      2100      2100      2100      2100      2100      2100      2100      2100
      2100      2100      2101      2101      2101      2101      2101      2101
      2101      2101      2101      2101      2101      2102      2102      2102
      2102      2102      2102      2102      2102      2102      2102      2102
      2103      2103      2103      2103      2103      2103      2103      2103
      2103      2103      2103      2104      2104      2104      2104      2104
      2104      2104      2104      2104      2104      2104      2105      2105
      2105      2105      2105      2105      2105      2105      2105      2105
      2105      2106      2106      2106      2106      2106      2106      2106
      2106      2106      2106      2106      2107      2107      2107      2107
      2107      2107      2107      2107      2107      2107      2107      2108
      2108      2108      2108      2108      2108      2108      2108      2108
      2108      2108      2109      2109      2109      2109      2109      2109
      2109      2109      2109      2109      2109      2110      2110      2110
      2110      2110      2110      2110      2110      2110      2110      2110
      2111      2111      2111      2111      2111      2111      2111      2111
      2111      2111      2111      2112      2112      2112      2112      2112
      2112      2112      2112      2112      2112      2112      2113      2113
      2113      2113      2113      2113      2113      2113      2113      2113
      2113      2114      2114      2114      2114      2114      2114      2114
      2114      2114      2114      2114      2115      2115      2115      2115
      2115      2115      2115      2115      2115      2115      2115      2116
      2116      2116      2116      2116      2116      2116      2116      2116
      2116      2116      2117      2117      2117      2117      2117      2117
      2117      2117      2117      2117      2117      2118      2118      2118
      2118      2118      2118      2118      2118      2118      2118      2118
      2119      2119      2119      2119      2119      2119      2119      2119
      2119      2119      2119      2120      2120      2120      2120      2120
      2120      2120      2120      2120      2120      2120      2121      2121
      2121      2121      2121      2121      2121      2121      2121      2121
      2121      2122      2122      2122      2122      2122      2122      2122
      2122      2122      2122      2122      2123      2123      2123      2123
      2123      2123      2123      2123      2123      2123      2123      2124
      2124      2124      2124      2124      2124      2124      2124      2124
      2124      2124      2125      2125      2125      2125      2125      2125
      2125      2125      2125      2125      2125      2126      2126      2126
      2126      2126      2126      2126      2126      2126      2126      2126
      2127      2127      2127      2127      2127      2127      2127      2127
      2127      2127      2127      2128      2128      2128      2128      2128
      2128      2128      2128      2128      2128      2128      2129      2129
      2129      2129      2129      2129      2129      2129      2129      2129
      2129      2130      2130      2130      2130      2130      2130      2130
      2130      2130      2130      2130      2131      2131      2131      2131
      2131      2131      2131      2131      2131      2131      2131      2132
      2132      2132      2132      2132      2132      2132      2132      2132
      2132      2132      2133      2133      2133      2133      2133      2133
      2133      2133      2133      2133      2133      2134      2134      2134
      2134      2134      2134      2134      2134      2134      2134      2134
      2135      2135      2135      2135      2135      2135      2135      2135
      2135      2135      2135      2136      2136      2136      2136      2136
      2136      2136      2136      2136      2136      2136      2137      2137
      2137      2137      2137      2137      2137      2137      2137      2137
      2137      2138      2138      2138      2138      2138      2138      2138
      2138      2138      2138      2138      2139      2139      2139      2139
      2139      2139      2139      2139      2139      2139      2139      2140
      2140      2140      2140      2140      2140      2140      2140      2140
      2140      2140      2141      2141      2141      2141      2141      2141
      2141      2141      2141      2141      2141      2142      2142      2142
      2142      2142      2142      2142      2142      2142      2142      2142
      2143      2143      2143      2143      2143      2143      2143      2143
      2143      2143      2143      2144      2144      2144      2144      2144
      2144      2144      2144      2144      2144      2144      2145      2145
      2145      2145      2145      2145      2145      2145      2145      2145
      2145      2146      2146      2146      2146      2146      2146      2146
      2146      2146      2146      2146      2147      2147      2147      2147
      2147      2147      2147      2147      2147      2147      2147      2148
      2148      2148      2148      2148      2148      2148      2148      2148
      2148      2148      2149      2149      2149      2149      2149      2149
      2149      2149      2149      2149      2149      2150      2150      2150
      2150      2150      2150      2150      2150      2150      2150      2150
      2151      2151      2151      2151      2151      2151      2151      2151
      2151      2151      2151      2152      2152      2152      2152      2152
      2152      2152      2152      2152      2152      2152      2153      2153
      2153      2153      2153      2153      2153      2153      2153      2153
      2153      2154      2154      2154      2154      2154      2154      2154
      2154      2154      2154      2154      2155      2155      2155      2155
      2155      2155      2155      2155      2155      2155      2155      2156
      2156      2156      2156      2156      2156      2156      2156      2156
      2156      2156      2157      2157      2157      2157      2157      2157
      2157      2157      2157      2157      2157      2158      2158      2158
      2158      2158      2158      2158      2158      2158      2158      2158
      2159      2159      2159      2159      2159      2159      2159      2159
      2159      2159      2159      2160      2160      2160      2160      2160
      2160      2160      2160      2160      2160      2160      2161      2161
      2161      2161      2161      2161      2161      2161      2161      2161
      2161      2162      2162      2162      2162      2162      2162      2162
      2162      2162      2162      2162      2163      2163      2163      2163
      2163      2163      2163      2163      2163      2163      2163      2164
      2164      2164      2164      2164      2164      2164      2164      2164
      2164      2164      2165      2165      2165      2165      2165      2165
      2165      2165      2165      2165      2165      2166      2166      2166
      2166      2166      2166      2166      2166      2166      2166      2166
      2167      2167      2167      2167      2167      2167      2167      2167
      2167      2167      2167      2168      2168      2168      2168      2168
      2168      2168      2168      2168      2168      2168      2169      2169
      2169      2169      2169      2169      2169      2169      2169      2169
      2169      2170      2170      2170      2170      2170      2170      2170
      2170      2170      2170      2170      2171      2171      2171      2171
      2171      2171      2171      2171      2171      2171      2171      2172
      2172      2172      2172      2172      2172      2172      2172      2172
      2172      2172      2173      2173      2173      2173      2173      2173
      2173      2173      2173      2173      2173      2174      2174      2174
      2174      2174      2174      2174      2174      2174      2174      2174
      2175      2175      2175      2175      2175      2175      2175      2175
      2175      2175      2175      2176      2176      2176      2176      2176
      2176      2176      2176      2176      2176      2176      2177      2177
      2177      2177      2177      2177      2177      2177      2177      2177
      2177      2178      2178      2178      2178      2178      2178      2178
      2178      2178      2178      2178      2179      2179      2179      2179
      2179      2179      2179      2179      2179      2179      2179      2180
      2180      2180      2180      2180      2180      2180      2180      2180
      2180      2180      2181      2181      2181      2181      2181      2181
      2181      2181      2181      2181      2181      2182      2182      2182
      2182      2182      2182      2182      2182      2182      2182      2182
      2183      2183      2183      2183      2183      2183      2183      2183
      2183      2183      2183      2184      2184      2184      2184      2184
      2184      2184      2184      2184      2184      2184      2185      2185
      2185      2185      2185      2185      2185      2185      2185      2185
      2185      2186      2186      2186      2186      2186      2186      2186
      2186      2186      2186      2186      2187      2187      2187      2187
      2187      2187      2187      2187      2187      2187      2187      2188
      2188      2188      2188      2188      2188      2188      2188      2188
      2188      2188      2189      2189      2189      2189      2189      2189
      2189      2189      2189      2189      2189      2190      2190      2190
      2190      2190      2190      2190      2190      2190      2190      2190
      2191      2191      2191      2191      2191      2191      2191      2191
      2191      2191      2191      2192      2192      2192      2192      2192
      2192      2192      2192      2192      2192      2192      2193      2193
      2193      2193      2193      2193      2193      2193      2193      2193
      2193      2194      2194      2194      2194      2194      2194      2194
      2194      2194      2194      2194      2195      2195      2195      2195
      2195      2195      2195      2195      2195      2195      2195      2196
      2196      2196      2196      2196      2196      2196      2196      2196
      2196      2196      2197      2197      2197      2197      2197      2197
      2197      2197      2197      2197      2197      2198      2198      2198
      2198      2198      2198      2198      2198      2198      2198      2198
      2199      2199      2199      2199      2199      2199      2199      2199
      2199      2199      2199      2200      2200      2200      2200      2200
      2200      2200      2200      2200      2200      2200      2201      2201
      2201      2201      2201      2201      2201      2201      2201      2201
      2201      2202      2202      2202      2202      2202      2202      2202
      2202      2202      2202      2202      2203      2203      2203      2203
      2203      2203      2203      2203      2203      2203      2203      2204
      2204      2204      2204      2204      2204      2204      2204      2204
      2204      2204      2205      2205      2205      2205      2205      2205
      2205      2205      2205      2205      2205      2206      2206      2206
      2206      2206      2206      2206      2206      2206      2206      2206
      2207      2207      2207      2207      2207      2207      2207      2207
      2207      2207      2207      2208      2208      2208      2208      2208
      2208      2208      2208      2208      2208      2208      2209      2209
      2209      2209      2209      2209      2209      2209      2209      2209
      2209      2210      2210      2210      2210      2210      2210      2210
      2210      2210      2210      2210      2211      2211      2211      2211
      2211      2211      2211      2211      2211      2211      2211      2212
      2212      2212      2212      2212      2212      2212      2212      2212
      2212      2212      2213      2213      2213      2213      2213      2213
      2213      2213      2213      2213      2213      2214      2214      2214
      2214      2214      2214      2214      2214      2214      2214      2214
      2215      2215      2215      2215      2215      2215      2215      2215
      2215      2215      2215      2216      2216      2216      2216      2216
      2216      2216      2216      2216      2216      2216      2217      2217
      2217      2217      2217      2217      2217      2217      2217      2217
      2217      2218      2218      2218      2218      2218      2218      2218
      2218      2218      2218      2218      2219      2219      2219      2219
      2219      2219      2219      2219      2219      2219      2219      2220
      2220      2220      2220      2220      2220      2220      2220      2220
      2220      2220      2221      2221      2221      2221      2221      2221
      2221      2221      2221      2221      2221      2222      2222      2222
      2222      2222      2222      2222      2222      2222      2222      2222
      2223      2223      2223      2223      2223      2223      2223      2223
      2223      2223      2223      2224      2224      2224      2224      2224
      2224      2224      2224      2224      2224      2224      2225      2225
      2225      2225      2225      2225      2225      2225      2225      2225
      2225      2226      2226      2226      2226      2226      2226      2226
      2226      2226      2226      2226      2227      2227      2227      2227
      2227      2227      2227      2227      2227      2227      2227      2228
      2228      2228      2228      2228      2228      2228      2228      2228
      2228      2228      2229      2229      2229      2229      2229      2229
      2229      2229      2229      2229      2229      2230      2230      2230
      2230      2230      2230      2230      2230      2230      2230      2230
      2231      2231      2231      2231      2231      2231      2231      2231
      2231      2231      2231      2232      2232      2232      2232      2232
      2232      2232      2232      2232      2232      2232      2233      2233
      2233      2233      2233      2233      2233      2233      2233      2233
      2233      2234      2234      2234      2234      2234      2234      2234
      2234      2234      2234      2234      2235      2235      2235      2235
      2235      2235      2235      2235      2235      2235      2235      2236
      2236      2236      2236      2236      2236      2236      2236      2236
      2236      2236      2237      2237      2237      2237      2237      2237
      2237      2237      2237      2237      2237      2238      2238      2238
      2238      2238      2238      2238      2238      2238      2238      2238
      2239      2239      2239      2239      2239      2239      2239      2239
      2239      2239      2239      2240      2240      2240      2240      2240
      2240      2240      2240      2240      2240      2240      2241      2241
      2241      2241      2241      2241      2241      2241      2241      2241
      2241      2242      2242      2242      2242      2242      2242      2242
      2242      2242      2242      2242      2243      2243      2243      2243
      2243      2243      2243      2243      2243      2243      2243      2244
      2244      2244      2244      2244      2244      2244      2244      2244
      2244      2244      2245      2245      2245      2245      2245      2245
      2245      2245      2245      2245      2245      2246      2246      2246
      2246      2246      2246      2246      2246      2246      2246      2246
      2247      2247      2247      2247      2247      2247      2247      2247
      2247      2247      2247      2248      2248      2248      2248      2248
      2248      2248      2248      2248      2248      2248      2249      2249
      2249      2249      2249      2249      2249      2249      2249      2249
      2249      2250      2250      2250      2250      2250      2250      2250
      2250      2250      2250      2250      2251      2251      2251      2251
      2251      2251      2251      2251      2251      2251      2251      2252
      2252      2252      2252      2252      2252      2252      2252      2252
      2252      2252      2253      2253      2253      2253      2253      2253
      2253      2253      2253      2253      2253      2254      2254      2254
      2254      2254      2254      2254      2254      2254      2254      2254
      2255      2255      2255      2255      2255      2255      2255      2255
      2255      2255      2255      2256      2256      2256      2256      2256
      2256      2256      2256      2256      2256      2256      2257      2257
      2257      2257      2257      2257      2257      2257      2257      2257
      2257      2258      2258      2258      2258      2258      2258      2258
      2258      2258      2258      2258      2259      2259      2259      2259
      2259      2259      2259      2259      2259      2259      2259      2260
      2260      2260      2260      2260      2260      2260      2260      2260
      2260      2260      2261      2261      2261      2261      2261      2261
      2261      2261      2261      2261      2261      2262      2262      2262
      2262      2262      2262      2262      2262      2262      2262      2262
      2263      2263      2263      2263      2263      2263      2263      2263
      2263      2263      2263      2264      2264      2264      2264      2264
      2264      2264      2264      2264      2264      2264      2265      2265
      2265      2265      2265      2265      2265      2265      2265      2265
      2265      2266      2266      2266      2266      2266      2266      2266
      2266      2266      2266      2266      2267      2267      2267      2267
      2267      2267      2267      2267      2267      2267      2267      2268
      2268      2268      2268      2268      2268      2268      2268      2268
      2268      2268      2269      2269      2269      2269      2269      2269
      2269      2269      2269      2269      2269      2270      2270      2270
      2270      2270      2270      2270      2270      2270      2270      2270
      2271      2271      2271      2271      2271      2271      2271      2271
      2271      2271      2271      2272      2272      2272      2272      2272
      2272      2272      2272      2272      2272      2272      2273      2273
      2273      2273      2273      2273      2273      2273      2273      2273
      2273      2274      2274      2274      2274      2274      2274      2274
      2274      2274      2274      2274      2275      2275      2275      2275
      2275      2275      2275      2275      2275      2275      2275      2276
      2276      2276      2276      2276      2276      2276      2276      2276
      2276      2276      2277      2277      2277      2277      2277      2277
      2277      2277      2277      2277      2277      2278      2278      2278
      2278      2278      2278      2278      2278      2278      2278      2278
      2279      2279      2279      2279      2279      2279      2279      2279
      2279      2279      2279      2280      2280      2280      2280      2280
      2280      2280      2280      2280      2280      2280      2281      2281
      2281      2281      2281      2281      2281      2281      2281      2281
      2281      2282      2282      2282      2282      2282      2282      2282
      2282      2282      2282      2282      2283      2283      2283      2283
      2283      2283      2283      2283      2283      2283      2283      2284
      2284      2284      2284      2284      2284      2284      2284      2284
      2284      2284      2285      2285      2285      2285      2285      2285
      2285      2285      2285      2285      2285      2286      2286      2286
      2286      2286      2286      2286      2286      2286      2286      2286
      2287      2287      2287      2287      2287      2287      2287      2287
      2287      2287      2287      2288      2288      2288      2288      2288
      2288      2288      2288      2288      2288      2288      2289      2289
      2289      2289      2289      2289      2289      2289      2289      2289
      2289      2290      2290      2290      2290      2290      2290      2290
      2290      2290      2290      2290      2291      2291      2291      2291
      2291      2291      2291      2291      2291      2291      2291      2292
      2292      2292      2292      2292      2292      2292      2292      2292
      2292      2292      2293      2293      2293      2293      2293      2293
      2293      2293      2293      2293      2293      2294      2294      2294
      2294      2294      2294      2294      2294      2294      2294      2294
      2295      2295      2295      2295      2295      2295      2295      2295
      2295      2295      2295      2296      2296      2296      2296      2296
      2296      2296      2296      2296      2296      2296      2297      2297
      2297      2297      2297      2297      2297      2297      2297      2297
      2297      2298      2298      2298      2298      2298      2298      2298
      2298      2298      2298      2298      2299      2299      2299      2299
      2299      2299      2299      2299      2299      2299      2299      2300
      2300      2300      2300      2300      2300      2300      2300      2300
      2300      2300      2301      2301      2301      2301      2301      2301
      2301      2301      2301      2301      2301      2302      2302      2302
      2302      2302      2302      2302      2302      2302      2302      2302
      2303      2303      2303      2303      2303      2303      2303      2303
      2303      2303      2303      2304      2304      2304      2304      2304
      2304      2304      2304      2304      2304      2304      2305      2305
      2305      2305      2305      2305      2305      2305      2305      2305
      2305      2306      2306      2306      2306      2306      2306      2306
      2306      2306      2306      2306      2307      2307      2307      2307
      2307      2307      2307      2307      2307      2307      2307      2308
      2308      2308      2308      2308      2308      2308      2308      2308
      2308      2308      2309      2309      2309      2309      2309      2309
      2309      2309      2309      2309      2309      2310      2310      2310
      2310      2310      2310      2310      2310      2310      2310      2310
      2311      2311      2311      2311      2311      2311      2311      2311
      2311      2311      2311      2312      2312      2312      2312      2312
      2312      2312      2312      2312      2312      2312      2313      2313
      2313      2313      2313      2313      2313      2313      2313      2313
      2313      2314      2314      2314      2314      2314      2314      2314
      2314      2314      2314      2314      2315      2315      2315      2315
      2315      2315      2315      2315      2315      2315      2315      2316
      2316      2316      2316      2316      2316      2316      2316      2316
      2316      2316      2317      2317      2317      2317      2317      2317
      2317      2317      2317      2317      2317      2318      2318      2318
      2318      2318      2318      2318      2318      2318      2318      2318
      2319      2319      2319      2319      2319      2319      2319      2319
      2319      2319      2319      2320      2320      2320      2320      2320
      2320      2320      2320      2320      2320      2320      2321      2321
      2321      2321      2321      2321      2321      2321      2321      2321
      2321      2322      2322      2322      2322      2322      2322      2322
      2322      2322      2322      2322      2323      2323      2323      2323
      2323      2323      2323      2323      2323      2323      2323      2324
      2324      2324      2324      2324      2324      2324      2324      2324
      2324      2324      2325      2325      2325      2325      2325      2325
      2325      2325      2325      2325      2325      2326      2326      2326
      2326      2326      2326      2326      2326      2326      2326      2326
      2327      2327      2327      2327      2327      2327      2327      2327
      2327      2327      2327      2328      2328      2328      2328      2328
      2328      2328      2328      2328      2328      2328      2329      2329
      2329      2329      2329      2329      2329      2329      2329      2329
      2329      2330      2330      2330      2330      2330      2330      2330
      2330      2330      2330      2330      2331      2331      2331      2331
      2331      2331      2331      2331      2331      2331      2331      2332
      2332      2332      2332      2332      2332      2332      2332      2332
      2332      2332      2333      2333      2333      2333      2333      2333
      2333      2333      2333      2333      2333      2334      2334      2334
      2334      2334      2334      2334      2334      2334      2334      2334
      2335      2335      2335      2335      2335      2335      2335      2335
      2335      2335      2335      2336      2336      2336      2336      2336
      2336      2336      2336      2336      2336      2336      2337      2337
      2337      2337      2337      2337      2337      2337      2337      2337
      2337      2338      2338      2338      2338      2338      2338      2338
      2338      2338      2338      2338      2339      2339      2339      2339
      2339      2339      2339      2339      2339      2339      2339      2340
      2340      2340      2340      2340      2340      2340      2340      2340
      2340      2340      2341      2341      2341      2341      2341      2341
      2341      2341      2341      2341      2341      2342      2342      2342
      2342      2342      2342      2342      2342      2342      2342      2342
      2343      2343      2343      2343      2343      2343      2343      2343
      2343      2343      2343      2344      2344      2344      2344      2344
      2344      2344      2344      2344      2344      2344      2345      2345
      2345      2345      2345      2345      2345      2345      2345      2345
      2345      2346      2346      2346      2346      2346      2346      2346
      2346      2346      2346      2346      2347      2347      2347      2347
      2347      2347      2347      2347      2347      2347      2347      2348
      2348      2348      2348      2348      2348      2348      2348      2348
      2348      2348      2349      2349      2349      2349      2349      2349
      2349      2349      2349      2349      2349      2350      2350      2350
      2350      2350      2350      2350      2350      2350      2350      2350
      2351      2351      2351      2351      2351      2351      2351      2351
      2351      2351      2351      2352      2352      2352      2352      2352
      2352      2352      2352      2352      2352      2352      2353      2353
      2353      2353      2353      2353      2353      2353      2353      2353
      2353      2354      2354      2354      2354      2354      2354      2354
      2354      2354      2354      2354      2355      2355      2355      2355
      2355      2355      2355      2355      2355      2355      2355      2356
      2356      2356      2356      2356      2356      2356      2356      2356
      2356      2356      2357      2357      2357      2357      2357      2357
      2357      2357      2357      2357      2357      2358      2358      2358
      2358      2358      2358      2358      2358      2358      2358      2358
      2359      2359      2359      2359      2359      2359      2359      2359
      2359      2359      2359      2360      2360      2360      2360      2360
      2360      2360      2360      2360      2360      2360      2361      2361
      2361      2361      2361      2361      2361      2361      2361      2361
      2361      2362      2362      2362      2362      2362      2362      2362
      2362      2362      2362      2362      2363      2363      2363      2363
      2363      2363      2363      2363      2363      2363      2363      2364
      2364      2364      2364      2364      2364      2364      2364      2364
      2364      2364      2365      2365      2365      2365      2365      2365
      2365      2365      2365      2365      2365      2366      2366      2366
      2366      2366      2366      2366      2366      2366      2366      2366
      2367      2367      2367      2367      2367      2367      2367      2367
      2367      2367      2367      2368      2368      2368      2368      2368
      2368      2368      2368      2368      2368      2368      2369      2369
      2369      2369      2369      2369      2369      2369      2369      2369
      2369      2370      2370      2370      2370      2370      2370      2370
      2370      2370      2370      2370      2371      2371      2371      2371
      2371      2371      2371      2371      2371      2371      2371      2372
      2372      2372      2372      2372      2372      2372      2372      2372
      2372      2372      2373      2373      2373      2373      2373      2373
      2373      2373      2373      2373      2373      2374      2374      2374
      2374      2374      2374      2374      2374      2374      2374      2374
      2375      2375      2375      2375      2375      2375      2375      2375
      2375      2375      2375      2376      2376      2376      2376      2376
      2376      2376      2376      2376      2376      2376      2377      2377
      2377      2377      2377      2377      2377      2377      2377      2377
      2377      2378      2378      2378      2378      2378      2378      2378
      2378      2378      2378      2378      2379      2379      2379      2379
      2379      2379      2379      2379      2379      2379      2379      2380
      2380      2380      2380      2380      2380      2380      2380      2380
      2380      2380      2381      2381      2381      2381      2381      2381
      2381      2381      2381      2381      2381      2382      2382      2382
      2382      2382      2382      2382      2382      2382      2382      2382
      2383      2383      2383      2383      2383      2383      2383      2383
      2383      2383      2383      2384      2384      2384      2384      2384
      2384      2384      2384      2384      2384      2384      2385      2385
      2385      2385      2385      2385      2385      2385      2385      2385
      2385      2386      2386      2386      2386      2386      2386      2386
      2386      2386      2386      2386      2387      2387      2387      2387
      2387      2387      2387      2387      2387      2387      2387      2388
      2388      2388      2388      2388      2388      2388      2388      2388
      2388      2388      2389      2389      2389      2389      2389      2389
      2389      2389      2389      2389      2389      2390      2390      2390
      2390      2390      2390      2390      2390      2390      2390      2390
      2391      2391      2391      2391      2391      2391      2391      2391
      2391      2391      2391      2392      2392      2392      2392      2392
      2392      2392      2392      2392      2392      2392      2393      2393
      2393      2393      2393      2393      2393      2393      2393      2393
      2393      2394      2394      2394      2394      2394      2394      2394
      2394      2394      2394      2394      2395      2395      2395      2395
      2395      2395      2395      2395      2395      2395      2395      2396
      2396      2396      2396      2396      2396      2396      2396      2396
      2396      2396      2397      2397      2397      2397      2397      2397
      2397      2397      2397      2397      2397      2398      2398      2398
      2398      2398      2398      2398      2398      2398      2398      2398
      2399      2399      2399      2399      2399      2399      2399      2399
      2399      2399      2399      2400      2400      2400      2400      2400
      2400      2400      2400      2400      2400      2400      2401      2401
      2401      2401      2401      2401      2401      2401      2401      2401
      2401      2402      2402      2402      2402      2402      2402      2402
      2402      2402      2402      2402      2403      2403      2403      2403
      2403      2403      2403      2403      2403      2403      2403      2404
      2404      2404      2404      2404      2404      2404      2404      2404
      2404      2404      2405      2405      2405      2405      2405      2405
      2405      2405      2405      2405      2405      2406      2406      2406
      2406      2406      2406      2406      2406      2406      2406      2406
      2407      2407      2407      2407      2407      2407      2407      2407
      2407      2407      2407      2408      2408      2408      2408      2408
      2408      2408      2408      2408      2408      2408      2409      2409
      2409      2409      2409      2409      2409      2409      2409      2409
      2409      2410      2410      2410      2410      2410      2410      2410
      2410      2410      2410      2410      2411      2411      2411      2411
      2411      2411      2411      2411      2411      2411      2411      2412
      2412      2412      2412      2412      2412      2412      2412      2412
      2412      2412      2413      2413      2413      2413      2413      2413
      2413      2413      2413      2413      2413      2414      2414      2414
      2414      2414      2414      2414      2414      2414      2414      2414
      2415      2415      2415      2415      2415      2415      2415      2415
      2415      2415      2415      2416      2416      2416      2416      2416
      2416      2416      2416      2416      2416      2416      2417      2417
      2417      2417      2417      2417      2417      2417      2417      2417
      2417      2418      2418      2418      2418      2418      2418      2418
      2418      2418      2418      2418      2419      2419      2419      2419
      2419      2419      2419      2419      2419      2419      2419      2420
      2420      2420      2420      2420      2420      2420      2420      2420
      2420      2420      2421      2421      2421      2421      2421      2421
      2421      2421      2421      2421      2421      2422      2422      2422
      2422      2422      2422      2422      2422      2422      2422      2422
      2423      2423      2423      2423      2423      2423      2423      2423
      2423      2423      2423      2424      2424      2424      2424      2424
      2424      2424      2424      2424      2424      2424      2425      2425
      2425      2425      2425      2425      2425      2425      2425      2425
      2425      2426      2426      2426      2426      2426      2426      2426
      2426      2426      2426      2426      2427      2427      2427      2427
      2427      2427      2427      2427      2427      2427      2427      2428
      2428      2428      2428      2428      2428      2428      2428      2428
      2428      2428      2429      2429      2429      2429      2429      2429
      2429      2429      2429      2429      2429      2430      2430      2430
      2430      2430      2430      2430      2430      2430      2430      2430
      2431      2431      2431      2431      2431      2431      2431      2431
      2431      2431      2431      2432      2432      2432      2432      2432
      2432      2432      2432      2432      2432      2432      2433      2433
      2433      2433      2433      2433      2433      2433      2433      2433
      2433      2434      2434      2434      2434      2434      2434      2434
      2434      2434      2434      2434      2435      2435      2435      2435
      2435      2435      2435      2435      2435      2435      2435      2436
      2436      2436      2436      2436      2436      2436      2436      2436
      2436      2436      2437      2437      2437      2437      2437      2437
      2437      2437      2437      2437      2437      2438      2438      2438
      2438      2438      2438      2438      2438      2438      2438      2438
      2439      2439      2439      2439      2439      2439      2439      2439
      2439      2439      2439      2440      2440      2440      2440      2440
      2440      2440      2440      2440      2440      2440      2441      2441
      2441      2441      2441      2441      2441      2441      2441      2441
      2441      2442      2442      2442      2442      2442      2442      2442
      2442      2442      2442      2442      2443      2443      2443      2443
      2443      2443      2443      2443      2443      2443      2443      2444
      2444      2444      2444      2444      2444      2444      2444      2444
      2444      2444      2445      2445      2445      2445      2445      2445
      2445      2445      2445      2445      2445      2446      2446      2446
      2446      2446      2446      2446      2446      2446      2446      2446
      2447      2447      2447      2447      2447      2447      2447      2447
      2447      2447      2447      2448      2448      2448      2448      2448
      2448      2448      2448      2448      2448      2448      2449      2449
      2449      2449      2449      2449      2449      2449      2449      2449
      2449      2450      2450      2450      2450      2450      2450      2450
      2450      2450      2450      2450      2451      2451      2451      2451
      2451      2451      2451      2451      2451      2451      2451      2452
      2452      2452      2452      2452      2452      2452      2452      2452
      2452      2452      2453      2453      2453      2453      2453      2453
      2453      2453      2453      2453      2453      2454      2454      2454
      2454      2454      2454      2454      2454      2454      2454      2454
      2455      2455      2455      2455      2455      2455      2455      2455
      2455      2455      2455      2456      2456      2456      2456      2456
      2456      2456      2456      2456      2456      2456      2457      2457
      2457      2457      2457      2457      2457      2457      2457      2457
      2457      2458      2458      2458      2458      2458      2458      2458
      2458      2458      2458      2458      2459      2459      2459      2459
      2459      2459      2459      2459      2459      2459      2459      2460
      2460      2460      2460      2460      2460      2460      2460      2460
      2460      2460      2461      2461      2461      2461      2461      2461
      2461      2461      2461      2461      2461      2462      2462      2462
      2462      2462      2462      2462      2462      2462      2462      2462
      2463      2463      2463      2463      2463      2463      2463      2463
      2463      2463      2463      2464      2464      2464      2464      2464
      2464      2464      2464      2464      2464      2464      2465      2465
      2465      2465      2465      2465      2465      2465      2465      2465
      2465      2466      2466      2466      2466      2466      2466      2466
      2466      2466      2466      2466      2467      2467      2467      2467
      2467      2467      2467      2467      2467      2467      2467      2468
      2468      2468      2468      2468      2468      2468      2468      2468
      2468      2468      2469      2469      2469      2469      2469      2469
      2469      2469      2469      2469      2469      2470      2470      2470
      2470      2470      2470      2470      2470      2470      2470      2470
      2471      2471      2471      2471      2471      2471      2471      2471
      2471      2471      2471      2472      2472      2472      2472      2472
      2472      2472      2472      2472      2472      2472      2473      2473
      2473      2473      2473      2473      2473      2473      2473      2473
      2473      2474      2474      2474      2474      2474      2474      2474
      2474      2474      2474      2474      2475      2475      2475      2475
      2475      2475      2475      2475      2475      2475      2475      2476
      2476      2476      2476      2476      2476      2476      2476      2476
      2476      2476      2477      2477      2477      2477      2477      2477
      2477      2477      2477      2477      2477      2478      2478      2478
      2478      2478      2478      2478      2478      2478      2478      2478
      2479      2479      2479      2479      2479      2479      2479      2479
      2479      2479      2479      2480      2480      2480      2480      2480
      2480      2480      2480      2480      2480      2480      2481      2481
      2481      2481      2481      2481      2481      2481      2481      2481
      2481      2482      2482      2482      2482      2482      2482      2482
      2482      2482      2482      2482      2483      2483      2483      2483
      2483      2483      2483      2483      2483      2483      2483      2484
      2484      2484      2484      2484      2484      2484      2484      2484
      2484      2484      2485      2485      2485      2485      2485      2485
      2485      2485      2485      2485      2485      2486      2486      2486
      2486      2486      2486      2486      2486      2486      2486      2486
      2487      2487      2487      2487      2487      2487      2487      2487
      2487      2487      2487      2488      2488      2488      2488      2488
      2488      2488      2488      2488      2488      2488      2489      2489
      2489      2489      2489      2489      2489      2489      2489      2489
      2489      2490      2490      2490      2490      2490      2490      2490
      2490      2490      2490      2490      2491      2491      2491      2491
      2491      2491      2491      2491      2491      2491      2491      2492
      2492      2492      2492      2492      2492      2492      2492      2492
      2492      2492      2493      2493      2493      2493      2493      2493
      2493      2493      2493      2493      2493      2494      2494      2494
      2494      2494      2494      2494      2494      2494      2494      2494
      2495      2495      2495      2495      2495      2495      2495      2495
      2495      2495      2495      2496      2496      2496      2496      2496
      2496      2496      2496      2496      2496      2496      2497      2497
      2497      2497      2497      2497      2497      2497      2497      2497
      2497      2498      2498      2498      2498      2498      2498      2498
      2498      2498      2498      2498      2499      2499      2499      2499
      2499      2499      2499      2499      2499      2499      2499      2500
      2500      2500      2500      2500      2500      2500      2500      2500
      2500      2500      2501      2501      2501      2501      2501      2501
      2501      2501      2501      2501      2501      2502      2502      2502
      2502      2502      2502      2502      2502      2502      2502      2502
      2503      2503      2503      2503      2503      2503      2503      2503
      2503      2503      2503      2504      2504      2504      2504      2504
      2504      2504      2504      2504      2504      2504      2505      2505
      2505      2505      2505      2505      2505      2505      2505      2505
      2505      2506      2506      2506      2506      2506      2506      2506
      2506      2506      2506      2506      2507      2507      2507      2507
      2507      2507      2507      2507      2507      2507      2507      2508
      2508      2508      2508      2508      2508      2508      2508      2508
      2508      2508      2509      2509      2509      2509      2509      2509
      2509      2509      2509      2509      2509      2510      2510      2510
      2510      2510      2510      2510      2510      2510      2510      2510
      2511      2511      2511      2511      2511      2511      2511      2511
      2511      2511      2511      2512      2512      2512      2512      2512
      2512      2512      2512      2512      2512      2512      2513      2513
      2513      2513      2513      2513      2513      2513      2513      2513
      2513      2514      2514      2514      2514      2514      2514      2514
      2514      2514      2514      2514      2515      2515      2515      2515
      2515      2515      2515      2515      2515      2515      2515      2516
      2516      2516      2516      2516      2516      2516      2516      2516
      2516      2516      2517      2517      2517      2517      2517      2517
      2517      2517      2517      2517      2517      2518      2518      2518
      2518      2518      2518      2518      2518      2518      2518      2518
      2519      2519      2519      2519      2519      2519      2519      2519
      2519      2519      2519      2520      2520      2520      2520      2520
      2520      2520      2520      2520      2520      2520      2521      2521
      2521      2521      2521      2521      2521      2521      2521      2521
      2521      2522      2522      2522      2522      2522      2522      2522
      2522      2522      2522      2522      2523      2523      2523      2523
      2523      2523      2523      2523      2523      2523      2523      2524
      2524      2524      2524      2524      2524      2524      2524      2524
      2524      2524      2525      2525      2525      2525      2525      2525
      2525      2525      2525      2525      2525      2526      2526      2526
      2526      2526      2526      2526      2526      2526      2526      2526
      2527      2527      2527      2527      2527      2527      2527      2527
      2527      2527      2527      2528      2528      2528      2528      2528
      2528      2528      2528      2528      2528      2528      2529      2529
      2529      2529      2529      2529      2529      2529      2529      2529
      2529      2530      2530      2530      2530      2530      2530      2530
      2530      2530      2530      2530      2531      2531      2531      2531
      2531      2531      2531      2531      2531      2531      2531      2532
      2532      2532      2532      2532      2532      2532      2532      2532
      2532      2532      2533      2533      2533      2533      2533      2533
      2533      2533      2533      2533      2533      2534      2534      2534
      2534      2534      2534      2534      2534      2534      2534      2534
      2535      2535      2535      2535      2535      2535      2535      2535
      2535      2535      2535      2536      2536      2536      2536      2536
      2536      2536      2536      2536      2536      2536      2537      2537
      2537      2537      2537      2537      2537      2537      2537      2537
      2537      2538      2538      2538      2538      2538      2538      2538
      2538      2538      2538      2538      2539      2539      2539      2539
      2539      2539      2539      2539      2539      2539      2539      2540
      2540      2540      2540      2540      2540      2540      2540      2540
      2540      2540      2541      2541      2541      2541      2541      2541
      2541      2541      2541      2541      2541      2542      2542      2542
      2542      2542      2542      2542      2542      2542      2542      2542
      2543      2543      2543      2543      2543      2543      2543      2543
      2543      2543      2543      2544      2544      2544      2544      2544
      2544      2544      2544      2544      2544      2544      2545      2545
      2545      2545      2545      2545      2545      2545      2545      2545
      2545      2546      2546      2546      2546      2546      2546      2546
      2546      2546      2546      2546      2547      2547      2547      2547
      2547      2547      2547      2547      2547      2547      2547      2548
      2548      2548      2548      2548      2548      2548      2548      2548
      2548      2548      2549      2549      2549      2549      2549      2549
      2549      2549      2549      2549      2549      2550      2550      2550
      2550      2550      2550      2550      2550      2550      2550      2550
      2551      2551      2551      2551      2551      2551      2551      2551
      2551      2551      2551      2552      2552      2552      2552      2552
      2552      2552      2552      2552      2552      2552      2553      2553
      2553      2553      2553      2553      2553      2553      2553      2553
      2553      2554      2554      2554      2554      2554      2554      2554
      2554      2554      2554      2554      2555      2555      2555      2555
      2555      2555      2555      2555      2555      2555      2555      2556
      2556      2556      2556      2556      2556      2556      2556      2556
      2556      2556      2557      2557      2557      2557      2557      2557
      2557      2557      2557      2557      2557      2558      2558      2558
      2558      2558      2558      2558      2558      2558      2558      2558
      2559      2559      2559      2559      2559      2559      2559      2559
      2559      2559      2559      2560      2560      2560      2560      2560
      2560      2560      2560      2560      2560      2560      2561      2561
      2561      2561      2561      2561      2561      2561      2561      2561
      2561      2562      2562      2562      2562      2562      2562      2562
      2562      2562      2562      2562      2563      2563      2563      2563
      2563      2563      2563      2563      2563      2563      2563      2564
      2564      2564      2564      2564      2564      2564      2564      2564
      2564      2564      2565      2565      2565      2565      2565      2565
      2565      2565      2565      2565      2565      2566      2566      2566
      2566      2566      2566      2566      2566      2566      2566      2566
      2567      2567      2567      2567      2567      2567      2567      2567
      2567      2567      2567      2568      2568      2568      2568      2568
      2568      2568      2568      2568      2568      2568      2569      2569
      2569      2569      2569      2569      2569      2569      2569      2569
      2569      2570      2570      2570      2570      2570      2570      2570
      2570      2570      2570      2570      2571      2571      2571      2571
      2571      2571      2571      2571      2571      2571      2571      2572
      2572      2572      2572      2572      2572      2572      2572      2572
      2572      2572      2573      2573      2573      2573      2573      2573
      2573      2573      2573      2573      2573      2574      2574      2574
      2574      2574      2574      2574      2574      2574      2574      2574
      2575      2575      2575      2575      2575      2575      2575      2575
      2575      2575      2575      2576      2576      2576      2576      2576
      2576      2576      2576      2576      2576      2576      2577      2577
      2577      2577      2577      2577      2577      2577      2577      2577
      2577      2578      2578      2578      2578      2578      2578      2578
      2578      2578      2578      2578      2579      2579      2579      2579
      2579      2579      2579      2579      2579      2579      2579      2580
      2580      2580      2580      2580      2580      2580      2580      2580
      2580      2580      2581      2581      2581      2581      2581      2581
      2581      2581      2581      2581      2581      2582      2582      2582
      2582      2582      2582      2582      2582      2582      2582      2582
      2583      2583      2583      2583      2583      2583      2583      2583
      2583      2583      2583      2584      2584      2584      2584      2584
      2584      2584      2584      2584      2584      2584      2585      2585
      2585      2585      2585      2585      2585      2585      2585      2585
      2585      2586      2586      2586      2586      2586      2586      2586
      2586      2586      2586      2586      2587      2587      2587      2587
      2587      2587      2587      2587      2587      2587      2587      2588
      2588      2588      2588      2588      2588      2588      2588      2588
      2588      2588      2589      2589      2589      2589      2589      2589
      2589      2589      2589      2589      2589      2590      2590      2590
      2590      2590      2590      2590      2590      2590      2590      2590
      2591      2591      2591      2591      2591      2591      2591      2591
      2591      2591      2591      2592      2592      2592      2592      2592
      2592      2592      2592      2592      2592      2592      2593      2593
      2593      2593      2593      2593      2593      2593      2593      2593
      2593      2594      2594      2594      2594      2594      2594      2594
      2594      2594      2594      2594      2595      2595      2595      2595
      2595      2595      2595      2595      2595      2595      2595      2596
      2596      2596      2596      2596      2596      2596      2596      2596
      2596      2596      2597      2597      2597      2597      2597      2597
      2597      2597      2597      2597      2597      2598      2598      2598
      2598      2598      2598      2598      2598      2598      2598      2598
      2599      2599      2599      2599      2599      2599      2599      2599
      2599      2599      2599      2600      2600      2600      2600      2600
      2600      2600      2600      2600      2600      2600      2601      2601
      2601      2601      2601      2601      2601      2601      2601      2601
      2601      2602      2602      2602      2602      2602      2602      2602
      2602      2602      2602      2602      2603      2603      2603      2603
      2603      2603      2603      2603      2603      2603      2603      2604
      2604      2604      2604      2604      2604      2604      2604      2604
      2604      2604      2605      2605      2605      2605      2605      2605
      2605      2605      2605      2605      2605      2606      2606      2606
      2606      2606      2606      2606      2606      2606      2606      2606
      2607      2607      2607      2607      2607      2607      2607      2607
      2607      2607      2607      2608      2608      2608      2608      2608
      2608      2608      2608      2608      2608      2608      2609      2609
      2609      2609      2609      2609      2609      2609      2609      2609
      2609      2610      2610      2610      2610      2610      2610      2610
      2610      2610      2610      2610      2611      2611      2611      2611
      2611      2611      2611      2611      2611      2611      2611      2612
      2612      2612      2612      2612      2612      2612      2612      2612
      2612      2612      2613      2613      2613      2613      2613      2613
      2613      2613      2613      2613      2613      2614      2614      2614
      2614      2614      2614      2614      2614      2614      2614      2614
      2615      2615      2615      2615      2615      2615      2615      2615
      2615      2615      2615      2616      2616      2616      2616      2616
      2616      2616      2616      2616      2616      2616      2617      2617
      2617      2617      2617      2617      2617      2617      2617      2617
      2617      2618      2618      2618      2618      2618      2618      2618
      2618      2618      2618      2618      2619      2619      2619      2619
      2619      2619      2619      2619      2619      2619      2619      2620
      2620      2620      2620      2620      2620      2620      2620      2620
      2620      2620      2621      2621      2621      2621      2621      2621
      2621      2621      2621      2621      2621      2622      2622      2622
      2622      2622      2622      2622      2622      2622      2622      2622
      2623      2623      2623      2623      2623      2623      2623      2623
      2623      2623      2623      2624      2624      2624      2624      2624
      2624      2624      2624      2624      2624      2624      2625      2625
      2625      2625      2625      2625      2625      2625      2625      2625
      2625      2626      2626      2626      2626      2626      2626      2626
      2626      2626      2626      2626      2627      2627      2627      2627
      2627      2627      2627      2627      2627      2627      2627      2628
      2628      2628      2628      2628      2628      2628      2628      2628
      2628      2628      2629      2629      2629      2629      2629      2629
      2629      2629      2629      2629      2629      2630      2630      2630
      2630      2630      2630      2630      2630      2630      2630      2630
      2631      2631      2631      2631      2631      2631      2631      2631
      2631      2631      2631      2632      2632      2632      2632      2632
      2632      2632      2632      2632      2632      2632      2633      2633
      2633      2633      2633      2633      2633      2633      2633      2633
      2633      2634      2634      2634      2634      2634      2634      2634
      2634      2634      2634      2634      2635      2635      2635      2635
      2635      2635      2635      2635      2635      2635      2635      2636
      2636      2636      2636      2636      2636      2636      2636      2636
      2636      2636      2637      2637      2637      2637      2637      2637
      2637      2637      2637      2637      2637      2638      2638      2638
      2638      2638      2638      2638      2638      2638      2638      2638
      2639      2639      2639      2639      2639      2639      2639      2639
      2639      2639      2639      2640      2640      2640      2640      2640
      2640      2640      2640      2640      2640      2640      2641      2641
      2641      2641      2641      2641      2641      2641      2641      2641
      2641      2642      2642      2642      2642      2642      2642      2642
      2642      2642      2642      2642      2643      2643      2643      2643
      2643      2643      2643      2643      2643      2643      2643      2644
      2644      2644      2644      2644      2644      2644      2644      2644
      2644      2644      2645      2645      2645      2645      2645      2645
      2645      2645      2645      2645      2645      2646      2646      2646
      2646      2646      2646      2646      2646      2646      2646      2646
      2647      2647      2647      2647      2647      2647      2647      2647
      2647      2647      2647      2648      2648      2648      2648      2648
      2648      2648      2648      2648      2648      2648      2649      2649
      2649      2649      2649      2649      2649      2649      2649      2649
      2649      2650      2650      2650      2650      2650      2650      2650
      2650      2650      2650      2650      2651      2651      2651      2651
      2651      2651      2651      2651      2651      2651      2651      2652
      2652      2652      2652      2652      2652      2652      2652      2652
      2652      2652      2653      2653      2653      2653      2653      2653
      2653      2653      2653      2653      2653      2654      2654      2654
      2654      2654      2654      2654      2654      2654      2654      2654
      2655      2655      2655      2655      2655      2655      2655      2655
      2655      2655      2655      2656      2656      2656      2656      2656
      2656      2656      2656      2656      2656      2656      2657      2657
      2657      2657      2657      2657      2657      2657      2657      2657
      2657      2658      2658      2658      2658      2658      2658      2658
      2658      2658      2658      2658      2659      2659      2659      2659
      2659      2659      2659      2659      2659      2659      2659      2660
      2660      2660      2660      2660      2660      2660      2660      2660
      2660      2660      2661      2661      2661      2661      2661      2661
      2661      2661      2661      2661      2661      2662      2662      2662
      2662      2662      2662      2662      2662      2662      2662      2662
      2663      2663      2663      2663      2663      2663      2663      2663
      2663      2663      2663      2664      2664      2664      2664      2664
      2664      2664      2664      2664      2664      2664      2665      2665
      2665      2665      2665      2665      2665      2665      2665      2665
      2665      2666      2666      2666      2666      2666      2666      2666
      2666      2666      2666      2666      2667      2667      2667      2667
      2667      2667      2667      2667      2667      2667      2667      2668
      2668      2668      2668      2668      2668      2668      2668      2668
      2668      2668      2669      2669      2669      2669      2669      2669
      2669      2669      2669      2669      2669      2670      2670      2670
      2670      2670      2670      2670      2670      2670      2670      2670
      2671      2671      2671      2671      2671      2671      2671      2671
      2671      2671      2671      2672      2672      2672      2672      2672
      2672      2672      2672      2672      2672      2672      2673      2673
      2673      2673      2673      2673      2673      2673      2673      2673
      2673      2674      2674      2674      2674      2674      2674      2674
      2674      2674      2674      2674      2675      2675      2675      2675
      2675      2675      2675      2675      2675      2675      2675      2676
      2676      2676      2676      2676      2676      2676      2676      2676
      2676      2676      2677      2677      2677      2677      2677      2677
      2677      2677      2677      2677      2677      2678      2678      2678
      2678      2678      2678      2678      2678      2678      2678      2678
      2679      2679      2679      2679      2679      2679      2679      2679
      2679      2679      2679      2680      2680      2680      2680      2680
      2680      2680      2680      2680      2680      2680      2681      2681
      2681      2681      2681      2681      2681      2681      2681      2681
      2681      2682      2682      2682      2682      2682      2682      2682
      2682      2682      2682      2682      2683      2683      2683      2683
      2683      2683      2683      2683      2683      2683      2683      2684
      2684      2684      2684      2684      2684      2684      2684      2684
      2684      2684      2685      2685      2685      2685      2685      2685
      2685      2685      2685      2685      2685      2686      2686      2686
      2686      2686      2686      2686      2686      2686      2686      2686
      2687      2687      2687      2687      2687      2687      2687      2687
      2687      2687      2687      2688      2688      2688      2688      2688
      2688      2688      2688      2688      2688      2688      2689      2689
      2689      2689      2689      2689      2689      2689      2689      2689
      2689      2690      2690      2690      2690      2690      2690      2690
      2690      2690      2690      2690      2691      2691      2691      2691
      2691      2691      2691      2691      2691      2691      2691      2692
      2692      2692      2692      2692      2692      2692      2692      2692
      2692      2692      2693      2693      2693      2693      2693      2693
      2693      2693      2693      2693      2693      2694      2694      2694
      2694      2694      2694      2694      2694      2694      2694      2694
      2695      2695      2695      2695      2695      2695      2695      2695
      2695      2695      2695      2696      2696      2696      2696      2696
      2696      2696      2696      2696      2696      2696      2697      2697
      2697      2697      2697      2697      2697      2697      2697      2697
      2697      2698      2698      2698      2698      2698      2698      2698
      2698      2698      2698      2698      2699      2699      2699      2699
      2699      2699      2699      2699      2699      2699      2699      2700
      2700      2700      2700      2700      2700      2700      2700      2700
      2700      2700      2701      2701      2701      2701      2701      2701
      2701      2701      2701      2701      2701      2702      2702      2702
      2702      2702      2702      2702      2702      2702      2702      2702
      2703      2703      2703      2703      2703      2703      2703      2703
      2703      2703      2703      2704      2704      2704      2704      2704
      2704      2704      2704      2704      2704      2704      2705      2705
      2705      2705      2705      2705      2705      2705      2705      2705
      2705      2706      2706      2706      2706      2706      2706      2706
      2706      2706      2706      2706      2707      2707      2707      2707
      2707      2707      2707      2707      2707      2707      2707      2708
      2708      2708      2708      2708      2708      2708      2708      2708
      2708      2708      2709      2709      2709      2709      2709      2709
      2709      2709      2709      2709      2709      2710      2710      2710
      2710      2710      2710      2710      2710      2710      2710      2710
      2711      2711      2711      2711      2711      2711      2711      2711
      2711      2711      2711      2712      2712      2712      2712      2712
      2712      2712      2712      2712      2712      2712      2713      2713
      2713      2713      2713      2713      2713      2713      2713      2713
      2713      2714      2714      2714      2714      2714      2714      2714
      2714      2714      2714      2714      2715      2715      2715      2715
      2715      2715      2715      2715      2715      2715      2715      2716
      2716      2716      2716      2716      2716      2716      2716      2716
      2716      2716      2717      2717      2717      2717      2717      2717
      2717      2717      2717      2717      2717      2718      2718      2718
      2718      2718      2718      2718      2718      2718      2718      2718
      2719      2719      2719      2719      2719      2719      2719      2719
      2719      2719      2719      2720      2720      2720      2720      2720
      2720      2720      2720      2720      2720      2720      2721      2721
      2721      2721      2721      2721      2721      2721      2721      2721
      2721      2722      2722      2722      2722      2722      2722      2722
      2722      2722      2722      2722      2723      2723      2723      2723
      2723      2723      2723      2723      2723      2723      2723      2724
      2724      2724      2724      2724      2724      2724      2724      2724
      2724      2724      2725      2725      2725      2725      2725      2725
      2725      2725      2725      2725      2725      2726      2726      2726
      2726      2726      2726      2726      2726      2726      2726      2726
      2727      2727      2727      2727      2727      2727      2727      2727
      2727      2727      2727      2728      2728      2728      2728      2728
      2728      2728      2728      2728      2728      2728      2729      2729
      2729      2729      2729      2729      2729      2729      2729      2729
      2729      2730      2730      2730      2730      2730      2730      2730
      2730      2730      2730      2730      2731      2731      2731      2731
      2731      2731      2731      2731      2731      2731      2731      2732
      2732      2732      2732      2732      2732      2732      2732      2732
      2732      2732      2733      2733      2733      2733      2733      2733
      2733      2733      2733      2733      2733      2734      2734      2734
      2734      2734      2734      2734      2734      2734      2734      2734
      2735      2735      2735      2735      2735      2735      2735      2735
      2735      2735      2735      2736      2736      2736      2736      2736
      2736      2736      2736      2736      2736      2736      2737      2737
      2737      2737      2737      2737      2737      2737      2737      2737
      2737      2738      2738      2738      2738      2738      2738      2738
      2738      2738      2738      2738      2739      2739      2739      2739
      2739      2739      2739      2739      2739      2739      2739      2740
      2740      2740      2740      2740      2740      2740      2740      2740
      2740      2740      2741      2741      2741      2741      2741      2741
      2741      2741      2741      2741      2741      2742      2742      2742
      2742      2742      2742      2742      2742      2742      2742      2742
      2743      2743      2743      2743      2743      2743      2743      2743
      2743      2743      2743      2744      2744      2744      2744      2744
      2744      2744      2744      2744      2744      2744      2745      2745
      2745      2745      2745      2745      2745      2745      2745      2745
      2745      2746      2746      2746      2746      2746      2746      2746
      2746      2746      2746      2746      2747      2747      2747      2747
      2747      2747      2747      2747      2747      2747      2747      2748
      2748      2748      2748      2748      2748      2748      2748      2748
      2748      2748      2749      2749      2749      2749      2749      2749
      2749      2749      2749      2749      2749      2750      2750      2750
      2750      2750      2750      2750      2750      2750      2750      2750
      2751      2751      2751      2751      2751      2751      2751      2751
      2751      2751      2751      2752      2752      2752      2752      2752
      2752      2752      2752      2752      2752      2752      2753      2753
      2753      2753      2753      2753      2753      2753      2753      2753
      2753      2754      2754      2754      2754      2754      2754      2754
      2754      2754      2754      2754      2755      2755      2755      2755
      2755      2755      2755      2755      2755      2755      2755      2756
      2756      2756      2756      2756      2756      2756      2756      2756
      2756      2756      2757      2757      2757      2757      2757      2757
      2757      2757      2757      2757      2757      2758      2758      2758
      2758      2758      2758      2758      2758      2758      2758      2758
      2759      2759      2759      2759      2759      2759      2759      2759
      2759      2759      2759      2760      2760      2760      2760      2760
      2760      2760      2760      2760      2760      2760      2761      2761
      2761      2761      2761      2761      2761      2761      2761      2761
      2761      2762      2762      2762      2762      2762      2762      2762
      2762      2762      2762      2762      2763      2763      2763      2763
      2763      2763      2763      2763      2763      2763      2763      2764
      2764      2764      2764      2764      2764      2764      2764      2764
      2764      2764      2765      2765      2765      2765      2765      2765
      2765      2765      2765      2765      2765      2766      2766      2766
      2766      2766      2766      2766      2766      2766      2766      2766
      2767      2767      2767      2767      2767      2767      2767      2767
      2767      2767      2767      2768      2768      2768      2768      2768
      2768      2768      2768      2768      2768      2768      2769      2769
      2769      2769      2769      2769      2769      2769      2769      2769
      2769      2770      2770      2770      2770      2770      2770      2770
      2770      2770      2770      2770      2771      2771      2771      2771
      2771      2771      2771      2771      2771      2771      2771      2772
      2772      2772      2772      2772      2772      2772      2772      2772
      2772      2772      2773      2773      2773      2773      2773      2773
      2773      2773      2773      2773      2773      2774      2774      2774
      2774      2774      2774      2774      2774      2774      2774      2774
      2775      2775      2775      2775      2775      2775      2775      2775
      2775      2775      2775      2776      2776      2776      2776      2776
      2776      2776      2776      2776      2776      2776      2777      2777
      2777      2777      2777      2777      2777      2777      2777      2777
      2777      2778      2778      2778      2778      2778      2778      2778
      2778      2778      2778      2778      2779      2779      2779      2779
      2779      2779      2779      2779      2779      2779      2779      2780
      2780      2780      2780      2780      2780      2780      2780      2780
      2780      2780      2781      2781      2781      2781      2781      2781
      2781      2781      2781      2781      2781      2782      2782      2782
      2782      2782      2782      2782      2782      2782      2782      2782
      2783      2783      2783      2783      2783      2783      2783      2783
      2783      2783      2783      2784      2784      2784      2784      2784
      2784      2784      2784      2784      2784      2784      2785      2785
      2785      2785      2785      2785      2785      2785      2785      2785
      2785      2786      2786      2786      2786      2786      2786      2786
      2786      2786      2786      2786      2787      2787      2787      2787
      2787      2787      2787      2787      2787      2787      2787      2788
      2788      2788      2788      2788      2788      2788      2788      2788
      2788      2788      2789      2789      2789      2789      2789      2789
      2789      2789      2789      2789      2789      2790      2790      2790
      2790      2790      2790      2790      2790      2790      2790      2790
      2791      2791      2791      2791      2791      2791      2791      2791
      2791      2791      2791      2792      2792      2792      2792      2792
      2792      2792      2792      2792      2792      2792      2793      2793
      2793      2793      2793      2793      2793      2793      2793      2793
      2793      2794      2794      2794      2794      2794      2794      2794
      2794      2794      2794      2794      2795      2795      2795      2795
      2795      2795      2795      2795      2795      2795      2795      2796
      2796      2796      2796      2796      2796      2796      2796      2796
      2796      2796      2797      2797      2797      2797      2797      2797
      2797      2797      2797      2797      2797      2798      2798      2798
      2798      2798      2798      2798      2798      2798      2798      2798
      2799      2799      2799      2799      2799      2799      2799      2799
      2799      2799      2799      2800      2800      2800      2800      2800
      2800      2800      2800      2800      2800      2800      2801      2801
      2801      2801      2801      2801      2801      2801      2801      2801
      2801      2802      2802      2802      2802      2802      2802      2802
      2802      2802      2802      2802      2803      2803      2803      2803
      2803      2803      2803      2803      2803      2803      2803      2804
      2804      2804      2804      2804      2804      2804      2804      2804
      2804      2804      2805      2805      2805      2805      2805      2805
      2805      2805      2805      2805      2805      2806      2806      2806
      2806      2806      2806      2806      2806      2806      2806      2806
      2807      2807      2807      2807      2807      2807      2807      2807
      2807      2807      2807      2808      2808      2808      2808      2808
      2808      2808      2808      2808      2808      2808      2809      2809
      2809      2809      2809      2809      2809      2809      2809      2809
      2809      2810      2810      2810      2810      2810      2810      2810
      2810      2810      2810      2810      2811      2811      2811      2811
      2811      2811      2811      2811      2811      2811      2811      2812
      2812      2812      2812      2812      2812      2812      2812      2812
      2812      2812      2813      2813      2813      2813      2813      2813
      2813      2813      2813      2813      2813      2814      2814      2814
      2814      2814      2814      2814      2814      2814      2814      2814
      2815      2815      2815      2815      2815      2815      2815      2815
      2815      2815      2815      2816      2816      2816      2816      2816
      2816      2816      2816      2816      2816      2816      2817      2817
      2817      2817      2817      2817      2817      2817      2817      2817
      2817      2818      2818      2818      2818      2818      2818      2818
      2818      2818      2818      2818      2819      2819      2819      2819
      2819      2819      2819      2819      2819      2819      2819      2820
      2820      2820      2820      2820      2820      2820      2820      2820
      2820      2820      2821      2821      2821      2821      2821      2821
      2821      2821      2821      2821      2821      2822      2822      2822
      2822      2822      2822      2822      2822      2822      2822      2822
      2823      2823      2823      2823      2823      2823      2823      2823
      2823      2823      2823      2824      2824      2824      2824      2824
      2824      2824      2824      2824      2824      2824      2825      2825
      2825      2825      2825      2825      2825      2825      2825      2825
      2825      2826      2826      2826      2826      2826      2826      2826
      2826      2826      2826      2826      2827      2827      2827      2827
      2827      2827      2827      2827      2827      2827      2827      2828
      2828      2828      2828      2828      2828      2828      2828      2828
      2828      2828      2829      2829      2829      2829      2829      2829
      2829      2829      2829      2829      2829      2830      2830      2830
      2830      2830      2830      2830      2830      2830      2830      2830
      2831      2831      2831      2831      2831      2831      2831      2831
      2831      2831      2831      2832      2832      2832      2832      2832
      2832      2832      2832      2832      2832      2832      2833      2833
      2833      2833      2833      2833      2833      2833      2833      2833
      2833      2834      2834      2834      2834      2834      2834      2834
      2834      2834      2834      2834      2835      2835      2835      2835
      2835      2835      2835      2835      2835      2835      2835      2836
      2836      2836      2836      2836      2836      2836      2836      2836
      2836      2836      2837      2837      2837      2837      2837      2837
      2837      2837      2837      2837      2837      2838      2838      2838
      2838      2838      2838      2838      2838      2838      2838      2838
      2839      2839      2839      2839      2839      2839      2839      2839
      2839      2839      2839      2840      2840      2840      2840      2840
      2840      2840      2840      2840      2840      2840      2841      2841
      2841      2841      2841      2841      2841      2841      2841      2841
      2841      2842      2842      2842      2842      2842      2842      2842
      2842      2842      2842      2842      2843      2843      2843      2843
      2843      2843      2843      2843      2843      2843      2843      2844
      2844      2844      2844      2844      2844      2844      2844      2844
      2844      2844      2845      2845      2845      2845      2845      2845
      2845      2845      2845      2845      2845      2846      2846      2846
      2846      2846      2846      2846      2846      2846      2846      2846
      2847      2847      2847      2847      2847      2847      2847      2847
      2847      2847      2847      2848      2848      2848      2848      2848
      2848      2848      2848      2848      2848      2848      2849      2849
      2849      2849      2849      2849      2849      2849      2849      2849
      2849      2850      2850      2850      2850      2850      2850      2850
      2850      2850      2850      2850      2851      2851      2851      2851
      2851      2851      2851      2851      2851      2851      2851      2852
      2852      2852      2852      2852      2852      2852      2852      2852
      2852      2852      2853      2853      2853      2853      2853      2853
      2853      2853      2853      2853      2853      2854      2854      2854
      2854      2854      2854      2854      2854      2854      2854      2854
      2855      2855      2855      2855      2855      2855      2855      2855
      2855      2855      2855      2856      2856      2856      2856      2856
      2856      2856      2856      2856      2856      2856      2857      2857
      2857      2857      2857      2857      2857      2857      2857      2857
      2857      2858      2858      2858      2858      2858      2858      2858
      2858      2858      2858      2858      2859      2859      2859      2859
      2859      2859      2859      2859      2859      2859      2859      2860
      2860      2860      2860      2860      2860      2860      2860      2860
      2860      2860      2861      2861      2861      2861      2861      2861
      2861      2861      2861      2861      2861      2862      2862      2862
      2862      2862      2862      2862      2862      2862      2862      2862
      2863      2863      2863      2863      2863      2863      2863      2863
      2863      2863      2863      2864      2864      2864      2864      2864
      2864      2864      2864      2864      2864      2864      2865      2865
      2865      2865      2865      2865      2865      2865      2865      2865
      2865      2866      2866      2866      2866      2866      2866      2866
      2866      2866      2866      2866      2867      2867      2867      2867
      2867      2867      2867      2867      2867      2867      2867      2868
      2868      2868      2868      2868      2868      2868      2868      2868
      2868      2868      2869      2869      2869      2869      2869      2869
      2869      2869      2869      2869      2869      2870      2870      2870
      2870      2870      2870      2870      2870      2870      2870      2870
      2871      2871      2871      2871      2871      2871      2871      2871
      2871      2871      2871      2872      2872      2872      2872      2872
      2872      2872      2872      2872      2872      2872      2873      2873
      2873      2873      2873      2873      2873      2873      2873      2873
      2873      2874      2874      2874      2874      2874      2874      2874
      2874      2874      2874      2874      2875      2875      2875      2875
      2875      2875      2875      2875      2875      2875      2875      2876
      2876      2876      2876      2876      2876      2876      2876      2876
      2876      2876      2877      2877      2877      2877      2877      2877
      2877      2877      2877      2877      2877      2878      2878      2878
      2878      2878      2878      2878      2878      2878      2878      2878
      2879      2879      2879      2879      2879      2879      2879      2879
      2879      2879      2879      2880      2880      2880      2880      2880
      2880      2880      2880      2880      2880      2880      2881      2881
      2881      2881      2881      2881      2881      2881      2881      2881
      2881      2882      2882      2882      2882      2882      2882      2882
      2882      2882      2882      2882      2883      2883      2883      2883
      2883      2883      2883      2883      2883      2883      2883      2884
      2884      2884      2884      2884      2884      2884      2884      2884
      2884      2884      2885      2885      2885      2885      2885      2885
      2885      2885      2885      2885      2885      2886      2886      2886
      2886      2886      2886      2886      2886      2886      2886      2886
      2887      2887      2887      2887      2887      2887      2887      2887
      2887      2887      2887      2888      2888      2888      2888      2888
      2888      2888      2888      2888      2888      2888      2889      2889
      2889      2889      2889      2889      2889      2889      2889      2889
      2889      2890      2890      2890      2890      2890      2890      2890
      2890      2890      2890      2890      2891      2891      2891      2891
      2891      2891      2891      2891      2891      2891      2891      2892
      2892      2892      2892      2892      2892      2892      2892      2892
      2892      2892      2893      2893      2893      2893      2893      2893
      2893      2893      2893      2893      2893      2894      2894      2894
      2894      2894      2894      2894      2894      2894      2894      2894
      2895      2895      2895      2895      2895      2895      2895      2895
      2895      2895      2895      2896      2896      2896      2896      2896
      2896      2896      2896      2896      2896      2896      2897      2897
      2897      2897      2897      2897      2897      2897      2897      2897
      2897      2898      2898      2898      2898      2898      2898      2898
      2898      2898      2898      2898      2899      2899      2899      2899
      2899      2899      2899      2899      2899      2899      2899      2900
      2900      2900      2900      2900      2900      2900      2900      2900
      2900      2900      2901      2901      2901      2901      2901      2901
      2901      2901      2901      2901      2901      2902      2902      2902
      2902      2902      2902      2902      2902      2902      2902      2902
      2903      2903      2903      2903      2903      2903      2903      2903
      2903      2903      2903      2904      2904      2904      2904      2904
      2904      2904      2904      2904      2904      2904      2905      2905
      2905      2905      2905      2905      2905      2905      2905      2905
      2905      2906      2906      2906      2906      2906      2906      2906
      2906      2906      2906      2906      2907      2907      2907      2907
      2907      2907      2907      2907      2907      2907      2907      2908
      2908      2908      2908      2908      2908      2908      2908      2908
      2908      2908      2909      2909      2909      2909      2909      2909
      2909      2909      2909      2909      2909      2910      2910      2910
      2910      2910      2910      2910      2910      2910      2910      2910
      2911      2911      2911      2911      2911      2911      2911      2911
      2911      2911      2911      2912      2912      2912      2912      2912
      2912      2912      2912      2912      2912      2912      2913      2913
      2913      2913      2913      2913      2913      2913      2913      2913
      2913      2914      2914      2914      2914      2914      2914      2914
      2914      2914      2914      2914      2915      2915      2915      2915
      2915      2915      2915      2915      2915      2915      2915      2916
      2916      2916      2916      2916      2916      2916      2916      2916
      2916      2916      2917      2917      2917      2917      2917      2917
      2917      2917      2917      2917      2917      2918      2918      2918
      2918      2918      2918      2918      2918      2918      2918      2918
      2919      2919      2919      2919      2919      2919      2919      2919
      2919      2919      2919      2920      2920      2920      2920      2920
      2920      2920      2920      2920      2920      2920      2921      2921
      2921      2921      2921      2921      2921      2921      2921      2921
      2921      2922      2922      2922      2922      2922      2922      2922
      2922      2922      2922      2922      2923      2923      2923      2923
      2923      2923      2923      2923      2923      2923      2923      2924
      2924      2924      2924      2924      2924      2924      2924      2924
      2924      2924      2925      2925      2925      2925      2925      2925
      2925      2925      2925      2925      2925      2926      2926      2926
      2926      2926      2926      2926      2926      2926      2926      2926
      2927      2927      2927      2927      2927      2927      2927      2927
      2927      2927      2927      2928      2928      2928      2928      2928
      2928      2928      2928      2928      2928      2928      2929      2929
      2929      2929      2929      2929      2929      2929      2929      2929
      2929      2930      2930      2930      2930      2930      2930      2930
      2930      2930      2930      2930      2931      2931      2931      2931
      2931      2931      2931      2931      2931      2931      2931      2932
      2932      2932      2932      2932      2932      2932      2932      2932
      2932      2932      2933      2933      2933      2933      2933      2933
      2933      2933      2933      2933      2933      2934      2934      2934
      2934      2934      2934      2934      2934      2934      2934      2934
      2935      2935      2935      2935      2935      2935      2935      2935
      2935      2935      2935      2936      2936      2936      2936      2936
      2936      2936      2936      2936      2936      2936      2937      2937
      2937      2937      2937      2937      2937      2937      2937      2937
      2937      2938      2938      2938      2938      2938      2938      2938
      2938      2938      2938      2938      2939      2939      2939      2939
      2939      2939      2939      2939      2939      2939      2939      2940
      2940      2940      2940      2940      2940      2940      2940      2940
      2940      2940      2941      2941      2941      2941      2941      2941
      2941      2941      2941      2941      2941      2942      2942      2942
      2942      2942      2942      2942      2942      2942      2942      2942
      2943      2943      2943      2943      2943      2943      2943      2943
      2943      2943      2943      2944      2944      2944      2944      2944
      2944      2944      2944      2944      2944      2944      2945      2945
      2945      2945      2945      2945      2945      2945      2945      2945
      2945      2946      2946      2946      2946      2946      2946      2946
      2946      2946      2946      2946      2947      2947      2947      2947
      2947      2947      2947      2947      2947      2947      2947      2948
      2948      2948      2948      2948      2948      2948      2948      2948
      2948      2948      2949      2949      2949      2949      2949      2949
      2949      2949      2949      2949      2949      2950      2950      2950
      2950      2950      2950      2950      2950      2950      2950      2950
      2951      2951      2951      2951      2951      2951      2951      2951
      2951      2951      2951      2952      2952      2952      2952      2952
      2952      2952      2952      2952      2952      2952      2953      2953
      2953      2953      2953      2953      2953      2953      2953      2953
      2953      2954      2954      2954      2954      2954      2954      2954
      2954      2954      2954      2954      2955      2955      2955      2955
      2955      2955      2955      2955      2955      2955      2955      2956
      2956      2956      2956      2956      2956      2956      2956      2956
      2956      2956      2957      2957      2957      2957      2957      2957
      2957      2957      2957      2957      2957      2958      2958      2958
      2958      2958      2958      2958      2958      2958      2958      2958
      2959      2959      2959      2959      2959      2959      2959      2959
      2959      2959      2959      2960      2960      2960      2960      2960
      2960      2960      2960      2960      2960      2960      2961      2961
      2961      2961      2961      2961      2961      2961      2961      2961
      2961      2962      2962      2962      2962      2962      2962      2962
      2962      2962      2962      2962      2963      2963      2963      2963
      2963      2963      2963      2963      2963      2963      2963      2964
      2964      2964      2964      2964      2964      2964      2964      2964
      2964      2964      2965      2965      2965      2965      2965      2965
      2965      2965      2965      2965      2965      2966      2966      2966
      2966      2966      2966      2966      2966      2966      2966      2966
      2967      2967      2967      2967      2967      2967      2967      2967
      2967      2967      2967      2968      2968      2968      2968      2968
      2968      2968      2968      2968      2968      2968      2969      2969
      2969      2969      2969      2969      2969      2969      2969      2969
      2969      2970      2970      2970      2970      2970      2970      2970
      2970      2970      2970      2970      2971      2971      2971      2971
      2971      2971      2971      2971      2971      2971      2971      2972
      2972      2972      2972      2972      2972      2972      2972      2972
      2972      2972      2973      2973      2973      2973      2973      2973
      2973      2973      2973      2973      2973      2974      2974      2974
      2974      2974      2974      2974      2974      2974      2974      2974
      2975      2975      2975      2975      2975      2975      2975      2975
      2975      2975      2975      2976      2976      2976      2976      2976
      2976      2976      2976      2976      2976      2976      2977      2977
      2977      2977      2977      2977      2977      2977      2977      2977
      2977      2978      2978      2978      2978      2978      2978      2978
      2978      2978      2978      2978      2979      2979      2979      2979
      2979      2979      2979      2979      2979      2979      2979      2980
      2980      2980      2980      2980      2980      2980      2980      2980
      2980      2980      2981      2981      2981      2981      2981      2981
      2981      2981      2981      2981      2981      2982      2982      2982
      2982      2982      2982      2982      2982      2982      2982      2982
      2983      2983      2983      2983      2983      2983      2983      2983
      2983      2983      2983      2984      2984      2984      2984      2984
      2984      2984      2984      2984      2984      2984      2985      2985
      2985      2985      2985      2985      2985      2985      2985      2985
      2985      2986      2986      2986      2986      2986      2986      2986
      2986      2986      2986      2986      2987      2987      2987      2987
      2987      2987      2987      2987      2987      2987      2987      2988
      2988      2988      2988      2988      2988      2988      2988      2988
      2988      2988      2989      2989      2989      2989      2989      2989
      2989      2989      2989      2989      2989      2990      2990      2990
      2990      2990      2990      2990      2990      2990      2990      2990
      2991      2991      2991      2991      2991      2991      2991      2991
      2991      2991      2991      2992      2992      2992      2992      2992
      2992      2992      2992      2992      2992      2992      2993      2993
      2993      2993      2993      2993      2993      2993      2993      2993
      2993      2994      2994      2994      2994      2994      2994      2994
      2994      2994      2994      2994      2995      2995      2995      2995
      2995      2995      2995      2995      2995      2995      2995      2996
      2996      2996      2996      2996      2996      2996      2996      2996
      2996      2996      2997      2997      2997      2997      2997      2997
      2997      2997      2997      2997      2997      2998      2998      2998
      2998      2998      2998      2998      2998      2998      2998      2998
      2999      2999      2999      2999      2999      2999      2999      2999
      2999      2999      2999      3000      3000      3000      3000      3000
      3000      3000      3000      3000      3000      3000      3001      3001
      3001      3001      3001      3001      3001      3001      3001      3001
      3001      3002      3002      3002      3002      3002      3002      3002
      3002      3002      3002      3002      3003      3003      3003      3003
      3003      3003      3003      3003      3003      3003      3003      3004
      3004      3004      3004      3004      3004      3004      3004      3004
      3004      3004      3005      3005      3005      3005      3005      3005
      3005      3005      3005      3005      3005      3006      3006      3006
      3006      3006      3006      3006      3006      3006      3006      3006
      3007      3007      3007      3007      3007      3007      3007      3007
      3007      3007      3007      3008      3008      3008      3008      3008
      3008      3008      3008      3008      3008      3008      3009      3009
      3009      3009      3009      3009      3009      3009      3009      3009
      3009      3010      3010      3010      3010      3010      3010      3010
      3010      3010      3010      3010      3011      3011      3011      3011
      3011      3011      3011      3011      3011      3011      3011      3012
      3012      3012      3012      3012      3012      3012      3012      3012
      3012      3012      3013      3013      3013      3013      3013      3013
      3013      3013      3013      3013      3013      3014      3014      3014
      3014      3014      3014      3014      3014      3014      3014      3014
      3015      3015      3015      3015      3015      3015      3015      3015
      3015      3015      3015      3016      3016      3016      3016      3016
      3016      3016      3016      3016      3016      3016      3017      3017
      3017      3017      3017      3017      3017      3017      3017      3017
      3017      3018      3018      3018      3018      3018      3018      3018
      3018      3018      3018      3018      3019      3019      3019      3019
      3019      3019      3019      3019      3019      3019      3019      3020
      3020      3020      3020      3020      3020      3020      3020      3020
      3020      3020      3021      3021      3021      3021      3021      3021
      3021      3021      3021      3021      3021      3022      3022      3022
      3022      3022      3022      3022      3022      3022      3022      3022
      3023      3023      3023      3023      3023      3023      3023      3023
      3023      3023      3023      3024      3024      3024      3024      3024
      3024      3024      3024      3024      3024      3024      3025      3025
      3025      3025      3025      3025      3025      3025      3025      3025
      3025      3026      3026      3026      3026      3026      3026      3026
      3026      3026      3026      3026      3027      3027      3027      3027
      3027      3027      3027      3027      3027      3027      3027      3028
      3028      3028      3028      3028      3028      3028      3028      3028
      3028      3028      3029      3029      3029      3029      3029      3029
      3029      3029      3029      3029      3029      3030      3030      3030
      3030      3030      3030      3030      3030      3030      3030      3030
      3031      3031      3031      3031      3031      3031      3031      3031
      3031      3031      3031      3032      3032      3032      3032      3032
      3032      3032      3032      3032      3032      3032      3033      3033
      3033      3033      3033      3033      3033      3033      3033      3033
      3033      3034      3034      3034      3034      3034      3034      3034
      3034      3034      3034      3034      3035      3035      3035      3035
      3035      3035      3035      3035      3035      3035      3035      3036
      3036      3036      3036      3036      3036      3036      3036      3036
      3036      3036      3037      3037      3037      3037      3037      3037
      3037      3037      3037      3037      3037      3038      3038      3038
      3038      3038      3038      3038      3038      3038      3038      3038
      3039      3039      3039      3039      3039      3039      3039      3039
      3039      3039      3039      3040      3040      3040      3040      3040
      3040      3040      3040      3040      3040      3040      3041      3041
      3041      3041      3041      3041      3041      3041      3041      3041
      3041      3042      3042      3042      3042      3042      3042      3042
      3042      3042      3042      3042      3043      3043      3043      3043
      3043      3043      3043      3043      3043      3043      3043      3044
      3044      3044      3044      3044      3044      3044      3044      3044
      3044      3044      3045      3045      3045      3045      3045      3045
      3045      3045      3045      3045      3045      3046      3046      3046
      3046      3046      3046      3046      3046      3046      3046      3046
      3047      3047      3047      3047      3047      3047      3047      3047
      3047      3047      3047      3048      3048      3048      3048      3048
      3048      3048      3048      3048      3048      3048      3049      3049
      3049      3049      3049      3049      3049      3049      3049      3049
      3049      3050      3050      3050      3050      3050      3050      3050
      3050      3050      3050      3050      3051      3051      3051      3051
      3051      3051      3051      3051      3051      3051      3051      3052
      3052      3052      3052      3052      3052      3052      3052      3052
      3052      3052      3053      3053      3053      3053      3053      3053
      3053      3053      3053      3053      3053      3054      3054      3054
      3054      3054      3054      3054      3054      3054      3054      3054
      3055      3055      3055      3055      3055      3055      3055      3055
      3055      3055      3055      3056      3056      3056      3056      3056
      3056      3056      3056      3056      3056      3056      3057      3057
      3057      3057      3057      3057      3057      3057      3057      3057
      3057      3058      3058      3058      3058      3058      3058      3058
      3058      3058      3058      3058      3059      3059      3059      3059
      3059      3059      3059      3059      3059      3059      3059      3060
      3060      3060      3060      3060      3060      3060      3060      3060
      3060      3060      3061      3061      3061      3061      3061      3061
      3061      3061      3061      3061      3061      3062      3062      3062
      3062      3062      3062      3062      3062      3062      3062      3062
      3063      3063      3063      3063      3063      3063      3063      3063
      3063      3063      3063      3064      3064      3064      3064      3064
      3064      3064      3064      3064      3064      3064      3065      3065
      3065      3065      3065      3065      3065      3065      3065      3065
      3065      3066      3066      3066      3066      3066      3066      3066
      3066      3066      3066      3066      3067      3067      3067      3067
      3067      3067      3067      3067      3067      3067      3067      3068
      3068      3068      3068      3068      3068      3068      3068      3068
      3068      3068      3069      3069      3069      3069      3069      3069
      3069      3069      3069      3069      3069      3070      3070      3070
      3070      3070      3070      3070      3070      3070      3070      3070
      3071      3071      3071      3071      3071      3071      3071      3071
      3071      3071      3071      3072      3072      3072      3072      3072
      3072      3072      3072      3072      3072      3072      3073      3073
      3073      3073      3073      3073      3073      3073      3073      3073
      3073      3074      3074      3074      3074      3074      3074      3074
      3074      3074      3074      3074      3075      3075      3075      3075
      3075      3075      3075      3075      3075      3075      3075      3076
      3076      3076      3076      3076      3076      3076      3076      3076
      3076      3076      3077      3077      3077      3077      3077      3077
      3077      3077      3077      3077      3077      3078      3078      3078
      3078      3078      3078      3078      3078      3078      3078      3078
      3079      3079      3079      3079      3079      3079      3079      3079
      3079      3079      3079      3080      3080      3080      3080      3080
      3080      3080      3080      3080      3080      3080      3081      3081
      3081      3081      3081      3081      3081      3081      3081      3081
      3081      3082      3082      3082      3082      3082      3082      3082
      3082      3082      3082      3082      3083      3083      3083      3083
      3083      3083      3083      3083      3083      3083      3083      3084
      3084      3084      3084      3084      3084      3084      3084      3084
      3084      3084      3085      3085      3085      3085      3085      3085
      3085      3085      3085      3085      3085      3086      3086      3086
      3086      3086      3086      3086      3086      3086      3086      3086
      3087      3087      3087      3087      3087      3087      3087      3087
      3087      3087      3087      3088      3088      3088      3088      3088
      3088      3088      3088      3088      3088      3088      3089      3089
      3089      3089      3089      3089      3089      3089      3089      3089
      3089      3090      3090      3090      3090      3090      3090      3090
      3090      3090      3090      3090      3091      3091      3091      3091
      3091      3091      3091      3091      3091      3091      3091      3092
      3092      3092      3092      3092      3092      3092      3092      3092
      3092      3092      3093      3093      3093      3093      3093      3093
      3093      3093      3093      3093      3093      3094      3094      3094
      3094      3094      3094      3094      3094      3094      3094      3094
      3095      3095      3095      3095      3095      3095      3095      3095
      3095      3095      3095      3096      3096      3096      3096      3096
      3096      3096      3096      3096      3096      3096      3097      3097
      3097      3097      3097      3097      3097      3097      3097      3097
      3097      3098      3098      3098      3098      3098      3098      3098
      3098      3098      3098      3098      3099      3099      3099      3099
      3099      3099      3099      3099      3099      3099      3099      3100
      3100      3100      3100      3100      3100      3100      3100      3100
      3100      3100      3101      3101      3101      3101      3101      3101
      3101      3101      3101      3101      3101      3102      3102      3102
      3102      3102      3102      3102      3102      3102      3102      3102
      3103      3103      3103      3103      3103      3103      3103      3103
      3103      3103      3103      3104      3104      3104      3104      3104
      3104      3104      3104      3104      3104      3104      3105      3105
      3105      3105      3105      3105      3105      3105      3105      3105
      3105      3106      3106      3106      3106      3106      3106      3106
      3106      3106      3106      3106      3107      3107      3107      3107
      3107      3107      3107      3107      3107      3107      3107      3108
      3108      3108      3108      3108      3108      3108      3108      3108
      3108      3108      3109      3109      3109      3109      3109      3109
      3109      3109      3109      3109      3109      3110      3110      3110
      3110      3110      3110      3110      3110      3110      3110      3110
      3111      3111      3111      3111      3111      3111      3111      3111
      3111      3111      3111      3112      3112      3112      3112      3112
      3112      3112      3112      3112      3112      3112      3113      3113
      3113      3113      3113      3113      3113      3113      3113      3113
      3113      3114      3114      3114      3114      3114      3114      3114
      3114      3114      3114      3114      3115      3115      3115      3115
      3115      3115      3115      3115      3115      3115      3115      3116
      3116      3116      3116      3116      3116      3116      3116      3116
      3116      3116      3117      3117      3117      3117      3117      3117
      3117      3117      3117      3117      3117      3118      3118      3118
      3118      3118      3118      3118      3118      3118      3118      3118
      3119      3119      3119      3119      3119      3119      3119      3119
      3119      3119      3119      3120      3120      3120      3120      3120
      3120      3120      3120      3120      3120      3120      3121      3121
      3121      3121      3121      3121      3121      3121      3121      3121
      3121      3122      3122      3122      3122      3122      3122      3122
      3122      3122      3122      3122      3123      3123      3123      3123
      3123      3123      3123      3123      3123      3123      3123      3124
      3124      3124      3124      3124      3124      3124      3124      3124
      3124      3124      3125      3125      3125      3125      3125      3125
      3125      3125      3125      3125      3125      3126      3126      3126
      3126      3126      3126      3126      3126      3126      3126      3126
      3127      3127      3127      3127      3127      3127      3127      3127
      3127      3127      3127      3128      3128      3128      3128      3128
      3128      3128      3128      3128      3128      3128      3129      3129
      3129      3129      3129      3129      3129      3129      3129      3129
      3129      3130      3130      3130      3130      3130      3130      3130
      3130      3130      3130      3130      3131      3131      3131      3131
      3131      3131      3131      3131      3131      3131      3131      3132
      3132      3132      3132      3132      3132      3132      3132      3132
      3132      3132      3133      3133      3133      3133      3133      3133
      3133      3133      3133      3133      3133      3134      3134      3134
      3134      3134      3134      3134      3134      3134      3134      3134
      3135      3135      3135      3135      3135      3135      3135      3135
      3135      3135      3135      3136      3136      3136      3136      3136
      3136      3136      3136      3136      3136      3136      3137      3137
      3137      3137      3137      3137      3137      3137      3137      3137
      3137      3138      3138      3138      3138      3138      3138      3138
      3138      3138      3138      3138      3139      3139      3139      3139
      3139      3139      3139      3139      3139      3139      3139      3140
      3140      3140      3140      3140      3140      3140      3140      3140
      3140      3140      3141      3141      3141      3141      3141      3141
      3141      3141      3141      3141      3141      3142      3142      3142
      3142      3142      3142      3142      3142      3142      3142      3142
      3143      3143      3143      3143      3143      3143      3143      3143
      3143      3143      3143      3144      3144      3144      3144      3144
      3144      3144      3144      3144      3144      3144      3145      3145
      3145      3145      3145      3145      3145      3145      3145      3145
      3145      3146      3146      3146      3146      3146      3146      3146
      3146      3146      3146      3146      3147      3147      3147      3147
      3147      3147      3147      3147      3147      3147      3147      3148
      3148      3148      3148      3148      3148      3148      3148      3148
      3148      3148      3149      3149      3149      3149      3149      3149
      3149      3149      3149      3149      3149      3150      3150      3150
      3150      3150      3150      3150      3150      3150      3150      3150
      3151      3151      3151      3151      3151      3151      3151      3151
      3151      3151      3151      3152      3152      3152      3152      3152
      3152      3152      3152      3152      3152      3152      3153      3153
      3153      3153      3153      3153      3153      3153      3153      3153
      3153      3154      3154      3154      3154      3154      3154      3154
      3154      3154      3154      3154      3155      3155      3155      3155
      3155      3155      3155      3155      3155      3155      3155      3156
      3156      3156      3156      3156      3156      3156      3156      3156
      3156      3156      3157      3157      3157      3157      3157      3157
      3157      3157      3157      3157      3157      3158      3158      3158
      3158      3158      3158      3158      3158      3158      3158      3158
      3159      3159      3159      3159      3159      3159      3159      3159
      3159      3159      3159      3160      3160      3160      3160      3160
      3160      3160      3160      3160      3160      3160      3161      3161
      3161      3161      3161      3161      3161      3161      3161      3161
      3161      3162      3162      3162      3162      3162      3162      3162
      3162      3162      3162      3162      3163      3163      3163      3163
      3163      3163      3163      3163      3163      3163      3163      3164
      3164      3164      3164      3164      3164      3164      3164      3164
      3164      3164      3165      3165      3165      3165      3165      3165
      3165      3165      3165      3165      3165      3166      3166      3166
      3166      3166      3166      3166      3166      3166      3166      3166
      3167      3167      3167      3167      3167      3167      3167      3167
      3167      3167      3167      3168      3168      3168      3168      3168
      3168      3168      3168      3168      3168      3168      3169      3169
      3169      3169      3169      3169      3169      3169      3169      3169
      3169      3170      3170      3170      3170      3170      3170      3170
      3170      3170      3170      3170      3171      3171      3171      3171
      3171      3171      3171      3171      3171      3171      3171      3172
      3172      3172      3172      3172      3172      3172      3172      3172
      3172      3172      3173      3173      3173      3173      3173      3173
      3173      3173      3173      3173      3173      3174      3174      3174
      3174      3174      3174      3174      3174      3174      3174      3174
      3175      3175      3175      3175      3175      3175      3175      3175
      3175      3175      3175      3176      3176      3176      3176      3176
      3176      3176      3176      3176      3176      3176      3177      3177
      3177      3177      3177      3177      3177      3177      3177      3177
      3177      3178      3178      3178      3178      3178      3178      3178
      3178      3178      3178      3178      3179      3179      3179      3179
      3179      3179      3179      3179      3179      3179      3179      3180
      3180      3180      3180      3180      3180      3180      3180      3180
      3180      3180      3181      3181      3181      3181      3181      3181
      3181      3181      3181      3181      3181      3182      3182      3182
      3182      3182      3182      3182      3182      3182      3182      3182
      3183      3183      3183      3183      3183      3183      3183      3183
      3183      3183      3183      3184      3184      3184      3184      3184
      3184      3184      3184      3184      3184      3184      3185      3185
      3185      3185      3185      3185      3185      3185      3185      3185
      3185      3186      3186      3186      3186      3186      3186      3186
      3186      3186      3186      3186      3187      3187      3187      3187
      3187      3187      3187      3187      3187      3187      3187      3188
      3188      3188      3188      3188      3188      3188      3188      3188
      3188      3188      3189      3189      3189      3189      3189      3189
      3189      3189      3189      3189      3189      3190      3190      3190
      3190      3190      3190      3190      3190      3190      3190      3190
      3191      3191      3191      3191      3191      3191      3191      3191
      3191      3191      3191      3192      3192      3192      3192      3192
      3192      3192      3192      3192      3192      3192      3193      3193
      3193      3193      3193      3193      3193      3193      3193      3193
      3193      3194      3194      3194      3194      3194      3194      3194
      3194      3194      3194      3194      3195      3195      3195      3195
      3195      3195      3195      3195      3195      3195      3195      3196
      3196      3196      3196      3196      3196      3196      3196      3196
      3196      3196      3197      3197      3197      3197      3197      3197
      3197      3197      3197      3197      3197      3198      3198      3198
      3198      3198      3198      3198      3198      3198      3198      3198
      3199      3199      3199      3199      3199      3199      3199      3199
      3199      3199      3199      3200      3200      3200      3200      3200
      3200      3200      3200      3200      3200      3200      3201      3201
      3201      3201      3201      3201      3201      3201      3201      3201
      3201      3202      3202      3202      3202      3202      3202      3202
      3202      3202      3202      3202      3203      3203      3203      3203
      3203      3203      3203      3203      3203      3203      3203      3204
      3204      3204      3204      3204      3204      3204      3204      3204
      3204      3204      3205      3205      3205      3205      3205      3205
      3205      3205      3205      3205      3205      3206      3206      3206
      3206      3206      3206      3206      3206      3206      3206      3206
      3207      3207      3207      3207      3207      3207      3207      3207
      3207      3207      3207      3208      3208      3208      3208      3208
      3208      3208      3208      3208      3208      3208      3209      3209
      3209      3209      3209      3209      3209      3209      3209      3209
      3209      3210      3210      3210      3210      3210      3210      3210
      3210      3210      3210      3210      3211      3211      3211      3211
      3211      3211      3211      3211      3211      3211      3211      3212
      3212      3212      3212      3212      3212      3212      3212      3212
      3212      3212      3213      3213      3213      3213      3213      3213
      3213      3213      3213      3213      3213      3214      3214      3214
      3214      3214      3214      3214      3214      3214      3214      3214
      3215      3215      3215      3215      3215      3215      3215      3215
      3215      3215      3215      3216      3216      3216      3216      3216
      3216      3216      3216      3216      3216      3216      3217      3217
      3217      3217      3217      3217      3217      3217      3217      3217
      3217      3218      3218      3218      3218      3218      3218      3218
      3218      3218      3218      3218      3219      3219      3219      3219
      3219      3219      3219      3219      3219      3219      3219      3220
      3220      3220      3220      3220      3220      3220      3220      3220
      3220      3220      3221      3221      3221      3221      3221      3221
      3221      3221      3221      3221      3221      3222      3222      3222
      3222      3222      3222      3222      3222      3222      3222      3222
      3223      3223      3223      3223      3223      3223      3223      3223
      3223      3223      3223      3224      3224      3224      3224      3224
      3224      3224      3224      3224      3224      3224      3225      3225
      3225      3225      3225      3225      3225      3225      3225      3225
      3225      3226      3226      3226      3226      3226      3226      3226
      3226      3226      3226      3226      3227      3227      3227      3227
      3227      3227      3227      3227      3227      3227      3227      3228
      3228      3228      3228      3228      3228      3228      3228      3228
      3228      3228      3229      3229      3229      3229      3229      3229
      3229      3229      3229      3229      3229      3230      3230      3230
      3230      3230      3230      3230      3230      3230      3230      3230
      3231      3231      3231      3231      3231      3231      3231      3231
      3231      3231      3231      3232      3232      3232      3232      3232
      3232      3232      3232      3232      3232      3232      3233      3233
      3233      3233      3233      3233      3233      3233      3233      3233
      3233      3234      3234      3234      3234      3234      3234      3234
      3234      3234      3234      3234      3235      3235      3235      3235
      3235      3235      3235      3235      3235      3235      3235      3236
      3236      3236      3236      3236      3236      3236      3236      3236
      3236      3236      3237      3237      3237      3237      3237      3237
      3237      3237      3237      3237      3237      3238      3238      3238
      3238      3238      3238      3238      3238      3238      3238      3238
      3239      3239      3239      3239      3239      3239      3239      3239
      3239      3239      3239      3240      3240      3240      3240      3240
      3240      3240      3240      3240      3240      3240      3241      3241
      3241      3241      3241      3241      3241      3241      3241      3241
      3241      3242      3242      3242      3242      3242      3242      3242
      3242      3242      3242      3242      3243      3243      3243      3243
      3243      3243      3243      3243      3243      3243      3243      3244
      3244      3244      3244      3244      3244      3244      3244      3244
      3244      3244      3245      3245      3245      3245      3245      3245
      3245      3245      3245      3245      3245      3246      3246      3246
      3246      3246      3246      3246      3246      3246      3246      3246
      3247      3247      3247      3247      3247      3247      3247      3247
      3247      3247      3247      3248      3248      3248      3248      3248
      3248      3248      3248      3248      3248      3248      3249      3249
      3249      3249      3249      3249      3249      3249      3249      3249
      3249      3250      3250      3250      3250      3250      3250      3250
      3250      3250      3250      3250      3251      3251      3251      3251
      3251      3251      3251      3251      3251      3251      3251      3252
      3252      3252      3252      3252      3252      3252      3252      3252
      3252      3252      3253      3253      3253      3253      3253      3253
      3253      3253      3253      3253      3253      3254      3254      3254
      3254      3254      3254      3254      3254      3254      3254      3254
      3255      3255      3255      3255      3255      3255      3255      3255
      3255      3255      3255      3256      3256      3256      3256      3256
      3256      3256      3256      3256      3256      3256      3257      3257
      3257      3257      3257      3257      3257      3257      3257      3257
      3257      3258      3258      3258      3258      3258      3258      3258
      3258      3258      3258      3258      3259      3259      3259      3259
      3259      3259      3259      3259      3259      3259      3259      3260
      3260      3260      3260      3260      3260      3260      3260      3260
      3260      3260      3261      3261      3261      3261      3261      3261
      3261      3261      3261      3261      3261      3262      3262      3262
      3262      3262      3262      3262      3262      3262      3262      3262
      3263      3263      3263      3263      3263      3263      3263      3263
      3263      3263      3263      3264      3264      3264      3264      3264
      3264      3264      3264      3264      3264      3264      3265      3265
      3265      3265      3265      3265      3265      3265      3265      3265
      3265      3266      3266      3266      3266      3266      3266      3266
      3266      3266      3266      3266      3267      3267      3267      3267
      3267      3267      3267      3267      3267      3267      3267      3268
      3268      3268      3268      3268      3268      3268      3268      3268
      3268      3268      3269      3269      3269      3269      3269      3269
      3269      3269      3269      3269      3269      3270      3270      3270
      3270      3270      3270      3270      3270      3270      3270      3270
      3271      3271      3271      3271      3271      3271      3271      3271
      3271      3271      3271      3272      3272      3272      3272      3272
      3272      3272      3272      3272      3272      3272      3273      3273
      3273      3273      3273      3273      3273      3273      3273      3273
      3273      3274      3274      3274      3274      3274      3274      3274
      3274      3274      3274      3274      3275      3275      3275      3275
      3275      3275      3275      3275      3275      3275      3275      3276
      3276      3276      3276      3276      3276      3276      3276      3276
      3276      3276      3277      3277      3277      3277      3277      3277
      3277      3277      3277      3277      3277      3278      3278      3278
      3278      3278      3278      3278      3278      3278      3278      3278
      3279      3279      3279      3279      3279      3279      3279      3279
      3279      3279      3279      3280      3280      3280      3280      3280
      3280      3280      3280      3280      3280      3280      3281      3281
      3281      3281      3281      3281      3281      3281      3281      3281
      3281      3282      3282      3282      3282      3282      3282      3282
      3282      3282      3282      3282      3283      3283      3283      3283
      3283      3283      3283      3283      3283      3283      3283      3284
      3284      3284      3284      3284      3284      3284      3284      3284
      3284      3284      3285      3285      3285      3285      3285      3285
      3285      3285      3285      3285      3285      3286      3286      3286
      3286      3286      3286      3286      3286      3286      3286      3286
      3287      3287      3287      3287      3287      3287      3287      3287
      3287      3287      3287      3288      3288      3288      3288      3288
      3288      3288      3288      3288      3288      3288      3289      3289
      3289      3289      3289      3289      3289      3289      3289      3289
      3289      3290      3290      3290      3290      3290      3290      3290
      3290      3290      3290      3290      3291      3291      3291      3291
      3291      3291      3291      3291      3291      3291      3291      3292
      3292      3292      3292      3292      3292      3292      3292      3292
      3292      3292      3293      3293      3293      3293      3293      3293
      3293      3293      3293      3293      3293      3294      3294      3294
      3294      3294      3294      3294      3294      3294      3294      3294
      3295      3295      3295      3295      3295      3295      3295      3295
      3295      3295      3295      3296      3296      3296      3296      3296
      3296      3296      3296      3296      3296      3296      3297      3297
      3297      3297      3297      3297      3297      3297      3297      3297
      3297      3298      3298      3298      3298      3298      3298      3298
      3298      3298      3298      3298      3299      3299      3299      3299
      3299      3299      3299      3299      3299      3299      3299      3300
      3300      3300      3300      3300      3300      3300      3300      3300
      3300      3300      3301      3301      3301      3301      3301      3301
      3301      3301      3301      3301      3301      3302      3302      3302
      3302      3302      3302      3302      3302      3302      3302      3302
      3303      3303      3303      3303      3303      3303      3303      3303
      3303      3303      3303      3304      3304      3304      3304      3304
      3304      3304      3304      3304      3304      3304      3305      3305
      3305      3305      3305      3305      3305      3305      3305      3305
      3305      3306      3306      3306      3306      3306      3306      3306
      3306      3306      3306      3306      3307      3307      3307      3307
      3307      3307      3307      3307      3307      3307      3307      3308
      3308      3308      3308      3308      3308      3308      3308      3308
      3308      3308      3309      3309      3309      3309      3309      3309
      3309      3309      3309      3309      3309      3310      3310      3310
      3310      3310      3310      3310      3310      3310      3310      3310
      3311      3311      3311      3311      3311      3311      3311      3311
      3311      3311      3311      3312      3312      3312      3312      3312
      3312      3312      3312      3312      3312      3312      3313      3313
      3313      3313      3313      3313      3313      3313      3313      3313
      3313      3314      3314      3314      3314      3314      3314      3314
      3314      3314      3314      3314      3315      3315      3315      3315
      3315      3315      3315      3315      3315      3315      3315      3316
      3316      3316      3316      3316      3316      3316      3316      3316
      3316      3316      3317      3317      3317      3317      3317      3317
      3317      3317      3317      3317      3317      3318      3318      3318
      3318      3318      3318      3318      3318      3318      3318      3318
      3319      3319      3319      3319      3319      3319      3319      3319
      3319      3319      3319      3320      3320      3320      3320      3320
      3320      3320      3320      3320      3320      3320      3321      3321
      3321      3321      3321      3321      3321      3321      3321      3321
      3321      3322      3322      3322      3322      3322      3322      3322
      3322      3322      3322      3322      3323      3323      3323      3323
      3323      3323      3323      3323      3323      3323      3323      3324
      3324      3324      3324      3324      3324      3324      3324      3324
      3324      3324      3325      3325      3325      3325      3325      3325
      3325      3325      3325      3325      3325      3326      3326      3326
      3326      3326      3326      3326      3326      3326      3326      3326
      3327      3327      3327      3327      3327      3327      3327      3327
      3327      3327      3327      3328      3328      3328      3328      3328
      3328      3328      3328      3328      3328      3328      3329      3329
      3329      3329      3329      3329      3329      3329      3329      3329
      3329      3330      3330      3330      3330      3330      3330      3330
      3330      3330      3330      3330      3331      3331      3331      3331
      3331      3331      3331      3331      3331      3331      3331      3332
      3332      3332      3332      3332      3332      3332      3332      3332
      3332      3332      3333      3333      3333      3333      3333      3333
      3333      3333      3333      3333      3333      3334      3334      3334
      3334      3334      3334      3334      3334      3334      3334      3334
      3335      3335      3335      3335      3335      3335      3335      3335
      3335      3335      3335      3336      3336      3336      3336      3336
      3336      3336      3336      3336      3336      3336      3337      3337
      3337      3337      3337      3337      3337      3337      3337      3337
      3337      3338      3338      3338      3338      3338      3338      3338
      3338      3338      3338      3338      3339      3339      3339      3339
      3339      3339      3339      3339      3339      3339      3339      3340
      3340      3340      3340      3340      3340      3340      3340      3340
      3340      3340      3341      3341      3341      3341      3341      3341
      3341      3341      3341      3341      3341      3342      3342      3342
      3342      3342      3342      3342      3342      3342      3342      3342
      3343      3343      3343      3343      3343      3343      3343      3343
      3343      3343      3343      3344      3344      3344      3344      3344
      3344      3344      3344      3344      3344      3344      3345      3345
      3345      3345      3345      3345      3345      3345      3345      3345
      3345      3346      3346      3346      3346      3346      3346      3346
      3346      3346      3346      3346      3347      3347      3347      3347
      3347      3347      3347      3347      3347      3347      3347      3348
      3348      3348      3348      3348      3348      3348      3348      3348
      3348      3348      3349      3349      3349      3349      3349      3349
      3349      3349      3349      3349      3349      3350      3350      3350
      3350      3350      3350      3350      3350      3350      3350      3350
      3351      3351      3351      3351      3351      3351      3351      3351
      3351      3351      3351      3352      3352      3352      3352      3352
      3352      3352      3352      3352      3352      3352      3353      3353
      3353      3353      3353      3353      3353      3353      3353      3353
      3353      3354      3354      3354      3354      3354      3354      3354
      3354      3354      3354      3354      3355      3355      3355      3355
      3355      3355      3355      3355      3355      3355      3355      3356
      3356      3356      3356      3356      3356      3356      3356      3356
      3356      3356      3357      3357      3357      3357      3357      3357
      3357      3357      3357      3357      3357      3358      3358      3358
      3358      3358      3358      3358      3358      3358      3358      3358
      3359      3359      3359      3359      3359      3359      3359      3359
      3359      3359      3359      3360      3360      3360      3360      3360
      3360      3360      3360      3360      3360      3360      3361      3361
      3361      3361      3361      3361      3361      3361      3361      3361
      3361      3362      3362      3362      3362      3362      3362      3362
      3362      3362      3362      3362      3363      3363      3363      3363
      3363      3363      3363      3363      3363      3363      3363      3364
      3364      3364      3364      3364      3364      3364      3364      3364
      3364      3364      3365      3365      3365      3365      3365      3365
      3365      3365      3365      3365      3365      3366      3366      3366
      3366      3366      3366      3366      3366      3366      3366      3366
      3367      3367      3367      3367      3367      3367      3367      3367
      3367      3367      3367      3368      3368      3368      3368      3368
      3368      3368      3368      3368      3368      3368      3369      3369
      3369      3369      3369      3369      3369      3369      3369      3369
      3369      3370      3370      3370      3370      3370      3370      3370
      3370      3370      3370      3370      3371      3371      3371      3371
      3371      3371      3371      3371      3371      3371      3371      3372
      3372      3372      3372      3372      3372      3372      3372      3372
      3372      3372      3373      3373      3373      3373      3373      3373
      3373      3373      3373      3373      3373      3374      3374      3374
      3374      3374      3374      3374      3374      3374      3374      3374
      3375      3375      3375      3375      3375      3375      3375      3375
      3375      3375      3375      3376      3376      3376      3376      3376
      3376      3376      3376      3376      3376      3376      3377      3377
      3377      3377      3377      3377      3377      3377      3377      3377
      3377      3378      3378      3378      3378      3378      3378      3378
      3378      3378      3378      3378      3379      3379      3379      3379
      3379      3379      3379      3379      3379      3379      3379      3380
      3380      3380      3380      3380      3380      3380      3380      3380
      3380      3380      3381      3381      3381      3381      3381      3381
      3381      3381      3381      3381      3381      3382      3382      3382
      3382      3382      3382      3382      3382      3382      3382      3382
      3383      3383      3383      3383      3383      3383      3383      3383
      3383      3383      3383      3384      3384      3384      3384      3384
      3384      3384      3384      3384      3384      3384      3385      3385
      3385      3385      3385      3385      3385      3385      3385      3385
      3385      3386      3386      3386      3386      3386      3386      3386
      3386      3386      3386      3386      3387      3387      3387      3387
      3387      3387      3387      3387      3387      3387      3387      3388
      3388      3388      3388      3388      3388      3388      3388      3388
      3388      3388      3389      3389      3389      3389      3389      3389
      3389      3389      3389      3389      3389      3390      3390      3390
      3390      3390      3390      3390      3390      3390      3390      3390
      3391      3391      3391      3391      3391      3391      3391      3391
      3391      3391      3391      3392      3392      3392      3392      3392
      3392      3392      3392      3392      3392      3392      3393      3393
      3393      3393      3393      3393      3393      3393      3393      3393
      3393      3394      3394      3394      3394      3394      3394      3394
      3394      3394      3394      3394      3395      3395      3395      3395
      3395      3395      3395      3395      3395      3395      3395      3396
      3396      3396      3396      3396      3396      3396      3396      3396
      3396      3396      3397      3397      3397      3397      3397      3397
      3397      3397      3397      3397      3397      3398      3398      3398
      3398      3398      3398      3398      3398      3398      3398      3398
      3399      3399      3399      3399      3399      3399      3399      3399
      3399      3399      3399      3400      3400      3400      3400      3400
      3400      3400      3400      3400      3400      3400      3401      3401
      3401      3401      3401      3401      3401      3401      3401      3401
      3401      3402      3402      3402      3402      3402      3402      3402
      3402      3402      3402      3402      3403      3403      3403      3403
      3403      3403      3403      3403      3403      3403      3403      3404
      3404      3404      3404      3404      3404      3404      3404      3404
      3404      3404      3405      3405      3405      3405      3405      3405
      3405      3405      3405      3405      3405      3406      3406      3406
      3406      3406      3406      3406      3406      3406      3406      3406
      3407      3407      3407      3407      3407      3407      3407      3407
      3407      3407      3407      3408      3408      3408      3408      3408
      3408      3408      3408      3408      3408      3408      3409      3409
      3409      3409      3409      3409      3409      3409      3409      3409
      3409      3410      3410      3410      3410      3410      3410      3410
      3410      3410      3410      3410      3411      3411      3411      3411
      3411      3411      3411      3411      3411      3411      3411      3412
      3412      3412      3412      3412      3412      3412      3412      3412
      3412      3412      3413      3413      3413      3413      3413      3413
      3413      3413      3413      3413      3413      3414      3414      3414
      3414      3414      3414      3414      3414      3414      3414      3414
      3415      3415      3415      3415      3415      3415      3415      3415
      3415      3415      3415      3416      3416      3416      3416      3416
      3416      3416      3416      3416      3416      3416      3417      3417
      3417      3417      3417      3417      3417      3417      3417      3417
      3417      3418      3418      3418      3418      3418      3418      3418
      3418      3418      3418      3418      3419      3419      3419      3419
      3419      3419      3419      3419      3419      3419      3419      3420
      3420      3420      3420      3420      3420      3420      3420      3420
      3420      3420      3421      3421      3421      3421      3421      3421
      3421      3421      3421      3421      3421      3422      3422      3422
      3422      3422      3422      3422      3422      3422      3422      3422
      3423      3423      3423      3423      3423      3423      3423      3423
      3423      3423      3423      3424      3424      3424      3424      3424
      3424      3424      3424      3424      3424      3424      3425      3425
      3425      3425      3425      3425      3425      3425      3425      3425
      3425      3426      3426      3426      3426      3426      3426      3426
      3426      3426      3426      3426      3427      3427      3427      3427
      3427      3427      3427      3427      3427      3427      3427      3428
      3428      3428      3428      3428      3428      3428      3428      3428
      3428      3428      3429      3429      3429      3429      3429      3429
      3429      3429      3429      3429      3429      3430      3430      3430
      3430      3430      3430      3430      3430      3430      3430      3430
      3431      3431      3431      3431      3431      3431      3431      3431
      3431      3431      3431      3432      3432      3432      3432      3432
      3432      3432      3432      3432      3432      3432      3433      3433
      3433      3433      3433      3433      3433      3433      3433      3433
      3433      3434      3434      3434      3434      3434      3434      3434
      3434      3434      3434      3434      3435      3435      3435      3435
      3435      3435      3435      3435      3435      3435      3435      3436
      3436      3436      3436      3436      3436      3436      3436      3436
      3436      3436      3437      3437      3437      3437      3437      3437
      3437      3437      3437      3437      3437      3438      3438      3438
      3438      3438      3438      3438      3438      3438      3438      3438
      3439      3439      3439      3439      3439      3439      3439      3439
      3439      3439      3439      3440      3440      3440      3440      3440
      3440      3440      3440      3440      3440      3440      3441      3441
      3441      3441      3441      3441      3441      3441      3441      3441
      3441      3442      3442      3442      3442      3442      3442      3442
      3442      3442      3442      3442      3443      3443      3443      3443
      3443      3443      3443      3443      3443      3443      3443      3444
      3444      3444      3444      3444      3444      3444      3444      3444
      3444      3444      3445      3445      3445      3445      3445      3445
      3445      3445      3445      3445      3445      3446      3446      3446
      3446      3446      3446      3446      3446      3446      3446      3446
      3447      3447      3447      3447      3447      3447      3447      3447
      3447      3447      3447      3448      3448      3448      3448      3448
      3448      3448      3448      3448      3448      3448      3449      3449
      3449      3449      3449      3449      3449      3449      3449      3449
      3449      3450      3450      3450      3450      3450      3450      3450
      3450      3450      3450      3450      3451      3451      3451      3451
      3451      3451      3451      3451      3451      3451      3451      3452
      3452      3452      3452      3452      3452      3452      3452      3452
      3452      3452      3453      3453      3453      3453      3453      3453
      3453      3453      3453      3453      3453      3454      3454      3454
      3454      3454      3454      3454      3454      3454      3454      3454
      3455      3455      3455      3455      3455      3455      3455      3455
      3455      3455      3455      3456      3456      3456      3456      3456
      3456      3456      3456      3456      3456      3456      3457      3457
      3457      3457      3457      3457      3457      3457      3457      3457
      3457      3458      3458      3458      3458      3458      3458      3458
      3458      3458      3458      3458      3459      3459      3459      3459
      3459      3459      3459      3459      3459      3459      3459      3460
      3460      3460      3460      3460      3460      3460      3460      3460
      3460      3460      3461      3461      3461      3461      3461      3461
      3461      3461      3461      3461      3461      3462      3462      3462
      3462      3462      3462      3462      3462      3462      3462      3462
      3463      3463      3463      3463      3463      3463      3463      3463
      3463      3463      3463      3464      3464      3464      3464      3464
      3464      3464      3464      3464      3464      3464      3465      3465
      3465      3465      3465      3465      3465      3465      3465      3465
      3465      3466      3466      3466      3466      3466      3466      3466
      3466      3466      3466      3466      3467      3467      3467      3467
      3467      3467      3467      3467      3467      3467      3467      3468
      3468      3468      3468      3468      3468      3468      3468      3468
      3468      3468      3469      3469      3469      3469      3469      3469
      3469      3469      3469      3469      3469      3470      3470      3470
      3470      3470      3470      3470      3470      3470      3470      3470
      3471      3471      3471      3471      3471      3471      3471      3471
      3471      3471      3471      3472      3472      3472      3472      3472
      3472      3472      3472      3472      3472      3472      3473      3473
      3473      3473      3473      3473      3473      3473      3473      3473
      3473      3474      3474      3474      3474      3474      3474      3474
      3474      3474      3474      3474      3475      3475      3475      3475
      3475      3475      3475      3475      3475      3475      3475      3476
      3476      3476      3476      3476      3476      3476      3476      3476
      3476      3476      3477      3477      3477      3477      3477      3477
      3477      3477      3477      3477      3477      3478      3478      3478
      3478      3478      3478      3478      3478      3478      3478      3478
      3479      3479      3479      3479      3479      3479      3479      3479
      3479      3479      3479      3480      3480      3480      3480      3480
      3480      3480      3480      3480      3480      3480      3481      3481
      3481      3481      3481      3481      3481      3481      3481      3481
      3481      3482      3482      3482      3482      3482      3482      3482
      3482      3482      3482      3482      3483      3483      3483      3483
      3483      3483      3483      3483      3483      3483      3483      3484
      3484      3484      3484      3484      3484      3484      3484      3484
      3484      3484      3485      3485      3485      3485      3485      3485
      3485      3485      3485      3485      3485      3486      3486      3486
      3486      3486      3486      3486      3486      3486      3486      3486
      3487      3487      3487      3487      3487      3487      3487      3487
      3487      3487      3487      3488      3488      3488      3488      3488
      3488      3488      3488      3488      3488      3488      3489      3489
      3489      3489      3489      3489      3489      3489      3489      3489
      3489      3490      3490      3490      3490      3490      3490      3490
      3490      3490      3490      3490      3491      3491      3491      3491
      3491      3491      3491      3491      3491      3491      3491      3492
      3492      3492      3492      3492      3492      3492      3492      3492
      3492      3492      3493      3493      3493      3493      3493      3493
      3493      3493      3493      3493      3493      3494      3494      3494
      3494      3494      3494      3494      3494      3494      3494      3494
      3495      3495      3495      3495      3495      3495      3495      3495
      3495      3495      3495      3496      3496      3496      3496      3496
      3496      3496      3496      3496      3496      3496      3497      3497
      3497      3497      3497      3497      3497      3497      3497      3497
      3497      3498      3498      3498      3498      3498      3498      3498
      3498      3498      3498      3498      3499      3499      3499      3499
      3499      3499      3499      3499      3499      3499      3499      3500
      3500      3500      3500      3500      3500      3500      3500      3500
      3500      3500      3501      3501      3501      3501      3501      3501
      3501      3501      3501      3501      3501      3502      3502      3502
      3502      3502      3502      3502      3502      3502      3502      3502
      3503      3503      3503      3503      3503      3503      3503      3503
      3503      3503      3503      3504      3504      3504      3504      3504
      3504      3504      3504      3504      3504      3504      3505      3505
      3505      3505      3505      3505      3505      3505      3505      3505
      3505      3506      3506      3506      3506      3506      3506      3506
      3506      3506      3506      3506      3507      3507      3507      3507
      3507      3507      3507      3507      3507      3507      3507      3508
      3508      3508      3508      3508      3508      3508      3508      3508
      3508      3508      3509      3509      3509      3509      3509      3509
      3509      3509      3509      3509      3509      3510      3510      3510
      3510      3510      3510      3510      3510      3510      3510      3510
      3511      3511      3511      3511      3511      3511      3511      3511
      3511      3511      3511      3512      3512      3512      3512      3512
      3512      3512      3512      3512      3512      3512      3513      3513
      3513      3513      3513      3513      3513      3513      3513      3513
      3513      3514      3514      3514      3514      3514      3514      3514
      3514      3514      3514      3514      3515      3515      3515      3515
      3515      3515      3515      3515      3515      3515      3515      3516
      3516      3516      3516      3516      3516      3516      3516      3516
      3516      3516      3517      3517      3517      3517      3517      3517
      3517      3517      3517      3517      3517      3518      3518      3518
      3518      3518      3518      3518      3518      3518      3518      3518
      3519      3519      3519      3519      3519      3519      3519      3519
      3519      3519      3519      3520      3520      3520      3520      3520
      3520      3520      3520      3520      3520      3520      3521      3521
      3521      3521      3521      3521      3521      3521      3521      3521
      3521      3522      3522      3522      3522      3522      3522      3522
      3522      3522      3522      3522      3523      3523      3523      3523
      3523      3523      3523      3523      3523      3523      3523      3524
      3524      3524      3524      3524      3524      3524      3524      3524
      3524      3524      3525      3525      3525      3525      3525      3525
      3525      3525      3525      3525      3525      3526      3526      3526
      3526      3526      3526      3526      3526      3526      3526      3526
      3527      3527      3527      3527      3527      3527      3527      3527
      3527      3527      3527      3528      3528      3528      3528      3528
      3528      3528      3528      3528      3528      3528      3529      3529
      3529      3529      3529      3529      3529      3529      3529      3529
      3529      3530      3530      3530      3530      3530      3530      3530
      3530      3530      3530      3530      3531      3531      3531      3531
      3531      3531      3531      3531      3531      3531      3531      3532
      3532      3532      3532      3532      3532      3532      3532      3532
      3532      3532      3533      3533      3533      3533      3533      3533
      3533      3533      3533      3533      3533      3534      3534      3534
      3534      3534      3534      3534      3534      3534      3534      3534
      3535      3535      3535      3535      3535      3535      3535      3535
      3535      3535      3535      3536      3536      3536      3536      3536
      3536      3536      3536      3536      3536      3536      3537      3537
      3537      3537      3537      3537      3537      3537      3537      3537
      3537      3538      3538      3538      3538      3538      3538      3538
      3538      3538      3538      3538      3539      3539      3539      3539
      3539      3539      3539      3539      3539      3539      3539      3540
      3540      3540      3540      3540      3540      3540      3540      3540
      3540      3540      3541      3541      3541      3541      3541      3541
      3541      3541      3541      3541      3541      3542      3542      3542
      3542      3542      3542      3542      3542      3542      3542      3542
      3543      3543      3543      3543      3543      3543      3543      3543
      3543      3543      3543      3544      3544      3544      3544      3544
      3544      3544      3544      3544      3544      3544      3545      3545
      3545      3545      3545      3545      3545      3545      3545      3545
      3545      3546      3546      3546      3546      3546      3546      3546
      3546      3546      3546      3546      3547      3547      3547      3547
      3547      3547      3547      3547      3547      3547      3547      3548
      3548      3548      3548      3548      3548      3548      3548      3548
      3548      3548      3549      3549      3549      3549      3549      3549
      3549      3549      3549      3549      3549      3550      3550      3550
      3550      3550      3550      3550      3550      3550      3550      3550
      3551      3551      3551      3551      3551      3551      3551      3551
      3551      3551      3551      3552      3552      3552      3552      3552
      3552      3552      3552      3552      3552      3552      3553      3553
      3553      3553      3553      3553      3553      3553      3553      3553
      3553      3554      3554      3554      3554      3554      3554      3554
      3554      3554      3554      3554      3555      3555      3555      3555
      3555      3555      3555      3555      3555      3555      3555      3556
      3556      3556      3556      3556      3556      3556      3556      3556
      3556      3556      3557      3557      3557      3557      3557      3557
      3557      3557      3557      3557      3557      3558      3558      3558
      3558      3558      3558      3558      3558      3558      3558      3558
      3559      3559      3559      3559      3559      3559      3559      3559
      3559      3559      3559      3560      3560      3560      3560      3560
      3560      3560      3560      3560      3560      3560      3561      3561
      3561      3561      3561      3561      3561      3561      3561      3561
      3561      3562      3562      3562      3562      3562      3562      3562
      3562      3562      3562      3562      3563      3563      3563      3563
      3563      3563      3563      3563      3563      3563      3563      3564
      3564      3564      3564      3564      3564      3564      3564      3564
      3564      3564      3565      3565      3565      3565      3565      3565
      3565      3565      3565      3565      3565      3566      3566      3566
      3566      3566      3566      3566      3566      3566      3566      3566
      3567      3567      3567      3567      3567      3567      3567      3567
      3567      3567      3567      3568      3568      3568      3568      3568
      3568      3568      3568      3568      3568      3568      3569      3569
      3569      3569      3569      3569      3569      3569      3569      3569
      3569      3570      3570      3570      3570      3570      3570      3570
      3570      3570      3570      3570      3571      3571      3571      3571
      3571      3571      3571      3571      3571      3571      3571      3572
      3572      3572      3572      3572      3572      3572      3572      3572
      3572      3572      3573      3573      3573      3573      3573      3573
      3573      3573      3573      3573      3573      3574      3574      3574
      3574      3574      3574      3574      3574      3574      3574      3574
      3575      3575      3575      3575      3575      3575      3575      3575
      3575      3575      3575      3576      3576      3576      3576      3576
      3576      3576      3576      3576      3576      3576      3577      3577
      3577      3577      3577      3577      3577      3577      3577      3577
      3577      3578      3578      3578      3578      3578      3578      3578
      3578      3578      3578      3578      3579      3579      3579      3579
      3579      3579      3579      3579      3579      3579      3579      3580
      3580      3580      3580      3580      3580      3580      3580      3580
      3580      3580      3581      3581      3581      3581      3581      3581
      3581      3581      3581      3581      3581      3582      3582      3582
      3582      3582      3582      3582      3582      3582      3582      3582
      3583      3583      3583      3583      3583      3583      3583      3583
      3583      3583      3583      3584      3584      3584      3584      3584
      3584      3584      3584      3584      3584      3584      3585      3585
      3585      3585      3585      3585      3585      3585      3585      3585
      3585      3586      3586      3586      3586      3586      3586      3586
      3586      3586      3586      3586      3587      3587      3587      3587
      3587      3587      3587      3587      3587      3587      3587      3588
      3588      3588      3588      3588      3588      3588      3588      3588
      3588      3588      3589      3589      3589      3589      3589      3589
      3589      3589      3589      3589      3589      3590      3590      3590
      3590      3590      3590      3590      3590      3590      3590      3590
      3591      3591      3591      3591      3591      3591      3591      3591
      3591      3591      3591      3592      3592      3592      3592      3592
      3592      3592      3592      3592      3592      3592      3593      3593
      3593      3593      3593      3593      3593      3593      3593      3593
      3593      3594      3594      3594      3594      3594      3594      3594
      3594      3594      3594      3594      3595      3595      3595      3595
      3595      3595      3595      3595      3595      3595      3595      3596
      3596      3596      3596      3596      3596      3596      3596      3596
      3596      3596      3597      3597      3597      3597      3597      3597
      3597      3597      3597      3597      3597      3598      3598      3598
      3598      3598      3598      3598      3598      3598      3598      3598
      3599      3599      3599      3599      3599      3599      3599      3599
      3599      3599      3599      3600      3600      3600      3600      3600
      3600      3600      3600      3600      3600      3600      3601      3601
      3601      3601      3601      3601      3601      3601      3601      3601
      3601      3602      3602      3602      3602      3602      3602      3602
      3602      3602      3602      3602      3603      3603      3603      3603
      3603      3603      3603      3603      3603      3603      3603      3604
      3604      3604      3604      3604      3604      3604      3604      3604
      3604      3604      3605      3605      3605      3605      3605      3605
      3605      3605      3605      3605      3605      3606      3606      3606
      3606      3606      3606      3606      3606      3606      3606      3606
      3607      3607      3607      3607      3607      3607      3607      3607
      3607      3607      3607      3608      3608      3608      3608      3608
      3608      3608      3608      3608      3608      3608      3609      3609
      3609      3609      3609      3609      3609      3609      3609      3609
      3609      3610      3610      3610      3610      3610      3610      3610
      3610      3610      3610      3610      3611      3611      3611      3611
      3611      3611      3611      3611      3611      3611      3611      3612
      3612      3612      3612      3612      3612      3612      3612      3612
      3612      3612      3613      3613      3613      3613      3613      3613
      3613      3613      3613      3613      3613      3614      3614      3614
      3614      3614      3614      3614      3614      3614      3614      3614
      3615      3615      3615      3615      3615      3615      3615      3615
      3615      3615      3615      3616      3616      3616      3616      3616
      3616      3616      3616      3616      3616      3616      3617      3617
      3617      3617      3617      3617      3617      3617      3617      3617
      3617      3618      3618      3618      3618      3618      3618      3618
      3618      3618      3618      3618      3619      3619      3619      3619
      3619      3619      3619      3619      3619      3619      3619      3620
      3620      3620      3620      3620      3620      3620      3620      3620
      3620      3620      3621      3621      3621      3621      3621      3621
      3621      3621      3621      3621      3621      3622      3622      3622
      3622      3622      3622      3622      3622      3622      3622      3622
      3623      3623      3623      3623      3623      3623      3623      3623
      3623      3623      3623      3624      3624      3624      3624      3624
      3624      3624      3624      3624      3624      3624      3625      3625
      3625      3625      3625      3625      3625      3625      3625      3625
      3625      3626      3626      3626      3626      3626      3626      3626
      3626      3626      3626      3626      3627      3627      3627      3627
      3627      3627      3627      3627      3627      3627      3627      3628
      3628      3628      3628      3628      3628      3628      3628      3628
      3628      3628      3629      3629      3629      3629      3629      3629
      3629      3629      3629      3629      3629      3630      3630      3630
      3630      3630      3630      3630      3630      3630      3630      3630
      3631      3631      3631      3631      3631      3631      3631      3631
      3631      3631      3631      3632      3632      3632      3632      3632
      3632      3632      3632      3632      3632      3632      3633      3633
      3633      3633      3633      3633      3633      3633      3633      3633
      3633      3634      3634      3634      3634      3634      3634      3634
      3634      3634      3634      3634      3635      3635      3635      3635
      3635      3635      3635      3635      3635      3635      3635      3636
      3636      3636      3636      3636      3636      3636      3636      3636
      3636      3636      3637      3637      3637      3637      3637      3637
      3637      3637      3637      3637      3637      3638      3638      3638
      3638      3638      3638      3638      3638      3638      3638      3638
      3639      3639      3639      3639      3639      3639      3639      3639
      3639      3639      3639      3640      3640      3640      3640      3640
      3640      3640      3640      3640      3640      3640      3641      3641
      3641      3641      3641      3641      3641      3641      3641      3641
      3641      3642      3642      3642      3642      3642      3642      3642
      3642      3642      3642      3642      3643      3643      3643      3643
      3643      3643      3643      3643      3643      3643      3643      3644
      3644      3644      3644      3644      3644      3644      3644      3644
      3644      3644      3645      3645      3645      3645      3645      3645
      3645      3645      3645      3645      3645      3646      3646      3646
      3646      3646      3646      3646      3646      3646      3646      3646
      3647      3647      3647      3647      3647      3647      3647      3647
      3647      3647      3647      3648      3648      3648      3648      3648
      3648      3648      3648      3648      3648      3648      3649      3649
      3649      3649      3649      3649      3649      3649      3649      3649
      3649      3650      3650      3650      3650      3650      3650      3650
      3650      3650      3650      3650      3651      3651      3651      3651
      3651      3651      3651      3651      3651      3651      3651      3652
      3652      3652      3652      3652      3652      3652      3652      3652
      3652      3652      3653      3653      3653      3653      3653      3653
      3653      3653      3653      3653      3653      3654      3654      3654
      3654      3654      3654      3654      3654      3654      3654      3654
      3655      3655      3655      3655      3655      3655      3655      3655
      3655      3655      3655      3656      3656      3656      3656      3656
      3656      3656      3656      3656      3656      3656      3657      3657
      3657      3657      3657      3657      3657      3657      3657      3657
      3657      3658      3658      3658      3658      3658      3658      3658
      3658      3658      3658      3658      3659      3659      3659      3659
      3659      3659      3659      3659      3659      3659      3659      3660
      3660      3660      3660      3660      3660      3660      3660      3660
      3660      3660      3661      3661      3661      3661      3661      3661
      3661      3661      3661      3661      3661      3662      3662      3662
      3662      3662      3662      3662      3662      3662      3662      3662
      3663      3663      3663      3663      3663      3663      3663      3663
      3663      3663      3663      3664      3664      3664      3664      3664
      3664      3664      3664      3664      3664      3664      3665      3665
      3665      3665      3665      3665      3665      3665      3665      3665
      3665      3666      3666      3666      3666      3666      3666      3666
      3666      3666      3666      3666      3667      3667      3667      3667
      3667      3667      3667      3667      3667      3667      3667      3668
      3668      3668      3668      3668      3668      3668      3668      3668
      3668      3668      3669      3669      3669      3669      3669      3669
      3669      3669      3669      3669      3669      3670      3670      3670
      3670      3670      3670      3670      3670      3670      3670      3670
      3671      3671      3671      3671      3671      3671      3671      3671
      3671      3671      3671      3672      3672      3672      3672      3672
      3672      3672      3672      3672      3672      3672      3673      3673
      3673      3673      3673      3673      3673      3673      3673      3673
      3673      3674      3674      3674      3674      3674      3674      3674
      3674      3674      3674      3674      3675      3675      3675      3675
      3675      3675      3675      3675      3675      3675      3675      3676
      3676      3676      3676      3676      3676      3676      3676      3676
      3676      3676      3677      3677      3677      3677      3677      3677
      3677      3677      3677      3677      3677      3678      3678      3678
      3678      3678      3678      3678      3678      3678      3678      3678
      3679      3679      3679      3679      3679      3679      3679      3679
      3679      3679      3679      3680      3680      3680      3680      3680
      3680      3680      3680      3680      3680      3680      3681      3681
      3681      3681      3681      3681      3681      3681      3681      3681
      3681      3682      3682      3682      3682      3682      3682      3682
      3682      3682      3682      3682      3683      3683      3683      3683
      3683      3683      3683      3683      3683      3683      3683      3684
      3684      3684      3684      3684      3684      3684      3684      3684
      3684      3684      3685      3685      3685      3685      3685      3685
      3685      3685      3685      3685      3685      3686      3686      3686
      3686      3686      3686      3686      3686      3686      3686      3686
      3687      3687      3687      3687      3687      3687      3687      3687
      3687      3687      3687      3688      3688      3688      3688      3688
      3688      3688      3688      3688      3688      3688      3689      3689
      3689      3689      3689      3689      3689      3689      3689      3689
      3689      3690      3690      3690      3690      3690      3690      3690
      3690      3690      3690      3690      3691      3691      3691      3691
      3691      3691      3691      3691      3691      3691      3691      3692
      3692      3692      3692      3692      3692      3692      3692      3692
      3692      3692      3693      3693      3693      3693      3693      3693
      3693      3693      3693      3693      3693      3694      3694      3694
      3694      3694      3694      3694      3694      3694      3694      3694
      3695      3695      3695      3695      3695      3695      3695      3695
      3695      3695      3695      3696      3696      3696      3696      3696
      3696      3696      3696      3696      3696      3696      3697      3697
      3697      3697      3697      3697      3697      3697      3697      3697
      3697      3698      3698      3698      3698      3698      3698      3698
      3698      3698      3698      3698      3699      3699      3699      3699
      3699      3699      3699      3699      3699      3699      3699      3700
      3700      3700      3700      3700      3700      3700      3700      3700
      3700      3700      3701      3701      3701      3701      3701      3701
      3701      3701      3701      3701      3701      3702      3702      3702
      3702      3702      3702      3702      3702      3702      3702      3702
      3703      3703      3703      3703      3703      3703      3703      3703
      3703      3703      3703      3704      3704      3704      3704      3704
      3704      3704      3704      3704      3704      3704      3705      3705
      3705      3705      3705      3705      3705      3705      3705      3705
      3705      3706      3706      3706      3706      3706      3706      3706
      3706      3706      3706      3706      3707      3707      3707      3707
      3707      3707      3707      3707      3707      3707      3707      3708
      3708      3708      3708      3708      3708      3708      3708      3708
      3708      3708      3709      3709      3709      3709      3709      3709
      3709      3709      3709      3709      3709      3710      3710      3710
      3710      3710      3710      3710      3710      3710      3710      3710
      3711      3711      3711      3711      3711      3711      3711      3711
      3711      3711      3711      3712      3712      3712      3712      3712
      3712      3712      3712      3712      3712      3712      3713      3713
      3713      3713      3713      3713      3713      3713      3713      3713
      3713      3714      3714      3714      3714      3714      3714      3714
      3714      3714      3714      3714      3715      3715      3715      3715
      3715      3715      3715      3715      3715      3715      3715      3716
      3716      3716      3716      3716      3716      3716      3716      3716
      3716      3716      3717      3717      3717      3717      3717      3717
      3717      3717      3717      3717      3717      3718      3718      3718
      3718      3718      3718      3718      3718      3718      3718      3718
      3719      3719      3719      3719      3719      3719      3719      3719
      3719      3719      3719      3720      3720      3720      3720      3720
      3720      3720      3720      3720      3720      3720      3721      3721
      3721      3721      3721      3721      3721      3721      3721      3721
      3721      3722      3722      3722      3722      3722      3722      3722
      3722      3722      3722      3722      3723      3723      3723      3723
      3723      3723      3723      3723      3723      3723      3723      3724
      3724      3724      3724      3724      3724      3724      3724      3724
      3724      3724      3725      3725      3725      3725      3725      3725
      3725      3725      3725      3725      3725      3726      3726      3726
      3726      3726      3726      3726      3726      3726      3726      3726
      3727      3727      3727      3727      3727      3727      3727      3727
      3727      3727      3727      3728      3728      3728      3728      3728
      3728      3728      3728      3728      3728      3728      3729      3729
      3729      3729      3729      3729      3729      3729      3729      3729
      3729      3730      3730      3730      3730      3730      3730      3730
      3730      3730      3730      3730      3731      3731      3731      3731
      3731      3731      3731      3731      3731      3731      3731      3732
      3732      3732      3732      3732      3732      3732      3732      3732
      3732      3732      3733      3733      3733      3733      3733      3733
      3733      3733      3733      3733      3733      3734      3734      3734
      3734      3734      3734      3734      3734      3734      3734      3734
      3735      3735      3735      3735      3735      3735      3735      3735
      3735      3735      3735      3736      3736      3736      3736      3736
      3736      3736      3736      3736      3736      3736      3737      3737
      3737      3737      3737      3737      3737      3737      3737      3737
      3737      3738      3738      3738      3738      3738      3738      3738
      3738      3738      3738      3738      3739      3739      3739      3739
      3739      3739      3739      3739      3739      3739      3739      3740
      3740      3740      3740      3740      3740      3740      3740      3740
      3740      3740      3741      3741      3741      3741      3741      3741
      3741      3741      3741      3741      3741      3742      3742      3742
      3742      3742      3742      3742      3742      3742      3742      3742
      3743      3743      3743      3743      3743      3743      3743      3743
      3743      3743      3743      3744      3744      3744      3744      3744
      3744      3744      3744      3744      3744      3744      3745      3745
      3745      3745      3745      3745      3745      3745      3745      3745
      3745      3746      3746      3746      3746      3746      3746      3746
      3746      3746      3746      3746      3747      3747      3747      3747
      3747      3747      3747      3747      3747      3747      3747      3748
      3748      3748      3748      3748      3748      3748      3748      3748
      3748      3748      3749      3749      3749      3749      3749      3749
      3749      3749      3749      3749      3749      3750      3750      3750
      3750      3750      3750      3750      3750      3750      3750      3750
      3751      3751      3751      3751      3751      3751      3751      3751
      3751      3751      3751      3752      3752      3752      3752      3752
      3752      3752      3752      3752      3752      3752      3753      3753
      3753      3753      3753      3753      3753      3753      3753      3753
      3753      3754      3754      3754      3754      3754      3754      3754
      3754      3754      3754      3754      3755      3755      3755      3755
      3755      3755      3755      3755      3755      3755      3755      3756
      3756      3756      3756      3756      3756      3756      3756      3756
      3756      3756      3757      3757      3757      3757      3757      3757
      3757      3757      3757      3757      3757      3758      3758      3758
      3758      3758      3758      3758      3758      3758      3758      3758
      3759      3759      3759      3759      3759      3759      3759      3759
      3759      3759      3759      3760      3760      3760      3760      3760
      3760      3760      3760      3760      3760      3760      3761      3761
      3761      3761      3761      3761      3761      3761      3761      3761
      3761      3762      3762      3762      3762      3762      3762      3762
      3762      3762      3762      3762      3763      3763      3763      3763
      3763      3763      3763      3763      3763      3763      3763      3764
      3764      3764      3764      3764      3764      3764      3764      3764
      3764      3764      3765      3765      3765      3765      3765      3765
      3765      3765      3765      3765      3765      3766      3766      3766
      3766      3766      3766      3766      3766      3766      3766      3766
      3767      3767      3767      3767      3767      3767      3767      3767
      3767      3767      3767      3768      3768      3768      3768      3768
      3768      3768      3768      3768      3768      3768      3769      3769
      3769      3769      3769      3769      3769      3769      3769      3769
      3769      3770      3770      3770      3770      3770      3770      3770
      3770      3770      3770      3770      3771      3771      3771      3771
      3771      3771      3771      3771      3771      3771      3771      3772
      3772      3772      3772      3772      3772      3772      3772      3772
      3772      3772      3773      3773      3773      3773      3773      3773
      3773      3773      3773      3773      3773      3774      3774      3774
      3774      3774      3774      3774      3774      3774      3774      3774
      3775      3775      3775      3775      3775      3775      3775      3775
      3775      3775      3775      3776      3776      3776      3776      3776
      3776      3776      3776      3776      3776      3776      3777      3777
      3777      3777      3777      3777      3777      3777      3777      3777
      3777      3778      3778      3778      3778      3778      3778      3778
      3778      3778      3778      3778      3779      3779      3779      3779
      3779      3779      3779      3779      3779      3779      3779      3780
      3780      3780      3780      3780      3780      3780      3780      3780
      3780      3780      3781      3781      3781      3781      3781      3781
      3781      3781      3781      3781      3781      3782      3782      3782
      3782      3782      3782      3782      3782      3782      3782      3782
      3783      3783      3783      3783      3783      3783      3783      3783
      3783      3783      3783      3784      3784      3784      3784      3784
      3784      3784      3784      3784      3784      3784      3785      3785
      3785      3785      3785      3785      3785      3785      3785      3785
      3785      3786      3786      3786      3786      3786      3786      3786
      3786      3786      3786      3786      3787      3787      3787      3787
      3787      3787      3787      3787      3787      3787      3787      3788
      3788      3788      3788      3788      3788      3788      3788      3788
      3788      3788      3789      3789      3789      3789      3789      3789
      3789      3789      3789      3789      3789      3790      3790      3790
      3790      3790      3790      3790      3790      3790      3790      3790
      3791      3791      3791      3791      3791      3791      3791      3791
      3791      3791      3791      3792      3792      3792      3792      3792
      3792      3792      3792      3792      3792      3792      3793      3793
      3793      3793      3793      3793      3793      3793      3793      3793
      3793      3794      3794      3794      3794      3794      3794      3794
      3794      3794      3794      3794      3795      3795      3795      3795
      3795      3795      3795      3795      3795      3795      3795      3796
      3796      3796      3796      3796      3796      3796      3796      3796
      3796      3796      3797      3797      3797      3797      3797      3797
      3797      3797      3797      3797      3797      3798      3798      3798
      3798      3798      3798      3798      3798      3798      3798      3798
      3799      3799      3799      3799      3799      3799      3799      3799
      3799      3799      3799      3800      3800      3800      3800      3800
      3800      3800      3800      3800      3800      3800      3801      3801
      3801      3801      3801      3801      3801      3801      3801      3801
      3801      3802      3802      3802      3802      3802      3802      3802
      3802      3802      3802      3802      3803      3803      3803      3803
      3803      3803      3803      3803      3803      3803      3803      3804
      3804      3804      3804      3804      3804      3804      3804      3804
      3804      3804      3805      3805      3805      3805      3805      3805
      3805      3805      3805      3805      3805      3806      3806      3806
      3806      3806      3806      3806      3806      3806      3806      3806
      3807      3807      3807      3807      3807      3807      3807      3807
      3807      3807      3807      3808      3808      3808      3808      3808
      3808      3808      3808      3808      3808      3808      3809      3809
      3809      3809      3809      3809      3809      3809      3809      3809
      3809      3810      3810      3810      3810      3810      3810      3810
      3810      3810      3810      3810      3811      3811      3811      3811
      3811      3811      3811      3811      3811      3811      3811      3812
      3812      3812      3812      3812      3812      3812      3812      3812
      3812      3812      3813      3813      3813      3813      3813      3813
      3813      3813      3813      3813      3813      3814      3814      3814
      3814      3814      3814      3814      3814      3814      3814      3814
      3815      3815      3815      3815      3815      3815      3815      3815
      3815      3815      3815      3816      3816      3816      3816      3816
      3816      3816      3816      3816      3816      3816      3817      3817
      3817      3817      3817      3817      3817      3817      3817      3817
      3817      3818      3818      3818      3818      3818      3818      3818
      3818      3818      3818      3818      3819      3819      3819      3819
      3819      3819      3819      3819      3819      3819      3819      3820
      3820      3820      3820      3820      3820      3820      3820      3820
      3820      3820      3821      3821      3821      3821      3821      3821
      3821      3821      3821      3821      3821      3822      3822      3822
      3822      3822      3822      3822      3822      3822      3822      3822
      3823      3823      3823      3823      3823      3823      3823      3823
      3823      3823      3823      3824      3824      3824      3824      3824
      3824      3824      3824      3824      3824      3824      3825      3825
      3825      3825      3825      3825      3825      3825      3825      3825
      3825      3826      3826      3826      3826      3826      3826      3826
      3826      3826      3826      3826      3827      3827      3827      3827
      3827      3827      3827      3827      3827      3827      3827      3828
      3828      3828      3828      3828      3828      3828      3828      3828
      3828      3828      3829      3829      3829      3829      3829      3829
      3829      3829      3829      3829      3829      3830      3830      3830
      3830      3830      3830      3830      3830      3830      3830      3830
      3831      3831      3831      3831      3831      3831      3831      3831
      3831      3831      3831      3832      3832      3832      3832      3832
      3832      3832      3832      3832      3832      3832      3833      3833
      3833      3833      3833      3833      3833      3833      3833      3833
      3833      3834      3834      3834      3834      3834      3834      3834
      3834      3834      3834      3834      3835      3835      3835      3835
      3835      3835      3835      3835      3835      3835      3835      3836
      3836      3836      3836      3836      3836      3836      3836      3836
      3836      3836      3837      3837      3837      3837      3837      3837
      3837      3837      3837      3837      3837      3838      3838      3838
      3838      3838      3838      3838      3838      3838      3838      3838
      3839      3839      3839      3839      3839      3839      3839      3839
      3839      3839      3839      3840      3840      3840      3840      3840
      3840      3840      3840      3840      3840      3840      3841      3841
      3841      3841      3841      3841      3841      3841      3841      3841
      3841      3842      3842      3842      3842      3842      3842      3842
      3842      3842      3842      3842      3843      3843      3843      3843
      3843      3843      3843      3843      3843      3843      3843      3844
      3844      3844      3844      3844      3844      3844      3844      3844
      3844      3844      3845      3845      3845      3845      3845      3845
      3845      3845      3845      3845      3845      3846      3846      3846
      3846      3846      3846      3846      3846      3846      3846      3846
      3847      3847      3847      3847      3847      3847      3847      3847
      3847      3847      3847      3848      3848      3848      3848      3848
      3848      3848      3848      3848      3848      3848      3849      3849
      3849      3849      3849      3849      3849      3849      3849      3849
      3849      3850      3850      3850      3850      3850      3850      3850
      3850      3850      3850      3850      3851      3851      3851      3851
      3851      3851      3851      3851      3851      3851      3851      3852
      3852      3852      3852      3852      3852      3852      3852      3852
      3852      3852      3853      3853      3853      3853      3853      3853
      3853      3853      3853      3853      3853      3854      3854      3854
      3854      3854      3854      3854      3854      3854      3854      3854
      3855      3855      3855      3855      3855      3855      3855      3855
      3855      3855      3855      3856      3856      3856      3856      3856
      3856      3856      3856      3856      3856      3856      3857      3857
      3857      3857      3857      3857      3857      3857      3857      3857
      3857      3858      3858      3858      3858      3858      3858      3858
      3858      3858      3858      3858      3859      3859      3859      3859
      3859      3859      3859      3859      3859      3859      3859      3860
      3860      3860      3860      3860      3860      3860      3860      3860
      3860      3860      3861      3861      3861      3861      3861      3861
      3861      3861      3861      3861      3861      3862      3862      3862
      3862      3862      3862      3862      3862      3862      3862      3862
      3863      3863      3863      3863      3863      3863      3863      3863
      3863      3863      3863      3864      3864      3864      3864      3864
      3864      3864      3864      3864      3864      3864      3865      3865
      3865      3865      3865      3865      3865      3865      3865      3865
      3865      3866      3866      3866      3866      3866      3866      3866
      3866      3866      3866      3866      3867      3867      3867      3867
      3867      3867      3867      3867      3867      3867      3867      3868
      3868      3868      3868      3868      3868      3868      3868      3868
      3868      3868      3869      3869      3869      3869      3869      3869
      3869      3869      3869      3869      3869      3870      3870      3870
      3870      3870      3870      3870      3870      3870      3870      3870
      3871      3871      3871      3871      3871      3871      3871      3871
      3871      3871      3871      3872      3872      3872      3872      3872
      3872      3872      3872      3872      3872      3872      3873      3873
      3873      3873      3873      3873      3873      3873      3873      3873
      3873      3874      3874      3874      3874      3874      3874      3874
      3874      3874      3874      3874      3875      3875      3875      3875
      3875      3875      3875      3875      3875      3875      3875      3876
      3876      3876      3876      3876      3876      3876      3876      3876
      3876      3876      3877      3877      3877      3877      3877      3877
      3877      3877      3877      3877      3877      3878      3878      3878
      3878      3878      3878      3878      3878      3878      3878      3878
      3879      3879      3879      3879      3879      3879      3879      3879
      3879      3879      3879      3880      3880      3880      3880      3880
      3880      3880      3880      3880      3880      3880      3881      3881
      3881      3881      3881      3881      3881      3881      3881      3881
      3881      3882      3882      3882      3882      3882      3882      3882
      3882      3882      3882      3882      3883      3883      3883      3883
      3883      3883      3883      3883      3883      3883      3883      3884
      3884      3884      3884      3884      3884      3884      3884      3884
      3884      3884      3885      3885      3885      3885      3885      3885
      3885      3885      3885      3885      3885      3886      3886      3886
      3886      3886      3886      3886      3886      3886      3886      3886
      3887      3887      3887      3887      3887      3887      3887      3887
      3887      3887      3887      3888      3888      3888      3888      3888
      3888      3888      3888      3888      3888      3888      3889      3889
      3889      3889      3889      3889      3889      3889      3889      3889
      3889      3890      3890      3890      3890      3890      3890      3890
      3890      3890      3890      3890      3891      3891      3891      3891
      3891      3891      3891      3891      3891      3891      3891      3892
      3892      3892      3892      3892      3892      3892      3892      3892
      3892      3892      3893      3893      3893      3893      3893      3893
      3893      3893      3893      3893      3893      3894      3894      3894
      3894      3894      3894      3894      3894      3894      3894      3894
      3895      3895      3895      3895      3895      3895      3895      3895
      3895      3895      3895      3896      3896      3896      3896      3896
      3896      3896      3896      3896      3896      3896      3897      3897
      3897      3897      3897      3897      3897      3897      3897      3897
      3897      3898      3898      3898      3898      3898      3898      3898
      3898      3898      3898      3898      3899      3899      3899      3899
      3899      3899      3899      3899      3899      3899      3899      3900
      3900      3900      3900      3900      3900      3900      3900      3900
      3900      3900      3901      3901      3901      3901      3901      3901
      3901      3901      3901      3901      3901      3902      3902      3902
      3902      3902      3902      3902      3902      3902      3902      3902
      3903      3903      3903      3903      3903      3903      3903      3903
      3903      3903      3903      3904      3904      3904      3904      3904
      3904      3904      3904      3904      3904      3904      3905      3905
      3905      3905      3905      3905      3905      3905      3905      3905
      3905      3906      3906      3906      3906      3906      3906      3906
      3906      3906      3906      3906      3907      3907      3907      3907
      3907      3907      3907      3907      3907      3907      3907      3908
      3908      3908      3908      3908      3908      3908      3908      3908
      3908      3908      3909      3909      3909      3909      3909      3909
      3909      3909      3909      3909      3909      3910      3910      3910
      3910      3910      3910      3910      3910      3910      3910      3910
      3911      3911      3911      3911      3911      3911      3911      3911
      3911      3911      3911      3912      3912      3912      3912      3912
      3912      3912      3912      3912      3912      3912      3913      3913
      3913      3913      3913      3913      3913      3913      3913      3913
      3913      3914      3914      3914      3914      3914      3914      3914
      3914      3914      3914      3914      3915      3915      3915      3915
      3915      3915      3915      3915      3915      3915      3915      3916
      3916      3916      3916      3916      3916      3916      3916      3916
      3916      3916      3917      3917      3917      3917      3917      3917
      3917      3917      3917      3917      3917      3918      3918      3918
      3918      3918      3918      3918      3918      3918      3918      3918
      3919      3919      3919      3919      3919      3919      3919      3919
      3919      3919      3919      3920      3920      3920      3920      3920
      3920      3920      3920      3920      3920      3920      3921      3921
      3921      3921      3921      3921      3921      3921      3921      3921
      3921      3922      3922      3922      3922      3922      3922      3922
      3922      3922      3922      3922      3923      3923      3923      3923
      3923      3923      3923      3923      3923      3923      3923      3924
      3924      3924      3924      3924      3924      3924      3924      3924
      3924      3924      3925      3925      3925      3925      3925      3925
      3925      3925      3925      3925      3925      3926      3926      3926
      3926      3926      3926      3926      3926      3926      3926      3926
      3927      3927      3927      3927      3927      3927      3927      3927
      3927      3927      3927      3928      3928      3928      3928      3928
      3928      3928      3928      3928      3928      3928      3929      3929
      3929      3929      3929      3929      3929      3929      3929      3929
      3929      3930      3930      3930      3930      3930      3930      3930
      3930      3930      3930      3930      3931      3931      3931      3931
      3931      3931      3931      3931      3931      3931      3931      3932
      3932      3932      3932      3932      3932      3932      3932      3932
      3932      3932      3933      3933      3933      3933      3933      3933
      3933      3933      3933      3933      3933      3934      3934      3934
      3934      3934      3934      3934      3934      3934      3934      3934
      3935      3935      3935      3935      3935      3935      3935      3935
      3935      3935      3935      3936      3936      3936      3936      3936
      3936      3936      3936      3936      3936      3936      3937      3937
      3937      3937      3937      3937      3937      3937      3937      3937
      3937      3938      3938      3938      3938      3938      3938      3938
      3938      3938      3938      3938      3939      3939      3939      3939
      3939      3939      3939      3939      3939      3939      3939      3940
      3940      3940      3940      3940      3940      3940      3940      3940
      3940      3940      3941      3941      3941      3941      3941      3941
      3941      3941      3941      3941      3941      3942      3942      3942
      3942      3942      3942      3942      3942      3942      3942      3942
      3943      3943      3943      3943      3943      3943      3943      3943
      3943      3943      3943      3944      3944      3944      3944      3944
      3944      3944      3944      3944      3944      3944      3945      3945
      3945      3945      3945      3945      3945      3945      3945      3945
      3945      3946      3946      3946      3946      3946      3946      3946
      3946      3946      3946      3946      3947      3947      3947      3947
      3947      3947      3947      3947      3947      3947      3947      3948
      3948      3948      3948      3948      3948      3948      3948      3948
      3948      3948      3949      3949      3949      3949      3949      3949
      3949      3949      3949      3949      3949      3950      3950      3950
      3950      3950      3950      3950      3950      3950      3950      3950
      3951      3951      3951      3951      3951      3951      3951      3951
      3951      3951      3951      3952      3952      3952      3952      3952
      3952      3952      3952      3952      3952      3952      3953      3953
      3953      3953      3953      3953      3953      3953      3953      3953
      3953      3954      3954      3954      3954      3954      3954      3954
      3954      3954      3954      3954      3955      3955      3955      3955
      3955      3955      3955      3955      3955      3955      3955      3956
      3956      3956      3956      3956      3956      3956      3956      3956
      3956      3956      3957      3957      3957      3957      3957      3957
      3957      3957      3957      3957      3957      3958      3958      3958
      3958      3958      3958      3958      3958      3958      3958      3958
      3959      3959      3959      3959      3959      3959      3959      3959
      3959      3959      3959      3960      3960      3960      3960      3960
      3960      3960      3960      3960      3960      3960      3961      3961
      3961      3961      3961      3961      3961      3961      3961      3961
      3961      3962      3962      3962      3962      3962      3962      3962
      3962      3962      3962      3962      3963      3963      3963      3963
      3963      3963      3963      3963      3963      3963      3963      3964
      3964      3964      3964      3964      3964      3964      3964      3964
      3964      3964      3965      3965      3965      3965      3965      3965
      3965      3965      3965      3965      3965      3966      3966      3966
      3966      3966      3966      3966      3966      3966      3966      3966
      3967      3967      3967      3967      3967      3967      3967      3967
      3967      3967      3967      3968      3968      3968      3968      3968
      3968      3968      3968      3968      3968      3968      3969      3969
      3969      3969      3969      3969      3969      3969      3969      3969
      3969      3970      3970      3970      3970      3970      3970      3970
      3970      3970      3970      3970      3971      3971      3971      3971
      3971      3971      3971      3971      3971      3971      3971      3972
      3972      3972      3972      3972      3972      3972      3972      3972
      3972      3972      3973      3973      3973      3973      3973      3973
      3973      3973      3973      3973      3973      3974      3974      3974
      3974      3974      3974      3974      3974      3974      3974      3974
      3975      3975      3975      3975      3975      3975      3975      3975
      3975      3975      3975      3976      3976      3976      3976      3976
      3976      3976      3976      3976      3976      3976      3977      3977
      3977      3977      3977      3977      3977      3977      3977      3977
      3977      3978      3978      3978      3978      3978      3978      3978
      3978      3978      3978      3978      3979      3979      3979      3979
      3979      3979      3979      3979      3979      3979      3979      3980
      3980      3980      3980      3980      3980      3980      3980      3980
      3980      3980      3981      3981      3981      3981      3981      3981
      3981      3981      3981      3981      3981      3982      3982      3982
      3982      3982      3982      3982      3982      3982      3982      3982
      3983      3983      3983      3983      3983      3983      3983      3983
      3983      3983      3983      3984      3984      3984      3984      3984
      3984      3984      3984      3984      3984      3984      3985      3985
      3985      3985      3985      3985      3985      3985      3985      3985
      3985      3986      3986      3986      3986      3986      3986      3986
      3986      3986      3986      3986      3987      3987      3987      3987
      3987      3987      3987      3987      3987      3987      3987      3988
      3988      3988      3988      3988      3988      3988      3988      3988
      3988      3988      3989      3989      3989      3989      3989      3989
      3989      3989      3989      3989      3989      3990      3990      3990
      3990      3990      3990      3990      3990      3990      3990      3990
      3991      3991      3991      3991      3991      3991      3991      3991
      3991      3991      3991      3992      3992      3992      3992      3992
      3992      3992      3992      3992      3992      3992      3993      3993
      3993      3993      3993      3993      3993      3993      3993      3993
      3993      3994      3994      3994      3994      3994      3994      3994
      3994      3994      3994      3994      3995      3995      3995      3995
      3995      3995      3995      3995      3995      3995      3995      3996
      3996      3996      3996      3996      3996      3996      3996      3996
      3996      3996      3997      3997      3997      3997      3997      3997
      3997      3997      3997      3997      3997      3998      3998      3998
      3998      3998      3998      3998      3998      3998      3998      3998
      3999      3999      3999      3999      3999      3999      3999      3999
      3999      3999      3999      4000      4000      4000      4000      4000
      4000      4000      4000      4000      4000      4000      4001      4001
      4001      4001      4001      4001      4001      4001      4001      4001
      4001      4002      4002      4002      4002      4002      4002      4002
      4002      4002      4002      4002      4003      4003      4003      4003
      4003      4003      4003      4003      4003      4003      4003      4004
      4004      4004      4004      4004      4004      4004      4004      4004
      4004      4004      4005      4005      4005      4005      4005      4005
      4005      4005      4005      4005      4005      4006      4006      4006
      4006      4006      4006      4006      4006      4006      4006      4006
      4007      4007      4007      4007      4007      4007      4007      4007
      4007      4007      4007      4008      4008      4008      4008      4008
      4008      4008      4008      4008      4008      4008      4009      4009
      4009      4009      4009      4009      4009      4009      4009      4009
      4009      4010      4010      4010      4010      4010      4010      4010
      4010      4010      4010      4010      4011      4011      4011      4011
      4011      4011      4011      4011      4011      4011      4011      4012
      4012      4012      4012      4012      4012      4012      4012      4012
      4012      4012      4013      4013      4013      4013      4013      4013
      4013      4013      4013      4013      4013      4014      4014      4014
      4014      4014      4014      4014      4014      4014      4014      4014
      4015      4015      4015      4015      4015      4015      4015      4015
      4015      4015      4015      4016      4016      4016      4016      4016
      4016      4016      4016      4016      4016      4016      4017      4017
      4017      4017      4017      4017      4017      4017      4017      4017
      4017      4018      4018      4018      4018      4018      4018      4018
      4018      4018      4018      4018      4019      4019      4019      4019
      4019      4019      4019      4019      4019      4019      4019      4020
      4020      4020      4020      4020      4020      4020      4020      4020
      4020      4020      4021      4021      4021      4021      4021      4021
      4021      4021      4021      4021      4021      4022      4022      4022
      4022      4022      4022      4022      4022      4022      4022      4022
      4023      4023      4023      4023      4023      4023      4023      4023
      4023      4023      4023      4024      4024      4024      4024      4024
      4024      4024      4024      4024      4024      4024      4025      4025
      4025      4025      4025      4025      4025      4025      4025      4025
      4025      4026      4026      4026      4026      4026      4026      4026
      4026      4026      4026      4026      4027      4027      4027      4027
      4027      4027      4027      4027      4027      4027      4027      4028
      4028      4028      4028      4028      4028      4028      4028      4028
      4028      4028      4029      4029      4029      4029      4029      4029
      4029      4029      4029      4029      4029      4030      4030      4030
      4030      4030      4030      4030      4030      4030      4030      4030
      4031      4031      4031      4031      4031      4031      4031      4031
      4031      4031      4031      4032      4032      4032      4032      4032
      4032      4032      4032      4032      4032      4032      4033      4033
      4033      4033      4033      4033      4033      4033      4033      4033
      4033      4034      4034      4034      4034      4034      4034      4034
      4034      4034      4034      4034      4035      4035      4035      4035
      4035      4035      4035      4035      4035      4035      4035      4036
      4036      4036      4036      4036      4036      4036      4036      4036
      4036      4036      4037      4037      4037      4037      4037      4037
      4037      4037      4037      4037      4037      4038      4038      4038
      4038      4038      4038      4038      4038      4038      4038      4038
      4039      4039      4039      4039      4039      4039      4039      4039
      4039      4039      4039      4040      4040      4040      4040      4040
      4040      4040      4040      4040      4040      4040      4041      4041
      4041      4041      4041      4041      4041      4041      4041      4041
      4041      4042      4042      4042      4042      4042      4042      4042
      4042      4042      4042      4042      4043      4043      4043      4043
      4043      4043      4043      4043      4043      4043      4043      4044
      4044      4044      4044      4044      4044      4044      4044      4044
      4044      4044      4045      4045      4045      4045      4045      4045
      4045      4045      4045      4045      4045      4046      4046      4046
      4046      4046      4046      4046      4046      4046      4046      4046
      4047      4047      4047      4047      4047      4047      4047      4047
      4047      4047      4047      4048      4048      4048      4048      4048
      4048      4048      4048      4048      4048      4048      4049      4049
      4049      4049      4049      4049      4049      4049      4049      4049
      4049      4050      4050      4050      4050      4050      4050      4050
      4050      4050      4050      4050      4051      4051      4051      4051
      4051      4051      4051      4051      4051      4051      4051      4052
      4052      4052      4052      4052      4052      4052      4052      4052
      4052      4052      4053      4053      4053      4053      4053      4053
      4053      4053      4053      4053      4053      4054      4054      4054
      4054      4054      4054      4054      4054      4054      4054      4054
      4055      4055      4055      4055      4055      4055      4055      4055
      4055      4055      4055      4056      4056      4056      4056      4056
      4056      4056      4056      4056      4056      4056      4057      4057
      4057      4057      4057      4057      4057      4057      4057      4057
      4057      4058      4058      4058      4058      4058      4058      4058
      4058      4058      4058      4058      4059      4059      4059      4059
      4059      4059      4059      4059      4059      4059      4059      4060
      4060      4060      4060      4060      4060      4060      4060      4060
      4060      4060      4061      4061      4061      4061      4061      4061
      4061      4061      4061      4061      4061      4062      4062      4062
      4062      4062      4062      4062      4062      4062      4062      4062
      4063      4063      4063      4063      4063      4063      4063      4063
      4063      4063      4063      4064      4064      4064      4064      4064
      4064      4064      4064      4064      4064      4064      4065      4065
      4065      4065      4065      4065      4065      4065      4065      4065
      4065      4066      4066      4066      4066      4066      4066      4066
      4066      4066      4066      4066      4067      4067      4067      4067
      4067      4067      4067      4067      4067      4067      4067      4068
      4068      4068      4068      4068      4068      4068      4068      4068
      4068      4068      4069      4069      4069      4069      4069      4069
      4069      4069      4069      4069      4069      4070      4070      4070
      4070      4070      4070      4070      4070      4070      4070      4070
      4071      4071      4071      4071      4071      4071      4071      4071
      4071      4071      4071      4072      4072      4072      4072      4072
      4072      4072      4072      4072      4072      4072      4073      4073
      4073      4073      4073      4073      4073      4073      4073      4073
      4073      4074      4074      4074      4074      4074      4074      4074
      4074      4074      4074      4074      4075      4075      4075      4075
      4075      4075      4075      4075      4075      4075      4075      4076
      4076      4076      4076      4076      4076      4076      4076      4076
      4076      4076      4077      4077      4077      4077      4077      4077
      4077      4077      4077      4077      4077      4078      4078      4078
      4078      4078      4078      4078      4078      4078      4078      4078
      4079      4079      4079      4079      4079      4079      4079      4079
      4079      4079      4079      4080      4080      4080      4080      4080
      4080      4080      4080      4080      4080      4080      4081      4081
      4081      4081      4081      4081      4081      4081      4081      4081
      4081      4082      4082      4082      4082      4082      4082      4082
      4082      4082      4082      4082      4083      4083      4083      4083
      4083      4083      4083      4083      4083      4083      4083      4084
      4084      4084      4084      4084      4084      4084      4084      4084
      4084      4084      4085      4085      4085      4085      4085      4085
      4085      4085      4085      4085      4085      4086      4086      4086
      4086      4086      4086      4086      4086      4086      4086      4086
      4087      4087      4087      4087      4087      4087      4087      4087
      4087      4087      4087      4088      4088      4088      4088      4088
      4088      4088      4088      4088      4088      4088      4089      4089
      4089      4089      4089      4089      4089      4089      4089      4089
      4089      4090      4090      4090      4090      4090      4090      4090
      4090      4090      4090      4090      4091      4091      4091      4091
      4091      4091      4091      4091      4091      4091      4091      4092
      4092      4092      4092      4092      4092      4092      4092      4092
      4092      4092      4093      4093      4093      4093      4093      4093
      4093      4093      4093      4093      4093      4094      4094      4094
      4094      4094      4094      4094      4094      4094      4094      4094
      4095      4095      4095      4095      4095      4095      4095      4095
      4095      4095      4095      4096      4096      4096      4096      4096
      4096      4096      4096      4096      4096      4096      4097      4097
      4097      4097      4097      4097      4097      4097      4097      4097
      4097      4098      4098      4098      4098      4098      4098      4098
      4098      4098      4098      4098      4099      4099      4099      4099
      4099      4099      4099      4099      4099      4099      4099      4100
      4100      4100      4100      4100      4100      4100      4100      4100
      4100      4100      4101      4101      4101      4101      4101      4101
      4101      4101      4101      4101      4101      4102      4102      4102
      4102      4102      4102      4102      4102      4102      4102      4102
      4103      4103      4103      4103      4103      4103      4103      4103
      4103      4103      4103      4104      4104      4104      4104      4104
      4104      4104      4104      4104      4104      4104      4105      4105
      4105      4105      4105      4105      4105      4105      4105      4105
      4105      4106      4106      4106      4106      4106      4106      4106
      4106      4106      4106      4106      4107      4107      4107      4107
      4107      4107      4107      4107      4107      4107      4107      4108
      4108      4108      4108      4108      4108      4108      4108      4108
      4108      4108      4109      4109      4109      4109      4109      4109
      4109      4109      4109      4109      4109      4110      4110      4110
      4110      4110      4110      4110      4110      4110      4110      4110
      4111      4111      4111      4111      4111      4111      4111      4111
      4111      4111      4111      4112      4112      4112      4112      4112
      4112      4112      4112      4112      4112      4112      4113      4113
      4113      4113      4113      4113      4113      4113      4113      4113
      4113      4114      4114      4114      4114      4114      4114      4114
      4114      4114      4114      4114      4115      4115      4115      4115
      4115      4115      4115      4115      4115      4115      4115      4116
      4116      4116      4116      4116      4116      4116      4116      4116
      4116      4116      4117      4117      4117      4117      4117      4117
      4117      4117      4117      4117      4117      4118      4118      4118
      4118      4118      4118      4118      4118      4118      4118      4118
      4119      4119      4119      4119      4119      4119      4119      4119
      4119      4119      4119      4120      4120      4120      4120      4120
      4120      4120      4120      4120      4120      4120      4121      4121
      4121      4121      4121      4121      4121      4121      4121      4121
      4121      4122      4122      4122      4122      4122      4122      4122
      4122      4122      4122      4122      4123      4123      4123      4123
      4123      4123      4123      4123      4123      4123      4123      4124
      4124      4124      4124      4124      4124      4124      4124      4124
      4124      4124      4125      4125      4125      4125      4125      4125
      4125      4125      4125      4125      4125      4126      4126      4126
      4126      4126      4126      4126      4126      4126      4126      4126
      4127      4127      4127      4127      4127      4127      4127      4127
      4127      4127      4127      4128      4128      4128      4128      4128
      4128      4128      4128      4128      4128      4128      4129      4129
      4129      4129      4129      4129      4129      4129      4129      4129
      4129      4130      4130      4130      4130      4130      4130      4130
      4130      4130      4130      4130      4131      4131      4131      4131
      4131      4131      4131      4131      4131      4131      4131      4132
      4132      4132      4132      4132      4132      4132      4132      4132
      4132      4132      4133      4133      4133      4133      4133      4133
      4133      4133      4133      4133      4133      4134      4134      4134
      4134      4134      4134      4134      4134      4134      4134      4134
      4135      4135      4135      4135      4135      4135      4135      4135
      4135      4135      4135      4136      4136      4136      4136      4136
      4136      4136      4136      4136      4136      4136      4137      4137
      4137      4137      4137      4137      4137      4137      4137      4137
      4137      4138      4138      4138      4138      4138      4138      4138
      4138      4138      4138      4138      4139      4139      4139      4139
      4139      4139      4139      4139      4139      4139      4139      4140
      4140      4140      4140      4140      4140      4140      4140      4140
      4140      4140      4141      4141      4141      4141      4141      4141
      4141      4141      4141      4141      4141      4142      4142      4142
      4142      4142      4142      4142      4142      4142      4142      4142
      4143      4143      4143      4143      4143      4143      4143      4143
      4143      4143      4143      4144      4144      4144      4144      4144
      4144      4144      4144      4144      4144      4144      4145      4145
      4145      4145      4145      4145      4145      4145      4145      4145
      4145      4146      4146      4146      4146      4146      4146      4146
      4146      4146      4146      4146      4147      4147      4147      4147
      4147      4147      4147      4147      4147      4147      4147      4148
      4148      4148      4148      4148      4148      4148      4148      4148
      4148      4148      4149      4149      4149      4149      4149      4149
      4149      4149      4149      4149      4149      4150      4150      4150
      4150      4150      4150      4150      4150      4150      4150      4150
      4151      4151      4151      4151      4151      4151      4151      4151
      4151      4151      4151      4152      4152      4152      4152      4152
      4152      4152      4152      4152      4152      4152      4153      4153
      4153      4153      4153      4153      4153      4153      4153      4153
      4153      4154      4154      4154      4154      4154      4154      4154
      4154      4154      4154      4154      4155      4155      4155      4155
      4155      4155      4155      4155      4155      4155      4155      4156
      4156      4156      4156      4156      4156      4156      4156      4156
      4156      4156      4157      4157      4157      4157      4157      4157
      4157      4157      4157      4157      4157      4158      4158      4158
      4158      4158      4158      4158      4158      4158      4158      4158
      4159      4159      4159      4159      4159      4159      4159      4159
      4159      4159      4159      4160      4160      4160      4160      4160
      4160      4160      4160      4160      4160      4160      4161      4161
      4161      4161      4161      4161      4161      4161      4161      4161
      4161      4162      4162      4162      4162      4162      4162      4162
      4162      4162      4162      4162      4163      4163      4163      4163
      4163      4163      4163      4163      4163      4163      4163      4164
      4164      4164      4164      4164      4164      4164      4164      4164
      4164      4164      4165      4165      4165      4165      4165      4165
      4165      4165      4165      4165      4165      4166      4166      4166
      4166      4166      4166      4166      4166      4166      4166      4166
      4167      4167      4167      4167      4167      4167      4167      4167
      4167      4167      4167      4168      4168      4168      4168      4168
      4168      4168      4168      4168      4168      4168      4169      4169
      4169      4169      4169      4169      4169      4169      4169      4169
      4169      4170      4170      4170      4170      4170      4170      4170
      4170      4170      4170      4170      4171      4171      4171      4171
      4171      4171      4171      4171      4171      4171      4171      4172
      4172      4172      4172      4172      4172      4172      4172      4172
      4172      4172      4173      4173      4173      4173      4173      4173
      4173      4173      4173      4173      4173      4174      4174      4174
      4174      4174      4174      4174      4174      4174      4174      4174
      4175      4175      4175      4175      4175      4175      4175      4175
      4175      4175      4175      4176      4176      4176      4176      4176
      4176      4176      4176      4176      4176      4176      4177      4177
      4177      4177      4177      4177      4177      4177      4177      4177
      4177      4178      4178      4178      4178      4178      4178      4178
      4178      4178      4178      4178      4179      4179      4179      4179
      4179      4179      4179      4179      4179      4179      4179      4180
      4180      4180      4180      4180      4180      4180      4180      4180
      4180      4180      4181      4181      4181      4181      4181      4181
      4181      4181      4181      4181      4181      4182      4182      4182
      4182      4182      4182      4182      4182      4182      4182      4182
      4183      4183      4183      4183      4183      4183      4183      4183
      4183      4183      4183      4184      4184      4184      4184      4184
      4184      4184      4184      4184      4184      4184      4185      4185
      4185      4185      4185      4185      4185      4185      4185      4185
      4185      4186      4186      4186      4186      4186      4186      4186
      4186      4186      4186      4186      4187      4187      4187      4187
      4187      4187      4187      4187      4187      4187      4187      4188
      4188      4188      4188      4188      4188      4188      4188      4188
      4188      4188      4189      4189      4189      4189      4189      4189
      4189      4189      4189      4189      4189      4190      4190      4190
      4190      4190      4190      4190      4190      4190      4190      4190
      4191      4191      4191      4191      4191      4191      4191      4191
      4191      4191      4191      4192      4192      4192      4192      4192
      4192      4192      4192      4192      4192      4192      4193      4193
      4193      4193      4193      4193      4193      4193      4193      4193
      4193      4194      4194      4194      4194      4194      4194      4194
      4194      4194      4194      4194      4195      4195      4195      4195
      4195      4195      4195      4195      4195      4195      4195      4196
      4196      4196      4196      4196      4196      4196      4196      4196
      4196      4196      4197      4197      4197      4197      4197      4197
      4197      4197      4197      4197      4197      4198      4198      4198
      4198      4198      4198      4198      4198      4198      4198      4198
      4199      4199      4199      4199      4199      4199      4199      4199
      4199      4199      4199      4200      4200      4200      4200      4200
      4200      4200      4200      4200      4200      4200      4201      4201
      4201      4201      4201      4201      4201      4201      4201      4201
      4201      4202      4202      4202      4202      4202      4202      4202
      4202      4202      4202      4202      4203      4203      4203      4203
      4203      4203      4203      4203      4203      4203      4203      4204
      4204      4204      4204      4204      4204      4204      4204      4204
      4204      4204      4205      4205      4205      4205      4205      4205
      4205      4205      4205      4205      4205      4206      4206      4206
      4206      4206      4206      4206      4206      4206      4206      4206
      4207      4207      4207      4207      4207      4207      4207      4207
      4207      4207      4207      4208      4208      4208      4208      4208
      4208      4208      4208      4208      4208      4208      4209      4209
      4209      4209      4209      4209      4209      4209      4209      4209
      4209      4210      4210      4210      4210      4210      4210      4210
      4210      4210      4210      4210      4211      4211      4211      4211
      4211      4211      4211      4211      4211      4211      4211      4212
      4212      4212      4212      4212      4212      4212      4212      4212
      4212      4212      4213      4213      4213      4213      4213      4213
      4213      4213      4213      4213      4213      4214      4214      4214
      4214      4214      4214      4214      4214      4214      4214      4214
      4215      4215      4215      4215      4215      4215      4215      4215
      4215      4215      4215      4216      4216      4216      4216      4216
      4216      4216      4216      4216      4216      4216      4217      4217
      4217      4217      4217      4217      4217      4217      4217      4217
      4217      4218      4218      4218      4218      4218      4218      4218
      4218      4218      4218      4218      4219      4219      4219      4219
      4219      4219      4219      4219      4219      4219      4219      4220
      4220      4220      4220      4220      4220      4220      4220      4220
      4220      4220      4221      4221      4221      4221      4221      4221
      4221      4221      4221      4221      4221      4222      4222      4222
      4222      4222      4222      4222      4222      4222      4222      4222
      4223      4223      4223      4223      4223      4223      4223      4223
      4223      4223      4223      4224      4224      4224      4224      4224
      4224      4224      4224      4224      4224      4224      4225      4225
      4225      4225      4225      4225      4225      4225      4225      4225
      4225      4226      4226      4226      4226      4226      4226      4226
      4226      4226      4226      4226      4227      4227      4227      4227
      4227      4227      4227      4227      4227      4227      4227      4228
      4228      4228      4228      4228      4228      4228      4228      4228
      4228      4228      4229      4229      4229      4229      4229      4229
      4229      4229      4229      4229      4229      4230      4230      4230
      4230      4230      4230      4230      4230      4230      4230      4230
      4231      4231      4231      4231      4231      4231      4231      4231
      4231      4231      4231      4232      4232      4232      4232      4232
      4232      4232      4232      4232      4232      4232      4233      4233
      4233      4233      4233      4233      4233      4233      4233      4233
      4233      4234      4234      4234      4234      4234      4234      4234
      4234      4234      4234      4234      4235      4235      4235      4235
      4235      4235      4235      4235      4235      4235      4235      4236
      4236      4236      4236      4236      4236      4236      4236      4236
      4236      4236      4237      4237      4237      4237      4237      4237
      4237      4237      4237      4237      4237      4238      4238      4238
      4238      4238      4238      4238      4238      4238      4238      4238
      4239      4239      4239      4239      4239      4239      4239      4239
      4239      4239      4239      4240      4240      4240      4240      4240
      4240      4240      4240      4240      4240      4240      4241      4241
      4241      4241      4241      4241      4241      4241      4241      4241
      4241      4242      4242      4242      4242      4242      4242      4242
      4242      4242      4242      4242      4243      4243      4243      4243
      4243      4243      4243      4243      4243      4243      4243      4244
      4244      4244      4244      4244      4244      4244      4244      4244
      4244      4244      4245      4245      4245      4245      4245      4245
      4245      4245      4245      4245      4245      4246      4246      4246
      4246      4246      4246      4246      4246      4246      4246      4246
      4247      4247      4247      4247      4247      4247      4247      4247
      4247      4247      4247      4248      4248      4248      4248      4248
      4248      4248      4248      4248      4248      4248      4249      4249
      4249      4249      4249      4249      4249      4249      4249      4249
      4249      4250      4250      4250      4250      4250      4250      4250
      4250      4250      4250      4250      4251      4251      4251      4251
      4251      4251      4251      4251      4251      4251      4251      4252
      4252      4252      4252      4252      4252      4252      4252      4252
      4252      4252      4253      4253      4253      4253      4253      4253
      4253      4253      4253      4253      4253      4254      4254      4254
      4254      4254      4254      4254      4254      4254      4254      4254
      4255      4255      4255      4255      4255      4255      4255      4255
      4255      4255      4255      4256      4256      4256      4256      4256
      4256      4256      4256      4256      4256      4256      4257      4257
      4257      4257      4257      4257      4257      4257      4257      4257
      4257      4258      4258      4258      4258      4258      4258      4258
      4258      4258      4258      4258      4259      4259      4259      4259
      4259      4259      4259      4259      4259      4259      4259      4260
      4260      4260      4260      4260      4260      4260      4260      4260
      4260      4260      4261      4261      4261      4261      4261      4261
      4261      4261      4261      4261      4261      4262      4262      4262
      4262      4262      4262      4262      4262      4262      4262      4262
      4263      4263      4263      4263      4263      4263      4263      4263
      4263      4263      4263      4264      4264      4264      4264      4264
      4264      4264      4264      4264      4264      4264      4265      4265
      4265      4265      4265      4265      4265      4265      4265      4265
      4265      4266      4266      4266      4266      4266      4266      4266
      4266      4266      4266      4266      4267      4267      4267      4267
      4267      4267      4267      4267      4267      4267      4267      4268
      4268      4268      4268      4268      4268      4268      4268      4268
      4268      4268      4269      4269      4269      4269      4269      4269
      4269      4269      4269      4269      4269      4270      4270      4270
      4270      4270      4270      4270      4270      4270      4270      4270
      4271      4271      4271      4271      4271      4271      4271      4271
      4271      4271      4271      4272      4272      4272      4272      4272
      4272      4272      4272      4272      4272      4272      4273      4273
      4273      4273      4273      4273      4273      4273      4273      4273
      4273      4274      4274      4274      4274      4274      4274      4274
      4274      4274      4274      4274      4275      4275      4275      4275
      4275      4275      4275      4275      4275      4275      4275      4276
      4276      4276      4276      4276      4276      4276      4276      4276
      4276      4276      4277      4277      4277      4277      4277      4277
      4277      4277      4277      4277      4277      4278      4278      4278
      4278      4278      4278      4278      4278      4278      4278      4278
      4279      4279      4279      4279      4279      4279      4279      4279
      4279      4279      4279      4280      4280      4280      4280      4280
      4280      4280      4280      4280      4280      4280      4281      4281
      4281      4281      4281      4281      4281      4281      4281      4281
      4281      4282      4282      4282      4282      4282      4282      4282
      4282      4282      4282      4282      4283      4283      4283      4283
      4283      4283      4283      4283      4283      4283      4283      4284
      4284      4284      4284      4284      4284      4284      4284      4284
      4284      4284      4285      4285      4285      4285      4285      4285
      4285      4285      4285      4285      4285      4286      4286      4286
      4286      4286      4286      4286      4286      4286      4286      4286
      4287      4287      4287      4287      4287      4287      4287      4287
      4287      4287      4287      4288      4288      4288      4288      4288
      4288      4288      4288      4288      4288      4288      4289      4289
      4289      4289      4289      4289      4289      4289      4289      4289
      4289      4290      4290      4290      4290      4290      4290      4290
      4290      4290      4290      4290      4291      4291      4291      4291
      4291      4291      4291      4291      4291      4291      4291      4292
      4292      4292      4292      4292      4292      4292      4292      4292
      4292      4292      4293      4293      4293      4293      4293      4293
      4293      4293      4293      4293      4293      4294      4294      4294
      4294      4294      4294      4294      4294      4294      4294      4294
      4295      4295      4295      4295      4295      4295      4295      4295
      4295      4295      4295      4296      4296      4296      4296      4296
      4296      4296      4296      4296      4296      4296      4297      4297
      4297      4297      4297      4297      4297      4297      4297      4297
      4297      4298      4298      4298      4298      4298      4298      4298
      4298      4298      4298      4298      4299      4299      4299      4299
      4299      4299      4299      4299      4299      4299      4299      4300
      4300      4300      4300      4300      4300      4300      4300      4300
      4300      4300      4301      4301      4301      4301      4301      4301
      4301      4301      4301      4301      4301      4302      4302      4302
      4302      4302      4302      4302      4302      4302      4302      4302
      4303      4303      4303      4303      4303      4303      4303      4303
      4303      4303      4303      4304      4304      4304      4304      4304
      4304      4304      4304      4304      4304      4304      4305      4305
      4305      4305      4305      4305      4305      4305      4305      4305
      4305      4306      4306      4306      4306      4306      4306      4306
      4306      4306      4306      4306      4307      4307      4307      4307
      4307      4307      4307      4307      4307      4307      4307      4308
      4308      4308      4308      4308      4308      4308      4308      4308
      4308      4308      4309      4309      4309      4309      4309      4309
      4309      4309      4309      4309      4309      4310      4310      4310
      4310      4310      4310      4310      4310      4310      4310      4310
      4311      4311      4311      4311      4311      4311      4311      4311
      4311      4311      4311      4312      4312      4312      4312      4312
      4312      4312      4312      4312      4312      4312      4313      4313
      4313      4313      4313      4313      4313      4313      4313      4313
      4313      4314      4314      4314      4314      4314      4314      4314
      4314      4314      4314      4314      4315      4315      4315      4315
      4315      4315      4315      4315      4315      4315      4315      4316
      4316      4316      4316      4316      4316      4316      4316      4316
      4316      4316      4317      4317      4317      4317      4317      4317
      4317      4317      4317      4317      4317      4318      4318      4318
      4318      4318      4318      4318      4318      4318      4318      4318
      4319      4319      4319      4319      4319      4319      4319      4319
      4319      4319      4319      4320      4320      4320      4320      4320
      4320      4320      4320      4320      4320      4320      4321      4321
      4321      4321      4321      4321      4321      4321      4321      4321
      4321      4322      4322      4322      4322      4322      4322      4322
      4322      4322      4322      4322      4323      4323      4323      4323
      4323      4323      4323      4323      4323      4323      4323      4324
      4324      4324      4324      4324      4324      4324      4324      4324
      4324      4324      4325      4325      4325      4325      4325      4325
      4325      4325      4325      4325      4325      4326      4326      4326
      4326      4326      4326      4326      4326      4326      4326      4326
      4327      4327      4327      4327      4327      4327      4327      4327
      4327      4327      4327      4328      4328      4328      4328      4328
      4328      4328      4328      4328      4328      4328      4329      4329
      4329      4329      4329      4329      4329      4329      4329      4329
      4329      4330      4330      4330      4330      4330      4330      4330
      4330      4330      4330      4330      4331      4331      4331      4331
      4331      4331      4331      4331      4331      4331      4331      4332
      4332      4332      4332      4332      4332      4332      4332      4332
      4332      4332      4333      4333      4333      4333      4333      4333
      4333      4333      4333      4333      4333      4334      4334      4334
      4334      4334      4334      4334      4334      4334      4334      4334
      4335      4335      4335      4335      4335      4335      4335      4335
      4335      4335      4335      4336      4336      4336      4336      4336
      4336      4336      4336      4336      4336      4336      4337      4337
      4337      4337      4337      4337      4337      4337      4337      4337
      4337      4338      4338      4338      4338      4338      4338      4338
      4338      4338      4338      4338      4339      4339      4339      4339
      4339      4339      4339      4339      4339      4339      4339      4340
      4340      4340      4340      4340      4340      4340      4340      4340
      4340      4340      4341      4341      4341      4341      4341      4341
      4341      4341      4341      4341      4341      4342      4342      4342
      4342      4342      4342      4342      4342      4342      4342      4342
      4343      4343      4343      4343      4343      4343      4343      4343
      4343      4343      4343      4344      4344      4344      4344      4344
      4344      4344      4344      4344      4344      4344      4345      4345
      4345      4345      4345      4345      4345      4345      4345      4345
      4345      4346      4346      4346      4346      4346      4346      4346
      4346      4346      4346      4346      4347      4347      4347      4347
      4347      4347      4347      4347      4347      4347      4347      4348
      4348      4348      4348      4348      4348      4348      4348      4348
      4348      4348      4349      4349      4349      4349      4349      4349
      4349      4349      4349      4349      4349      4350      4350      4350
      4350      4350      4350      4350      4350      4350      4350      4350
      4351      4351      4351      4351      4351      4351      4351      4351
      4351      4351      4351      4352      4352      4352      4352      4352
      4352      4352      4352      4352      4352      4352      4353      4353
      4353      4353      4353      4353      4353      4353      4353      4353
      4353      4354      4354      4354      4354      4354      4354      4354
      4354      4354      4354      4354      4355      4355      4355      4355
      4355      4355      4355      4355      4355      4355      4355      4356
      4356      4356      4356      4356      4356      4356      4356      4356
      4356      4356      4357      4357      4357      4357      4357      4357
      4357      4357      4357      4357      4357      4358      4358      4358
      4358      4358      4358      4358      4358      4358      4358      4358
      4359      4359      4359      4359      4359      4359      4359      4359
      4359      4359      4359      4360      4360      4360      4360      4360
      4360      4360      4360      4360      4360      4360      4361      4361
      4361      4361      4361      4361      4361      4361      4361      4361
      4361      4362      4362      4362      4362      4362      4362      4362
      4362      4362      4362      4362      4363      4363      4363      4363
      4363      4363      4363      4363      4363      4363      4363      4364
      4364      4364      4364      4364      4364      4364      4364      4364
      4364      4364      4365      4365      4365      4365      4365      4365
      4365      4365      4365      4365      4365      4366      4366      4366
      4366      4366      4366      4366      4366      4366      4366      4366
      4367      4367      4367      4367      4367      4367      4367      4367
      4367      4367      4367      4368      4368      4368      4368      4368
      4368      4368      4368      4368      4368      4368      4369      4369
      4369      4369      4369      4369      4369      4369      4369      4369
      4369      4370      4370      4370      4370      4370      4370      4370
      4370      4370      4370      4370      4371      4371      4371      4371
      4371      4371      4371      4371      4371      4371      4371      4372
      4372      4372      4372      4372      4372      4372      4372      4372
      4372      4372      4373      4373      4373      4373      4373      4373
      4373      4373      4373      4373      4373      4374      4374      4374
      4374      4374      4374      4374      4374      4374      4374      4374
      4375      4375      4375      4375      4375      4375      4375      4375
      4375      4375      4375      4376      4376      4376      4376      4376
      4376      4376      4376      4376      4376      4376      4377      4377
      4377      4377      4377      4377      4377      4377      4377      4377
      4377      4378      4378      4378      4378      4378      4378      4378
      4378      4378      4378      4378      4379      4379      4379      4379
      4379      4379      4379      4379      4379      4379      4379      4380
      4380      4380      4380      4380      4380      4380      4380      4380
      4380      4380      4381      4381      4381      4381      4381      4381
      4381      4381      4381      4381      4381      4382      4382      4382
      4382      4382      4382      4382      4382      4382      4382      4382
      4383      4383      4383      4383      4383      4383      4383      4383
      4383      4383      4383      4384      4384      4384      4384      4384
      4384      4384      4384      4384      4384      4384      4385      4385
      4385      4385      4385      4385      4385      4385      4385      4385
      4385      4386      4386      4386      4386      4386      4386      4386
      4386      4386      4386      4386      4387      4387      4387      4387
      4387      4387      4387      4387      4387      4387      4387      4388
      4388      4388      4388      4388      4388      4388      4388      4388
      4388      4388      4389      4389      4389      4389      4389      4389
      4389      4389      4389      4389      4389      4390      4390      4390
      4390      4390      4390      4390      4390      4390      4390      4390
      4391      4391      4391      4391      4391      4391      4391      4391
      4391      4391      4391      4392      4392      4392      4392      4392
      4392      4392      4392      4392      4392      4392      4393      4393
      4393      4393      4393      4393      4393      4393      4393      4393
      4393      4394      4394      4394      4394      4394      4394      4394
      4394      4394      4394      4394      4395      4395      4395      4395
      4395      4395      4395      4395      4395      4395      4395      4396
      4396      4396      4396      4396      4396      4396      4396      4396
      4396      4396      4397      4397      4397      4397      4397      4397
      4397      4397      4397      4397      4397      4398      4398      4398
      4398      4398      4398      4398      4398      4398      4398      4398
      4399      4399      4399      4399      4399      4399      4399      4399
      4399      4399      4399      4400      4400      4400      4400      4400
      4400      4400      4400      4400      4400      4400      4401      4401
      4401      4401      4401      4401      4401      4401      4401      4401
      4401      4402      4402      4402      4402      4402      4402      4402
      4402      4402      4402      4402      4403      4403      4403      4403
      4403      4403      4403      4403      4403      4403      4403      4404
      4404      4404      4404      4404      4404      4404      4404      4404
      4404      4404      4405      4405      4405      4405      4405      4405
      4405      4405      4405      4405      4405      4406      4406      4406
      4406      4406      4406      4406      4406      4406      4406      4406
      4407      4407      4407      4407      4407      4407      4407      4407
      4407      4407      4407      4408      4408      4408      4408      4408
      4408      4408      4408      4408      4408      4408      4409      4409
      4409      4409      4409      4409      4409      4409      4409      4409
      4409      4410      4410      4410      4410      4410      4410      4410
      4410      4410      4410      4410      4411      4411      4411      4411
      4411      4411      4411      4411      4411      4411      4411      4412
      4412      4412      4412      4412      4412      4412      4412      4412
      4412      4412      4413      4413      4413      4413      4413      4413
      4413      4413      4413      4413      4413      4414      4414      4414
      4414      4414      4414      4414      4414      4414      4414      4414
      4415      4415      4415      4415      4415      4415      4415      4415
      4415      4415      4415      4416      4416      4416      4416      4416
      4416      4416      4416      4416      4416      4416      4417      4417
      4417      4417      4417      4417      4417      4417      4417      4417
      4417      4418      4418      4418      4418      4418      4418      4418
      4418      4418      4418      4418      4419      4419      4419      4419
      4419      4419      4419      4419      4419      4419      4419      4420
      4420      4420      4420      4420      4420      4420      4420      4420
      4420      4420      4421      4421      4421      4421      4421      4421
      4421      4421      4421      4421      4421      4422      4422      4422
      4422      4422      4422      4422      4422      4422      4422      4422
      4423      4423      4423      4423      4423      4423      4423      4423
      4423      4423      4423      4424      4424      4424      4424      4424
      4424      4424      4424      4424      4424      4424      4425      4425
      4425      4425      4425      4425      4425      4425      4425      4425
      4425      4426      4426      4426      4426      4426      4426      4426
      4426      4426      4426      4426      4427      4427      4427      4427
      4427      4427      4427      4427      4427      4427      4427      4428
      4428      4428      4428      4428      4428      4428      4428      4428
      4428      4428      4429      4429      4429      4429      4429      4429
      4429      4429      4429      4429      4429      4430      4430      4430
      4430      4430      4430      4430      4430      4430      4430      4430
      4431      4431      4431      4431      4431      4431      4431      4431
      4431      4431      4431      4432      4432      4432      4432      4432
      4432      4432      4432      4432      4432      4432      4433      4433
      4433      4433      4433      4433      4433      4433      4433      4433
      4433      4434      4434      4434      4434      4434      4434      4434
      4434      4434      4434      4434      4435      4435      4435      4435
      4435      4435      4435      4435      4435      4435      4435      4436
      4436      4436      4436      4436      4436      4436      4436      4436
      4436      4436      4437      4437      4437      4437      4437      4437
      4437      4437      4437      4437      4437      4438      4438      4438
      4438      4438      4438      4438      4438      4438      4438      4438
      4439      4439      4439      4439      4439      4439      4439      4439
      4439      4439      4439      4440      4440      4440      4440      4440
      4440      4440      4440      4440      4440      4440      4441      4441
      4441      4441      4441      4441      4441      4441      4441      4441
      4441      4442      4442      4442      4442      4442      4442      4442
      4442      4442      4442      4442      4443      4443      4443      4443
      4443      4443      4443      4443      4443      4443      4443      4444
      4444      4444      4444      4444      4444      4444      4444      4444
      4444      4444      4445      4445      4445      4445      4445      4445
      4445      4445      4445      4445      4445      4446      4446      4446
      4446      4446      4446      4446      4446      4446      4446      4446
      4447      4447      4447      4447      4447      4447      4447      4447
      4447      4447      4447      4448      4448      4448      4448      4448
      4448      4448      4448      4448      4448      4448      4449      4449
      4449      4449      4449      4449      4449      4449      4449      4449
      4449      4450      4450      4450      4450      4450      4450      4450
      4450      4450      4450      4450      4451      4451      4451      4451
      4451      4451      4451      4451      4451      4451      4451      4452
      4452      4452      4452      4452      4452      4452      4452      4452
      4452      4452      4453      4453      4453      4453      4453      4453
      4453      4453      4453      4453      4453      4454      4454      4454
      4454      4454      4454      4454      4454      4454      4454      4454
      4455      4455      4455      4455      4455      4455      4455      4455
      4455      4455      4455      4456      4456      4456      4456      4456
      4456      4456      4456      4456      4456      4456      4457      4457
      4457      4457      4457      4457      4457      4457      4457      4457
      4457

      9494     37976 !NUMLP NUMLPH
         3         1   F  -0.30000     179.99000     179.99000
         3         5   F  -0.30000     179.99000     179.99000
         3         9   F  -0.30000     179.99000     179.99000
         3        13   F  -0.30000     179.99000     179.99000
         3        17   F  -0.30000     179.99000     179.99000
         3        21   F  -0.30000     179.99000     179.99000
         3        25   F  -0.30000     179.99000     179.99000
         3        29   F  -0.30000     179.99000     179.99000
         3        33   F  -0.30000     179.99000     179.99000
         3        37   F  -0.30000     179.99000     179.99000
         3        41   F  -0.30000     179.99000     179.99000
         3        45   F  -0.30000     179.99000     179.99000
         3        49   F  -0.30000     179.99000     179.99000
         3        53   F  -0.30000     179.99000     179.99000
         3        57   F  -0.30000     179.99000     179.99000
         3        61   F  -0.30000     179.99000     179.99000
         3        65   F  -0.30000     179.99000     179.99000
         3        69   F  -0.30000     179.99000     179.99000
         3        73   F  -0.30000     179.99000     179.99000
         3        77   F  -0.30000     179.99000     179.99000
         3        81   F  -0.30000     179.99000     179.99000
         3        85   F  -0.30000     179.99000     179.99000
         3        89   F  -0.30000     179.99000     179.99000
         3        93   F  -0.30000     179.99000     179.99000
         3        97   F  -0.30000     179.99000     179.99000
         3       101   F  -0.30000     179.99000     179.99000
         3       105   F  -0.30000     179.99000     179.99000
         3       109   F  -0.30000     179.99000     179.99000
         3       113   F  -0.30000     179.99000     179.99000
         3       117   F  -0.30000     179.99000     179.99000
         3       121   F  -0.30000     179.99000     179.99000
         3       125   F  -0.30000     179.99000     179.99000
         3       129   F  -0.30000     179.99000     179.99000
         3       133   F  -0.30000     179.99000     179.99000
         3       137   F  -0.30000     179.99000     179.99000
         3       141   F  -0.30000     179.99000     179.99000
         3       145   F  -0.30000     179.99000     179.99000
         3       149   F  -0.30000     179.99000     179.99000
         3       153   F  -0.30000     179.99000     179.99000
         3       157   F  -0.30000     179.99000     179.99000
         3       161   F  -0.30000     179.99000     179.99000
         3       165   F  -0.30000     179.99000     179.99000
         3       169   F  -0.30000     179.99000     179.99000
         3       173   F  -0.30000     179.99000     179.99000
         3       177   F  -0.30000     179.99000     179.99000
         3       181   F  -0.30000     179.99000     179.99000
         3       185   F  -0.30000     179.99000     179.99000
         3       189   F  -0.30000     179.99000     179.99000
         3       193   F  -0.30000     179.99000     179.99000
         3       197   F  -0.30000     179.99000     179.99000
         3       201   F  -0.30000     179.99000     179.99000
         3       205   F  -0.30000     179.99000     179.99000
         3       209   F  -0.30000     179.99000     179.99000
         3       213   F  -0.30000     179.99000     179.99000
         3       217   F  -0.30000     179.99000     179.99000
         3       221   F  -0.30000     179.99000     179.99000
         3       225   F  -0.30000     179.99000     179.99000
         3       229   F  -0.30000     179.99000     179.99000
         3       233   F  -0.30000     179.99000     179.99000
         3       237   F  -0.30000     179.99000     179.99000
         3       241   F  -0.30000     179.99000     179.99000
         3       245   F  -0.30000     179.99000     179.99000
         3       249   F  -0.30000     179.99000     179.99000
         3       253   F  -0.30000     179.99000     179.99000
         3       257   F  -0.30000     179.99000     179.99000
         3       261   F  -0.30000     179.99000     179.99000
         3       265   F  -0.30000     179.99000     179.99000
         3       269   F  -0.30000     179.99000     179.99000
         3       273   F  -0.30000     179.99000     179.99000
         3       277   F  -0.30000     179.99000     179.99000
         3       281   F  -0.30000     179.99000     179.99000
         3       285   F  -0.30000     179.99000     179.99000
         3       289   F  -0.30000     179.99000     179.99000
         3       293   F  -0.30000     179.99000     179.99000
         3       297   F  -0.30000     179.99000     179.99000
         3       301   F  -0.30000     179.99000     179.99000
         3       305   F  -0.30000     179.99000     179.99000
         3       309   F  -0.30000     179.99000     179.99000
         3       313   F  -0.30000     179.99000     179.99000
         3       317   F  -0.30000     179.99000     179.99000
         3       321   F  -0.30000     179.99000     179.99000
         3       325   F  -0.30000     179.99000     179.99000
         3       329   F  -0.30000     179.99000     179.99000
         3       333   F  -0.30000     179.99000     179.99000
         3       337   F  -0.30000     179.99000     179.99000
         3       341   F  -0.30000     179.99000     179.99000
         3       345   F  -0.30000     179.99000     179.99000
         3       349   F  -0.30000     179.99000     179.99000
         3       353   F  -0.30000     179.99000     179.99000
         3       357   F  -0.30000     179.99000     179.99000
         3       361   F  -0.30000     179.99000     179.99000
         3       365   F  -0.30000     179.99000     179.99000
         3       369   F  -0.30000     179.99000     179.99000
         3       373   F  -0.30000     179.99000     179.99000
         3       377   F  -0.30000     179.99000     179.99000
         3       381   F  -0.30000     179.99000     179.99000
         3       385   F  -0.30000     179.99000     179.99000
         3       389   F  -0.30000     179.99000     179.99000
         3       393   F  -0.30000     179.99000     179.99000
         3       397   F  -0.30000     179.99000     179.99000
         3       401   F  -0.30000     179.99000     179.99000
         3       405   F  -0.30000     179.99000     179.99000
         3       409   F  -0.30000     179.99000     179.99000
         3       413   F  -0.30000     179.99000     179.99000
         3       417   F  -0.30000     179.99000     179.99000
         3       421   F  -0.30000     179.99000     179.99000
         3       425   F  -0.30000     179.99000     179.99000
         3       429   F  -0.30000     179.99000     179.99000
         3       433   F  -0.30000     179.99000     179.99000
         3       437   F  -0.30000     179.99000     179.99000
         3       441   F  -0.30000     179.99000     179.99000
         3       445   F  -0.30000     179.99000     179.99000
         3       449   F  -0.30000     179.99000     179.99000
         3       453   F  -0.30000     179.99000     179.99000
         3       457   F  -0.30000     179.99000     179.99000
         3       461   F  -0.30000     179.99000     179.99000
         3       465   F  -0.30000     179.99000     179.99000
         3       469   F  -0.30000     179.99000     179.99000
         3       473   F  -0.30000     179.99000     179.99000
         3       477   F  -0.30000     179.99000     179.99000
         3       481   F  -0.30000     179.99000     179.99000
         3       485   F  -0.30000     179.99000     179.99000
         3       489   F  -0.30000     179.99000     179.99000
         3       493   F  -0.30000     179.99000     179.99000
         3       497   F  -0.30000     179.99000     179.99000
         3       501   F  -0.30000     179.99000     179.99000
         3       505   F  -0.30000     179.99000     179.99000
         3       509   F  -0.30000     179.99000     179.99000
         3       513   F  -0.30000     179.99000     179.99000
         3       517   F  -0.30000     179.99000     179.99000
         3       521   F  -0.30000     179.99000     179.99000
         3       525   F  -0.30000     179.99000     179.99000
         3       529   F  -0.30000     179.99000     179.99000
         3       533   F  -0.30000     179.99000     179.99000
         3       537   F  -0.30000     179.99000     179.99000
         3       541   F  -0.30000     179.99000     179.99000
         3       545   F  -0.30000     179.99000     179.99000
         3       549   F  -0.30000     179.99000     179.99000
         3       553   F  -0.30000     179.99000     179.99000
         3       557   F  -0.30000     179.99000     179.99000
         3       561   F  -0.30000     179.99000     179.99000
         3       565   F  -0.30000     179.99000     179.99000
         3       569   F  -0.30000     179.99000     179.99000
         3       573   F  -0.30000     179.99000     179.99000
         3       577   F  -0.30000     179.99000     179.99000
         3       581   F  -0.30000     179.99000     179.99000
         3       585   F  -0.30000     179.99000     179.99000
         3       589   F   0.35000     110.00000       0.00000
         3       593   F   0.35000     110.00000     180.00000
         3       597   F   0.35000     110.00000       0.00000
         3       601   F   0.35000     110.00000     180.00000
         3       605   F   0.35000     110.00000       0.00000
         3       609   F   0.35000     110.00000     180.00000
         3       613   F   0.35000     110.00000       0.00000
         3       617   F   0.35000     110.00000     180.00000
         3       621   F   0.35000     110.00000       0.00000
         3       625   F   0.35000     110.00000     180.00000
         3       629   F   0.35000     110.00000       0.00000
         3       633   F   0.35000     110.00000     180.00000
         3       637   F   0.35000     110.00000       0.00000
         3       641   F   0.35000     110.00000     180.00000
         3       645   F   0.35000     110.00000       0.00000
         3       649   F   0.35000     110.00000     180.00000
         3       653   F   0.35000     110.00000       0.00000
         3       657   F   0.35000     110.00000     180.00000
         3       661   F   0.35000     110.00000       0.00000
         3       665   F   0.35000     110.00000     180.00000
         3       669   F   0.35000     110.00000       0.00000
         3       673   F   0.35000     110.00000     180.00000
         3       677   F   0.35000     110.00000       0.00000
         3       681   F   0.35000     110.00000     180.00000
         3       685   F   0.35000     110.00000       0.00000
         3       689   F   0.35000     110.00000     180.00000
         3       693   F   0.35000     110.00000       0.00000
         3       697   F   0.35000     110.00000     180.00000
         3       701   F   0.35000     110.00000       0.00000
         3       705   F   0.35000     110.00000     180.00000
         3       709   F   0.35000     110.00000       0.00000
         3       713   F   0.35000     110.00000     180.00000
         3       717   F   0.35000     110.00000       0.00000
         3       721   F   0.35000     110.00000     180.00000
         3       725   F   0.35000     110.00000       0.00000
         3       729   F   0.35000     110.00000     180.00000
         3       733   F   0.35000     110.00000       0.00000
         3       737   F   0.35000     110.00000     180.00000
         3       741   F   0.35000     110.00000       0.00000
         3       745   F   0.35000     110.00000     180.00000
         3       749   F   0.35000     110.00000       0.00000
         3       753   F   0.35000     110.00000     180.00000
         3       757   F   0.35000     110.00000       0.00000
         3       761   F   0.35000     110.00000     180.00000
         3       765   F   0.35000     110.00000       0.00000
         3       769   F   0.35000     110.00000     180.00000
         3       773   F   0.35000     110.00000       0.00000
         3       777   F   0.35000     110.00000     180.00000
         3       781   F   0.35000     110.00000       0.00000
         3       785   F   0.35000     110.00000     180.00000
         3       789   F   0.35000     110.00000       0.00000
         3       793   F   0.35000     110.00000     180.00000
         3       797   F   0.35000     110.00000       0.00000
         3       801   F   0.35000     110.00000     180.00000
         3       805   F   0.35000     110.00000       0.00000
         3       809   F   0.35000     110.00000     180.00000
         3       813   F   0.35000     110.00000       0.00000
         3       817   F   0.35000     110.00000     180.00000
         3       821   F   0.35000     110.00000       0.00000
         3       825   F   0.35000     110.00000     180.00000
         3       829   F   0.35000     110.00000       0.00000
         3       833   F   0.35000     110.00000     180.00000
         3       837   F   0.35000     110.00000       0.00000
         3       841   F   0.35000     110.00000     180.00000
         3       845   F   0.35000     110.00000       0.00000
         3       849   F   0.35000     110.00000     180.00000
         3       853   F   0.35000     110.00000       0.00000
         3       857   F   0.35000     110.00000     180.00000
         3       861   F   0.35000     110.00000       0.00000
         3       865   F   0.35000     110.00000     180.00000
         3       869   F   0.35000     110.00000       0.00000
         3       873   F   0.35000     110.00000     180.00000
         3       877   F   0.35000     110.00000       0.00000
         3       881   F   0.35000     110.00000     180.00000
         3       885   F   0.35000     110.00000       0.00000
         3       889   F   0.35000     110.00000     180.00000
         3       893   F   0.35000     110.00000       0.00000
         3       897   F   0.35000     110.00000     180.00000
         3       901   F   0.35000     110.00000       0.00000
         3       905   F   0.35000     110.00000     180.00000
         3       909   F   0.35000     110.00000       0.00000
         3       913   F   0.35000     110.00000     180.00000
         3       917   F   0.35000     110.00000       0.00000
         3       921   F   0.35000     110.00000     180.00000
         3       925   F   0.35000     110.00000       0.00000
         3       929   F   0.35000     110.00000     180.00000
         3       933   F   0.35000     110.00000       0.00000
         3       937   F   0.35000     110.00000     180.00000
         3       941   F   0.35000     110.00000       0.00000
         3       945   F   0.35000     110.00000     180.00000
         3       949   F   0.35000     110.00000       0.00000
         3       953   F   0.35000     110.00000     180.00000
         3       957   F   0.35000     110.00000       0.00000
         3       961   F   0.35000     110.00000     180.00000
         3       965   F   0.35000     110.00000       0.00000
         3       969   F   0.35000     110.00000     180.00000
         3       973   F   0.35000     110.00000       0.00000
         3       977   F   0.35000     110.00000     180.00000
         3       981   F   0.35000     110.00000       0.00000
         3       985   F   0.35000     110.00000     180.00000
         3       989   F   0.35000     110.00000       0.00000
         3       993   F   0.35000     110.00000     180.00000
         3       997   F   0.35000     110.00000       0.00000
         3      1001   F   0.35000     110.00000     180.00000
         3      1005   F   0.35000     110.00000       0.00000
         3      1009   F   0.35000     110.00000     180.00000
         3      1013   F   0.35000     110.00000       0.00000
         3      1017   F   0.35000     110.00000     180.00000
         3      1021   F   0.35000     110.00000       0.00000
         3      1025   F   0.35000     110.00000     180.00000
         3      1029   F   0.35000     110.00000       0.00000
         3      1033   F   0.35000     110.00000     180.00000
         3      1037   F   0.35000     110.00000       0.00000
         3      1041   F   0.35000     110.00000     180.00000
         3      1045   F   0.35000     110.00000       0.00000
         3      1049   F   0.35000     110.00000     180.00000
         3      1053   F   0.35000     110.00000       0.00000
         3      1057   F   0.35000     110.00000     180.00000
         3      1061   F   0.35000     110.00000       0.00000
         3      1065   F   0.35000     110.00000     180.00000
         3      1069   F   0.35000     110.00000       0.00000
         3      1073   F   0.35000     110.00000     180.00000
         3      1077   F   0.35000     110.00000       0.00000
         3      1081   F   0.35000     110.00000     180.00000
         3      1085   F   0.35000     110.00000       0.00000
         3      1089   F   0.35000     110.00000     180.00000
         3      1093   F   0.35000     110.00000       0.00000
         3      1097   F   0.35000     110.00000     180.00000
         3      1101   F   0.35000     110.00000       0.00000
         3      1105   F   0.35000     110.00000     180.00000
         3      1109   F   0.35000     110.00000       0.00000
         3      1113   F   0.35000     110.00000     180.00000
         3      1117   F   0.35000     110.00000       0.00000
         3      1121   F   0.35000     110.00000     180.00000
         3      1125   F   0.35000     110.00000       0.00000
         3      1129   F   0.35000     110.00000     180.00000
         3      1133   F   0.35000     110.00000       0.00000
         3      1137   F   0.35000     110.00000     180.00000
         3      1141   F   0.35000     110.00000       0.00000
         3      1145   F   0.35000     110.00000     180.00000
         3      1149   F   0.35000     110.00000       0.00000
         3      1153   F   0.35000     110.00000     180.00000
         3      1157   F   0.35000     110.00000       0.00000
         3      1161   F   0.35000     110.00000     180.00000
         3      1165   F   0.35000     110.00000       0.00000
         3      1169   F   0.35000     110.00000     180.00000
         3      1173   F   0.35000     110.00000       0.00000
         3      1177   F   0.35000     110.00000     180.00000
         3      1181   F   0.35000     110.00000       0.00000
         3      1185   F   0.35000     110.00000     180.00000
         3      1189   F   0.35000     110.00000       0.00000
         3      1193   F   0.35000     110.00000     180.00000
         3      1197   F   0.35000     110.00000       0.00000
         3      1201   F   0.35000     110.00000     180.00000
         3      1205   F   0.35000     110.00000       0.00000
         3      1209   F   0.35000     110.00000     180.00000
         3      1213   F   0.35000     110.00000       0.00000
         3      1217   F   0.35000     110.00000     180.00000
         3      1221   F   0.35000     110.00000       0.00000
         3      1225   F   0.35000     110.00000     180.00000
         3      1229   F   0.35000     110.00000       0.00000
         3      1233   F   0.35000     110.00000     180.00000
         3      1237   F   0.35000     110.00000       0.00000
         3      1241   F   0.35000     110.00000     180.00000
         3      1245   F   0.35000     110.00000       0.00000
         3      1249   F   0.35000     110.00000     180.00000
         3      1253   F   0.35000     110.00000       0.00000
         3      1257   F   0.35000     110.00000     180.00000
         3      1261   F   0.35000     110.00000       0.00000
         3      1265   F   0.35000     110.00000     180.00000
         3      1269   F   0.35000     110.00000       0.00000
         3      1273   F   0.35000     110.00000     180.00000
         3      1277   F   0.35000     110.00000       0.00000
         3      1281   F   0.35000     110.00000     180.00000
         3      1285   F   0.35000     110.00000       0.00000
         3      1289   F   0.35000     110.00000     180.00000
         3      1293   F   0.35000     110.00000       0.00000
         3      1297   F   0.35000     110.00000     180.00000
         3      1301   F   0.35000     110.00000       0.00000
         3      1305   F   0.35000     110.00000     180.00000
         3      1309   F   0.35000     110.00000       0.00000
         3      1313   F   0.35000     110.00000     180.00000
         3      1317   F   0.35000     110.00000       0.00000
         3      1321   F   0.35000     110.00000     180.00000
         3      1325   F   0.35000     110.00000       0.00000
         3      1329   F   0.35000     110.00000     180.00000
         3      1333   F   0.35000     110.00000       0.00000
         3      1337   F   0.35000     110.00000     180.00000
         3      1341   F   0.35000     110.00000       0.00000
         3      1345   F   0.35000     110.00000     180.00000
         3      1349   F   0.35000     110.00000       0.00000
         3      1353   F   0.35000     110.00000     180.00000
         3      1357   F   0.35000     110.00000       0.00000
         3      1361   F   0.35000     110.00000     180.00000
         3      1365   F   0.35000     110.00000       0.00000
         3      1369   F   0.35000     110.00000     180.00000
         3      1373   F   0.35000     110.00000       0.00000
         3      1377   F   0.35000     110.00000     180.00000
         3      1381   F   0.35000     110.00000       0.00000
         3      1385   F   0.35000     110.00000     180.00000
         3      1389   F   0.35000     110.00000       0.00000
         3      1393   F   0.35000     110.00000     180.00000
         3      1397   F   0.35000     110.00000       0.00000
         3      1401   F   0.35000     110.00000     180.00000
         3      1405   F   0.35000     110.00000       0.00000
         3      1409   F   0.35000     110.00000     180.00000
         3      1413   F   0.35000     110.00000       0.00000
         3      1417   F   0.35000     110.00000     180.00000
         3      1421   F   0.35000     110.00000       0.00000
         3      1425   F   0.35000     110.00000     180.00000
         3      1429   F   0.35000     110.00000       0.00000
         3      1433   F   0.35000     110.00000     180.00000
         3      1437   F   0.35000     110.00000       0.00000
         3      1441   F   0.35000     110.00000     180.00000
         3      1445   F   0.35000     110.00000       0.00000
         3      1449   F   0.35000     110.00000     180.00000
         3      1453   F   0.35000     110.00000       0.00000
         3      1457   F   0.35000     110.00000     180.00000
         3      1461   F   0.35000     110.00000       0.00000
         3      1465   F   0.35000     110.00000     180.00000
         3      1469   F   0.35000     110.00000       0.00000
         3      1473   F   0.35000     110.00000     180.00000
         3      1477   F   0.35000     110.00000       0.00000
         3      1481   F   0.35000     110.00000     180.00000
         3      1485   F   0.35000     110.00000       0.00000
         3      1489   F   0.35000     110.00000     180.00000
         3      1493   F   0.35000     110.00000       0.00000
         3      1497   F   0.35000     110.00000     180.00000
         3      1501   F   0.35000     110.00000       0.00000
         3      1505   F   0.35000     110.00000     180.00000
         3      1509   F   0.35000     110.00000       0.00000
         3      1513   F   0.35000     110.00000     180.00000
         3      1517   F   0.35000     110.00000       0.00000
         3      1521   F   0.35000     110.00000     180.00000
         3      1525   F   0.35000     110.00000       0.00000
         3      1529   F   0.35000     110.00000     180.00000
         3      1533   F   0.35000     110.00000       0.00000
         3      1537   F   0.35000     110.00000     180.00000
         3      1541   F   0.35000     110.00000       0.00000
         3      1545   F   0.35000     110.00000     180.00000
         3      1549   F   0.35000     110.00000       0.00000
         3      1553   F   0.35000     110.00000     180.00000
         3      1557   F   0.35000     110.00000       0.00000
         3      1561   F   0.35000     110.00000     180.00000
         3      1565   F   0.35000     110.00000       0.00000
         3      1569   F   0.35000     110.00000     180.00000
         3      1573   F   0.35000     110.00000       0.00000
         3      1577   F   0.35000     110.00000     180.00000
         3      1581   F   0.35000     110.00000       0.00000
         3      1585   F   0.35000     110.00000     180.00000
         3      1589   F   0.35000     110.00000       0.00000
         3      1593   F   0.35000     110.00000     180.00000
         3      1597   F   0.35000     110.00000       0.00000
         3      1601   F   0.35000     110.00000     180.00000
         3      1605   F   0.35000     110.00000       0.00000
         3      1609   F   0.35000     110.00000     180.00000
         3      1613   F   0.35000     110.00000       0.00000
         3      1617   F   0.35000     110.00000     180.00000
         3      1621   F   0.35000     110.00000       0.00000
         3      1625   F   0.35000     110.00000     180.00000
         3      1629   F   0.35000     110.00000       0.00000
         3      1633   F   0.35000     110.00000     180.00000
         3      1637   F   0.35000     110.00000       0.00000
         3      1641   F   0.35000     110.00000     180.00000
         3      1645   F   0.35000     110.00000       0.00000
         3      1649   F   0.35000     110.00000     180.00000
         3      1653   F   0.35000     110.00000       0.00000
         3      1657   F   0.35000     110.00000     180.00000
         3      1661   F   0.35000     110.00000       0.00000
         3      1665   F   0.35000     110.00000     180.00000
         3      1669   F   0.35000     110.00000       0.00000
         3      1673   F   0.35000     110.00000     180.00000
         3      1677   F   0.35000     110.00000       0.00000
         3      1681   F   0.35000     110.00000     180.00000
         3      1685   F   0.35000     110.00000       0.00000
         3      1689   F   0.35000     110.00000     180.00000
         3      1693   F   0.35000     110.00000       0.00000
         3      1697   F   0.35000     110.00000     180.00000
         3      1701   F   0.35000     110.00000       0.00000
         3      1705   F   0.35000     110.00000     180.00000
         3      1709   F   0.35000     110.00000       0.00000
         3      1713   F   0.35000     110.00000     180.00000
         3      1717   F   0.35000     110.00000       0.00000
         3      1721   F   0.35000     110.00000     180.00000
         3      1725   F   0.35000     110.00000       0.00000
         3      1729   F   0.35000     110.00000     180.00000
         3      1733   F   0.35000     110.00000       0.00000
         3      1737   F   0.35000     110.00000     180.00000
         3      1741   F   0.35000     110.00000       0.00000
         3      1745   F   0.35000     110.00000     180.00000
         3      1749   F   0.35000     110.00000       0.00000
         3      1753   F   0.35000     110.00000     180.00000
         3      1757   F   0.35000     110.00000       0.00000
         3      1761   F   0.35000     110.00000     180.00000
         3      1765   F   0.35000     110.00000       0.00000
         3      1769   F   0.35000     110.00000     180.00000
         3      1773   F   0.35000     110.00000       0.00000
         3      1777   F   0.35000     110.00000     180.00000
         3      1781   F   0.35000     110.00000       0.00000
         3      1785   F   0.35000     110.00000     180.00000
         3      1789   F   0.35000     110.00000       0.00000
         3      1793   F   0.35000     110.00000     180.00000
         3      1797   F   0.35000     110.00000       0.00000
         3      1801   F   0.35000     110.00000     180.00000
         3      1805   F   0.35000     110.00000       0.00000
         3      1809   F   0.35000     110.00000     180.00000
         3      1813   F   0.35000     110.00000       0.00000
         3      1817   F   0.35000     110.00000     180.00000
         3      1821   F   0.35000     110.00000       0.00000
         3      1825   F   0.35000     110.00000     180.00000
         3      1829   F   0.35000     110.00000       0.00000
         3      1833   F   0.35000     110.00000     180.00000
         3      1837   F   0.35000     110.00000       0.00000
         3      1841   F   0.35000     110.00000     180.00000
         3      1845   F   0.35000     110.00000       0.00000
         3      1849   F   0.35000     110.00000     180.00000
         3      1853   F   0.35000     110.00000       0.00000
         3      1857   F   0.35000     110.00000     180.00000
         3      1861   F   0.35000     110.00000       0.00000
         3      1865   F   0.35000     110.00000     180.00000
         3      1869   F   0.35000     110.00000       0.00000
         3      1873   F   0.35000     110.00000     180.00000
         3      1877   F   0.35000     110.00000       0.00000
         3      1881   F   0.35000     110.00000     180.00000
         3      1885   F   0.35000     110.00000       0.00000
         3      1889   F   0.35000     110.00000     180.00000
         3      1893   F   0.35000     110.00000       0.00000
         3      1897   F   0.35000     110.00000     180.00000
         3      1901   F   0.35000     110.00000       0.00000
         3      1905   F   0.35000     110.00000     180.00000
         3      1909   F   0.35000     110.00000       0.00000
         3      1913   F   0.35000     110.00000     180.00000
         3      1917   F   0.35000     110.00000       0.00000
         3      1921   F   0.35000     110.00000     180.00000
         3      1925   F   0.35000     110.00000       0.00000
         3      1929   F   0.35000     110.00000     180.00000
         3      1933   F   0.35000     110.00000       0.00000
         3      1937   F   0.35000     110.00000     180.00000
         3      1941   F   0.35000     110.00000       0.00000
         3      1945   F   0.35000     110.00000     180.00000
         3      1949   F   0.35000     110.00000       0.00000
         3      1953   F   0.35000     110.00000     180.00000
         3      1957   F   0.35000     110.00000       0.00000
         3      1961   F   0.35000     110.00000     180.00000
         3      1965   F   0.35000     110.00000       0.00000
         3      1969   F   0.35000     110.00000     180.00000
         3      1973   F   0.35000     110.00000       0.00000
         3      1977   F   0.35000     110.00000     180.00000
         3      1981   F   0.35000     110.00000       0.00000
         3      1985   F   0.35000     110.00000     180.00000
         3      1989   F   0.35000     110.00000       0.00000
         3      1993   F   0.35000     110.00000     180.00000
         3      1997   F   0.35000     110.00000       0.00000
         3      2001   F   0.35000     110.00000     180.00000
         3      2005   F   0.35000     110.00000       0.00000
         3      2009   F   0.35000     110.00000     180.00000
         3      2013   F   0.35000     110.00000       0.00000
         3      2017   F   0.35000     110.00000     180.00000
         3      2021   F   0.35000     110.00000       0.00000
         3      2025   F   0.35000     110.00000     180.00000
         3      2029   F   0.35000     110.00000       0.00000
         3      2033   F   0.35000     110.00000     180.00000
         3      2037   F   0.35000     110.00000       0.00000
         3      2041   F   0.35000     110.00000     180.00000
         3      2045   F   0.35000     110.00000       0.00000
         3      2049   F   0.35000     110.00000     180.00000
         3      2053   F   0.35000     110.00000       0.00000
         3      2057   F   0.35000     110.00000     180.00000
         3      2061   F   0.35000     110.00000       0.00000
         3      2065   F   0.35000     110.00000     180.00000
         3      2069   F   0.35000     110.00000       0.00000
         3      2073   F   0.35000     110.00000     180.00000
         3      2077   F  -0.30000     179.99000     179.99000
         3      2081   F  -0.30000     179.99000     179.99000
         3      2085   F  -0.30000     179.99000     179.99000
         3      2089   F  -0.30000     179.99000     179.99000
         3      2093   F  -0.30000     179.99000     179.99000
         3      2097   F  -0.30000     179.99000     179.99000
         3      2101   F  -0.30000     179.99000     179.99000
         3      2105   F  -0.30000     179.99000     179.99000
         3      2109   F  -0.30000     179.99000     179.99000
         3      2113   F  -0.30000     179.99000     179.99000
         3      2117   F  -0.30000     179.99000     179.99000
         3      2121   F  -0.30000     179.99000     179.99000
         3      2125   F  -0.30000     179.99000     179.99000
         3      2129   F  -0.30000     179.99000     179.99000
         3      2133   F  -0.30000     179.99000     179.99000
         3      2137   F  -0.30000     179.99000     179.99000
         3      2141   F  -0.30000     179.99000     179.99000
         3      2145   F  -0.30000     179.99000     179.99000
         3      2149   F  -0.30000     179.99000     179.99000
         3      2153   F  -0.30000     179.99000     179.99000
         3      2157   F  -0.30000     179.99000     179.99000
         3      2161   F  -0.30000     179.99000     179.99000
         3      2165   F  -0.30000     179.99000     179.99000
         3      2169   F  -0.30000     179.99000     179.99000
         3      2173   F  -0.30000     179.99000     179.99000
         3      2177   F  -0.30000     179.99000     179.99000
         3      2181   F  -0.30000     179.99000     179.99000
         3      2185   F  -0.30000     179.99000     179.99000
         3      2189   F  -0.30000     179.99000     179.99000
         3      2193   F  -0.30000     179.99000     179.99000
         3      2197   F  -0.30000     179.99000     179.99000
         3      2201   F  -0.30000     179.99000     179.99000
         3      2205   F  -0.30000     179.99000     179.99000
         3      2209   F  -0.30000     179.99000     179.99000
         3      2213   F  -0.30000     179.99000     179.99000
         3      2217   F  -0.30000     179.99000     179.99000
         3      2221   F  -0.30000     179.99000     179.99000
         3      2225   F  -0.30000     179.99000     179.99000
         3      2229   F  -0.30000     179.99000     179.99000
         3      2233   F  -0.30000     179.99000     179.99000
         3      2237   F  -0.30000     179.99000     179.99000
         3      2241   F  -0.30000     179.99000     179.99000
         3      2245   F  -0.30000     179.99000     179.99000
         3      2249   F  -0.30000     179.99000     179.99000
         3      2253   F  -0.30000     179.99000     179.99000
         3      2257   F  -0.30000     179.99000     179.99000
         3      2261   F  -0.30000     179.99000     179.99000
         3      2265   F  -0.30000     179.99000     179.99000
         3      2269   F  -0.30000     179.99000     179.99000
         3      2273   F  -0.30000     179.99000     179.99000
         3      2277   F  -0.30000     179.99000     179.99000
         3      2281   F  -0.30000     179.99000     179.99000
         3      2285   F  -0.30000     179.99000     179.99000
         3      2289   F  -0.30000     179.99000     179.99000
         3      2293   F  -0.30000     179.99000     179.99000
         3      2297   F  -0.30000     179.99000     179.99000
         3      2301   F  -0.30000     179.99000     179.99000
         3      2305   F  -0.30000     179.99000     179.99000
         3      2309   F  -0.30000     179.99000     179.99000
         3      2313   F  -0.30000     179.99000     179.99000
         3      2317   F  -0.30000     179.99000     179.99000
         3      2321   F  -0.30000     179.99000     179.99000
         3      2325   F  -0.30000     179.99000     179.99000
         3      2329   F  -0.30000     179.99000     179.99000
         3      2333   F  -0.30000     179.99000     179.99000
         3      2337   F  -0.30000     179.99000     179.99000
         3      2341   F  -0.30000     179.99000     179.99000
         3      2345   F  -0.30000     179.99000     179.99000
         3      2349   F  -0.30000     179.99000     179.99000
         3      2353   F  -0.30000     179.99000     179.99000
         3      2357   F  -0.30000     179.99000     179.99000
         3      2361   F  -0.30000     179.99000     179.99000
         3      2365   F  -0.30000     179.99000     179.99000
         3      2369   F  -0.30000     179.99000     179.99000
         3      2373   F  -0.30000     179.99000     179.99000
         3      2377   F  -0.30000     179.99000     179.99000
         3      2381   F  -0.30000     179.99000     179.99000
         3      2385   F  -0.30000     179.99000     179.99000
         3      2389   F  -0.30000     179.99000     179.99000
         3      2393   F  -0.30000     179.99000     179.99000
         3      2397   F  -0.30000     179.99000     179.99000
         3      2401   F  -0.30000     179.99000     179.99000
         3      2405   F  -0.30000     179.99000     179.99000
         3      2409   F  -0.30000     179.99000     179.99000
         3      2413   F  -0.30000     179.99000     179.99000
         3      2417   F  -0.30000     179.99000     179.99000
         3      2421   F  -0.30000     179.99000     179.99000
         3      2425   F  -0.30000     179.99000     179.99000
         3      2429   F  -0.30000     179.99000     179.99000
         3      2433   F  -0.30000     179.99000     179.99000
         3      2437   F  -0.30000     179.99000     179.99000
         3      2441   F  -0.30000     179.99000     179.99000
         3      2445   F  -0.30000     179.99000     179.99000
         3      2449   F  -0.30000     179.99000     179.99000
         3      2453   F  -0.30000     179.99000     179.99000
         3      2457   F  -0.30000     179.99000     179.99000
         3      2461   F  -0.30000     179.99000     179.99000
         3      2465   F  -0.30000     179.99000     179.99000
         3      2469   F  -0.30000     179.99000     179.99000
         3      2473   F  -0.30000     179.99000     179.99000
         3      2477   F  -0.30000     179.99000     179.99000
         3      2481   F  -0.30000     179.99000     179.99000
         3      2485   F  -0.30000     179.99000     179.99000
         3      2489   F  -0.30000     179.99000     179.99000
         3      2493   F  -0.30000     179.99000     179.99000
         3      2497   F  -0.30000     179.99000     179.99000
         3      2501   F  -0.30000     179.99000     179.99000
         3      2505   F  -0.30000     179.99000     179.99000
         3      2509   F  -0.30000     179.99000     179.99000
         3      2513   F  -0.30000     179.99000     179.99000
         3      2517   F  -0.30000     179.99000     179.99000
         3      2521   F  -0.30000     179.99000     179.99000
         3      2525   F  -0.30000     179.99000     179.99000
         3      2529   F  -0.30000     179.99000     179.99000
         3      2533   F  -0.30000     179.99000     179.99000
         3      2537   F  -0.30000     179.99000     179.99000
         3      2541   F  -0.30000     179.99000     179.99000
         3      2545   F  -0.30000     179.99000     179.99000
         3      2549   F  -0.30000     179.99000     179.99000
         3      2553   F  -0.30000     179.99000     179.99000
         3      2557   F  -0.30000     179.99000     179.99000
         3      2561   F  -0.30000     179.99000     179.99000
         3      2565   F  -0.30000     179.99000     179.99000
         3      2569   F  -0.30000     179.99000     179.99000
         3      2573   F  -0.30000     179.99000     179.99000
         3      2577   F  -0.30000     179.99000     179.99000
         3      2581   F  -0.30000     179.99000     179.99000
         3      2585   F  -0.30000     179.99000     179.99000
         3      2589   F  -0.30000     179.99000     179.99000
         3      2593   F  -0.30000     179.99000     179.99000
         3      2597   F  -0.30000     179.99000     179.99000
         3      2601   F  -0.30000     179.99000     179.99000
         3      2605   F  -0.30000     179.99000     179.99000
         3      2609   F  -0.30000     179.99000     179.99000
         3      2613   F  -0.30000     179.99000     179.99000
         3      2617   F  -0.30000     179.99000     179.99000
         3      2621   F  -0.30000     179.99000     179.99000
         3      2625   F  -0.30000     179.99000     179.99000
         3      2629   F  -0.30000     179.99000     179.99000
         3      2633   F  -0.30000     179.99000     179.99000
         3      2637   F  -0.30000     179.99000     179.99000
         3      2641   F  -0.30000     179.99000     179.99000
         3      2645   F  -0.30000     179.99000     179.99000
         3      2649   F  -0.30000     179.99000     179.99000
         3      2653   F  -0.30000     179.99000     179.99000
         3      2657   F  -0.30000     179.99000     179.99000
         3      2661   F  -0.30000     179.99000     179.99000
         3      2665   F  -0.30000     179.99000     179.99000
         3      2669   F  -0.30000     179.99000     179.99000
         3      2673   F  -0.30000     179.99000     179.99000
         3      2677   F  -0.30000     179.99000     179.99000
         3      2681   F  -0.30000     179.99000     179.99000
         3      2685   F  -0.30000     179.99000     179.99000
         3      2689   F  -0.30000     179.99000     179.99000
         3      2693   F  -0.30000     179.99000     179.99000
         3      2697   F  -0.30000     179.99000     179.99000
         3      2701   F  -0.30000     179.99000     179.99000
         3      2705   F  -0.30000     179.99000     179.99000
         3      2709   F  -0.30000     179.99000     179.99000
         3      2713   F  -0.30000     179.99000     179.99000
         3      2717   F  -0.30000     179.99000     179.99000
         3      2721   F  -0.30000     179.99000     179.99000
         3      2725   F  -0.30000     179.99000     179.99000
         3      2729   F  -0.30000     179.99000     179.99000
         3      2733   F  -0.30000     179.99000     179.99000
         3      2737   F  -0.30000     179.99000     179.99000
         3      2741   F  -0.30000     179.99000     179.99000
         3      2745   F  -0.30000     179.99000     179.99000
         3      2749   F  -0.30000     179.99000     179.99000
         3      2753   F  -0.30000     179.99000     179.99000
         3      2757   F  -0.30000     179.99000     179.99000
         3      2761   F  -0.30000     179.99000     179.99000
         3      2765   F  -0.30000     179.99000     179.99000
         3      2769   F  -0.30000     179.99000     179.99000
         3      2773   F  -0.30000     179.99000     179.99000
         3      2777   F  -0.30000     179.99000     179.99000
         3      2781   F  -0.30000     179.99000     179.99000
         3      2785   F  -0.30000     179.99000     179.99000
         3      2789   F  -0.30000     179.99000     179.99000
         3      2793   F  -0.30000     179.99000     179.99000
         3      2797   F  -0.30000     179.99000     179.99000
         3      2801   F  -0.30000     179.99000     179.99000
         3      2805   F  -0.30000     179.99000     179.99000
         3      2809   F  -0.30000     179.99000     179.99000
         3      2813   F  -0.30000     179.99000     179.99000
         3      2817   F  -0.30000     179.99000     179.99000
         3      2821   F  -0.30000     179.99000     179.99000
         3      2825   F  -0.30000     179.99000     179.99000
         3      2829   F  -0.30000     179.99000     179.99000
         3      2833   F  -0.30000     179.99000     179.99000
         3      2837   F  -0.30000     179.99000     179.99000
         3      2841   F  -0.30000     179.99000     179.99000
         3      2845   F  -0.30000     179.99000     179.99000
         3      2849   F  -0.30000     179.99000     179.99000
         3      2853   F  -0.30000     179.99000     179.99000
         3      2857   F  -0.30000     179.99000     179.99000
         3      2861   F  -0.30000     179.99000     179.99000
         3      2865   F  -0.30000     179.99000     179.99000
         3      2869   F  -0.30000     179.99000     179.99000
         3      2873   F  -0.30000     179.99000     179.99000
         3      2877   F  -0.30000     179.99000     179.99000
         3      2881   F  -0.30000     179.99000     179.99000
         3      2885   F  -0.30000     179.99000     179.99000
         3      2889   F  -0.30000     179.99000     179.99000
         3      2893   F  -0.30000     179.99000     179.99000
         3      2897   F  -0.30000     179.99000     179.99000
         3      2901   F  -0.30000     179.99000     179.99000
         3      2905   F  -0.30000     179.99000     179.99000
         3      2909   F  -0.30000     179.99000     179.99000
         3      2913   F  -0.30000     179.99000     179.99000
         3      2917   F  -0.30000     179.99000     179.99000
         3      2921   F  -0.30000     179.99000     179.99000
         3      2925   F  -0.30000     179.99000     179.99000
         3      2929   F  -0.30000     179.99000     179.99000
         3      2933   F  -0.30000     179.99000     179.99000
         3      2937   F  -0.30000     179.99000     179.99000
         3      2941   F  -0.30000     179.99000     179.99000
         3      2945   F   0.30000      91.00000       0.00000
         3      2949   F   0.30000      91.00000     180.00000
         3      2953   F   0.35000     110.90000      91.00000
         3      2957   F   0.35000     110.90000     269.00000
         3      2961   F   0.30000      91.00000       0.00000
         3      2965   F   0.30000      91.00000     180.00000
         3      2969   F   0.35000     110.90000      91.00000
         3      2973   F   0.35000     110.90000     269.00000
         3      2977   F   0.30000      91.00000       0.00000
         3      2981   F   0.30000      91.00000     180.00000
         3      2985   F   0.35000     110.90000      91.00000
         3      2989   F   0.35000     110.90000     269.00000
         3      2993   F   0.30000      91.00000       0.00000
         3      2997   F   0.30000      91.00000     180.00000
         3      3001   F   0.35000     110.90000      91.00000
         3      3005   F   0.35000     110.90000     269.00000
         3      3009   F   0.30000      91.00000       0.00000
         3      3013   F   0.30000      91.00000     180.00000
         3      3017   F   0.35000     110.90000      91.00000
         3      3021   F   0.35000     110.90000     269.00000
         3      3025   F   0.30000      91.00000       0.00000
         3      3029   F   0.30000      91.00000     180.00000
         3      3033   F   0.35000     110.90000      91.00000
         3      3037   F   0.35000     110.90000     269.00000
         3      3041   F   0.30000      91.00000       0.00000
         3      3045   F   0.30000      91.00000     180.00000
         3      3049   F   0.35000     110.90000      91.00000
         3      3053   F   0.35000     110.90000     269.00000
         3      3057   F   0.30000      91.00000       0.00000
         3      3061   F   0.30000      91.00000     180.00000
         3      3065   F   0.35000     110.90000      91.00000
         3      3069   F   0.35000     110.90000     269.00000
         3      3073   F   0.30000      91.00000       0.00000
         3      3077   F   0.30000      91.00000     180.00000
         3      3081   F   0.35000     110.90000      91.00000
         3      3085   F   0.35000     110.90000     269.00000
         3      3089   F   0.30000      91.00000       0.00000
         3      3093   F   0.30000      91.00000     180.00000
         3      3097   F   0.35000     110.90000      91.00000
         3      3101   F   0.35000     110.90000     269.00000
         3      3105   F   0.30000      91.00000       0.00000
         3      3109   F   0.30000      91.00000     180.00000
         3      3113   F   0.35000     110.90000      91.00000
         3      3117   F   0.35000     110.90000     269.00000
         3      3121   F   0.30000      91.00000       0.00000
         3      3125   F   0.30000      91.00000     180.00000
         3      3129   F   0.35000     110.90000      91.00000
         3      3133   F   0.35000     110.90000     269.00000
         3      3137   F   0.30000      91.00000       0.00000
         3      3141   F   0.30000      91.00000     180.00000
         3      3145   F   0.35000     110.90000      91.00000
         3      3149   F   0.35000     110.90000     269.00000
         3      3153   F   0.30000      91.00000       0.00000
         3      3157   F   0.30000      91.00000     180.00000
         3      3161   F   0.35000     110.90000      91.00000
         3      3165   F   0.35000     110.90000     269.00000
         3      3169   F   0.30000      91.00000       0.00000
         3      3173   F   0.30000      91.00000     180.00000
         3      3177   F   0.35000     110.90000      91.00000
         3      3181   F   0.35000     110.90000     269.00000
         3      3185   F   0.30000      91.00000       0.00000
         3      3189   F   0.30000      91.00000     180.00000
         3      3193   F   0.35000     110.90000      91.00000
         3      3197   F   0.35000     110.90000     269.00000
         3      3201   F   0.30000      91.00000       0.00000
         3      3205   F   0.30000      91.00000     180.00000
         3      3209   F   0.35000     110.90000      91.00000
         3      3213   F   0.35000     110.90000     269.00000
         3      3217   F   0.30000      91.00000       0.00000
         3      3221   F   0.30000      91.00000     180.00000
         3      3225   F   0.35000     110.90000      91.00000
         3      3229   F   0.35000     110.90000     269.00000
         3      3233   F   0.30000      91.00000       0.00000
         3      3237   F   0.30000      91.00000     180.00000
         3      3241   F   0.35000     110.90000      91.00000
         3      3245   F   0.35000     110.90000     269.00000
         3      3249   F   0.30000      91.00000       0.00000
         3      3253   F   0.30000      91.00000     180.00000
         3      3257   F   0.35000     110.90000      91.00000
         3      3261   F   0.35000     110.90000     269.00000
         3      3265   F   0.30000      91.00000       0.00000
         3      3269   F   0.30000      91.00000     180.00000
         3      3273   F   0.35000     110.90000      91.00000
         3      3277   F   0.35000     110.90000     269.00000
         3      3281   F   0.30000      91.00000       0.00000
         3      3285   F   0.30000      91.00000     180.00000
         3      3289   F   0.35000     110.90000      91.00000
         3      3293   F   0.35000     110.90000     269.00000
         3      3297   F   0.30000      91.00000       0.00000
         3      3301   F   0.30000      91.00000     180.00000
         3      3305   F   0.35000     110.90000      91.00000
         3      3309   F   0.35000     110.90000     269.00000
         3      3313   F   0.30000      91.00000       0.00000
         3      3317   F   0.30000      91.00000     180.00000
         3      3321   F   0.35000     110.90000      91.00000
         3      3325   F   0.35000     110.90000     269.00000
         3      3329   F   0.30000      91.00000       0.00000
         3      3333   F   0.30000      91.00000     180.00000
         3      3337   F   0.35000     110.90000      91.00000
         3      3341   F   0.35000     110.90000     269.00000
         3      3345   F   0.30000      91.00000       0.00000
         3      3349   F   0.30000      91.00000     180.00000
         3      3353   F   0.35000     110.90000      91.00000
         3      3357   F   0.35000     110.90000     269.00000
         3      3361   F   0.30000      91.00000       0.00000
         3      3365   F   0.30000      91.00000     180.00000
         3      3369   F   0.35000     110.90000      91.00000
         3      3373   F   0.35000     110.90000     269.00000
         3      3377   F   0.30000      91.00000       0.00000
         3      3381   F   0.30000      91.00000     180.00000
         3      3385   F   0.35000     110.90000      91.00000
         3      3389   F   0.35000     110.90000     269.00000
         3      3393   F   0.30000      91.00000       0.00000
         3      3397   F   0.30000      91.00000     180.00000
         3      3401   F   0.35000     110.90000      91.00000
         3      3405   F   0.35000     110.90000     269.00000
         3      3409   F   0.30000      91.00000       0.00000
         3      3413   F   0.30000      91.00000     180.00000
         3      3417   F   0.35000     110.90000      91.00000
         3      3421   F   0.35000     110.90000     269.00000
         3      3425   F   0.30000      91.00000       0.00000
         3      3429   F   0.30000      91.00000     180.00000
         3      3433   F   0.35000     110.90000      91.00000
         3      3437   F   0.35000     110.90000     269.00000
         3      3441   F   0.30000      91.00000       0.00000
         3      3445   F   0.30000      91.00000     180.00000
         3      3449   F   0.35000     110.90000      91.00000
         3      3453   F   0.35000     110.90000     269.00000
         3      3457   F   0.30000      91.00000       0.00000
         3      3461   F   0.30000      91.00000     180.00000
         3      3465   F   0.35000     110.90000      91.00000
         3      3469   F   0.35000     110.90000     269.00000
         3      3473   F   0.30000      91.00000       0.00000
         3      3477   F   0.30000      91.00000     180.00000
         3      3481   F   0.35000     110.90000      91.00000
         3      3485   F   0.35000     110.90000     269.00000
         3      3489   F   0.30000      91.00000       0.00000
         3      3493   F   0.30000      91.00000     180.00000
         3      3497   F   0.35000     110.90000      91.00000
         3      3501   F   0.35000     110.90000     269.00000
         3      3505   F   0.30000      91.00000       0.00000
         3      3509   F   0.30000      91.00000     180.00000
         3      3513   F   0.35000     110.90000      91.00000
         3      3517   F   0.35000     110.90000     269.00000
         3      3521   F   0.30000      91.00000       0.00000
         3      3525   F   0.30000      91.00000     180.00000
         3      3529   F   0.35000     110.90000      91.00000
         3      3533   F   0.35000     110.90000     269.00000
         3      3537   F   0.30000      91.00000       0.00000
         3      3541   F   0.30000      91.00000     180.00000
         3      3545   F   0.35000     110.90000      91.00000
         3      3549   F   0.35000     110.90000     269.00000
         3      3553   F   0.30000      91.00000       0.00000
         3      3557   F   0.30000      91.00000     180.00000
         3      3561   F   0.35000     110.90000      91.00000
         3      3565   F   0.35000     110.90000     269.00000
         3      3569   F   0.30000      91.00000       0.00000
         3      3573   F   0.30000      91.00000     180.00000
         3      3577   F   0.35000     110.90000      91.00000
         3      3581   F   0.35000     110.90000     269.00000
         3      3585   F   0.30000      91.00000       0.00000
         3      3589   F   0.30000      91.00000     180.00000
         3      3593   F   0.35000     110.90000      91.00000
         3      3597   F   0.35000     110.90000     269.00000
         3      3601   F   0.30000      91.00000       0.00000
         3      3605   F   0.30000      91.00000     180.00000
         3      3609   F   0.35000     110.90000      91.00000
         3      3613   F   0.35000     110.90000     269.00000
         3      3617   F   0.30000      91.00000       0.00000
         3      3621   F   0.30000      91.00000     180.00000
         3      3625   F   0.35000     110.90000      91.00000
         3      3629   F   0.35000     110.90000     269.00000
         3      3633   F   0.30000      91.00000       0.00000
         3      3637   F   0.30000      91.00000     180.00000
         3      3641   F   0.35000     110.90000      91.00000
         3      3645   F   0.35000     110.90000     269.00000
         3      3649   F   0.30000      91.00000       0.00000
         3      3653   F   0.30000      91.00000     180.00000
         3      3657   F   0.35000     110.90000      91.00000
         3      3661   F   0.35000     110.90000     269.00000
         3      3665   F   0.30000      91.00000       0.00000
         3      3669   F   0.30000      91.00000     180.00000
         3      3673   F   0.35000     110.90000      91.00000
         3      3677   F   0.35000     110.90000     269.00000
         3      3681   F   0.30000      91.00000       0.00000
         3      3685   F   0.30000      91.00000     180.00000
         3      3689   F   0.35000     110.90000      91.00000
         3      3693   F   0.35000     110.90000     269.00000
         3      3697   F   0.30000      91.00000       0.00000
         3      3701   F   0.30000      91.00000     180.00000
         3      3705   F   0.35000     110.90000      91.00000
         3      3709   F   0.35000     110.90000     269.00000
         3      3713   F   0.30000      91.00000       0.00000
         3      3717   F   0.30000      91.00000     180.00000
         3      3721   F   0.35000     110.90000      91.00000
         3      3725   F   0.35000     110.90000     269.00000
         3      3729   F   0.30000      91.00000       0.00000
         3      3733   F   0.30000      91.00000     180.00000
         3      3737   F   0.35000     110.90000      91.00000
         3      3741   F   0.35000     110.90000     269.00000
         3      3745   F   0.30000      91.00000       0.00000
         3      3749   F   0.30000      91.00000     180.00000
         3      3753   F   0.35000     110.90000      91.00000
         3      3757   F   0.35000     110.90000     269.00000
         3      3761   F   0.30000      91.00000       0.00000
         3      3765   F   0.30000      91.00000     180.00000
         3      3769   F   0.35000     110.90000      91.00000
         3      3773   F   0.35000     110.90000     269.00000
         3      3777   F   0.30000      91.00000       0.00000
         3      3781   F   0.30000      91.00000     180.00000
         3      3785   F   0.35000     110.90000      91.00000
         3      3789   F   0.35000     110.90000     269.00000
         3      3793   F   0.30000      91.00000       0.00000
         3      3797   F   0.30000      91.00000     180.00000
         3      3801   F   0.35000     110.90000      91.00000
         3      3805   F   0.35000     110.90000     269.00000
         3      3809   F   0.30000      91.00000       0.00000
         3      3813   F   0.30000      91.00000     180.00000
         3      3817   F   0.35000     110.90000      91.00000
         3      3821   F   0.35000     110.90000     269.00000
         3      3825   F   0.30000      91.00000       0.00000
         3      3829   F   0.30000      91.00000     180.00000
         3      3833   F   0.35000     110.90000      91.00000
         3      3837   F   0.35000     110.90000     269.00000
         3      3841   F   0.30000      91.00000       0.00000
         3      3845   F   0.30000      91.00000     180.00000
         3      3849   F   0.35000     110.90000      91.00000
         3      3853   F   0.35000     110.90000     269.00000
         3      3857   F   0.30000      91.00000       0.00000
         3      3861   F   0.30000      91.00000     180.00000
         3      3865   F   0.35000     110.90000      91.00000
         3      3869   F   0.35000     110.90000     269.00000
         3      3873   F   0.30000      91.00000       0.00000
         3      3877   F   0.30000      91.00000     180.00000
         3      3881   F   0.35000     110.90000      91.00000
         3      3885   F   0.35000     110.90000     269.00000
         3      3889   F   0.30000      91.00000       0.00000
         3      3893   F   0.30000      91.00000     180.00000
         3      3897   F   0.35000     110.90000      91.00000
         3      3901   F   0.35000     110.90000     269.00000
         3      3905   F   0.30000      91.00000       0.00000
         3      3909   F   0.30000      91.00000     180.00000
         3      3913   F   0.35000     110.90000      91.00000
         3      3917   F   0.35000     110.90000     269.00000
         3      3921   F   0.30000      91.00000       0.00000
         3      3925   F   0.30000      91.00000     180.00000
         3      3929   F   0.35000     110.90000      91.00000
         3      3933   F   0.35000     110.90000     269.00000
         3      3937   F   0.30000      91.00000       0.00000
         3      3941   F   0.30000      91.00000     180.00000
         3      3945   F   0.35000     110.90000      91.00000
         3      3949   F   0.35000     110.90000     269.00000
         3      3953   F   0.30000      91.00000       0.00000
         3      3957   F   0.30000      91.00000     180.00000
         3      3961   F   0.35000     110.90000      91.00000
         3      3965   F   0.35000     110.90000     269.00000
         3      3969   F   0.30000      91.00000       0.00000
         3      3973   F   0.30000      91.00000     180.00000
         3      3977   F   0.35000     110.90000      91.00000
         3      3981   F   0.35000     110.90000     269.00000
         3      3985   F   0.30000      91.00000       0.00000
         3      3989   F   0.30000      91.00000     180.00000
         3      3993   F   0.35000     110.90000      91.00000
         3      3997   F   0.35000     110.90000     269.00000
         3      4001   F   0.30000      91.00000       0.00000
         3      4005   F   0.30000      91.00000     180.00000
         3      4009   F   0.35000     110.90000      91.00000
         3      4013   F   0.35000     110.90000     269.00000
         3      4017   F   0.30000      91.00000       0.00000
         3      4021   F   0.30000      91.00000     180.00000
         3      4025   F   0.35000     110.90000      91.00000
         3      4029   F   0.35000     110.90000     269.00000
         3      4033   F   0.30000      91.00000       0.00000
         3      4037   F   0.30000      91.00000     180.00000
         3      4041   F   0.35000     110.90000      91.00000
         3      4045   F   0.35000     110.90000     269.00000
         3      4049   F   0.30000      91.00000       0.00000
         3      4053   F   0.30000      91.00000     180.00000
         3      4057   F   0.35000     110.90000      91.00000
         3      4061   F   0.35000     110.90000     269.00000
         3      4065   F   0.30000      91.00000       0.00000
         3      4069   F   0.30000      91.00000     180.00000
         3      4073   F   0.35000     110.90000      91.00000
         3      4077   F   0.35000     110.90000     269.00000
         3      4081   F   0.30000      91.00000       0.00000
         3      4085   F   0.30000      91.00000     180.00000
         3      4089   F   0.35000     110.90000      91.00000
         3      4093   F   0.35000     110.90000     269.00000
         3      4097   F   0.30000      91.00000       0.00000
         3      4101   F   0.30000      91.00000     180.00000
         3      4105   F   0.35000     110.90000      91.00000
         3      4109   F   0.35000     110.90000     269.00000
         3      4113   F   0.30000      91.00000       0.00000
         3      4117   F   0.30000      91.00000     180.00000
         3      4121   F   0.35000     110.90000      91.00000
         3      4125   F   0.35000     110.90000     269.00000
         3      4129   F   0.30000      91.00000       0.00000
         3      4133   F   0.30000      91.00000     180.00000
         3      4137   F   0.35000     110.90000      91.00000
         3      4141   F   0.35000     110.90000     269.00000
         3      4145   F   0.30000      91.00000       0.00000
         3      4149   F   0.30000      91.00000     180.00000
         3      4153   F   0.35000     110.90000      91.00000
         3      4157   F   0.35000     110.90000     269.00000
         3      4161   F   0.30000      91.00000       0.00000
         3      4165   F   0.30000      91.00000     180.00000
         3      4169   F   0.35000     110.90000      91.00000
         3      4173   F   0.35000     110.90000     269.00000
         3      4177   F   0.30000      91.00000       0.00000
         3      4181   F   0.30000      91.00000     180.00000
         3      4185   F   0.35000     110.90000      91.00000
         3      4189   F   0.35000     110.90000     269.00000
         3      4193   F   0.30000      91.00000       0.00000
         3      4197   F   0.30000      91.00000     180.00000
         3      4201   F   0.35000     110.90000      91.00000
         3      4205   F   0.35000     110.90000     269.00000
         3      4209   F   0.30000      91.00000       0.00000
         3      4213   F   0.30000      91.00000     180.00000
         3      4217   F   0.35000     110.90000      91.00000
         3      4221   F   0.35000     110.90000     269.00000
         3      4225   F   0.30000      91.00000       0.00000
         3      4229   F   0.30000      91.00000     180.00000
         3      4233   F   0.35000     110.90000      91.00000
         3      4237   F   0.35000     110.90000     269.00000
         3      4241   F   0.30000      91.00000       0.00000
         3      4245   F   0.30000      91.00000     180.00000
         3      4249   F   0.35000     110.90000      91.00000
         3      4253   F   0.35000     110.90000     269.00000
         3      4257   F   0.30000      91.00000       0.00000
         3      4261   F   0.30000      91.00000     180.00000
         3      4265   F   0.35000     110.90000      91.00000
         3      4269   F   0.35000     110.90000     269.00000
         3      4273   F   0.30000      91.00000       0.00000
         3      4277   F   0.30000      91.00000     180.00000
         3      4281   F   0.35000     110.90000      91.00000
         3      4285   F   0.35000     110.90000     269.00000
         3      4289   F   0.30000      91.00000       0.00000
         3      4293   F   0.30000      91.00000     180.00000
         3      4297   F   0.35000     110.90000      91.00000
         3      4301   F   0.35000     110.90000     269.00000
         3      4305   F   0.30000      91.00000       0.00000
         3      4309   F   0.30000      91.00000     180.00000
         3      4313   F   0.35000     110.90000      91.00000
         3      4317   F   0.35000     110.90000     269.00000
         3      4321   F   0.30000      91.00000       0.00000
         3      4325   F   0.30000      91.00000     180.00000
         3      4329   F   0.35000     110.90000      91.00000
         3      4333   F   0.35000     110.90000     269.00000
         3      4337   F   0.30000      91.00000       0.00000
         3      4341   F   0.30000      91.00000     180.00000
         3      4345   F   0.35000     110.90000      91.00000
         3      4349   F   0.35000     110.90000     269.00000
         3      4353   F   0.30000      91.00000       0.00000
         3      4357   F   0.30000      91.00000     180.00000
         3      4361   F   0.35000     110.90000      91.00000
         3      4365   F   0.35000     110.90000     269.00000
         3      4369   F   0.30000      91.00000       0.00000
         3      4373   F   0.30000      91.00000     180.00000
         3      4377   F   0.35000     110.90000      91.00000
         3      4381   F   0.35000     110.90000     269.00000
         3      4385   F   0.30000      91.00000       0.00000
         3      4389   F   0.30000      91.00000     180.00000
         3      4393   F   0.35000     110.90000      91.00000
         3      4397   F   0.35000     110.90000     269.00000
         3      4401   F   0.30000      91.00000       0.00000
         3      4405   F   0.30000      91.00000     180.00000
         3      4409   F   0.35000     110.90000      91.00000
         3      4413   F   0.35000     110.90000     269.00000
         3      4417   F   0.30000      91.00000       0.00000
         3      4421   F   0.30000      91.00000     180.00000
         3      4425   F   0.35000     110.90000      91.00000
         3      4429   F   0.35000     110.90000     269.00000
         3      4433   F   0.30000      91.00000       0.00000
         3      4437   F   0.30000      91.00000     180.00000
         3      4441   F   0.35000     110.90000      91.00000
         3      4445   F   0.35000     110.90000     269.00000
         3      4449   F   0.30000      91.00000       0.00000
         3      4453   F   0.30000      91.00000     180.00000
         3      4457   F   0.35000     110.90000      91.00000
         3      4461   F   0.35000     110.90000     269.00000
         3      4465   F   0.30000      91.00000       0.00000
         3      4469   F   0.30000      91.00000     180.00000
         3      4473   F   0.35000     110.90000      91.00000
         3      4477   F   0.35000     110.90000     269.00000
         3      4481   F   0.30000      91.00000       0.00000
         3      4485   F   0.30000      91.00000     180.00000
         3      4489   F   0.35000     110.90000      91.00000
         3      4493   F   0.35000     110.90000     269.00000
         3      4497   F   0.30000      91.00000       0.00000
         3      4501   F   0.30000      91.00000     180.00000
         3      4505   F   0.35000     110.90000      91.00000
         3      4509   F   0.35000     110.90000     269.00000
         3      4513   F   0.30000      91.00000       0.00000
         3      4517   F   0.30000      91.00000     180.00000
         3      4521   F   0.35000     110.90000      91.00000
         3      4525   F   0.35000     110.90000     269.00000
         3      4529   F   0.30000      91.00000       0.00000
         3      4533   F   0.30000      91.00000     180.00000
         3      4537   F   0.35000     110.90000      91.00000
         3      4541   F   0.35000     110.90000     269.00000
         3      4545   F   0.30000      91.00000       0.00000
         3      4549   F   0.30000      91.00000     180.00000
         3      4553   F   0.35000     110.90000      91.00000
         3      4557   F   0.35000     110.90000     269.00000
         3      4561   F   0.30000      91.00000       0.00000
         3      4565   F   0.30000      91.00000     180.00000
         3      4569   F   0.35000     110.90000      91.00000
         3      4573   F   0.35000     110.90000     269.00000
         3      4577   F   0.30000      91.00000       0.00000
         3      4581   F   0.30000      91.00000     180.00000
         3      4585   F   0.35000     110.90000      91.00000
         3      4589   F   0.35000     110.90000     269.00000
         3      4593   F   0.30000      91.00000       0.00000
         3      4597   F   0.30000      91.00000     180.00000
         3      4601   F   0.35000     110.90000      91.00000
         3      4605   F   0.35000     110.90000     269.00000
         3      4609   F   0.30000      91.00000       0.00000
         3      4613   F   0.30000      91.00000     180.00000
         3      4617   F   0.35000     110.90000      91.00000
         3      4621   F   0.35000     110.90000     269.00000
         3      4625   F   0.30000      91.00000       0.00000
         3      4629   F   0.30000      91.00000     180.00000
         3      4633   F   0.35000     110.90000      91.00000
         3      4637   F   0.35000     110.90000     269.00000
         3      4641   F   0.30000      91.00000       0.00000
         3      4645   F   0.30000      91.00000     180.00000
         3      4649   F   0.35000     110.90000      91.00000
         3      4653   F   0.35000     110.90000     269.00000
         3      4657   F   0.30000      91.00000       0.00000
         3      4661   F   0.30000      91.00000     180.00000
         3      4665   F   0.35000     110.90000      91.00000
         3      4669   F   0.35000     110.90000     269.00000
         3      4673   F   0.30000      91.00000       0.00000
         3      4677   F   0.30000      91.00000     180.00000
         3      4681   F   0.35000     110.90000      91.00000
         3      4685   F   0.35000     110.90000     269.00000
         3      4689   F   0.30000      91.00000       0.00000
         3      4693   F   0.30000      91.00000     180.00000
         3      4697   F   0.35000     110.90000      91.00000
         3      4701   F   0.35000     110.90000     269.00000
         3      4705   F   0.30000      91.00000       0.00000
         3      4709   F   0.30000      91.00000     180.00000
         3      4713   F   0.35000     110.90000      91.00000
         3      4717   F   0.35000     110.90000     269.00000
         3      4721   F   0.30000      91.00000       0.00000
         3      4725   F   0.30000      91.00000     180.00000
         3      4729   F   0.35000     110.90000      91.00000
         3      4733   F   0.35000     110.90000     269.00000
         3      4737   F   0.30000      91.00000       0.00000
         3      4741   F   0.30000      91.00000     180.00000
         3      4745   F   0.35000     110.90000      91.00000
         3      4749   F   0.35000     110.90000     269.00000
         3      4753   F   0.30000      91.00000       0.00000
         3      4757   F   0.30000      91.00000     180.00000
         3      4761   F   0.35000     110.90000      91.00000
         3      4765   F   0.35000     110.90000     269.00000
         3      4769   F   0.30000      91.00000       0.00000
         3      4773   F   0.30000      91.00000     180.00000
         3      4777   F   0.35000     110.90000      91.00000
         3      4781   F   0.35000     110.90000     269.00000
         3      4785   F   0.30000      91.00000       0.00000
         3      4789   F   0.30000      91.00000     180.00000
         3      4793   F   0.35000     110.90000      91.00000
         3      4797   F   0.35000     110.90000     269.00000
         3      4801   F   0.30000      91.00000       0.00000
         3      4805   F   0.30000      91.00000     180.00000
         3      4809   F   0.35000     110.90000      91.00000
         3      4813   F   0.35000     110.90000     269.00000
         3      4817   F   0.30000      91.00000       0.00000
         3      4821   F   0.30000      91.00000     180.00000
         3      4825   F   0.35000     110.90000      91.00000
         3      4829   F   0.35000     110.90000     269.00000
         3      4833   F   0.30000      91.00000       0.00000
         3      4837   F   0.30000      91.00000     180.00000
         3      4841   F   0.35000     110.90000      91.00000
         3      4845   F   0.35000     110.90000     269.00000
         3      4849   F   0.30000      91.00000       0.00000
         3      4853   F   0.30000      91.00000     180.00000
         3      4857   F   0.35000     110.90000      91.00000
         3      4861   F   0.35000     110.90000     269.00000
         3      4865   F   0.30000      91.00000       0.00000
         3      4869   F   0.30000      91.00000     180.00000
         3      4873   F   0.35000     110.90000      91.00000
         3      4877   F   0.35000     110.90000     269.00000
         3      4881   F   0.30000      91.00000       0.00000
         3      4885   F   0.30000      91.00000     180.00000
         3      4889   F   0.35000     110.90000      91.00000
         3      4893   F   0.35000     110.90000     269.00000
         3      4897   F   0.30000      91.00000       0.00000
         3      4901   F   0.30000      91.00000     180.00000
         3      4905   F   0.35000     110.90000      91.00000
         3      4909   F   0.35000     110.90000     269.00000
         3      4913   F   0.30000      91.00000       0.00000
         3      4917   F   0.30000      91.00000     180.00000
         3      4921   F   0.35000     110.90000      91.00000
         3      4925   F   0.35000     110.90000     269.00000
         3      4929   F   0.30000      91.00000       0.00000
         3      4933   F   0.30000      91.00000     180.00000
         3      4937   F   0.35000     110.90000      91.00000
         3      4941   F   0.35000     110.90000     269.00000
         3      4945   F   0.30000      91.00000       0.00000
         3      4949   F   0.30000      91.00000     180.00000
         3      4953   F   0.35000     110.90000      91.00000
         3      4957   F   0.35000     110.90000     269.00000
         3      4961   F   0.30000      91.00000       0.00000
         3      4965   F   0.30000      91.00000     180.00000
         3      4969   F   0.35000     110.90000      91.00000
         3      4973   F   0.35000     110.90000     269.00000
         3      4977   F   0.30000      91.00000       0.00000
         3      4981   F   0.30000      91.00000     180.00000
         3      4985   F   0.35000     110.90000      91.00000
         3      4989   F   0.35000     110.90000     269.00000
         3      4993   F   0.30000      91.00000       0.00000
         3      4997   F   0.30000      91.00000     180.00000
         3      5001   F   0.35000     110.90000      91.00000
         3      5005   F   0.35000     110.90000     269.00000
         3      5009   F   0.30000      91.00000       0.00000
         3      5013   F   0.30000      91.00000     180.00000
         3      5017   F   0.35000     110.90000      91.00000
         3      5021   F   0.35000     110.90000     269.00000
         3      5025   F   0.30000      91.00000       0.00000
         3      5029   F   0.30000      91.00000     180.00000
         3      5033   F   0.35000     110.90000      91.00000
         3      5037   F   0.35000     110.90000     269.00000
         3      5041   F   0.30000      91.00000       0.00000
         3      5045   F   0.30000      91.00000     180.00000
         3      5049   F   0.35000     110.90000      91.00000
         3      5053   F   0.35000     110.90000     269.00000
         3      5057   F   0.30000      91.00000       0.00000
         3      5061   F   0.30000      91.00000     180.00000
         3      5065   F   0.35000     110.90000      91.00000
         3      5069   F   0.35000     110.90000     269.00000
         3      5073   F   0.30000      91.00000       0.00000
         3      5077   F   0.30000      91.00000     180.00000
         3      5081   F   0.35000     110.90000      91.00000
         3      5085   F   0.35000     110.90000     269.00000
         3      5089   F   0.30000      91.00000       0.00000
         3      5093   F   0.30000      91.00000     180.00000
         3      5097   F   0.35000     110.90000      91.00000
         3      5101   F   0.35000     110.90000     269.00000
         3      5105   F   0.30000      91.00000       0.00000
         3      5109   F   0.30000      91.00000     180.00000
         3      5113   F   0.35000     110.90000      91.00000
         3      5117   F   0.35000     110.90000     269.00000
         3      5121   F   0.30000      91.00000       0.00000
         3      5125   F   0.30000      91.00000     180.00000
         3      5129   F   0.35000     110.90000      91.00000
         3      5133   F   0.35000     110.90000     269.00000
         3      5137   F   0.30000      91.00000       0.00000
         3      5141   F   0.30000      91.00000     180.00000
         3      5145   F   0.35000     110.90000      91.00000
         3      5149   F   0.35000     110.90000     269.00000
         3      5153   F   0.30000      91.00000       0.00000
         3      5157   F   0.30000      91.00000     180.00000
         3      5161   F   0.35000     110.90000      91.00000
         3      5165   F   0.35000     110.90000     269.00000
         3      5169   F   0.30000      91.00000       0.00000
         3      5173   F   0.30000      91.00000     180.00000
         3      5177   F   0.35000     110.90000      91.00000
         3      5181   F   0.35000     110.90000     269.00000
         3      5185   F   0.30000      91.00000       0.00000
         3      5189   F   0.30000      91.00000     180.00000
         3      5193   F   0.35000     110.90000      91.00000
         3      5197   F   0.35000     110.90000     269.00000
         3      5201   F   0.30000      91.00000       0.00000
         3      5205   F   0.30000      91.00000     180.00000
         3      5209   F   0.35000     110.90000      91.00000
         3      5213   F   0.35000     110.90000     269.00000
         3      5217   F   0.30000      91.00000       0.00000
         3      5221   F   0.30000      91.00000     180.00000
         3      5225   F   0.35000     110.90000      91.00000
         3      5229   F   0.35000     110.90000     269.00000
         3      5233   F   0.30000      91.00000       0.00000
         3      5237   F   0.30000      91.00000     180.00000
         3      5241   F   0.35000     110.90000      91.00000
         3      5245   F   0.35000     110.90000     269.00000
         3      5249   F   0.30000      91.00000       0.00000
         3      5253   F   0.30000      91.00000     180.00000
         3      5257   F   0.35000     110.90000      91.00000
         3      5261   F   0.35000     110.90000     269.00000
         3      5265   F   0.30000      91.00000       0.00000
         3      5269   F   0.30000      91.00000     180.00000
         3      5273   F   0.35000     110.90000      91.00000
         3      5277   F   0.35000     110.90000     269.00000
         3      5281   F   0.30000      91.00000       0.00000
         3      5285   F   0.30000      91.00000     180.00000
         3      5289   F   0.35000     110.90000      91.00000
         3      5293   F   0.35000     110.90000     269.00000
         3      5297   F   0.30000      91.00000       0.00000
         3      5301   F   0.30000      91.00000     180.00000
         3      5305   F   0.35000     110.90000      91.00000
         3      5309   F   0.35000     110.90000     269.00000
         3      5313   F   0.30000      91.00000       0.00000
         3      5317   F   0.30000      91.00000     180.00000
         3      5321   F   0.35000     110.90000      91.00000
         3      5325   F   0.35000     110.90000     269.00000
         3      5329   F   0.30000      91.00000       0.00000
         3      5333   F   0.30000      91.00000     180.00000
         3      5337   F   0.35000     110.90000      91.00000
         3      5341   F   0.35000     110.90000     269.00000
         3      5345   F   0.30000      91.00000       0.00000
         3      5349   F   0.30000      91.00000     180.00000
         3      5353   F   0.35000     110.90000      91.00000
         3      5357   F   0.35000     110.90000     269.00000
         3      5361   F   0.30000      91.00000       0.00000
         3      5365   F   0.30000      91.00000     180.00000
         3      5369   F   0.35000     110.90000      91.00000
         3      5373   F   0.35000     110.90000     269.00000
         3      5377   F   0.30000      91.00000       0.00000
         3      5381   F   0.30000      91.00000     180.00000
         3      5385   F   0.35000     110.90000      91.00000
         3      5389   F   0.35000     110.90000     269.00000
         3      5393   F   0.30000      91.00000       0.00000
         3      5397   F   0.30000      91.00000     180.00000
         3      5401   F   0.35000     110.90000      91.00000
         3      5405   F   0.35000     110.90000     269.00000
         3      5409   F   0.30000      91.00000       0.00000
         3      5413   F   0.30000      91.00000     180.00000
         3      5417   F   0.35000     110.90000      91.00000
         3      5421   F   0.35000     110.90000     269.00000
         3      5425   F   0.30000      91.00000       0.00000
         3      5429   F   0.30000      91.00000     180.00000
         3      5433   F   0.35000     110.90000      91.00000
         3      5437   F   0.35000     110.90000     269.00000
         3      5441   F   0.30000      91.00000       0.00000
         3      5445   F   0.30000      91.00000     180.00000
         3      5449   F   0.35000     110.90000      91.00000
         3      5453   F   0.35000     110.90000     269.00000
         3      5457   F   0.30000      91.00000       0.00000
         3      5461   F   0.30000      91.00000     180.00000
         3      5465   F   0.35000     110.90000      91.00000
         3      5469   F   0.35000     110.90000     269.00000
         3      5473   F   0.30000      91.00000       0.00000
         3      5477   F   0.30000      91.00000     180.00000
         3      5481   F   0.35000     110.90000      91.00000
         3      5485   F   0.35000     110.90000     269.00000
         3      5489   F   0.30000      91.00000       0.00000
         3      5493   F   0.30000      91.00000     180.00000
         3      5497   F   0.35000     110.90000      91.00000
         3      5501   F   0.35000     110.90000     269.00000
         3      5505   F   0.30000      91.00000       0.00000
         3      5509   F   0.30000      91.00000     180.00000
         3      5513   F   0.35000     110.90000      91.00000
         3      5517   F   0.35000     110.90000     269.00000
         3      5521   F   0.30000      91.00000       0.00000
         3      5525   F   0.30000      91.00000     180.00000
         3      5529   F   0.35000     110.90000      91.00000
         3      5533   F   0.35000     110.90000     269.00000
         3      5537   F   0.30000      91.00000       0.00000
         3      5541   F   0.30000      91.00000     180.00000
         3      5545   F   0.35000     110.90000      91.00000
         3      5549   F   0.35000     110.90000     269.00000
         3      5553   F   0.30000      91.00000       0.00000
         3      5557   F   0.30000      91.00000     180.00000
         3      5561   F   0.35000     110.90000      91.00000
         3      5565   F   0.35000     110.90000     269.00000
         3      5569   F   0.30000      91.00000       0.00000
         3      5573   F   0.30000      91.00000     180.00000
         3      5577   F   0.35000     110.90000      91.00000
         3      5581   F   0.35000     110.90000     269.00000
         3      5585   F   0.30000      91.00000       0.00000
         3      5589   F   0.30000      91.00000     180.00000
         3      5593   F   0.35000     110.90000      91.00000
         3      5597   F   0.35000     110.90000     269.00000
         3      5601   F   0.30000      91.00000       0.00000
         3      5605   F   0.30000      91.00000     180.00000
         3      5609   F   0.35000     110.90000      91.00000
         3      5613   F   0.35000     110.90000     269.00000
         3      5617   F   0.30000      91.00000       0.00000
         3      5621   F   0.30000      91.00000     180.00000
         3      5625   F   0.35000     110.90000      91.00000
         3      5629   F   0.35000     110.90000     269.00000
         3      5633   F   0.30000      91.00000       0.00000
         3      5637   F   0.30000      91.00000     180.00000
         3      5641   F   0.35000     110.90000      91.00000
         3      5645   F   0.35000     110.90000     269.00000
         3      5649   F   0.30000      91.00000       0.00000
         3      5653   F   0.30000      91.00000     180.00000
         3      5657   F   0.35000     110.90000      91.00000
         3      5661   F   0.35000     110.90000     269.00000
         3      5665   F   0.30000      91.00000       0.00000
         3      5669   F   0.30000      91.00000     180.00000
         3      5673   F   0.35000     110.90000      91.00000
         3      5677   F   0.35000     110.90000     269.00000
         3      5681   F   0.30000      91.00000       0.00000
         3      5685   F   0.30000      91.00000     180.00000
         3      5689   F   0.35000     110.90000      91.00000
         3      5693   F   0.35000     110.90000     269.00000
         3      5697   F   0.30000      91.00000       0.00000
         3      5701   F   0.30000      91.00000     180.00000
         3      5705   F   0.35000     110.90000      91.00000
         3      5709   F   0.35000     110.90000     269.00000
         3      5713   F   0.30000      91.00000       0.00000
         3      5717   F   0.30000      91.00000     180.00000
         3      5721   F   0.35000     110.90000      91.00000
         3      5725   F   0.35000     110.90000     269.00000
         3      5729   F   0.30000      91.00000       0.00000
         3      5733   F   0.30000      91.00000     180.00000
         3      5737   F   0.35000     110.90000      91.00000
         3      5741   F   0.35000     110.90000     269.00000
         3      5745   F   0.30000      91.00000       0.00000
         3      5749   F   0.30000      91.00000     180.00000
         3      5753   F   0.35000     110.90000      91.00000
         3      5757   F   0.35000     110.90000     269.00000
         3      5761   F   0.30000      91.00000       0.00000
         3      5765   F   0.30000      91.00000     180.00000
         3      5769   F   0.35000     110.90000      91.00000
         3      5773   F   0.35000     110.90000     269.00000
         3      5777   F   0.30000      91.00000       0.00000
         3      5781   F   0.30000      91.00000     180.00000
         3      5785   F   0.35000     110.90000      91.00000
         3      5789   F   0.35000     110.90000     269.00000
         3      5793   F   0.30000      91.00000       0.00000
         3      5797   F   0.30000      91.00000     180.00000
         3      5801   F   0.35000     110.90000      91.00000
         3      5805   F   0.35000     110.90000     269.00000
         3      5809   F   0.30000      91.00000       0.00000
         3      5813   F   0.30000      91.00000     180.00000
         3      5817   F   0.35000     110.90000      91.00000
         3      5821   F   0.35000     110.90000     269.00000
         3      5825   F   0.30000      91.00000       0.00000
         3      5829   F   0.30000      91.00000     180.00000
         3      5833   F   0.35000     110.90000      91.00000
         3      5837   F   0.35000     110.90000     269.00000
         3      5841   F   0.30000      91.00000       0.00000
         3      5845   F   0.30000      91.00000     180.00000
         3      5849   F   0.35000     110.90000      91.00000
         3      5853   F   0.35000     110.90000     269.00000
         3      5857   F   0.30000      91.00000       0.00000
         3      5861   F   0.30000      91.00000     180.00000
         3      5865   F   0.35000     110.90000      91.00000
         3      5869   F   0.35000     110.90000     269.00000
         3      5873   F   0.30000      91.00000       0.00000
         3      5877   F   0.30000      91.00000     180.00000
         3      5881   F   0.35000     110.90000      91.00000
         3      5885   F   0.35000     110.90000     269.00000
         3      5889   F   0.30000      91.00000       0.00000
         3      5893   F   0.30000      91.00000     180.00000
         3      5897   F   0.35000     110.90000      91.00000
         3      5901   F   0.35000     110.90000     269.00000
         3      5905   F   0.30000      91.00000       0.00000
         3      5909   F   0.30000      91.00000     180.00000
         3      5913   F   0.35000     110.90000      91.00000
         3      5917   F   0.35000     110.90000     269.00000
         3      5921   F   0.30000      91.00000       0.00000
         3      5925   F   0.30000      91.00000     180.00000
         3      5929   F   0.35000     110.90000      91.00000
         3      5933   F   0.35000     110.90000     269.00000
         3      5937   F   0.30000      91.00000       0.00000
         3      5941   F   0.30000      91.00000     180.00000
         3      5945   F   0.35000     110.90000      91.00000
         3      5949   F   0.35000     110.90000     269.00000
         3      5953   F   0.30000      91.00000       0.00000
         3      5957   F   0.30000      91.00000     180.00000
         3      5961   F   0.35000     110.90000      91.00000
         3      5965   F   0.35000     110.90000     269.00000
         3      5969   F   0.30000      91.00000       0.00000
         3      5973   F   0.30000      91.00000     180.00000
         3      5977   F   0.35000     110.90000      91.00000
         3      5981   F   0.35000     110.90000     269.00000
         3      5985   F   0.30000      91.00000       0.00000
         3      5989   F   0.30000      91.00000     180.00000
         3      5993   F   0.35000     110.90000      91.00000
         3      5997   F   0.35000     110.90000     269.00000
         3      6001   F   0.30000      91.00000       0.00000
         3      6005   F   0.30000      91.00000     180.00000
         3      6009   F   0.35000     110.90000      91.00000
         3      6013   F   0.35000     110.90000     269.00000
         3      6017   F   0.30000      91.00000       0.00000
         3      6021   F   0.30000      91.00000     180.00000
         3      6025   F   0.35000     110.90000      91.00000
         3      6029   F   0.35000     110.90000     269.00000
         3      6033   F   0.30000      91.00000       0.00000
         3      6037   F   0.30000      91.00000     180.00000
         3      6041   F   0.35000     110.90000      91.00000
         3      6045   F   0.35000     110.90000     269.00000
         3      6049   F   0.30000      91.00000       0.00000
         3      6053   F   0.30000      91.00000     180.00000
         3      6057   F   0.35000     110.90000      91.00000
         3      6061   F   0.35000     110.90000     269.00000
         3      6065   F   0.30000      91.00000       0.00000
         3      6069   F   0.30000      91.00000     180.00000
         3      6073   F   0.35000     110.90000      91.00000
         3      6077   F   0.35000     110.90000     269.00000
         3      6081   F   0.30000      91.00000       0.00000
         3      6085   F   0.30000      91.00000     180.00000
         3      6089   F   0.35000     110.90000      91.00000
         3      6093   F   0.35000     110.90000     269.00000
         3      6097   F   0.30000      91.00000       0.00000
         3      6101   F   0.30000      91.00000     180.00000
         3      6105   F   0.35000     110.90000      91.00000
         3      6109   F   0.35000     110.90000     269.00000
         3      6113   F   0.30000      91.00000       0.00000
         3      6117   F   0.30000      91.00000     180.00000
         3      6121   F   0.35000     110.90000      91.00000
         3      6125   F   0.35000     110.90000     269.00000
         3      6129   F   0.30000      91.00000       0.00000
         3      6133   F   0.30000      91.00000     180.00000
         3      6137   F   0.35000     110.90000      91.00000
         3      6141   F   0.35000     110.90000     269.00000
         3      6145   F   0.30000      91.00000       0.00000
         3      6149   F   0.30000      91.00000     180.00000
         3      6153   F   0.35000     110.90000      91.00000
         3      6157   F   0.35000     110.90000     269.00000
         3      6161   F   0.30000      91.00000       0.00000
         3      6165   F   0.30000      91.00000     180.00000
         3      6169   F   0.35000     110.90000      91.00000
         3      6173   F   0.35000     110.90000     269.00000
         3      6177   F   0.30000      91.00000       0.00000
         3      6181   F   0.30000      91.00000     180.00000
         3      6185   F   0.35000     110.90000      91.00000
         3      6189   F   0.35000     110.90000     269.00000
         3      6193   F   0.30000      91.00000       0.00000
         3      6197   F   0.30000      91.00000     180.00000
         3      6201   F   0.35000     110.90000      91.00000
         3      6205   F   0.35000     110.90000     269.00000
         3      6209   F   0.30000      91.00000       0.00000
         3      6213   F   0.30000      91.00000     180.00000
         3      6217   F   0.35000     110.90000      91.00000
         3      6221   F   0.35000     110.90000     269.00000
         3      6225   F   0.30000      91.00000       0.00000
         3      6229   F   0.30000      91.00000     180.00000
         3      6233   F   0.35000     110.90000      91.00000
         3      6237   F   0.35000     110.90000     269.00000
         3      6241   F   0.30000      91.00000       0.00000
         3      6245   F   0.30000      91.00000     180.00000
         3      6249   F   0.35000     110.90000      91.00000
         3      6253   F   0.35000     110.90000     269.00000
         3      6257   F   0.30000      91.00000       0.00000
         3      6261   F   0.30000      91.00000     180.00000
         3      6265   F   0.35000     110.90000      91.00000
         3      6269   F   0.35000     110.90000     269.00000
         3      6273   F   0.30000      91.00000       0.00000
         3      6277   F   0.30000      91.00000     180.00000
         3      6281   F   0.35000     110.90000      91.00000
         3      6285   F   0.35000     110.90000     269.00000
         3      6289   F   0.30000      91.00000       0.00000
         3      6293   F   0.30000      91.00000     180.00000
         3      6297   F   0.35000     110.90000      91.00000
         3      6301   F   0.35000     110.90000     269.00000
         3      6305   F   0.30000      91.00000       0.00000
         3      6309   F   0.30000      91.00000     180.00000
         3      6313   F   0.35000     110.90000      91.00000
         3      6317   F   0.35000     110.90000     269.00000
         3      6321   F   0.30000      91.00000       0.00000
         3      6325   F   0.30000      91.00000     180.00000
         3      6329   F   0.35000     110.90000      91.00000
         3      6333   F   0.35000     110.90000     269.00000
         3      6337   F   0.30000      91.00000       0.00000
         3      6341   F   0.30000      91.00000     180.00000
         3      6345   F   0.35000     110.90000      91.00000
         3      6349   F   0.35000     110.90000     269.00000
         3      6353   F   0.30000      91.00000       0.00000
         3      6357   F   0.30000      91.00000     180.00000
         3      6361   F   0.35000     110.90000      91.00000
         3      6365   F   0.35000     110.90000     269.00000
         3      6369   F   0.30000      91.00000       0.00000
         3      6373   F   0.30000      91.00000     180.00000
         3      6377   F   0.35000     110.90000      91.00000
         3      6381   F   0.35000     110.90000     269.00000
         3      6385   F   0.30000      91.00000       0.00000
         3      6389   F   0.30000      91.00000     180.00000
         3      6393   F   0.35000     110.90000      91.00000
         3      6397   F   0.35000     110.90000     269.00000
         3      6401   F   0.30000      91.00000       0.00000
         3      6405   F   0.30000      91.00000     180.00000
         3      6409   F   0.35000     110.90000      91.00000
         3      6413   F   0.35000     110.90000     269.00000
         3      6417   F   0.35000     110.00000       0.00000
         3      6421   F   0.35000     110.00000     180.00000
         3      6425   F   0.35000     110.00000       0.00000
         3      6429   F   0.35000     110.00000     180.00000
         3      6433   F   0.35000     110.00000       0.00000
         3      6437   F   0.35000     110.00000     180.00000
         3      6441   F   0.35000     110.00000       0.00000
         3      6445   F   0.35000     110.00000     180.00000
         3      6449   F   0.35000     110.00000       0.00000
         3      6453   F   0.35000     110.00000     180.00000
         3      6457   F   0.35000     110.00000       0.00000
         3      6461   F   0.35000     110.00000     180.00000
         3      6465   F  -0.35000     110.00000      90.00000
         3      6469   F  -0.35000     110.00000     270.00000
         3      6473   F   0.35000     110.00000       0.00000
         3      6477   F   0.35000     110.00000     180.00000
         3      6481   F   0.35000     110.00000       0.00000
         3      6485   F   0.35000     110.00000     180.00000
         3      6489   F   0.35000     110.00000       0.00000
         3      6493   F   0.35000     110.00000     180.00000
         3      6497   F   0.35000     110.00000       0.00000
         3      6501   F   0.35000     110.00000     180.00000
         3      6505   F   0.35000     110.00000       0.00000
         3      6509   F   0.35000     110.00000     180.00000
         3      6513   F   0.35000     110.00000       0.00000
         3      6517   F   0.35000     110.00000     180.00000
         3      6521   F   0.35000     110.00000       0.00000
         3      6525   F   0.35000     110.00000     180.00000
         3      6529   F   0.35000     110.00000       0.00000
         3      6533   F   0.35000     110.00000     180.00000
         3      6537   F   0.35000     110.00000       0.00000
         3      6541   F   0.35000     110.00000     180.00000
         3      6545   F  -0.35000     110.00000      90.00000
         3      6549   F  -0.35000     110.00000     270.00000
         3      6553   F   0.35000     110.00000       0.00000
         3      6557   F   0.35000     110.00000     180.00000
         3      6561   F   0.35000     110.00000       0.00000
         3      6565   F   0.35000     110.00000     180.00000
         3      6569   F   0.35000     110.00000       0.00000
         3      6573   F   0.35000     110.00000     180.00000
         3      6577   F   0.35000     110.00000       0.00000
         3      6581   F   0.35000     110.00000     180.00000
         3      6585   F   0.35000     110.00000       0.00000
         3      6589   F   0.35000     110.00000     180.00000
         3      6593   F   0.35000     110.00000       0.00000
         3      6597   F   0.35000     110.00000     180.00000
         3      6601   F   0.35000     110.00000       0.00000
         3      6605   F   0.35000     110.00000     180.00000
         3      6609   F   0.35000     110.00000       0.00000
         3      6613   F   0.35000     110.00000     180.00000
         3      6617   F   0.35000     110.00000       0.00000
         3      6621   F   0.35000     110.00000     180.00000
         3      6625   F  -0.35000     110.00000      90.00000
         3      6629   F  -0.35000     110.00000     270.00000
         3      6633   F   0.35000     110.00000       0.00000
         3      6637   F   0.35000     110.00000     180.00000
         3      6641   F   0.35000     110.00000       0.00000
         3      6645   F   0.35000     110.00000     180.00000
         3      6649   F   0.35000     110.00000       0.00000
         3      6653   F   0.35000     110.00000     180.00000
         3      6657   F   0.35000     110.00000       0.00000
         3      6661   F   0.35000     110.00000     180.00000
         3      6665   F   0.35000     110.00000       0.00000
         3      6669   F   0.35000     110.00000     180.00000
         3      6673   F   0.35000     110.00000       0.00000
         3      6677   F   0.35000     110.00000     180.00000
         3      6681   F   0.35000     110.00000       0.00000
         3      6685   F   0.35000     110.00000     180.00000
         3      6689   F   0.35000     110.00000       0.00000
         3      6693   F   0.35000     110.00000     180.00000
         3      6697   F   0.35000     110.00000       0.00000
         3      6701   F   0.35000     110.00000     180.00000
         3      6705   F  -0.35000     110.00000      90.00000
         3      6709   F  -0.35000     110.00000     270.00000
         3      6713   F   0.35000     110.00000       0.00000
         3      6717   F   0.35000     110.00000     180.00000
         3      6721   F   0.35000     110.00000       0.00000
         3      6725   F   0.35000     110.00000     180.00000
         3      6729   F   0.35000     110.00000       0.00000
         3      6733   F   0.35000     110.00000     180.00000
         3      6737   F   0.35000     110.00000       0.00000
         3      6741   F   0.35000     110.00000     180.00000
         3      6745   F   0.35000     110.00000       0.00000
         3      6749   F   0.35000     110.00000     180.00000
         3      6753   F   0.35000     110.00000       0.00000
         3      6757   F   0.35000     110.00000     180.00000
         3      6761   F   0.35000     110.00000       0.00000
         3      6765   F   0.35000     110.00000     180.00000
         3      6769   F   0.35000     110.00000       0.00000
         3      6773   F   0.35000     110.00000     180.00000
         3      6777   F   0.35000     110.00000       0.00000
         3      6781   F   0.35000     110.00000     180.00000
         3      6785   F  -0.35000     110.00000      90.00000
         3      6789   F  -0.35000     110.00000     270.00000
         3      6793   F   0.35000     110.00000       0.00000
         3      6797   F   0.35000     110.00000     180.00000
         3      6801   F   0.35000     110.00000       0.00000
         3      6805   F   0.35000     110.00000     180.00000
         3      6809   F   0.35000     110.00000       0.00000
         3      6813   F   0.35000     110.00000     180.00000
         3      6817   F   0.35000     110.00000       0.00000
         3      6821   F   0.35000     110.00000     180.00000
         3      6825   F   0.35000     110.00000       0.00000
         3      6829   F   0.35000     110.00000     180.00000
         3      6833   F   0.35000     110.00000       0.00000
         3      6837   F   0.35000     110.00000     180.00000
         3      6841   F   0.35000     110.00000       0.00000
         3      6845   F   0.35000     110.00000     180.00000
         3      6849   F   0.35000     110.00000       0.00000
         3      6853   F   0.35000     110.00000     180.00000
         3      6857   F   0.35000     110.00000       0.00000
         3      6861   F   0.35000     110.00000     180.00000
         3      6865   F  -0.35000     110.00000      90.00000
         3      6869   F  -0.35000     110.00000     270.00000
         3      6873   F   0.35000     110.00000       0.00000
         3      6877   F   0.35000     110.00000     180.00000
         3      6881   F   0.35000     110.00000       0.00000
         3      6885   F   0.35000     110.00000     180.00000
         3      6889   F   0.35000     110.00000       0.00000
         3      6893   F   0.35000     110.00000     180.00000
         3      6897   F   0.35000     110.00000       0.00000
         3      6901   F   0.35000     110.00000     180.00000
         3      6905   F   0.35000     110.00000       0.00000
         3      6909   F   0.35000     110.00000     180.00000
         3      6913   F   0.35000     110.00000       0.00000
         3      6917   F   0.35000     110.00000     180.00000
         3      6921   F   0.35000     110.00000       0.00000
         3      6925   F   0.35000     110.00000     180.00000
         3      6929   F   0.35000     110.00000       0.00000
         3      6933   F   0.35000     110.00000     180.00000
         3      6937   F   0.35000     110.00000       0.00000
         3      6941   F   0.35000     110.00000     180.00000
         3      6945   F  -0.35000     110.00000      90.00000
         3      6949   F  -0.35000     110.00000     270.00000
         3      6953   F   0.35000     110.00000       0.00000
         3      6957   F   0.35000     110.00000     180.00000
         3      6961   F   0.35000     110.00000       0.00000
         3      6965   F   0.35000     110.00000     180.00000
         3      6969   F   0.35000     110.00000       0.00000
         3      6973   F   0.35000     110.00000     180.00000
         3      6977   F   0.35000     110.00000       0.00000
         3      6981   F   0.35000     110.00000     180.00000
         3      6985   F   0.35000     110.00000       0.00000
         3      6989   F   0.35000     110.00000     180.00000
         3      6993   F   0.35000     110.00000       0.00000
         3      6997   F   0.35000     110.00000     180.00000
         3      7001   F   0.35000     110.00000       0.00000
         3      7005   F   0.35000     110.00000     180.00000
         3      7009   F   0.35000     110.00000       0.00000
         3      7013   F   0.35000     110.00000     180.00000
         3      7017   F   0.35000     110.00000       0.00000
         3      7021   F   0.35000     110.00000     180.00000
         3      7025   F  -0.35000     110.00000      90.00000
         3      7029   F  -0.35000     110.00000     270.00000
         3      7033   F   0.35000     110.00000       0.00000
         3      7037   F   0.35000     110.00000     180.00000
         3      7041   F   0.35000     110.00000       0.00000
         3      7045   F   0.35000     110.00000     180.00000
         3      7049   F   0.35000     110.00000       0.00000
         3      7053   F   0.35000     110.00000     180.00000
         3      7057   F   0.35000     110.00000       0.00000
         3      7061   F   0.35000     110.00000     180.00000
         3      7065   F   0.35000     110.00000       0.00000
         3      7069   F   0.35000     110.00000     180.00000
         3      7073   F   0.35000     110.00000       0.00000
         3      7077   F   0.35000     110.00000     180.00000
         3      7081   F   0.35000     110.00000       0.00000
         3      7085   F   0.35000     110.00000     180.00000
         3      7089   F   0.35000     110.00000       0.00000
         3      7093   F   0.35000     110.00000     180.00000
         3      7097   F   0.35000     110.00000       0.00000
         3      7101   F   0.35000     110.00000     180.00000
         3      7105   F  -0.35000     110.00000      90.00000
         3      7109   F  -0.35000     110.00000     270.00000
         3      7113   F   0.35000     110.00000       0.00000
         3      7117   F   0.35000     110.00000     180.00000
         3      7121   F   0.35000     110.00000       0.00000
         3      7125   F   0.35000     110.00000     180.00000
         3      7129   F   0.35000     110.00000       0.00000
         3      7133   F   0.35000     110.00000     180.00000
         3      7137   F   0.35000     110.00000       0.00000
         3      7141   F   0.35000     110.00000     180.00000
         3      7145   F   0.35000     110.00000       0.00000
         3      7149   F   0.35000     110.00000     180.00000
         3      7153   F   0.35000     110.00000       0.00000
         3      7157   F   0.35000     110.00000     180.00000
         3      7161   F   0.35000     110.00000       0.00000
         3      7165   F   0.35000     110.00000     180.00000
         3      7169   F   0.35000     110.00000       0.00000
         3      7173   F   0.35000     110.00000     180.00000
         3      7177   F   0.35000     110.00000       0.00000
         3      7181   F   0.35000     110.00000     180.00000
         3      7185   F  -0.35000     110.00000      90.00000
         3      7189   F  -0.35000     110.00000     270.00000
         3      7193   F   0.35000     110.00000       0.00000
         3      7197   F   0.35000     110.00000     180.00000
         3      7201   F   0.35000     110.00000       0.00000
         3      7205   F   0.35000     110.00000     180.00000
         3      7209   F   0.35000     110.00000       0.00000
         3      7213   F   0.35000     110.00000     180.00000
         3      7217   F   0.35000     110.00000       0.00000
         3      7221   F   0.35000     110.00000     180.00000
         3      7225   F   0.35000     110.00000       0.00000
         3      7229   F   0.35000     110.00000     180.00000
         3      7233   F   0.35000     110.00000       0.00000
         3      7237   F   0.35000     110.00000     180.00000
         3      7241   F   0.35000     110.00000       0.00000
         3      7245   F   0.35000     110.00000     180.00000
         3      7249   F   0.35000     110.00000       0.00000
         3      7253   F   0.35000     110.00000     180.00000
         3      7257   F   0.35000     110.00000       0.00000
         3      7261   F   0.35000     110.00000     180.00000
         3      7265   F  -0.35000     110.00000      90.00000
         3      7269   F  -0.35000     110.00000     270.00000
         3      7273   F   0.35000     110.00000       0.00000
         3      7277   F   0.35000     110.00000     180.00000
         3      7281   F   0.35000     110.00000       0.00000
         3      7285   F   0.35000     110.00000     180.00000
         3      7289   F   0.35000     110.00000       0.00000
         3      7293   F   0.35000     110.00000     180.00000
         3      7297   F   0.35000     110.00000       0.00000
         3      7301   F   0.35000     110.00000     180.00000
         3      7305   F   0.35000     110.00000       0.00000
         3      7309   F   0.35000     110.00000     180.00000
         3      7313   F   0.35000     110.00000       0.00000
         3      7317   F   0.35000     110.00000     180.00000
         3      7321   F   0.35000     110.00000       0.00000
         3      7325   F   0.35000     110.00000     180.00000
         3      7329   F   0.35000     110.00000       0.00000
         3      7333   F   0.35000     110.00000     180.00000
         3      7337   F   0.35000     110.00000       0.00000
         3      7341   F   0.35000     110.00000     180.00000
         3      7345   F  -0.35000     110.00000      90.00000
         3      7349   F  -0.35000     110.00000     270.00000
         3      7353   F   0.35000     110.00000       0.00000
         3      7357   F   0.35000     110.00000     180.00000
         3      7361   F   0.35000     110.00000       0.00000
         3      7365   F   0.35000     110.00000     180.00000
         3      7369   F   0.35000     110.00000       0.00000
         3      7373   F   0.35000     110.00000     180.00000
         3      7377   F   0.35000     110.00000       0.00000
         3      7381   F   0.35000     110.00000     180.00000
         3      7385   F   0.35000     110.00000       0.00000
         3      7389   F   0.35000     110.00000     180.00000
         3      7393   F   0.35000     110.00000       0.00000
         3      7397   F   0.35000     110.00000     180.00000
         3      7401   F   0.35000     110.00000       0.00000
         3      7405   F   0.35000     110.00000     180.00000
         3      7409   F   0.35000     110.00000       0.00000
         3      7413   F   0.35000     110.00000     180.00000
         3      7417   F   0.35000     110.00000       0.00000
         3      7421   F   0.35000     110.00000     180.00000
         3      7425   F  -0.35000     110.00000      90.00000
         3      7429   F  -0.35000     110.00000     270.00000
         3      7433   F   0.35000     110.00000       0.00000
         3      7437   F   0.35000     110.00000     180.00000
         3      7441   F   0.35000     110.00000       0.00000
         3      7445   F   0.35000     110.00000     180.00000
         3      7449   F   0.35000     110.00000       0.00000
         3      7453   F   0.35000     110.00000     180.00000
         3      7457   F   0.35000     110.00000       0.00000
         3      7461   F   0.35000     110.00000     180.00000
         3      7465   F   0.35000     110.00000       0.00000
         3      7469   F   0.35000     110.00000     180.00000
         3      7473   F   0.35000     110.00000       0.00000
         3      7477   F   0.35000     110.00000     180.00000
         3      7481   F   0.35000     110.00000       0.00000
         3      7485   F   0.35000     110.00000     180.00000
         3      7489   F   0.35000     110.00000       0.00000
         3      7493   F   0.35000     110.00000     180.00000
         3      7497   F   0.35000     110.00000       0.00000
         3      7501   F   0.35000     110.00000     180.00000
         3      7505   F  -0.35000     110.00000      90.00000
         3      7509   F  -0.35000     110.00000     270.00000
         3      7513   F   0.35000     110.00000       0.00000
         3      7517   F   0.35000     110.00000     180.00000
         3      7521   F   0.35000     110.00000       0.00000
         3      7525   F   0.35000     110.00000     180.00000
         3      7529   F   0.35000     110.00000       0.00000
         3      7533   F   0.35000     110.00000     180.00000
         3      7537   F   0.35000     110.00000       0.00000
         3      7541   F   0.35000     110.00000     180.00000
         3      7545   F   0.35000     110.00000       0.00000
         3      7549   F   0.35000     110.00000     180.00000
         3      7553   F   0.35000     110.00000       0.00000
         3      7557   F   0.35000     110.00000     180.00000
         3      7561   F   0.35000     110.00000       0.00000
         3      7565   F   0.35000     110.00000     180.00000
         3      7569   F   0.35000     110.00000       0.00000
         3      7573   F   0.35000     110.00000     180.00000
         3      7577   F   0.35000     110.00000       0.00000
         3      7581   F   0.35000     110.00000     180.00000
         3      7585   F  -0.35000     110.00000      90.00000
         3      7589   F  -0.35000     110.00000     270.00000
         3      7593   F   0.35000     110.00000       0.00000
         3      7597   F   0.35000     110.00000     180.00000
         3      7601   F   0.35000     110.00000       0.00000
         3      7605   F   0.35000     110.00000     180.00000
         3      7609   F   0.35000     110.00000       0.00000
         3      7613   F   0.35000     110.00000     180.00000
         3      7617   F   0.35000     110.00000       0.00000
         3      7621   F   0.35000     110.00000     180.00000
         3      7625   F   0.35000     110.00000       0.00000
         3      7629   F   0.35000     110.00000     180.00000
         3      7633   F   0.35000     110.00000       0.00000
         3      7637   F   0.35000     110.00000     180.00000
         3      7641   F   0.35000     110.00000       0.00000
         3      7645   F   0.35000     110.00000     180.00000
         3      7649   F   0.35000     110.00000       0.00000
         3      7653   F   0.35000     110.00000     180.00000
         3      7657   F   0.35000     110.00000       0.00000
         3      7661   F   0.35000     110.00000     180.00000
         3      7665   F  -0.35000     110.00000      90.00000
         3      7669   F  -0.35000     110.00000     270.00000
         3      7673   F   0.35000     110.00000       0.00000
         3      7677   F   0.35000     110.00000     180.00000
         3      7681   F   0.35000     110.00000       0.00000
         3      7685   F   0.35000     110.00000     180.00000
         3      7689   F   0.35000     110.00000       0.00000
         3      7693   F   0.35000     110.00000     180.00000
         3      7697   F   0.35000     110.00000       0.00000
         3      7701   F   0.35000     110.00000     180.00000
         3      7705   F   0.35000     110.00000       0.00000
         3      7709   F   0.35000     110.00000     180.00000
         3      7713   F   0.35000     110.00000       0.00000
         3      7717   F   0.35000     110.00000     180.00000
         3      7721   F   0.35000     110.00000       0.00000
         3      7725   F   0.35000     110.00000     180.00000
         3      7729   F   0.35000     110.00000       0.00000
         3      7733   F   0.35000     110.00000     180.00000
         3      7737   F   0.35000     110.00000       0.00000
         3      7741   F   0.35000     110.00000     180.00000
         3      7745   F  -0.35000     110.00000      90.00000
         3      7749   F  -0.35000     110.00000     270.00000
         3      7753   F   0.35000     110.00000       0.00000
         3      7757   F   0.35000     110.00000     180.00000
         3      7761   F   0.35000     110.00000       0.00000
         3      7765   F   0.35000     110.00000     180.00000
         3      7769   F   0.35000     110.00000       0.00000
         3      7773   F   0.35000     110.00000     180.00000
         3      7777   F   0.35000     110.00000       0.00000
         3      7781   F   0.35000     110.00000     180.00000
         3      7785   F   0.35000     110.00000       0.00000
         3      7789   F   0.35000     110.00000     180.00000
         3      7793   F   0.35000     110.00000       0.00000
         3      7797   F   0.35000     110.00000     180.00000
         3      7801   F   0.35000     110.00000       0.00000
         3      7805   F   0.35000     110.00000     180.00000
         3      7809   F   0.35000     110.00000       0.00000
         3      7813   F   0.35000     110.00000     180.00000
         3      7817   F   0.35000     110.00000       0.00000
         3      7821   F   0.35000     110.00000     180.00000
         3      7825   F  -0.35000     110.00000      90.00000
         3      7829   F  -0.35000     110.00000     270.00000
         3      7833   F   0.35000     110.00000       0.00000
         3      7837   F   0.35000     110.00000     180.00000
         3      7841   F   0.35000     110.00000       0.00000
         3      7845   F   0.35000     110.00000     180.00000
         3      7849   F   0.35000     110.00000       0.00000
         3      7853   F   0.35000     110.00000     180.00000
         3      7857   F   0.35000     110.00000      91.00000
         3      7861   F   0.35000     110.00000     269.00000
         3      7865   F   0.35000     110.00000      91.00000
         3      7869   F   0.35000     110.00000     269.00000
         3      7873   F   0.35000     110.00000      91.00000
         3      7877   F   0.35000     110.00000     269.00000
         3      7881   F   0.35000     110.00000      91.00000
         3      7885   F   0.35000     110.00000     269.00000
         3      7889   F   0.35000     110.00000      91.00000
         3      7893   F   0.35000     110.00000     269.00000
         3      7897   F   0.35000     110.00000      91.00000
         3      7901   F   0.35000     110.00000     269.00000
         3      7905   F   0.35000     110.00000      91.00000
         3      7909   F   0.35000     110.00000     269.00000
         3      7913   F   0.35000     110.00000      91.00000
         3      7917   F   0.35000     110.00000     269.00000
         3      7921   F   0.35000     110.00000      91.00000
         3      7925   F   0.35000     110.00000     269.00000
         3      7929   F   0.35000     110.00000      91.00000
         3      7933   F   0.35000     110.00000     269.00000
         3      7937   F   0.35000     110.00000      91.00000
         3      7941   F   0.35000     110.00000     269.00000
         3      7945   F   0.35000     110.00000      91.00000
         3      7949   F   0.35000     110.00000     269.00000
         3      7953   F   0.35000     110.00000      91.00000
         3      7957   F   0.35000     110.00000     269.00000
         3      7961   F   0.35000     110.00000      91.00000
         3      7965   F   0.35000     110.00000     269.00000
         3      7969   F   0.35000     110.00000      91.00000
         3      7973   F   0.35000     110.00000     269.00000
         3      7977   F   0.35000     110.00000      91.00000
         3      7981   F   0.35000     110.00000     269.00000
         3      7985   F   0.35000     110.00000      91.00000
         3      7989   F   0.35000     110.00000     269.00000
         3      7993   F   0.35000     110.00000      91.00000
         3      7997   F   0.35000     110.00000     269.00000
         3      8001   F   0.35000     110.00000      91.00000
         3      8005   F   0.35000     110.00000     269.00000
         3      8009   F   0.35000     110.00000      91.00000
         3      8013   F   0.35000     110.00000     269.00000
         3      8017   F   0.35000     110.00000      91.00000
         3      8021   F   0.35000     110.00000     269.00000
         3      8025   F   0.35000     110.00000      91.00000
         3      8029   F   0.35000     110.00000     269.00000
         3      8033   F   0.35000     110.00000      91.00000
         3      8037   F   0.35000     110.00000     269.00000
         3      8041   F   0.35000     110.00000      91.00000
         3      8045   F   0.35000     110.00000     269.00000
         3      8049   F   0.35000     110.00000      91.00000
         3      8053   F   0.35000     110.00000     269.00000
         3      8057   F   0.35000     110.00000      91.00000
         3      8061   F   0.35000     110.00000     269.00000
         3      8065   F   0.35000     110.00000      91.00000
         3      8069   F   0.35000     110.00000     269.00000
         3      8073   F   0.35000     110.00000      91.00000
         3      8077   F   0.35000     110.00000     269.00000
         3      8081   F   0.35000     110.00000      91.00000
         3      8085   F   0.35000     110.00000     269.00000
         3      8089   F   0.35000     110.00000      91.00000
         3      8093   F   0.35000     110.00000     269.00000
         3      8097   F   0.35000     110.00000      91.00000
         3      8101   F   0.35000     110.00000     269.00000
         3      8105   F   0.35000     110.00000      91.00000
         3      8109   F   0.35000     110.00000     269.00000
         3      8113   F   0.35000     110.00000      91.00000
         3      8117   F   0.35000     110.00000     269.00000
         3      8121   F   0.35000     110.00000      91.00000
         3      8125   F   0.35000     110.00000     269.00000
         3      8129   F   0.35000     110.00000      91.00000
         3      8133   F   0.35000     110.00000     269.00000
         3      8137   F   0.35000     110.00000      91.00000
         3      8141   F   0.35000     110.00000     269.00000
         3      8145   F   0.35000     110.00000      91.00000
         3      8149   F   0.35000     110.00000     269.00000
         3      8153   F   0.35000     110.00000      91.00000
         3      8157   F   0.35000     110.00000     269.00000
         3      8161   F   0.35000     110.00000      91.00000
         3      8165   F   0.35000     110.00000     269.00000
         3      8169   F   0.35000     110.00000      91.00000
         3      8173   F   0.35000     110.00000     269.00000
         3      8177   F   0.35000     110.00000      91.00000
         3      8181   F   0.35000     110.00000     269.00000
         3      8185   F   0.35000     110.00000      91.00000
         3      8189   F   0.35000     110.00000     269.00000
         3      8193   F   0.35000     110.00000      91.00000
         3      8197   F   0.35000     110.00000     269.00000
         3      8201   F   0.35000     110.00000      91.00000
         3      8205   F   0.35000     110.00000     269.00000
         3      8209   F   0.35000     110.00000      91.00000
         3      8213   F   0.35000     110.00000     269.00000
         3      8217   F   0.35000     110.00000      91.00000
         3      8221   F   0.35000     110.00000     269.00000
         3      8225   F   0.35000     110.00000      91.00000
         3      8229   F   0.35000     110.00000     269.00000
         3      8233   F   0.35000     110.00000      91.00000
         3      8237   F   0.35000     110.00000     269.00000
         3      8241   F   0.35000     110.00000      91.00000
         3      8245   F   0.35000     110.00000     269.00000
         3      8249   F   0.35000     110.00000      91.00000
         3      8253   F   0.35000     110.00000     269.00000
         3      8257   F   0.35000     110.00000      91.00000
         3      8261   F   0.35000     110.00000     269.00000
         3      8265   F   0.35000     110.00000      91.00000
         3      8269   F   0.35000     110.00000     269.00000
         3      8273   F   0.35000     110.00000      91.00000
         3      8277   F   0.35000     110.00000     269.00000
         3      8281   F   0.35000     110.00000      91.00000
         3      8285   F   0.35000     110.00000     269.00000
         3      8289   F   0.35000     110.00000      91.00000
         3      8293   F   0.35000     110.00000     269.00000
         3      8297   F   0.35000     110.00000      91.00000
         3      8301   F   0.35000     110.00000     269.00000
         3      8305   F   0.35000     110.00000      91.00000
         3      8309   F   0.35000     110.00000     269.00000
         3      8313   F   0.35000     110.00000      91.00000
         3      8317   F   0.35000     110.00000     269.00000
         3      8321   F   0.35000     110.00000      91.00000
         3      8325   F   0.35000     110.00000     269.00000
         3      8329   F   0.35000     110.00000      91.00000
         3      8333   F   0.35000     110.00000     269.00000
         3      8337   F   0.35000     110.00000      91.00000
         3      8341   F   0.35000     110.00000     269.00000
         3      8345   F   0.35000     110.00000      91.00000
         3      8349   F   0.35000     110.00000     269.00000
         3      8353   F   0.35000     110.00000      91.00000
         3      8357   F   0.35000     110.00000     269.00000
         3      8361   F   0.35000     110.00000      91.00000
         3      8365   F   0.35000     110.00000     269.00000
         3      8369   F   0.35000     110.00000      91.00000
         3      8373   F   0.35000     110.00000     269.00000
         3      8377   F   0.35000     110.00000      91.00000
         3      8381   F   0.35000     110.00000     269.00000
         3      8385   F   0.35000     110.00000      91.00000
         3      8389   F   0.35000     110.00000     269.00000
         3      8393   F   0.35000     110.00000      91.00000
         3      8397   F   0.35000     110.00000     269.00000
         3      8401   F   0.35000     110.00000      91.00000
         3      8405   F   0.35000     110.00000     269.00000
         3      8409   F   0.35000     110.00000      91.00000
         3      8413   F   0.35000     110.00000     269.00000
         3      8417   F   0.35000     110.00000      91.00000
         3      8421   F   0.35000     110.00000     269.00000
         3      8425   F   0.35000     110.00000      91.00000
         3      8429   F   0.35000     110.00000     269.00000
         3      8433   F   0.35000     110.00000      91.00000
         3      8437   F   0.35000     110.00000     269.00000
         3      8441   F   0.35000     110.00000      91.00000
         3      8445   F   0.35000     110.00000     269.00000
         3      8449   F   0.35000     110.00000      91.00000
         3      8453   F   0.35000     110.00000     269.00000
         3      8457   F   0.35000     110.00000      91.00000
         3      8461   F   0.35000     110.00000     269.00000
         3      8465   F   0.35000     110.00000      91.00000
         3      8469   F   0.35000     110.00000     269.00000
         3      8473   F   0.35000     110.00000      91.00000
         3      8477   F   0.35000     110.00000     269.00000
         3      8481   F   0.35000     110.00000      91.00000
         3      8485   F   0.35000     110.00000     269.00000
         3      8489   F   0.35000     110.00000      91.00000
         3      8493   F   0.35000     110.00000     269.00000
         3      8497   F   0.35000     110.00000      91.00000
         3      8501   F   0.35000     110.00000     269.00000
         3      8505   F   0.35000     110.00000      91.00000
         3      8509   F   0.35000     110.00000     269.00000
         3      8513   F   0.35000     110.00000      91.00000
         3      8517   F   0.35000     110.00000     269.00000
         3      8521   F   0.35000     110.00000      91.00000
         3      8525   F   0.35000     110.00000     269.00000
         3      8529   F   0.35000     110.00000      91.00000
         3      8533   F   0.35000     110.00000     269.00000
         3      8537   F   0.35000     110.00000      91.00000
         3      8541   F   0.35000     110.00000     269.00000
         3      8545   F   0.35000     110.00000      91.00000
         3      8549   F   0.35000     110.00000     269.00000
         3      8553   F   0.35000     110.00000      91.00000
         3      8557   F   0.35000     110.00000     269.00000
         3      8561   F   0.35000     110.00000      91.00000
         3      8565   F   0.35000     110.00000     269.00000
         3      8569   F   0.35000     110.00000      91.00000
         3      8573   F   0.35000     110.00000     269.00000
         3      8577   F   0.35000     110.00000      91.00000
         3      8581   F   0.35000     110.00000     269.00000
         3      8585   F   0.35000     110.00000      91.00000
         3      8589   F   0.35000     110.00000     269.00000
         3      8593   F   0.35000     110.00000      91.00000
         3      8597   F   0.35000     110.00000     269.00000
         3      8601   F   0.35000     110.00000      91.00000
         3      8605   F   0.35000     110.00000     269.00000
         3      8609   F   0.35000     110.00000      91.00000
         3      8613   F   0.35000     110.00000     269.00000
         3      8617   F   0.35000     110.00000      91.00000
         3      8621   F   0.35000     110.00000     269.00000
         3      8625   F   0.35000     110.00000      91.00000
         3      8629   F   0.35000     110.00000     269.00000
         3      8633   F   0.35000     110.00000      91.00000
         3      8637   F   0.35000     110.00000     269.00000
         3      8641   F   0.35000     110.00000      91.00000
         3      8645   F   0.35000     110.00000     269.00000
         3      8649   F   0.35000     110.00000      91.00000
         3      8653   F   0.35000     110.00000     269.00000
         3      8657   F   0.35000     110.00000      91.00000
         3      8661   F   0.35000     110.00000     269.00000
         3      8665   F   0.35000     110.00000      91.00000
         3      8669   F   0.35000     110.00000     269.00000
         3      8673   F   0.35000     110.00000      91.00000
         3      8677   F   0.35000     110.00000     269.00000
         3      8681   F   0.35000     110.00000      91.00000
         3      8685   F   0.35000     110.00000     269.00000
         3      8689   F   0.35000     110.00000      91.00000
         3      8693   F   0.35000     110.00000     269.00000
         3      8697   F   0.35000     110.00000      91.00000
         3      8701   F   0.35000     110.00000     269.00000
         3      8705   F   0.35000     110.00000      91.00000
         3      8709   F   0.35000     110.00000     269.00000
         3      8713   F   0.35000     110.00000      91.00000
         3      8717   F   0.35000     110.00000     269.00000
         3      8721   F   0.35000     110.00000      91.00000
         3      8725   F   0.35000     110.00000     269.00000
         3      8729   F   0.35000     110.00000      91.00000
         3      8733   F   0.35000     110.00000     269.00000
         3      8737   F   0.35000     110.00000      91.00000
         3      8741   F   0.35000     110.00000     269.00000
         3      8745   F   0.35000     110.00000      91.00000
         3      8749   F   0.35000     110.00000     269.00000
         3      8753   F   0.35000     110.00000      91.00000
         3      8757   F   0.35000     110.00000     269.00000
         3      8761   F   0.35000     110.00000      91.00000
         3      8765   F   0.35000     110.00000     269.00000
         3      8769   F   0.35000     110.00000      91.00000
         3      8773   F   0.35000     110.00000     269.00000
         3      8777   F   0.35000     110.00000      91.00000
         3      8781   F   0.35000     110.00000     269.00000
         3      8785   F   0.35000     110.00000      91.00000
         3      8789   F   0.35000     110.00000     269.00000
         3      8793   F   0.35000     110.00000      91.00000
         3      8797   F   0.35000     110.00000     269.00000
         3      8801   F   0.35000     110.00000      91.00000
         3      8805   F   0.35000     110.00000     269.00000
         3      8809   F   0.35000     110.00000      91.00000
         3      8813   F   0.35000     110.00000     269.00000
         3      8817   F   0.35000     110.00000      91.00000
         3      8821   F   0.35000     110.00000     269.00000
         3      8825   F   0.35000     110.00000      91.00000
         3      8829   F   0.35000     110.00000     269.00000
         3      8833   F   0.35000     110.00000      91.00000
         3      8837   F   0.35000     110.00000     269.00000
         3      8841   F   0.35000     110.00000      91.00000
         3      8845   F   0.35000     110.00000     269.00000
         3      8849   F   0.35000     110.00000      91.00000
         3      8853   F   0.35000     110.00000     269.00000
         3      8857   F   0.35000     110.00000      91.00000
         3      8861   F   0.35000     110.00000     269.00000
         3      8865   F   0.35000     110.00000      91.00000
         3      8869   F   0.35000     110.00000     269.00000
         3      8873   F   0.35000     110.00000      91.00000
         3      8877   F   0.35000     110.00000     269.00000
         3      8881   F   0.35000     110.00000      91.00000
         3      8885   F   0.35000     110.00000     269.00000
         3      8889   F   0.35000     110.00000      91.00000
         3      8893   F   0.35000     110.00000     269.00000
         3      8897   F   0.35000     110.00000      91.00000
         3      8901   F   0.35000     110.00000     269.00000
         3      8905   F   0.35000     110.00000      91.00000
         3      8909   F   0.35000     110.00000     269.00000
         3      8913   F   0.35000     110.00000      91.00000
         3      8917   F   0.35000     110.00000     269.00000
         3      8921   F   0.35000     110.00000      91.00000
         3      8925   F   0.35000     110.00000     269.00000
         3      8929   F   0.35000     110.00000      91.00000
         3      8933   F   0.35000     110.00000     269.00000
         3      8937   F   0.35000     110.00000      91.00000
         3      8941   F   0.35000     110.00000     269.00000
         3      8945   F   0.35000     110.00000      91.00000
         3      8949   F   0.35000     110.00000     269.00000
         3      8953   F   0.35000     110.00000      91.00000
         3      8957   F   0.35000     110.00000     269.00000
         3      8961   F   0.35000     110.00000      91.00000
         3      8965   F   0.35000     110.00000     269.00000
         3      8969   F   0.35000     110.00000      91.00000
         3      8973   F   0.35000     110.00000     269.00000
         3      8977   F   0.35000     110.00000      91.00000
         3      8981   F   0.35000     110.00000     269.00000
         3      8985   F   0.35000     110.00000      91.00000
         3      8989   F   0.35000     110.00000     269.00000
         3      8993   F   0.35000     110.00000      91.00000
         3      8997   F   0.35000     110.00000     269.00000
         3      9001   F   0.35000     110.00000      91.00000
         3      9005   F   0.35000     110.00000     269.00000
         3      9009   F   0.35000     110.00000      91.00000
         3      9013   F   0.35000     110.00000     269.00000
         3      9017   F   0.35000     110.00000      91.00000
         3      9021   F   0.35000     110.00000     269.00000
         3      9025   F   0.35000     110.00000      91.00000
         3      9029   F   0.35000     110.00000     269.00000
         3      9033   F   0.35000     110.00000      91.00000
         3      9037   F   0.35000     110.00000     269.00000
         3      9041   F   0.35000     110.00000      91.00000
         3      9045   F   0.35000     110.00000     269.00000
         3      9049   F   0.35000     110.00000      91.00000
         3      9053   F   0.35000     110.00000     269.00000
         3      9057   F   0.35000     110.00000      91.00000
         3      9061   F   0.35000     110.00000     269.00000
         3      9065   F   0.35000     110.00000      91.00000
         3      9069   F   0.35000     110.00000     269.00000
         3      9073   F   0.35000     110.00000      91.00000
         3      9077   F   0.35000     110.00000     269.00000
         3      9081   F   0.35000     110.00000      91.00000
         3      9085   F   0.35000     110.00000     269.00000
         3      9089   F   0.35000     110.00000      91.00000
         3      9093   F   0.35000     110.00000     269.00000
         3      9097   F   0.35000     110.00000      91.00000
         3      9101   F   0.35000     110.00000     269.00000
         3      9105   F   0.35000     110.00000      91.00000
         3      9109   F   0.35000     110.00000     269.00000
         3      9113   F   0.35000     110.00000      91.00000
         3      9117   F   0.35000     110.00000     269.00000
         3      9121   F   0.35000     110.00000      91.00000
         3      9125   F   0.35000     110.00000     269.00000
         3      9129   F   0.35000     110.00000      91.00000
         3      9133   F   0.35000     110.00000     269.00000
         3      9137   F   0.35000     110.00000      91.00000
         3      9141   F   0.35000     110.00000     269.00000
         3      9145   F   0.35000     110.00000      91.00000
         3      9149   F   0.35000     110.00000     269.00000
         3      9153   F   0.35000     110.00000      91.00000
         3      9157   F   0.35000     110.00000     269.00000
         3      9161   F   0.35000     110.00000      91.00000
         3      9165   F   0.35000     110.00000     269.00000
         3      9169   F   0.35000     110.00000      91.00000
         3      9173   F   0.35000     110.00000     269.00000
         3      9177   F   0.35000     110.00000      91.00000
         3      9181   F   0.35000     110.00000     269.00000
         3      9185   F   0.35000     110.00000      91.00000
         3      9189   F   0.35000     110.00000     269.00000
         3      9193   F   0.35000     110.00000      91.00000
         3      9197   F   0.35000     110.00000     269.00000
         3      9201   F   0.35000     110.00000      91.00000
         3      9205   F   0.35000     110.00000     269.00000
         3      9209   F   0.35000     110.00000      91.00000
         3      9213   F   0.35000     110.00000     269.00000
         3      9217   F   0.35000     110.00000      91.00000
         3      9221   F   0.35000     110.00000     269.00000
         3      9225   F   0.35000     110.00000      91.00000
         3      9229   F   0.35000     110.00000     269.00000
         3      9233   F   0.35000     110.00000      91.00000
         3      9237   F   0.35000     110.00000     269.00000
         3      9241   F   0.35000     110.00000      91.00000
         3      9245   F   0.35000     110.00000     269.00000
         3      9249   F   0.35000     110.00000      91.00000
         3      9253   F   0.35000     110.00000     269.00000
         3      9257   F   0.35000     110.00000      91.00000
         3      9261   F   0.35000     110.00000     269.00000
         3      9265   F   0.35000     110.00000      91.00000
         3      9269   F   0.35000     110.00000     269.00000
         3      9273   F   0.35000     110.00000      91.00000
         3      9277   F   0.35000     110.00000     269.00000
         3      9281   F   0.35000     110.00000      91.00000
         3      9285   F   0.35000     110.00000     269.00000
         3      9289   F   0.35000     110.00000      91.00000
         3      9293   F   0.35000     110.00000     269.00000
         3      9297   F   0.35000     110.00000      91.00000
         3      9301   F   0.35000     110.00000     269.00000
         3      9305   F   0.35000     110.00000      91.00000
         3      9309   F   0.35000     110.00000     269.00000
         3      9313   F   0.35000     110.00000      91.00000
         3      9317   F   0.35000     110.00000     269.00000
         3      9321   F   0.35000     110.00000      91.00000
         3      9325   F   0.35000     110.00000     269.00000
         3      9329   F   0.35000     110.00000      91.00000
         3      9333   F   0.35000     110.00000     269.00000
         3      9337   F   0.35000     110.00000      91.00000
         3      9341   F   0.35000     110.00000     269.00000
         3      9345   F   0.35000     110.00000      91.00000
         3      9349   F   0.35000     110.00000     269.00000
         3      9353   F   0.35000     110.00000      91.00000
         3      9357   F   0.35000     110.00000     269.00000
         3      9361   F   0.35000     110.00000      91.00000
         3      9365   F   0.35000     110.00000     269.00000
         3      9369   F   0.35000     110.00000      91.00000
         3      9373   F   0.35000     110.00000     269.00000
         3      9377   F   0.35000     110.00000      91.00000
         3      9381   F   0.35000     110.00000     269.00000
         3      9385   F   0.35000     110.00000      91.00000
         3      9389   F   0.35000     110.00000     269.00000
         3      9393   F   0.35000     110.00000      91.00000
         3      9397   F   0.35000     110.00000     269.00000
         3      9401   F   0.35000     110.00000      91.00000
         3      9405   F   0.35000     110.00000     269.00000
         3      9409   F   0.35000     110.00000      91.00000
         3      9413   F   0.35000     110.00000     269.00000
         3      9417   F   0.35000     110.00000      91.00000
         3      9421   F   0.35000     110.00000     269.00000
         3      9425   F   0.35000     110.00000      91.00000
         3      9429   F   0.35000     110.00000     269.00000
         3      9433   F   0.35000     110.00000      91.00000
         3      9437   F   0.35000     110.00000     269.00000
         3      9441   F   0.35000     110.00000      91.00000
         3      9445   F   0.35000     110.00000     269.00000
         3      9449   F   0.35000     110.00000      91.00000
         3      9453   F   0.35000     110.00000     269.00000
         3      9457   F   0.35000     110.00000      91.00000
         3      9461   F   0.35000     110.00000     269.00000
         3      9465   F   0.35000     110.00000      91.00000
         3      9469   F   0.35000     110.00000     269.00000
         3      9473   F   0.35000     110.00000      91.00000
         3      9477   F   0.35000     110.00000     269.00000
         3      9481   F   0.35000     110.00000      91.00000
         3      9485   F   0.35000     110.00000     269.00000
         3      9489   F   0.35000     110.00000      91.00000
         3      9493   F   0.35000     110.00000     269.00000
         3      9497   F   0.35000     110.00000      91.00000
         3      9501   F   0.35000     110.00000     269.00000
         3      9505   F   0.35000     110.00000      91.00000
         3      9509   F   0.35000     110.00000     269.00000
         3      9513   F   0.35000     110.00000      91.00000
         3      9517   F   0.35000     110.00000     269.00000
         3      9521   F   0.35000     110.00000      91.00000
         3      9525   F   0.35000     110.00000     269.00000
         3      9529   F   0.35000     110.00000      91.00000
         3      9533   F   0.35000     110.00000     269.00000
         3      9537   F   0.35000     110.00000      91.00000
         3      9541   F   0.35000     110.00000     269.00000
         3      9545   F   0.35000     110.00000      91.00000
         3      9549   F   0.35000     110.00000     269.00000
         3      9553   F   0.35000     110.00000      91.00000
         3      9557   F   0.35000     110.00000     269.00000
         3      9561   F   0.35000     110.00000      91.00000
         3      9565   F   0.35000     110.00000     269.00000
         3      9569   F   0.35000     110.00000      91.00000
         3      9573   F   0.35000     110.00000     269.00000
         3      9577   F   0.35000     110.00000      91.00000
         3      9581   F   0.35000     110.00000     269.00000
         3      9585   F   0.35000     110.00000      91.00000
         3      9589   F   0.35000     110.00000     269.00000
         3      9593   F   0.35000     110.00000      91.00000
         3      9597   F   0.35000     110.00000     269.00000
         3      9601   F   0.35000     110.00000      91.00000
         3      9605   F   0.35000     110.00000     269.00000
         3      9609   F   0.35000     110.00000      91.00000
         3      9613   F   0.35000     110.00000     269.00000
         3      9617   F   0.35000     110.00000      91.00000
         3      9621   F   0.35000     110.00000     269.00000
         3      9625   F   0.35000     110.00000      91.00000
         3      9629   F   0.35000     110.00000     269.00000
         3      9633   F   0.35000     110.00000      91.00000
         3      9637   F   0.35000     110.00000     269.00000
         3      9641   F   0.35000     110.00000      91.00000
         3      9645   F   0.35000     110.00000     269.00000
         3      9649   F   0.35000     110.00000      91.00000
         3      9653   F   0.35000     110.00000     269.00000
         3      9657   F   0.35000     110.00000      91.00000
         3      9661   F   0.35000     110.00000     269.00000
         3      9665   F   0.35000     110.00000      91.00000
         3      9669   F   0.35000     110.00000     269.00000
         3      9673   F   0.35000     110.00000      91.00000
         3      9677   F   0.35000     110.00000     269.00000
         3      9681   F   0.35000     110.00000      91.00000
         3      9685   F   0.35000     110.00000     269.00000
         3      9689   F   0.35000     110.00000      91.00000
         3      9693   F   0.35000     110.00000     269.00000
         3      9697   F   0.35000     110.00000      91.00000
         3      9701   F   0.35000     110.00000     269.00000
         3      9705   F   0.35000     110.00000      91.00000
         3      9709   F   0.35000     110.00000     269.00000
         3      9713   F   0.35000     110.00000      91.00000
         3      9717   F   0.35000     110.00000     269.00000
         3      9721   F   0.35000     110.00000      91.00000
         3      9725   F   0.35000     110.00000     269.00000
         3      9729   F   0.35000     110.00000      91.00000
         3      9733   F   0.35000     110.00000     269.00000
         3      9737   F   0.35000     110.00000      91.00000
         3      9741   F   0.35000     110.00000     269.00000
         3      9745   F   0.35000     110.00000      91.00000
         3      9749   F   0.35000     110.00000     269.00000
         3      9753   F   0.35000     110.00000      91.00000
         3      9757   F   0.35000     110.00000     269.00000
         3      9761   F   0.35000     110.00000      91.00000
         3      9765   F   0.35000     110.00000     269.00000
         3      9769   F   0.35000     110.00000      91.00000
         3      9773   F   0.35000     110.00000     269.00000
         3      9777   F   0.35000     110.00000      91.00000
         3      9781   F   0.35000     110.00000     269.00000
         3      9785   F   0.35000     110.00000      91.00000
         3      9789   F   0.35000     110.00000     269.00000
         3      9793   F   0.35000     110.00000      91.00000
         3      9797   F   0.35000     110.00000     269.00000
         3      9801   F   0.35000     110.00000      91.00000
         3      9805   F   0.35000     110.00000     269.00000
         3      9809   F   0.35000     110.00000      91.00000
         3      9813   F   0.35000     110.00000     269.00000
         3      9817   F   0.35000     110.00000      91.00000
         3      9821   F   0.35000     110.00000     269.00000
         3      9825   F   0.35000     110.00000      91.00000
         3      9829   F   0.35000     110.00000     269.00000
         3      9833   F   0.35000     110.00000      91.00000
         3      9837   F   0.35000     110.00000     269.00000
         3      9841   F   0.35000     110.00000      91.00000
         3      9845   F   0.35000     110.00000     269.00000
         3      9849   F   0.35000     110.00000      91.00000
         3      9853   F   0.35000     110.00000     269.00000
         3      9857   F   0.35000     110.00000      91.00000
         3      9861   F   0.35000     110.00000     269.00000
         3      9865   F   0.35000     110.00000      91.00000
         3      9869   F   0.35000     110.00000     269.00000
         3      9873   F   0.35000     110.00000      91.00000
         3      9877   F   0.35000     110.00000     269.00000
         3      9881   F   0.35000     110.00000      91.00000
         3      9885   F   0.35000     110.00000     269.00000
         3      9889   F   0.35000     110.00000      91.00000
         3      9893   F   0.35000     110.00000     269.00000
         3      9897   F   0.35000     110.00000      91.00000
         3      9901   F   0.35000     110.00000     269.00000
         3      9905   F   0.35000     110.00000      91.00000
         3      9909   F   0.35000     110.00000     269.00000
         3      9913   F   0.35000     110.00000      91.00000
         3      9917   F   0.35000     110.00000     269.00000
         3      9921   F   0.35000     110.00000      91.00000
         3      9925   F   0.35000     110.00000     269.00000
         3      9929   F   0.35000     110.00000      91.00000
         3      9933   F   0.35000     110.00000     269.00000
         3      9937   F   0.35000     110.00000      91.00000
         3      9941   F   0.35000     110.00000     269.00000
         3      9945   F   0.35000     110.00000      91.00000
         3      9949   F   0.35000     110.00000     269.00000
         3      9953   F   0.35000     110.00000      91.00000
         3      9957   F   0.35000     110.00000     269.00000
         3      9961   F   0.35000     110.00000      91.00000
         3      9965   F   0.35000     110.00000     269.00000
         3      9969   F   0.35000     110.00000      91.00000
         3      9973   F   0.35000     110.00000     269.00000
         3      9977   F   0.35000     110.00000      91.00000
         3      9981   F   0.35000     110.00000     269.00000
         3      9985   F   0.35000     110.00000      91.00000
         3      9989   F   0.35000     110.00000     269.00000
         3      9993   F   0.35000     110.00000      91.00000
         3      9997   F   0.35000     110.00000     269.00000
         3     10001   F   0.35000     110.00000      91.00000
         3     10005   F   0.35000     110.00000     269.00000
         3     10009   F   0.35000     110.00000      91.00000
         3     10013   F   0.35000     110.00000     269.00000
         3     10017   F   0.35000     110.00000      91.00000
         3     10021   F   0.35000     110.00000     269.00000
         3     10025   F   0.35000     110.00000      91.00000
         3     10029   F   0.35000     110.00000     269.00000
         3     10033   F   0.35000     110.00000      91.00000
         3     10037   F   0.35000     110.00000     269.00000
         3     10041   F   0.35000     110.00000      91.00000
         3     10045   F   0.35000     110.00000     269.00000
         3     10049   F   0.35000     110.00000      91.00000
         3     10053   F   0.35000     110.00000     269.00000
         3     10057   F   0.35000     110.00000      91.00000
         3     10061   F   0.35000     110.00000     269.00000
         3     10065   F   0.35000     110.00000      91.00000
         3     10069   F   0.35000     110.00000     269.00000
         3     10073   F   0.35000     110.00000      91.00000
         3     10077   F   0.35000     110.00000     269.00000
         3     10081   F   0.35000     110.00000      91.00000
         3     10085   F   0.35000     110.00000     269.00000
         3     10089   F   0.35000     110.00000      91.00000
         3     10093   F   0.35000     110.00000     269.00000
         3     10097   F   0.35000     110.00000      91.00000
         3     10101   F   0.35000     110.00000     269.00000
         3     10105   F   0.35000     110.00000      91.00000
         3     10109   F   0.35000     110.00000     269.00000
         3     10113   F   0.35000     110.00000      91.00000
         3     10117   F   0.35000     110.00000     269.00000
         3     10121   F   0.35000     110.00000      91.00000
         3     10125   F   0.35000     110.00000     269.00000
         3     10129   F   0.35000     110.00000      91.00000
         3     10133   F   0.35000     110.00000     269.00000
         3     10137   F   0.35000     110.00000      91.00000
         3     10141   F   0.35000     110.00000     269.00000
         3     10145   F   0.35000     110.00000      91.00000
         3     10149   F   0.35000     110.00000     269.00000
         3     10153   F   0.35000     110.00000      91.00000
         3     10157   F   0.35000     110.00000     269.00000
         3     10161   F   0.35000     110.00000      91.00000
         3     10165   F   0.35000     110.00000     269.00000
         3     10169   F   0.35000     110.00000      91.00000
         3     10173   F   0.35000     110.00000     269.00000
         3     10177   F   0.35000     110.00000      91.00000
         3     10181   F   0.35000     110.00000     269.00000
         3     10185   F   0.35000     110.00000      91.00000
         3     10189   F   0.35000     110.00000     269.00000
         3     10193   F   0.35000     110.00000      91.00000
         3     10197   F   0.35000     110.00000     269.00000
         3     10201   F   0.35000     110.00000      91.00000
         3     10205   F   0.35000     110.00000     269.00000
         3     10209   F   0.35000     110.00000      91.00000
         3     10213   F   0.35000     110.00000     269.00000
         3     10217   F   0.35000     110.00000      91.00000
         3     10221   F   0.35000     110.00000     269.00000
         3     10225   F   0.35000     110.00000      91.00000
         3     10229   F   0.35000     110.00000     269.00000
         3     10233   F   0.35000     110.00000      91.00000
         3     10237   F   0.35000     110.00000     269.00000
         3     10241   F   0.35000     110.00000      91.00000
         3     10245   F   0.35000     110.00000     269.00000
         3     10249   F   0.35000     110.00000      91.00000
         3     10253   F   0.35000     110.00000     269.00000
         3     10257   F   0.35000     110.00000      91.00000
         3     10261   F   0.35000     110.00000     269.00000
         3     10265   F   0.35000     110.00000      91.00000
         3     10269   F   0.35000     110.00000     269.00000
         3     10273   F   0.35000     110.00000      91.00000
         3     10277   F   0.35000     110.00000     269.00000
         3     10281   F   0.35000     110.00000      91.00000
         3     10285   F   0.35000     110.00000     269.00000
         3     10289   F   0.35000     110.00000      91.00000
         3     10293   F   0.35000     110.00000     269.00000
         3     10297   F   0.35000     110.00000      91.00000
         3     10301   F   0.35000     110.00000     269.00000
         3     10305   F   0.35000     110.00000      91.00000
         3     10309   F   0.35000     110.00000     269.00000
         3     10313   F   0.35000     110.00000      91.00000
         3     10317   F   0.35000     110.00000     269.00000
         3     10321   F   0.35000     110.00000      91.00000
         3     10325   F   0.35000     110.00000     269.00000
         3     10329   F   0.35000     110.00000      91.00000
         3     10333   F   0.35000     110.00000     269.00000
         3     10337   F   0.35000     110.00000      91.00000
         3     10341   F   0.35000     110.00000     269.00000
         3     10345   F   0.35000     110.00000      91.00000
         3     10349   F   0.35000     110.00000     269.00000
         3     10353   F   0.35000     110.00000      91.00000
         3     10357   F   0.35000     110.00000     269.00000
         3     10361   F   0.35000     110.00000      91.00000
         3     10365   F   0.35000     110.00000     269.00000
         3     10369   F   0.35000     110.00000      91.00000
         3     10373   F   0.35000     110.00000     269.00000
         3     10377   F   0.35000     110.00000      91.00000
         3     10381   F   0.35000     110.00000     269.00000
         3     10385   F   0.35000     110.00000      91.00000
         3     10389   F   0.35000     110.00000     269.00000
         3     10393   F   0.35000     110.00000      91.00000
         3     10397   F   0.35000     110.00000     269.00000
         3     10401   F   0.35000     110.00000      91.00000
         3     10405   F   0.35000     110.00000     269.00000
         3     10409   F   0.35000     110.00000      91.00000
         3     10413   F   0.35000     110.00000     269.00000
         3     10417   F   0.35000     110.00000      91.00000
         3     10421   F   0.35000     110.00000     269.00000
         3     10425   F   0.35000     110.00000      91.00000
         3     10429   F   0.35000     110.00000     269.00000
         3     10433   F   0.35000     110.00000      91.00000
         3     10437   F   0.35000     110.00000     269.00000
         3     10441   F   0.35000     110.00000      91.00000
         3     10445   F   0.35000     110.00000     269.00000
         3     10449   F   0.35000     110.00000      91.00000
         3     10453   F   0.35000     110.00000     269.00000
         3     10457   F   0.35000     110.00000      91.00000
         3     10461   F   0.35000     110.00000     269.00000
         3     10465   F   0.35000     110.00000      91.00000
         3     10469   F   0.35000     110.00000     269.00000
         3     10473   F   0.35000     110.00000      91.00000
         3     10477   F   0.35000     110.00000     269.00000
         3     10481   F   0.35000     110.00000      91.00000
         3     10485   F   0.35000     110.00000     269.00000
         3     10489   F   0.35000     110.00000      91.00000
         3     10493   F   0.35000     110.00000     269.00000
         3     10497   F   0.35000     110.00000      91.00000
         3     10501   F   0.35000     110.00000     269.00000
         3     10505   F   0.35000     110.00000      91.00000
         3     10509   F   0.35000     110.00000     269.00000
         3     10513   F   0.35000     110.00000      91.00000
         3     10517   F   0.35000     110.00000     269.00000
         3     10521   F   0.35000     110.00000      91.00000
         3     10525   F   0.35000     110.00000     269.00000
         3     10529   F   0.35000     110.00000      91.00000
         3     10533   F   0.35000     110.00000     269.00000
         3     10537   F   0.35000     110.00000      91.00000
         3     10541   F   0.35000     110.00000     269.00000
         3     10545   F   0.35000     110.00000      91.00000
         3     10549   F   0.35000     110.00000     269.00000
         3     10553   F   0.35000     110.00000      91.00000
         3     10557   F   0.35000     110.00000     269.00000
         3     10561   F   0.35000     110.00000      91.00000
         3     10565   F   0.35000     110.00000     269.00000
         3     10569   F   0.35000     110.00000      91.00000
         3     10573   F   0.35000     110.00000     269.00000
         3     10577   F   0.35000     110.00000      91.00000
         3     10581   F   0.35000     110.00000     269.00000
         3     10585   F   0.35000     110.00000      91.00000
         3     10589   F   0.35000     110.00000     269.00000
         3     10593   F   0.35000     110.00000      91.00000
         3     10597   F   0.35000     110.00000     269.00000
         3     10601   F   0.35000     110.00000      91.00000
         3     10605   F   0.35000     110.00000     269.00000
         3     10609   F   0.35000     110.00000      91.00000
         3     10613   F   0.35000     110.00000     269.00000
         3     10617   F   0.35000     110.00000      91.00000
         3     10621   F   0.35000     110.00000     269.00000
         3     10625   F   0.35000     110.00000      91.00000
         3     10629   F   0.35000     110.00000     269.00000
         3     10633   F   0.35000     110.00000      91.00000
         3     10637   F   0.35000     110.00000     269.00000
         3     10641   F   0.35000     110.00000      91.00000
         3     10645   F   0.35000     110.00000     269.00000
         3     10649   F   0.35000     110.00000      91.00000
         3     10653   F   0.35000     110.00000     269.00000
         3     10657   F   0.35000     110.00000      91.00000
         3     10661   F   0.35000     110.00000     269.00000
         3     10665   F   0.35000     110.00000      91.00000
         3     10669   F   0.35000     110.00000     269.00000
         3     10673   F   0.35000     110.00000      91.00000
         3     10677   F   0.35000     110.00000     269.00000
         3     10681   F   0.35000     110.00000      91.00000
         3     10685   F   0.35000     110.00000     269.00000
         3     10689   F   0.35000     110.00000      91.00000
         3     10693   F   0.35000     110.00000     269.00000
         3     10697   F   0.35000     110.00000      91.00000
         3     10701   F   0.35000     110.00000     269.00000
         3     10705   F   0.35000     110.00000      91.00000
         3     10709   F   0.35000     110.00000     269.00000
         3     10713   F   0.35000     110.00000      91.00000
         3     10717   F   0.35000     110.00000     269.00000
         3     10721   F   0.35000     110.00000      91.00000
         3     10725   F   0.35000     110.00000     269.00000
         3     10729   F   0.35000     110.00000      91.00000
         3     10733   F   0.35000     110.00000     269.00000
         3     10737   F   0.35000     110.00000      91.00000
         3     10741   F   0.35000     110.00000     269.00000
         3     10745   F   0.35000     110.00000      91.00000
         3     10749   F   0.35000     110.00000     269.00000
         3     10753   F   0.35000     110.00000      91.00000
         3     10757   F   0.35000     110.00000     269.00000
         3     10761   F   0.35000     110.00000      91.00000
         3     10765   F   0.35000     110.00000     269.00000
         3     10769   F   0.35000     110.00000      91.00000
         3     10773   F   0.35000     110.00000     269.00000
         3     10777   F   0.35000     110.00000      91.00000
         3     10781   F   0.35000     110.00000     269.00000
         3     10785   F   0.35000     110.00000      91.00000
         3     10789   F   0.35000     110.00000     269.00000
         3     10793   F   0.35000     110.00000      91.00000
         3     10797   F   0.35000     110.00000     269.00000
         3     10801   F   0.35000     110.00000      91.00000
         3     10805   F   0.35000     110.00000     269.00000
         3     10809   F   0.35000     110.00000      91.00000
         3     10813   F   0.35000     110.00000     269.00000
         3     10817   F   0.35000     110.00000      91.00000
         3     10821   F   0.35000     110.00000     269.00000
         3     10825   F   0.35000     110.00000      91.00000
         3     10829   F   0.35000     110.00000     269.00000
         3     10833   F   0.35000     110.00000      91.00000
         3     10837   F   0.35000     110.00000     269.00000
         3     10841   F   0.35000     110.00000      91.00000
         3     10845   F   0.35000     110.00000     269.00000
         3     10849   F   0.35000     110.00000      91.00000
         3     10853   F   0.35000     110.00000     269.00000
         3     10857   F   0.35000     110.00000      91.00000
         3     10861   F   0.35000     110.00000     269.00000
         3     10865   F   0.35000     110.00000      91.00000
         3     10869   F   0.35000     110.00000     269.00000
         3     10873   F   0.35000     110.00000      91.00000
         3     10877   F   0.35000     110.00000     269.00000
         3     10881   F   0.35000     110.00000      91.00000
         3     10885   F   0.35000     110.00000     269.00000
         3     10889   F   0.35000     110.00000      91.00000
         3     10893   F   0.35000     110.00000     269.00000
         3     10897   F   0.35000     110.00000      91.00000
         3     10901   F   0.35000     110.00000     269.00000
         3     10905   F   0.35000     110.00000      91.00000
         3     10909   F   0.35000     110.00000     269.00000
         3     10913   F   0.35000     110.00000      91.00000
         3     10917   F   0.35000     110.00000     269.00000
         3     10921   F   0.35000     110.00000      91.00000
         3     10925   F   0.35000     110.00000     269.00000
         3     10929   F   0.35000     110.00000      91.00000
         3     10933   F   0.35000     110.00000     269.00000
         3     10937   F   0.35000     110.00000      91.00000
         3     10941   F   0.35000     110.00000     269.00000
         3     10945   F   0.35000     110.00000      91.00000
         3     10949   F   0.35000     110.00000     269.00000
         3     10953   F   0.35000     110.00000      91.00000
         3     10957   F   0.35000     110.00000     269.00000
         3     10961   F   0.35000     110.00000      91.00000
         3     10965   F   0.35000     110.00000     269.00000
         3     10969   F   0.35000     110.00000      91.00000
         3     10973   F   0.35000     110.00000     269.00000
         3     10977   F   0.35000     110.00000      91.00000
         3     10981   F   0.35000     110.00000     269.00000
         3     10985   F   0.35000     110.00000      91.00000
         3     10989   F   0.35000     110.00000     269.00000
         3     10993   F   0.35000     110.00000      91.00000
         3     10997   F   0.35000     110.00000     269.00000
         3     11001   F   0.35000     110.00000      91.00000
         3     11005   F   0.35000     110.00000     269.00000
         3     11009   F   0.35000     110.00000      91.00000
         3     11013   F   0.35000     110.00000     269.00000
         3     11017   F   0.35000     110.00000      91.00000
         3     11021   F   0.35000     110.00000     269.00000
         3     11025   F   0.35000     110.00000      91.00000
         3     11029   F   0.35000     110.00000     269.00000
         3     11033   F   0.35000     110.00000      91.00000
         3     11037   F   0.35000     110.00000     269.00000
         3     11041   F   0.35000     110.00000      91.00000
         3     11045   F   0.35000     110.00000     269.00000
         3     11049   F   0.35000     110.00000      91.00000
         3     11053   F   0.35000     110.00000     269.00000
         3     11057   F   0.35000     110.00000      91.00000
         3     11061   F   0.35000     110.00000     269.00000
         3     11065   F   0.35000     110.00000      91.00000
         3     11069   F   0.35000     110.00000     269.00000
         3     11073   F   0.35000     110.00000      91.00000
         3     11077   F   0.35000     110.00000     269.00000
         3     11081   F   0.35000     110.00000      91.00000
         3     11085   F   0.35000     110.00000     269.00000
         3     11089   F   0.35000     110.00000      91.00000
         3     11093   F   0.35000     110.00000     269.00000
         3     11097   F   0.35000     110.00000      91.00000
         3     11101   F   0.35000     110.00000     269.00000
         3     11105   F   0.35000     110.00000      91.00000
         3     11109   F   0.35000     110.00000     269.00000
         3     11113   F   0.35000     110.00000      91.00000
         3     11117   F   0.35000     110.00000     269.00000
         3     11121   F   0.35000     110.00000      91.00000
         3     11125   F   0.35000     110.00000     269.00000
         3     11129   F   0.35000     110.00000      91.00000
         3     11133   F   0.35000     110.00000     269.00000
         3     11137   F   0.35000     110.00000      91.00000
         3     11141   F   0.35000     110.00000     269.00000
         3     11145   F   0.35000     110.00000      91.00000
         3     11149   F   0.35000     110.00000     269.00000
         3     11153   F   0.35000     110.00000      91.00000
         3     11157   F   0.35000     110.00000     269.00000
         3     11161   F   0.35000     110.00000      91.00000
         3     11165   F   0.35000     110.00000     269.00000
         3     11169   F   0.35000     110.00000      91.00000
         3     11173   F   0.35000     110.00000     269.00000
         3     11177   F   0.35000     110.00000      91.00000
         3     11181   F   0.35000     110.00000     269.00000
         3     11185   F   0.35000     110.00000      91.00000
         3     11189   F   0.35000     110.00000     269.00000
         3     11193   F   0.35000     110.00000      91.00000
         3     11197   F   0.35000     110.00000     269.00000
         3     11201   F   0.35000     110.00000      91.00000
         3     11205   F   0.35000     110.00000     269.00000
         3     11209   F   0.35000     110.00000      91.00000
         3     11213   F   0.35000     110.00000     269.00000
         3     11217   F   0.35000     110.00000      91.00000
         3     11221   F   0.35000     110.00000     269.00000
         3     11225   F   0.35000     110.00000      91.00000
         3     11229   F   0.35000     110.00000     269.00000
         3     11233   F   0.35000     110.00000      91.00000
         3     11237   F   0.35000     110.00000     269.00000
         3     11241   F   0.35000     110.00000      91.00000
         3     11245   F   0.35000     110.00000     269.00000
         3     11249   F   0.35000     110.00000      91.00000
         3     11253   F   0.35000     110.00000     269.00000
         3     11257   F   0.35000     110.00000      91.00000
         3     11261   F   0.35000     110.00000     269.00000
         3     11265   F   0.35000     110.00000      91.00000
         3     11269   F   0.35000     110.00000     269.00000
         3     11273   F   0.35000     110.00000      91.00000
         3     11277   F   0.35000     110.00000     269.00000
         3     11281   F   0.35000     110.00000      91.00000
         3     11285   F   0.35000     110.00000     269.00000
         3     11289   F   0.35000     110.00000      91.00000
         3     11293   F   0.35000     110.00000     269.00000
         3     11297   F   0.35000     110.00000      91.00000
         3     11301   F   0.35000     110.00000     269.00000
         3     11305   F   0.35000     110.00000      91.00000
         3     11309   F   0.35000     110.00000     269.00000
         3     11313   F   0.35000     110.00000      91.00000
         3     11317   F   0.35000     110.00000     269.00000
         3     11321   F   0.35000     110.00000      91.00000
         3     11325   F   0.35000     110.00000     269.00000
         3     11329   F   0.35000     110.00000      91.00000
         3     11333   F   0.35000     110.00000     269.00000
         3     11337   F   0.35000     110.00000      91.00000
         3     11341   F   0.35000     110.00000     269.00000
         3     11345   F   0.35000     110.00000      91.00000
         3     11349   F   0.35000     110.00000     269.00000
         3     11353   F   0.35000     110.00000      91.00000
         3     11357   F   0.35000     110.00000     269.00000
         3     11361   F   0.35000     110.00000      91.00000
         3     11365   F   0.35000     110.00000     269.00000
         3     11369   F   0.35000     110.00000      91.00000
         3     11373   F   0.35000     110.00000     269.00000
         3     11377   F   0.35000     110.00000      91.00000
         3     11381   F   0.35000     110.00000     269.00000
         3     11385   F   0.35000     110.00000      91.00000
         3     11389   F   0.35000     110.00000     269.00000
         3     11393   F   0.35000     110.00000      91.00000
         3     11397   F   0.35000     110.00000     269.00000
         3     11401   F   0.35000     110.00000      91.00000
         3     11405   F   0.35000     110.00000     269.00000
         3     11409   F   0.35000     110.00000      91.00000
         3     11413   F   0.35000     110.00000     269.00000
         3     11417   F   0.35000     110.00000      91.00000
         3     11421   F   0.35000     110.00000     269.00000
         3     11425   F   0.35000     110.00000      91.00000
         3     11429   F   0.35000     110.00000     269.00000
         3     11433   F   0.35000     110.00000      91.00000
         3     11437   F   0.35000     110.00000     269.00000
         3     11441   F   0.35000     110.00000      91.00000
         3     11445   F   0.35000     110.00000     269.00000
         3     11449   F   0.35000     110.00000      91.00000
         3     11453   F   0.35000     110.00000     269.00000
         3     11457   F   0.35000     110.00000      91.00000
         3     11461   F   0.35000     110.00000     269.00000
         3     11465   F   0.35000     110.00000      91.00000
         3     11469   F   0.35000     110.00000     269.00000
         3     11473   F   0.35000     110.00000      91.00000
         3     11477   F   0.35000     110.00000     269.00000
         3     11481   F   0.35000     110.00000      91.00000
         3     11485   F   0.35000     110.00000     269.00000
         3     11489   F   0.35000     110.00000      91.00000
         3     11493   F   0.35000     110.00000     269.00000
         3     11497   F   0.35000     110.00000      91.00000
         3     11501   F   0.35000     110.00000     269.00000
         3     11505   F   0.35000     110.00000      91.00000
         3     11509   F   0.35000     110.00000     269.00000
         3     11513   F   0.35000     110.00000      91.00000
         3     11517   F   0.35000     110.00000     269.00000
         3     11521   F   0.35000     110.00000      91.00000
         3     11525   F   0.35000     110.00000     269.00000
         3     11529   F   0.35000     110.00000      91.00000
         3     11533   F   0.35000     110.00000     269.00000
         3     11537   F   0.35000     110.00000      91.00000
         3     11541   F   0.35000     110.00000     269.00000
         3     11545   F   0.35000     110.00000      91.00000
         3     11549   F   0.35000     110.00000     269.00000
         3     11553   F   0.35000     110.00000      91.00000
         3     11557   F   0.35000     110.00000     269.00000
         3     11561   F   0.35000     110.00000      91.00000
         3     11565   F   0.35000     110.00000     269.00000
         3     11569   F   0.35000     110.00000      91.00000
         3     11573   F   0.35000     110.00000     269.00000
         3     11577   F   0.35000     110.00000      91.00000
         3     11581   F   0.35000     110.00000     269.00000
         3     11585   F   0.35000     110.00000      91.00000
         3     11589   F   0.35000     110.00000     269.00000
         3     11593   F   0.35000     110.00000      91.00000
         3     11597   F   0.35000     110.00000     269.00000
         3     11601   F   0.35000     110.00000      91.00000
         3     11605   F   0.35000     110.00000     269.00000
         3     11609   F   0.35000     110.00000      91.00000
         3     11613   F   0.35000     110.00000     269.00000
         3     11617   F   0.35000     110.00000      91.00000
         3     11621   F   0.35000     110.00000     269.00000
         3     11625   F   0.35000     110.00000      91.00000
         3     11629   F   0.35000     110.00000     269.00000
         3     11633   F   0.35000     110.00000      91.00000
         3     11637   F   0.35000     110.00000     269.00000
         3     11641   F   0.35000     110.00000      91.00000
         3     11645   F   0.35000     110.00000     269.00000
         3     11649   F   0.35000     110.00000      91.00000
         3     11653   F   0.35000     110.00000     269.00000
         3     11657   F   0.35000     110.00000      91.00000
         3     11661   F   0.35000     110.00000     269.00000
         3     11665   F   0.35000     110.00000      91.00000
         3     11669   F   0.35000     110.00000     269.00000
         3     11673   F   0.35000     110.00000      91.00000
         3     11677   F   0.35000     110.00000     269.00000
         3     11681   F   0.35000     110.00000      91.00000
         3     11685   F   0.35000     110.00000     269.00000
         3     11689   F   0.35000     110.00000      91.00000
         3     11693   F   0.35000     110.00000     269.00000
         3     11697   F   0.35000     110.00000      91.00000
         3     11701   F   0.35000     110.00000     269.00000
         3     11705   F   0.35000     110.00000      91.00000
         3     11709   F   0.35000     110.00000     269.00000
         3     11713   F   0.35000     110.00000      91.00000
         3     11717   F   0.35000     110.00000     269.00000
         3     11721   F   0.35000     110.00000      91.00000
         3     11725   F   0.35000     110.00000     269.00000
         3     11729   F   0.35000     110.00000      91.00000
         3     11733   F   0.35000     110.00000     269.00000
         3     11737   F   0.35000     110.00000      91.00000
         3     11741   F   0.35000     110.00000     269.00000
         3     11745   F   0.35000     110.00000      91.00000
         3     11749   F   0.35000     110.00000     269.00000
         3     11753   F   0.35000     110.00000      91.00000
         3     11757   F   0.35000     110.00000     269.00000
         3     11761   F   0.35000     110.00000      91.00000
         3     11765   F   0.35000     110.00000     269.00000
         3     11769   F   0.35000     110.00000      91.00000
         3     11773   F   0.35000     110.00000     269.00000
         3     11777   F   0.35000     110.00000      91.00000
         3     11781   F   0.35000     110.00000     269.00000
         3     11785   F   0.35000     110.00000      91.00000
         3     11789   F   0.35000     110.00000     269.00000
         3     11793   F   0.35000     110.00000      91.00000
         3     11797   F   0.35000     110.00000     269.00000
         3     11801   F   0.35000     110.00000      91.00000
         3     11805   F   0.35000     110.00000     269.00000
         3     11809   F   0.35000     110.00000      91.00000
         3     11813   F   0.35000     110.00000     269.00000
         3     11817   F   0.35000     110.00000      91.00000
         3     11821   F   0.35000     110.00000     269.00000
         3     11825   F   0.35000     110.00000      91.00000
         3     11829   F   0.35000     110.00000     269.00000
         3     11833   F   0.35000     110.00000      91.00000
         3     11837   F   0.35000     110.00000     269.00000
         3     11841   F   0.35000     110.00000      91.00000
         3     11845   F   0.35000     110.00000     269.00000
         3     11849   F   0.35000     110.00000      91.00000
         3     11853   F   0.35000     110.00000     269.00000
         3     11857   F   0.35000     110.00000      91.00000
         3     11861   F   0.35000     110.00000     269.00000
         3     11865   F   0.35000     110.00000      91.00000
         3     11869   F   0.35000     110.00000     269.00000
         3     11873   F   0.35000     110.00000      91.00000
         3     11877   F   0.35000     110.00000     269.00000
         3     11881   F   0.35000     110.00000      91.00000
         3     11885   F   0.35000     110.00000     269.00000
         3     11889   F   0.35000     110.00000      91.00000
         3     11893   F   0.35000     110.00000     269.00000
         3     11897   F   0.35000     110.00000      91.00000
         3     11901   F   0.35000     110.00000     269.00000
         3     11905   F   0.35000     110.00000      91.00000
         3     11909   F   0.35000     110.00000     269.00000
         3     11913   F   0.35000     110.00000      91.00000
         3     11917   F   0.35000     110.00000     269.00000
         3     11921   F   0.35000     110.00000      91.00000
         3     11925   F   0.35000     110.00000     269.00000
         3     11929   F   0.35000     110.00000      91.00000
         3     11933   F   0.35000     110.00000     269.00000
         3     11937   F   0.35000     110.00000      91.00000
         3     11941   F   0.35000     110.00000     269.00000
         3     11945   F   0.35000     110.00000      91.00000
         3     11949   F   0.35000     110.00000     269.00000
         3     11953   F   0.35000     110.00000      91.00000
         3     11957   F   0.35000     110.00000     269.00000
         3     11961   F   0.35000     110.00000      91.00000
         3     11965   F   0.35000     110.00000     269.00000
         3     11969   F   0.35000     110.00000      91.00000
         3     11973   F   0.35000     110.00000     269.00000
         3     11977   F   0.35000     110.00000      91.00000
         3     11981   F   0.35000     110.00000     269.00000
         3     11985   F   0.35000     110.00000      91.00000
         3     11989   F   0.35000     110.00000     269.00000
         3     11993   F   0.35000     110.00000      91.00000
         3     11997   F   0.35000     110.00000     269.00000
         3     12001   F   0.35000     110.00000      91.00000
         3     12005   F   0.35000     110.00000     269.00000
         3     12009   F   0.35000     110.00000      91.00000
         3     12013   F   0.35000     110.00000     269.00000
         3     12017   F   0.35000     110.00000      91.00000
         3     12021   F   0.35000     110.00000     269.00000
         3     12025   F   0.35000     110.00000      91.00000
         3     12029   F   0.35000     110.00000     269.00000
         3     12033   F   0.35000     110.00000      91.00000
         3     12037   F   0.35000     110.00000     269.00000
         3     12041   F   0.35000     110.00000      91.00000
         3     12045   F   0.35000     110.00000     269.00000
         3     12049   F   0.35000     110.00000      91.00000
         3     12053   F   0.35000     110.00000     269.00000
         3     12057   F   0.35000     110.00000      91.00000
         3     12061   F   0.35000     110.00000     269.00000
         3     12065   F   0.35000     110.00000      91.00000
         3     12069   F   0.35000     110.00000     269.00000
         3     12073   F   0.35000     110.00000      91.00000
         3     12077   F   0.35000     110.00000     269.00000
         3     12081   F   0.35000     110.00000      91.00000
         3     12085   F   0.35000     110.00000     269.00000
         3     12089   F   0.35000     110.00000      91.00000
         3     12093   F   0.35000     110.00000     269.00000
         3     12097   F   0.35000     110.00000      91.00000
         3     12101   F   0.35000     110.00000     269.00000
         3     12105   F   0.35000     110.00000      91.00000
         3     12109   F   0.35000     110.00000     269.00000
         3     12113   F   0.35000     110.00000      91.00000
         3     12117   F   0.35000     110.00000     269.00000
         3     12121   F   0.35000     110.00000      91.00000
         3     12125   F   0.35000     110.00000     269.00000
         3     12129   F   0.35000     110.00000      91.00000
         3     12133   F   0.35000     110.00000     269.00000
         3     12137   F   0.35000     110.00000      91.00000
         3     12141   F   0.35000     110.00000     269.00000
         3     12145   F   0.35000     110.00000      91.00000
         3     12149   F   0.35000     110.00000     269.00000
         3     12153   F   0.35000     110.00000      91.00000
         3     12157   F   0.35000     110.00000     269.00000
         3     12161   F   0.35000     110.00000      91.00000
         3     12165   F   0.35000     110.00000     269.00000
         3     12169   F   0.35000     110.00000      91.00000
         3     12173   F   0.35000     110.00000     269.00000
         3     12177   F   0.35000     110.00000      91.00000
         3     12181   F   0.35000     110.00000     269.00000
         3     12185   F   0.35000     110.00000      91.00000
         3     12189   F   0.35000     110.00000     269.00000
         3     12193   F   0.35000     110.00000      91.00000
         3     12197   F   0.35000     110.00000     269.00000
         3     12201   F   0.35000     110.00000      91.00000
         3     12205   F   0.35000     110.00000     269.00000
         3     12209   F   0.35000     110.00000      91.00000
         3     12213   F   0.35000     110.00000     269.00000
         3     12217   F   0.35000     110.00000      91.00000
         3     12221   F   0.35000     110.00000     269.00000
         3     12225   F   0.35000     110.00000      91.00000
         3     12229   F   0.35000     110.00000     269.00000
         3     12233   F   0.35000     110.00000      91.00000
         3     12237   F   0.35000     110.00000     269.00000
         3     12241   F   0.35000     110.00000      91.00000
         3     12245   F   0.35000     110.00000     269.00000
         3     12249   F   0.35000     110.00000      91.00000
         3     12253   F   0.35000     110.00000     269.00000
         3     12257   F   0.35000     110.00000      91.00000
         3     12261   F   0.35000     110.00000     269.00000
         3     12265   F   0.35000     110.00000      91.00000
         3     12269   F   0.35000     110.00000     269.00000
         3     12273   F   0.35000     110.00000      91.00000
         3     12277   F   0.35000     110.00000     269.00000
         3     12281   F   0.35000     110.00000      91.00000
         3     12285   F   0.35000     110.00000     269.00000
         3     12289   F   0.35000     110.00000      91.00000
         3     12293   F   0.35000     110.00000     269.00000
         3     12297   F   0.35000     110.00000      91.00000
         3     12301   F   0.35000     110.00000     269.00000
         3     12305   F   0.35000     110.00000      91.00000
         3     12309   F   0.35000     110.00000     269.00000
         3     12313   F   0.35000     110.00000      91.00000
         3     12317   F   0.35000     110.00000     269.00000
         3     12321   F   0.35000     110.00000      91.00000
         3     12325   F   0.35000     110.00000     269.00000
         3     12329   F   0.35000     110.00000      91.00000
         3     12333   F   0.35000     110.00000     269.00000
         3     12337   F   0.35000     110.00000      91.00000
         3     12341   F   0.35000     110.00000     269.00000
         3     12345   F   0.35000     110.00000      91.00000
         3     12349   F   0.35000     110.00000     269.00000
         3     12353   F   0.35000     110.00000      91.00000
         3     12357   F   0.35000     110.00000     269.00000
         3     12361   F   0.35000     110.00000      91.00000
         3     12365   F   0.35000     110.00000     269.00000
         3     12369   F   0.35000     110.00000      91.00000
         3     12373   F   0.35000     110.00000     269.00000
         3     12377   F   0.35000     110.00000      91.00000
         3     12381   F   0.35000     110.00000     269.00000
         3     12385   F   0.35000     110.00000      91.00000
         3     12389   F   0.35000     110.00000     269.00000
         3     12393   F   0.35000     110.00000      91.00000
         3     12397   F   0.35000     110.00000     269.00000
         3     12401   F   0.35000     110.00000      91.00000
         3     12405   F   0.35000     110.00000     269.00000
         3     12409   F   0.35000     110.00000      91.00000
         3     12413   F   0.35000     110.00000     269.00000
         3     12417   F   0.35000     110.00000      91.00000
         3     12421   F   0.35000     110.00000     269.00000
         3     12425   F   0.35000     110.00000      91.00000
         3     12429   F   0.35000     110.00000     269.00000
         3     12433   F   0.35000     110.00000      91.00000
         3     12437   F   0.35000     110.00000     269.00000
         3     12441   F   0.35000     110.00000      91.00000
         3     12445   F   0.35000     110.00000     269.00000
         3     12449   F   0.35000     110.00000      91.00000
         3     12453   F   0.35000     110.00000     269.00000
         3     12457   F   0.35000     110.00000      91.00000
         3     12461   F   0.35000     110.00000     269.00000
         3     12465   F   0.35000     110.00000      91.00000
         3     12469   F   0.35000     110.00000     269.00000
         3     12473   F   0.35000     110.00000      91.00000
         3     12477   F   0.35000     110.00000     269.00000
         3     12481   F   0.35000     110.00000      91.00000
         3     12485   F   0.35000     110.00000     269.00000
         3     12489   F   0.35000     110.00000      91.00000
         3     12493   F   0.35000     110.00000     269.00000
         3     12497   F   0.35000     110.00000      91.00000
         3     12501   F   0.35000     110.00000     269.00000
         3     12505   F   0.35000     110.00000      91.00000
         3     12509   F   0.35000     110.00000     269.00000
         3     12513   F   0.35000     110.00000      91.00000
         3     12517   F   0.35000     110.00000     269.00000
         3     12521   F   0.35000     110.00000      91.00000
         3     12525   F   0.35000     110.00000     269.00000
         3     12529   F   0.35000     110.00000      91.00000
         3     12533   F   0.35000     110.00000     269.00000
         3     12537   F   0.35000     110.00000      91.00000
         3     12541   F   0.35000     110.00000     269.00000
         3     12545   F   0.35000     110.00000      91.00000
         3     12549   F   0.35000     110.00000     269.00000
         3     12553   F   0.35000     110.00000      91.00000
         3     12557   F   0.35000     110.00000     269.00000
         3     12561   F   0.35000     110.00000      91.00000
         3     12565   F   0.35000     110.00000     269.00000
         3     12569   F   0.35000     110.00000      91.00000
         3     12573   F   0.35000     110.00000     269.00000
         3     12577   F   0.35000     110.00000      91.00000
         3     12581   F   0.35000     110.00000     269.00000
         3     12585   F   0.35000     110.00000      91.00000
         3     12589   F   0.35000     110.00000     269.00000
         3     12593   F   0.35000     110.00000      91.00000
         3     12597   F   0.35000     110.00000     269.00000
         3     12601   F   0.35000     110.00000      91.00000
         3     12605   F   0.35000     110.00000     269.00000
         3     12609   F   0.35000     110.00000      91.00000
         3     12613   F   0.35000     110.00000     269.00000
         3     12617   F   0.35000     110.00000      91.00000
         3     12621   F   0.35000     110.00000     269.00000
         3     12625   F   0.35000     110.00000      91.00000
         3     12629   F   0.35000     110.00000     269.00000
         3     12633   F   0.35000     110.00000      91.00000
         3     12637   F   0.35000     110.00000     269.00000
         3     12641   F   0.35000     110.00000      91.00000
         3     12645   F   0.35000     110.00000     269.00000
         3     12649   F   0.35000     110.00000      91.00000
         3     12653   F   0.35000     110.00000     269.00000
         3     12657   F   0.35000     110.00000      91.00000
         3     12661   F   0.35000     110.00000     269.00000
         3     12665   F   0.35000     110.00000      91.00000
         3     12669   F   0.35000     110.00000     269.00000
         3     12673   F   0.35000     110.00000      91.00000
         3     12677   F   0.35000     110.00000     269.00000
         3     12681   F   0.35000     110.00000      91.00000
         3     12685   F   0.35000     110.00000     269.00000
         3     12689   F   0.35000     110.00000      91.00000
         3     12693   F   0.35000     110.00000     269.00000
         3     12697   F   0.35000     110.00000      91.00000
         3     12701   F   0.35000     110.00000     269.00000
         3     12705   F   0.35000     110.00000      91.00000
         3     12709   F   0.35000     110.00000     269.00000
         3     12713   F   0.35000     110.00000      91.00000
         3     12717   F   0.35000     110.00000     269.00000
         3     12721   F   0.35000     110.00000      91.00000
         3     12725   F   0.35000     110.00000     269.00000
         3     12729   F   0.35000     110.00000      91.00000
         3     12733   F   0.35000     110.00000     269.00000
         3     12737   F   0.35000     110.00000      91.00000
         3     12741   F   0.35000     110.00000     269.00000
         3     12745   F   0.35000     110.00000      91.00000
         3     12749   F   0.35000     110.00000     269.00000
         3     12753   F   0.35000     110.00000      91.00000
         3     12757   F   0.35000     110.00000     269.00000
         3     12761   F   0.35000     110.00000      91.00000
         3     12765   F   0.35000     110.00000     269.00000
         3     12769   F   0.35000     110.00000      91.00000
         3     12773   F   0.35000     110.00000     269.00000
         3     12777   F   0.35000     110.00000      91.00000
         3     12781   F   0.35000     110.00000     269.00000
         3     12785   F   0.35000     110.00000      91.00000
         3     12789   F   0.35000     110.00000     269.00000
         3     12793   F   0.35000     110.00000      91.00000
         3     12797   F   0.35000     110.00000     269.00000
         3     12801   F   0.35000     110.00000      91.00000
         3     12805   F   0.35000     110.00000     269.00000
         3     12809   F   0.35000     110.00000      91.00000
         3     12813   F   0.35000     110.00000     269.00000
         3     12817   F   0.35000     110.00000      91.00000
         3     12821   F   0.35000     110.00000     269.00000
         3     12825   F   0.35000     110.00000      91.00000
         3     12829   F   0.35000     110.00000     269.00000
         3     12833   F   0.35000     110.00000      91.00000
         3     12837   F   0.35000     110.00000     269.00000
         3     12841   F   0.35000     110.00000      91.00000
         3     12845   F   0.35000     110.00000     269.00000
         3     12849   F   0.35000     110.00000      91.00000
         3     12853   F   0.35000     110.00000     269.00000
         3     12857   F   0.35000     110.00000      91.00000
         3     12861   F   0.35000     110.00000     269.00000
         3     12865   F   0.35000     110.00000      91.00000
         3     12869   F   0.35000     110.00000     269.00000
         3     12873   F   0.35000     110.00000      91.00000
         3     12877   F   0.35000     110.00000     269.00000
         3     12881   F   0.35000     110.00000      91.00000
         3     12885   F   0.35000     110.00000     269.00000
         3     12889   F   0.35000     110.00000      91.00000
         3     12893   F   0.35000     110.00000     269.00000
         3     12897   F   0.35000     110.00000      91.00000
         3     12901   F   0.35000     110.00000     269.00000
         3     12905   F   0.35000     110.00000      91.00000
         3     12909   F   0.35000     110.00000     269.00000
         3     12913   F   0.35000     110.00000      91.00000
         3     12917   F   0.35000     110.00000     269.00000
         3     12921   F   0.35000     110.00000      91.00000
         3     12925   F   0.35000     110.00000     269.00000
         3     12929   F   0.35000     110.00000      91.00000
         3     12933   F   0.35000     110.00000     269.00000
         3     12937   F   0.35000     110.00000      91.00000
         3     12941   F   0.35000     110.00000     269.00000
         3     12945   F   0.35000     110.00000      91.00000
         3     12949   F   0.35000     110.00000     269.00000
         3     12953   F   0.35000     110.00000      91.00000
         3     12957   F   0.35000     110.00000     269.00000
         3     12961   F   0.35000     110.00000      91.00000
         3     12965   F   0.35000     110.00000     269.00000
         3     12969   F   0.35000     110.00000      91.00000
         3     12973   F   0.35000     110.00000     269.00000
         3     12977   F   0.35000     110.00000      91.00000
         3     12981   F   0.35000     110.00000     269.00000
         3     12985   F   0.35000     110.00000      91.00000
         3     12989   F   0.35000     110.00000     269.00000
         3     12993   F   0.35000     110.00000      91.00000
         3     12997   F   0.35000     110.00000     269.00000
         3     13001   F   0.35000     110.00000      91.00000
         3     13005   F   0.35000     110.00000     269.00000
         3     13009   F   0.35000     110.00000      91.00000
         3     13013   F   0.35000     110.00000     269.00000
         3     13017   F   0.35000     110.00000      91.00000
         3     13021   F   0.35000     110.00000     269.00000
         3     13025   F   0.35000     110.00000      91.00000
         3     13029   F   0.35000     110.00000     269.00000
         3     13033   F   0.35000     110.00000      91.00000
         3     13037   F   0.35000     110.00000     269.00000
         3     13041   F   0.35000     110.00000      91.00000
         3     13045   F   0.35000     110.00000     269.00000
         3     13049   F   0.35000     110.00000      91.00000
         3     13053   F   0.35000     110.00000     269.00000
         3     13057   F   0.35000     110.00000      91.00000
         3     13061   F   0.35000     110.00000     269.00000
         3     13065   F   0.35000     110.00000      91.00000
         3     13069   F   0.35000     110.00000     269.00000
         3     13073   F   0.35000     110.00000      91.00000
         3     13077   F   0.35000     110.00000     269.00000
         3     13081   F   0.35000     110.00000      91.00000
         3     13085   F   0.35000     110.00000     269.00000
         3     13089   F   0.35000     110.00000      91.00000
         3     13093   F   0.35000     110.00000     269.00000
         3     13097   F   0.35000     110.00000      91.00000
         3     13101   F   0.35000     110.00000     269.00000
         3     13105   F   0.35000     110.00000      91.00000
         3     13109   F   0.35000     110.00000     269.00000
         3     13113   F   0.35000     110.00000      91.00000
         3     13117   F   0.35000     110.00000     269.00000
         3     13121   F   0.35000     110.00000      91.00000
         3     13125   F   0.35000     110.00000     269.00000
         3     13129   F   0.35000     110.00000      91.00000
         3     13133   F   0.35000     110.00000     269.00000
         3     13137   F   0.35000     110.00000      91.00000
         3     13141   F   0.35000     110.00000     269.00000
         3     13145   F   0.35000     110.00000      91.00000
         3     13149   F   0.35000     110.00000     269.00000
         3     13153   F   0.35000     110.00000      91.00000
         3     13157   F   0.35000     110.00000     269.00000
         3     13161   F   0.35000     110.00000      91.00000
         3     13165   F   0.35000     110.00000     269.00000
         3     13169   F   0.35000     110.00000      91.00000
         3     13173   F   0.35000     110.00000     269.00000
         3     13177   F   0.35000     110.00000      91.00000
         3     13181   F   0.35000     110.00000     269.00000
         3     13185   F   0.35000     110.00000      91.00000
         3     13189   F   0.35000     110.00000     269.00000
         3     13193   F   0.35000     110.00000      91.00000
         3     13197   F   0.35000     110.00000     269.00000
         3     13201   F   0.35000     110.00000      91.00000
         3     13205   F   0.35000     110.00000     269.00000
         3     13209   F   0.35000     110.00000      91.00000
         3     13213   F   0.35000     110.00000     269.00000
         3     13217   F   0.35000     110.00000      91.00000
         3     13221   F   0.35000     110.00000     269.00000
         3     13225   F   0.35000     110.00000      91.00000
         3     13229   F   0.35000     110.00000     269.00000
         3     13233   F   0.35000     110.00000      91.00000
         3     13237   F   0.35000     110.00000     269.00000
         3     13241   F   0.35000     110.00000      91.00000
         3     13245   F   0.35000     110.00000     269.00000
         3     13249   F   0.35000     110.00000      91.00000
         3     13253   F   0.35000     110.00000     269.00000
         3     13257   F   0.35000     110.00000      91.00000
         3     13261   F   0.35000     110.00000     269.00000
         3     13265   F   0.35000     110.00000      91.00000
         3     13269   F   0.35000     110.00000     269.00000
         3     13273   F   0.35000     110.00000      91.00000
         3     13277   F   0.35000     110.00000     269.00000
         3     13281   F   0.35000     110.00000      91.00000
         3     13285   F   0.35000     110.00000     269.00000
         3     13289   F   0.35000     110.00000      91.00000
         3     13293   F   0.35000     110.00000     269.00000
         3     13297   F   0.35000     110.00000      91.00000
         3     13301   F   0.35000     110.00000     269.00000
         3     13305   F   0.35000     110.00000      91.00000
         3     13309   F   0.35000     110.00000     269.00000
         3     13313   F   0.35000     110.00000      91.00000
         3     13317   F   0.35000     110.00000     269.00000
         3     13321   F   0.35000     110.00000      91.00000
         3     13325   F   0.35000     110.00000     269.00000
         3     13329   F   0.35000     110.00000      91.00000
         3     13333   F   0.35000     110.00000     269.00000
         3     13337   F   0.35000     110.00000      91.00000
         3     13341   F   0.35000     110.00000     269.00000
         3     13345   F   0.35000     110.00000      91.00000
         3     13349   F   0.35000     110.00000     269.00000
         3     13353   F   0.35000     110.00000      91.00000
         3     13357   F   0.35000     110.00000     269.00000
         3     13361   F   0.35000     110.00000      91.00000
         3     13365   F   0.35000     110.00000     269.00000
         3     13369   F   0.35000     110.00000      91.00000
         3     13373   F   0.35000     110.00000     269.00000
         3     13377   F   0.35000     110.00000      91.00000
         3     13381   F   0.35000     110.00000     269.00000
         3     13385   F   0.35000     110.00000      91.00000
         3     13389   F   0.35000     110.00000     269.00000
         3     13393   F   0.35000     110.00000      91.00000
         3     13397   F   0.35000     110.00000     269.00000
         3     13401   F   0.35000     110.00000      91.00000
         3     13405   F   0.35000     110.00000     269.00000
         3     13409   F   0.35000     110.00000      91.00000
         3     13413   F   0.35000     110.00000     269.00000
         3     13417   F   0.35000     110.00000      91.00000
         3     13421   F   0.35000     110.00000     269.00000
         3     13425   F   0.35000     110.00000      91.00000
         3     13429   F   0.35000     110.00000     269.00000
         3     13433   F   0.35000     110.00000      91.00000
         3     13437   F   0.35000     110.00000     269.00000
         3     13441   F   0.35000     110.00000      91.00000
         3     13445   F   0.35000     110.00000     269.00000
         3     13449   F   0.35000     110.00000      91.00000
         3     13453   F   0.35000     110.00000     269.00000
         3     13457   F   0.35000     110.00000      91.00000
         3     13461   F   0.35000     110.00000     269.00000
         3     13465   F   0.35000     110.00000      91.00000
         3     13469   F   0.35000     110.00000     269.00000
         3     13473   F   0.35000     110.00000      91.00000
         3     13477   F   0.35000     110.00000     269.00000
         3     13481   F   0.35000     110.00000      91.00000
         3     13485   F   0.35000     110.00000     269.00000
         3     13489   F   0.35000     110.00000      91.00000
         3     13493   F   0.35000     110.00000     269.00000
         3     13497   F   0.35000     110.00000      91.00000
         3     13501   F   0.35000     110.00000     269.00000
         3     13505   F   0.35000     110.00000      91.00000
         3     13509   F   0.35000     110.00000     269.00000
         3     13513   F   0.35000     110.00000      91.00000
         3     13517   F   0.35000     110.00000     269.00000
         3     13521   F   0.35000     110.00000      91.00000
         3     13525   F   0.35000     110.00000     269.00000
         3     13529   F   0.35000     110.00000      91.00000
         3     13533   F   0.35000     110.00000     269.00000
         3     13537   F   0.35000     110.00000      91.00000
         3     13541   F   0.35000     110.00000     269.00000
         3     13545   F   0.35000     110.00000      91.00000
         3     13549   F   0.35000     110.00000     269.00000
         3     13553   F   0.35000     110.00000      91.00000
         3     13557   F   0.35000     110.00000     269.00000
         3     13561   F   0.35000     110.00000      91.00000
         3     13565   F   0.35000     110.00000     269.00000
         3     13569   F   0.35000     110.00000      91.00000
         3     13573   F   0.35000     110.00000     269.00000
         3     13577   F   0.35000     110.00000      91.00000
         3     13581   F   0.35000     110.00000     269.00000
         3     13585   F   0.35000     110.00000      91.00000
         3     13589   F   0.35000     110.00000     269.00000
         3     13593   F   0.35000     110.00000      91.00000
         3     13597   F   0.35000     110.00000     269.00000
         3     13601   F   0.35000     110.00000      91.00000
         3     13605   F   0.35000     110.00000     269.00000
         3     13609   F   0.35000     110.00000      91.00000
         3     13613   F   0.35000     110.00000     269.00000
         3     13617   F   0.35000     110.00000      91.00000
         3     13621   F   0.35000     110.00000     269.00000
         3     13625   F   0.35000     110.00000      91.00000
         3     13629   F   0.35000     110.00000     269.00000
         3     13633   F   0.35000     110.00000      91.00000
         3     13637   F   0.35000     110.00000     269.00000
         3     13641   F   0.35000     110.00000      91.00000
         3     13645   F   0.35000     110.00000     269.00000
         3     13649   F   0.35000     110.00000      91.00000
         3     13653   F   0.35000     110.00000     269.00000
         3     13657   F   0.35000     110.00000      91.00000
         3     13661   F   0.35000     110.00000     269.00000
         3     13665   F   0.35000     110.00000      91.00000
         3     13669   F   0.35000     110.00000     269.00000
         3     13673   F   0.35000     110.00000      91.00000
         3     13677   F   0.35000     110.00000     269.00000
         3     13681   F   0.35000     110.00000      91.00000
         3     13685   F   0.35000     110.00000     269.00000
         3     13689   F   0.35000     110.00000      91.00000
         3     13693   F   0.35000     110.00000     269.00000
         3     13697   F   0.35000     110.00000      91.00000
         3     13701   F   0.35000     110.00000     269.00000
         3     13705   F   0.35000     110.00000      91.00000
         3     13709   F   0.35000     110.00000     269.00000
         3     13713   F   0.35000     110.00000      91.00000
         3     13717   F   0.35000     110.00000     269.00000
         3     13721   F   0.35000     110.00000      91.00000
         3     13725   F   0.35000     110.00000     269.00000
         3     13729   F   0.35000     110.00000      91.00000
         3     13733   F   0.35000     110.00000     269.00000
         3     13737   F   0.35000     110.00000      91.00000
         3     13741   F   0.35000     110.00000     269.00000
         3     13745   F   0.35000     110.00000      91.00000
         3     13749   F   0.35000     110.00000     269.00000
         3     13753   F   0.35000     110.00000      91.00000
         3     13757   F   0.35000     110.00000     269.00000
         3     13761   F   0.35000     110.00000      91.00000
         3     13765   F   0.35000     110.00000     269.00000
         3     13769   F   0.35000     110.00000      91.00000
         3     13773   F   0.35000     110.00000     269.00000
         3     13777   F   0.35000     110.00000      91.00000
         3     13781   F   0.35000     110.00000     269.00000
         3     13785   F   0.35000     110.00000      91.00000
         3     13789   F   0.35000     110.00000     269.00000
         3     13793   F   0.35000     110.00000      91.00000
         3     13797   F   0.35000     110.00000     269.00000
         3     13801   F   0.35000     110.00000      91.00000
         3     13805   F   0.35000     110.00000     269.00000
         3     13809   F   0.35000     110.00000      91.00000
         3     13813   F   0.35000     110.00000     269.00000
         3     13817   F   0.35000     110.00000      91.00000
         3     13821   F   0.35000     110.00000     269.00000
         3     13825   F   0.35000     110.00000      91.00000
         3     13829   F   0.35000     110.00000     269.00000
         3     13833   F   0.35000     110.00000      91.00000
         3     13837   F   0.35000     110.00000     269.00000
         3     13841   F   0.35000     110.00000      91.00000
         3     13845   F   0.35000     110.00000     269.00000
         3     13849   F   0.35000     110.00000      91.00000
         3     13853   F   0.35000     110.00000     269.00000
         3     13857   F   0.35000     110.00000      91.00000
         3     13861   F   0.35000     110.00000     269.00000
         3     13865   F   0.35000     110.00000      91.00000
         3     13869   F   0.35000     110.00000     269.00000
         3     13873   F   0.35000     110.00000      91.00000
         3     13877   F   0.35000     110.00000     269.00000
         3     13881   F   0.35000     110.00000      91.00000
         3     13885   F   0.35000     110.00000     269.00000
         3     13889   F   0.35000     110.00000      91.00000
         3     13893   F   0.35000     110.00000     269.00000
         3     13897   F   0.35000     110.00000      91.00000
         3     13901   F   0.35000     110.00000     269.00000
         3     13905   F   0.35000     110.00000      91.00000
         3     13909   F   0.35000     110.00000     269.00000
         3     13913   F   0.35000     110.00000      91.00000
         3     13917   F   0.35000     110.00000     269.00000
         3     13921   F   0.35000     110.00000      91.00000
         3     13925   F   0.35000     110.00000     269.00000
         3     13929   F   0.35000     110.00000      91.00000
         3     13933   F   0.35000     110.00000     269.00000
         3     13937   F   0.35000     110.00000      91.00000
         3     13941   F   0.35000     110.00000     269.00000
         3     13945   F   0.35000     110.00000      91.00000
         3     13949   F   0.35000     110.00000     269.00000
         3     13953   F   0.35000     110.00000      91.00000
         3     13957   F   0.35000     110.00000     269.00000
         3     13961   F   0.35000     110.00000      91.00000
         3     13965   F   0.35000     110.00000     269.00000
         3     13969   F   0.35000     110.00000      91.00000
         3     13973   F   0.35000     110.00000     269.00000
         3     13977   F   0.35000     110.00000      91.00000
         3     13981   F   0.35000     110.00000     269.00000
         3     13985   F   0.35000     110.00000      91.00000
         3     13989   F   0.35000     110.00000     269.00000
         3     13993   F   0.35000     110.00000      91.00000
         3     13997   F   0.35000     110.00000     269.00000
         3     14001   F   0.35000     110.00000      91.00000
         3     14005   F   0.35000     110.00000     269.00000
         3     14009   F   0.35000     110.00000      91.00000
         3     14013   F   0.35000     110.00000     269.00000
         3     14017   F   0.35000     110.00000      91.00000
         3     14021   F   0.35000     110.00000     269.00000
         3     14025   F   0.35000     110.00000      91.00000
         3     14029   F   0.35000     110.00000     269.00000
         3     14033   F   0.35000     110.00000      91.00000
         3     14037   F   0.35000     110.00000     269.00000
         3     14041   F   0.35000     110.00000      91.00000
         3     14045   F   0.35000     110.00000     269.00000
         3     14049   F   0.35000     110.00000      91.00000
         3     14053   F   0.35000     110.00000     269.00000
         3     14057   F   0.35000     110.00000      91.00000
         3     14061   F   0.35000     110.00000     269.00000
         3     14065   F   0.35000     110.00000      91.00000
         3     14069   F   0.35000     110.00000     269.00000
         3     14073   F   0.35000     110.00000      91.00000
         3     14077   F   0.35000     110.00000     269.00000
         3     14081   F   0.35000     110.00000      91.00000
         3     14085   F   0.35000     110.00000     269.00000
         3     14089   F   0.35000     110.00000      91.00000
         3     14093   F   0.35000     110.00000     269.00000
         3     14097   F   0.35000     110.00000      91.00000
         3     14101   F   0.35000     110.00000     269.00000
         3     14105   F   0.35000     110.00000      91.00000
         3     14109   F   0.35000     110.00000     269.00000
         3     14113   F   0.35000     110.00000      91.00000
         3     14117   F   0.35000     110.00000     269.00000
         3     14121   F   0.35000     110.00000      91.00000
         3     14125   F   0.35000     110.00000     269.00000
         3     14129   F   0.35000     110.00000      91.00000
         3     14133   F   0.35000     110.00000     269.00000
         3     14137   F   0.35000     110.00000      91.00000
         3     14141   F   0.35000     110.00000     269.00000
         3     14145   F   0.35000     110.00000      91.00000
         3     14149   F   0.35000     110.00000     269.00000
         3     14153   F   0.35000     110.00000      91.00000
         3     14157   F   0.35000     110.00000     269.00000
         3     14161   F   0.35000     110.00000      91.00000
         3     14165   F   0.35000     110.00000     269.00000
         3     14169   F   0.35000     110.00000      91.00000
         3     14173   F   0.35000     110.00000     269.00000
         3     14177   F   0.35000     110.00000      91.00000
         3     14181   F   0.35000     110.00000     269.00000
         3     14185   F   0.35000     110.00000      91.00000
         3     14189   F   0.35000     110.00000     269.00000
         3     14193   F   0.35000     110.00000      91.00000
         3     14197   F   0.35000     110.00000     269.00000
         3     14201   F   0.35000     110.00000      91.00000
         3     14205   F   0.35000     110.00000     269.00000
         3     14209   F   0.35000     110.00000      91.00000
         3     14213   F   0.35000     110.00000     269.00000
         3     14217   F   0.35000     110.00000      91.00000
         3     14221   F   0.35000     110.00000     269.00000
         3     14225   F   0.35000     110.00000      91.00000
         3     14229   F   0.35000     110.00000     269.00000
         3     14233   F   0.35000     110.00000      91.00000
         3     14237   F   0.35000     110.00000     269.00000
         3     14241   F   0.35000     110.00000      91.00000
         3     14245   F   0.35000     110.00000     269.00000
         3     14249   F   0.35000     110.00000      91.00000
         3     14253   F   0.35000     110.00000     269.00000
         3     14257   F   0.35000     110.00000      91.00000
         3     14261   F   0.35000     110.00000     269.00000
         3     14265   F   0.35000     110.00000      91.00000
         3     14269   F   0.35000     110.00000     269.00000
         3     14273   F   0.35000     110.00000      91.00000
         3     14277   F   0.35000     110.00000     269.00000
         3     14281   F   0.35000     110.00000      91.00000
         3     14285   F   0.35000     110.00000     269.00000
         3     14289   F   0.35000     110.00000      91.00000
         3     14293   F   0.35000     110.00000     269.00000
         3     14297   F   0.35000     110.00000      91.00000
         3     14301   F   0.35000     110.00000     269.00000
         3     14305   F   0.35000     110.00000      91.00000
         3     14309   F   0.35000     110.00000     269.00000
         3     14313   F   0.35000     110.00000      91.00000
         3     14317   F   0.35000     110.00000     269.00000
         3     14321   F   0.35000     110.00000      91.00000
         3     14325   F   0.35000     110.00000     269.00000
         3     14329   F   0.35000     110.00000      91.00000
         3     14333   F   0.35000     110.00000     269.00000
         3     14337   F   0.35000     110.00000      91.00000
         3     14341   F   0.35000     110.00000     269.00000
         3     14345   F   0.35000     110.00000      91.00000
         3     14349   F   0.35000     110.00000     269.00000
         3     14353   F   0.35000     110.00000      91.00000
         3     14357   F   0.35000     110.00000     269.00000
         3     14361   F   0.35000     110.00000      91.00000
         3     14365   F   0.35000     110.00000     269.00000
         3     14369   F   0.35000     110.00000      91.00000
         3     14373   F   0.35000     110.00000     269.00000
         3     14377   F   0.35000     110.00000      91.00000
         3     14381   F   0.35000     110.00000     269.00000
         3     14385   F   0.35000     110.00000      91.00000
         3     14389   F   0.35000     110.00000     269.00000
         3     14393   F   0.35000     110.00000      91.00000
         3     14397   F   0.35000     110.00000     269.00000
         3     14401   F   0.35000     110.00000      91.00000
         3     14405   F   0.35000     110.00000     269.00000
         3     14409   F   0.35000     110.00000      91.00000
         3     14413   F   0.35000     110.00000     269.00000
         3     14417   F   0.35000     110.00000      91.00000
         3     14421   F   0.35000     110.00000     269.00000
         3     14425   F   0.35000     110.00000      91.00000
         3     14429   F   0.35000     110.00000     269.00000
         3     14433   F   0.35000     110.00000      91.00000
         3     14437   F   0.35000     110.00000     269.00000
         3     14441   F   0.35000     110.00000      91.00000
         3     14445   F   0.35000     110.00000     269.00000
         3     14449   F   0.35000     110.00000      91.00000
         3     14453   F   0.35000     110.00000     269.00000
         3     14457   F   0.35000     110.00000      91.00000
         3     14461   F   0.35000     110.00000     269.00000
         3     14465   F   0.35000     110.00000      91.00000
         3     14469   F   0.35000     110.00000     269.00000
         3     14473   F   0.35000     110.00000      91.00000
         3     14477   F   0.35000     110.00000     269.00000
         3     14481   F   0.35000     110.00000      91.00000
         3     14485   F   0.35000     110.00000     269.00000
         3     14489   F   0.35000     110.00000      91.00000
         3     14493   F   0.35000     110.00000     269.00000
         3     14497   F   0.35000     110.00000      91.00000
         3     14501   F   0.35000     110.00000     269.00000
         3     14505   F   0.35000     110.00000      91.00000
         3     14509   F   0.35000     110.00000     269.00000
         3     14513   F   0.35000     110.00000      91.00000
         3     14517   F   0.35000     110.00000     269.00000
         3     14521   F   0.35000     110.00000      91.00000
         3     14525   F   0.35000     110.00000     269.00000
         3     14529   F   0.35000     110.00000      91.00000
         3     14533   F   0.35000     110.00000     269.00000
         3     14537   F   0.35000     110.00000      91.00000
         3     14541   F   0.35000     110.00000     269.00000
         3     14545   F   0.35000     110.00000      91.00000
         3     14549   F   0.35000     110.00000     269.00000
         3     14553   F   0.35000     110.00000      91.00000
         3     14557   F   0.35000     110.00000     269.00000
         3     14561   F   0.35000     110.00000      91.00000
         3     14565   F   0.35000     110.00000     269.00000
         3     14569   F   0.35000     110.00000      91.00000
         3     14573   F   0.35000     110.00000     269.00000
         3     14577   F   0.35000     110.00000      91.00000
         3     14581   F   0.35000     110.00000     269.00000
         3     14585   F   0.35000     110.00000      91.00000
         3     14589   F   0.35000     110.00000     269.00000
         3     14593   F   0.35000     110.00000      91.00000
         3     14597   F   0.35000     110.00000     269.00000
         3     14601   F   0.35000     110.00000      91.00000
         3     14605   F   0.35000     110.00000     269.00000
         3     14609   F   0.35000     110.00000      91.00000
         3     14613   F   0.35000     110.00000     269.00000
         3     14617   F   0.35000     110.00000      91.00000
         3     14621   F   0.35000     110.00000     269.00000
         3     14625   F   0.35000     110.00000      91.00000
         3     14629   F   0.35000     110.00000     269.00000
         3     14633   F   0.35000     110.00000      91.00000
         3     14637   F   0.35000     110.00000     269.00000
         3     14641   F   0.35000     110.00000      91.00000
         3     14645   F   0.35000     110.00000     269.00000
         3     14649   F   0.35000     110.00000      91.00000
         3     14653   F   0.35000     110.00000     269.00000
         3     14657   F   0.35000     110.00000      91.00000
         3     14661   F   0.35000     110.00000     269.00000
         3     14665   F   0.35000     110.00000      91.00000
         3     14669   F   0.35000     110.00000     269.00000
         3     14673   F   0.35000     110.00000      91.00000
         3     14677   F   0.35000     110.00000     269.00000
         3     14681   F   0.35000     110.00000      91.00000
         3     14685   F   0.35000     110.00000     269.00000
         3     14689   F   0.35000     110.00000      91.00000
         3     14693   F   0.35000     110.00000     269.00000
         3     14697   F   0.35000     110.00000      91.00000
         3     14701   F   0.35000     110.00000     269.00000
         3     14705   F   0.35000     110.00000      91.00000
         3     14709   F   0.35000     110.00000     269.00000
         3     14713   F   0.35000     110.00000      91.00000
         3     14717   F   0.35000     110.00000     269.00000
         3     14721   F   0.35000     110.00000      91.00000
         3     14725   F   0.35000     110.00000     269.00000
         3     14729   F   0.35000     110.00000      91.00000
         3     14733   F   0.35000     110.00000     269.00000
         3     14737   F   0.35000     110.00000      91.00000
         3     14741   F   0.35000     110.00000     269.00000
         3     14745   F   0.35000     110.00000      91.00000
         3     14749   F   0.35000     110.00000     269.00000
         3     14753   F   0.35000     110.00000      91.00000
         3     14757   F   0.35000     110.00000     269.00000
         3     14761   F   0.35000     110.00000      91.00000
         3     14765   F   0.35000     110.00000     269.00000
         3     14769   F   0.35000     110.00000      91.00000
         3     14773   F   0.35000     110.00000     269.00000
         3     14777   F   0.35000     110.00000      91.00000
         3     14781   F   0.35000     110.00000     269.00000
         3     14785   F   0.35000     110.00000      91.00000
         3     14789   F   0.35000     110.00000     269.00000
         3     14793   F   0.35000     110.00000      91.00000
         3     14797   F   0.35000     110.00000     269.00000
         3     14801   F   0.35000     110.00000      91.00000
         3     14805   F   0.35000     110.00000     269.00000
         3     14809   F   0.35000     110.00000      91.00000
         3     14813   F   0.35000     110.00000     269.00000
         3     14817   F   0.35000     110.00000      91.00000
         3     14821   F   0.35000     110.00000     269.00000
         3     14825   F   0.35000     110.00000      91.00000
         3     14829   F   0.35000     110.00000     269.00000
         3     14833   F   0.35000     110.00000      91.00000
         3     14837   F   0.35000     110.00000     269.00000
         3     14841   F   0.35000     110.00000      91.00000
         3     14845   F   0.35000     110.00000     269.00000
         3     14849   F   0.35000     110.00000      91.00000
         3     14853   F   0.35000     110.00000     269.00000
         3     14857   F   0.35000     110.00000      91.00000
         3     14861   F   0.35000     110.00000     269.00000
         3     14865   F   0.35000     110.00000      91.00000
         3     14869   F   0.35000     110.00000     269.00000
         3     14873   F   0.35000     110.00000      91.00000
         3     14877   F   0.35000     110.00000     269.00000
         3     14881   F   0.35000     110.00000      91.00000
         3     14885   F   0.35000     110.00000     269.00000
         3     14889   F   0.35000     110.00000      91.00000
         3     14893   F   0.35000     110.00000     269.00000
         3     14897   F   0.35000     110.00000      91.00000
         3     14901   F   0.35000     110.00000     269.00000
         3     14905   F   0.35000     110.00000      91.00000
         3     14909   F   0.35000     110.00000     269.00000
         3     14913   F   0.35000     110.00000      91.00000
         3     14917   F   0.35000     110.00000     269.00000
         3     14921   F   0.35000     110.00000      91.00000
         3     14925   F   0.35000     110.00000     269.00000
         3     14929   F   0.35000     110.00000      91.00000
         3     14933   F   0.35000     110.00000     269.00000
         3     14937   F   0.35000     110.00000      91.00000
         3     14941   F   0.35000     110.00000     269.00000
         3     14945   F   0.35000     110.00000      91.00000
         3     14949   F   0.35000     110.00000     269.00000
         3     14953   F   0.35000     110.00000      91.00000
         3     14957   F   0.35000     110.00000     269.00000
         3     14961   F   0.35000     110.00000      91.00000
         3     14965   F   0.35000     110.00000     269.00000
         3     14969   F   0.35000     110.00000      91.00000
         3     14973   F   0.35000     110.00000     269.00000
         3     14977   F   0.35000     110.00000      91.00000
         3     14981   F   0.35000     110.00000     269.00000
         3     14985   F   0.35000     110.00000      91.00000
         3     14989   F   0.35000     110.00000     269.00000
         3     14993   F   0.35000     110.00000      91.00000
         3     14997   F   0.35000     110.00000     269.00000
         3     15001   F   0.35000     110.00000      91.00000
         3     15005   F   0.35000     110.00000     269.00000
         3     15009   F   0.35000     110.00000      91.00000
         3     15013   F   0.35000     110.00000     269.00000
         3     15017   F   0.35000     110.00000      91.00000
         3     15021   F   0.35000     110.00000     269.00000
         3     15025   F   0.35000     110.00000      91.00000
         3     15029   F   0.35000     110.00000     269.00000
         3     15033   F   0.35000     110.00000      91.00000
         3     15037   F   0.35000     110.00000     269.00000
         3     15041   F   0.35000     110.00000      91.00000
         3     15045   F   0.35000     110.00000     269.00000
         3     15049   F   0.35000     110.00000      91.00000
         3     15053   F   0.35000     110.00000     269.00000
         3     15057   F   0.35000     110.00000      91.00000
         3     15061   F   0.35000     110.00000     269.00000
         3     15065   F   0.35000     110.00000      91.00000
         3     15069   F   0.35000     110.00000     269.00000
         3     15073   F   0.35000     110.00000      91.00000
         3     15077   F   0.35000     110.00000     269.00000
         3     15081   F   0.35000     110.00000      91.00000
         3     15085   F   0.35000     110.00000     269.00000
         3     15089   F   0.35000     110.00000      91.00000
         3     15093   F   0.35000     110.00000     269.00000
         3     15097   F   0.35000     110.00000      91.00000
         3     15101   F   0.35000     110.00000     269.00000
         3     15105   F   0.35000     110.00000      91.00000
         3     15109   F   0.35000     110.00000     269.00000
         3     15113   F   0.35000     110.00000      91.00000
         3     15117   F   0.35000     110.00000     269.00000
         3     15121   F   0.35000     110.00000      91.00000
         3     15125   F   0.35000     110.00000     269.00000
         3     15129   F   0.35000     110.00000      91.00000
         3     15133   F   0.35000     110.00000     269.00000
         3     15137   F   0.35000     110.00000      91.00000
         3     15141   F   0.35000     110.00000     269.00000
         3     15145   F   0.35000     110.00000      91.00000
         3     15149   F   0.35000     110.00000     269.00000
         3     15153   F   0.35000     110.00000      91.00000
         3     15157   F   0.35000     110.00000     269.00000
         3     15161   F   0.35000     110.00000      91.00000
         3     15165   F   0.35000     110.00000     269.00000
         3     15169   F   0.35000     110.00000      91.00000
         3     15173   F   0.35000     110.00000     269.00000
         3     15177   F   0.35000     110.00000      91.00000
         3     15181   F   0.35000     110.00000     269.00000
         3     15185   F   0.35000     110.00000      91.00000
         3     15189   F   0.35000     110.00000     269.00000
         3     15193   F   0.35000     110.00000      91.00000
         3     15197   F   0.35000     110.00000     269.00000
         3     15201   F   0.35000     110.00000      91.00000
         3     15205   F   0.35000     110.00000     269.00000
         3     15209   F   0.35000     110.00000      91.00000
         3     15213   F   0.35000     110.00000     269.00000
         3     15217   F   0.35000     110.00000      91.00000
         3     15221   F   0.35000     110.00000     269.00000
         3     15225   F   0.35000     110.00000      91.00000
         3     15229   F   0.35000     110.00000     269.00000
         3     15233   F   0.35000     110.00000      91.00000
         3     15237   F   0.35000     110.00000     269.00000
         3     15241   F   0.35000     110.00000      91.00000
         3     15245   F   0.35000     110.00000     269.00000
         3     15249   F   0.35000     110.00000      91.00000
         3     15253   F   0.35000     110.00000     269.00000
         3     15257   F   0.35000     110.00000      91.00000
         3     15261   F   0.35000     110.00000     269.00000
         3     15265   F   0.35000     110.00000      91.00000
         3     15269   F   0.35000     110.00000     269.00000
         3     15273   F   0.35000     110.00000      91.00000
         3     15277   F   0.35000     110.00000     269.00000
         3     15281   F   0.35000     110.00000      91.00000
         3     15285   F   0.35000     110.00000     269.00000
         3     15289   F   0.35000     110.00000      91.00000
         3     15293   F   0.35000     110.00000     269.00000
         3     15297   F   0.35000     110.00000      91.00000
         3     15301   F   0.35000     110.00000     269.00000
         3     15305   F   0.35000     110.00000      91.00000
         3     15309   F   0.35000     110.00000     269.00000
         3     15313   F   0.35000     110.00000      91.00000
         3     15317   F   0.35000     110.00000     269.00000
         3     15321   F   0.35000     110.00000      91.00000
         3     15325   F   0.35000     110.00000     269.00000
         3     15329   F   0.35000     110.00000      91.00000
         3     15333   F   0.35000     110.00000     269.00000
         3     15337   F   0.35000     110.00000      91.00000
         3     15341   F   0.35000     110.00000     269.00000
         3     15345   F   0.35000     110.00000      91.00000
         3     15349   F   0.35000     110.00000     269.00000
         3     15353   F   0.35000     110.00000      91.00000
         3     15357   F   0.35000     110.00000     269.00000
         3     15361   F   0.35000     110.00000      91.00000
         3     15365   F   0.35000     110.00000     269.00000
         3     15369   F   0.35000     110.00000      91.00000
         3     15373   F   0.35000     110.00000     269.00000
         3     15377   F   0.35000     110.00000      91.00000
         3     15381   F   0.35000     110.00000     269.00000
         3     15385   F   0.35000     110.00000      91.00000
         3     15389   F   0.35000     110.00000     269.00000
         3     15393   F   0.35000     110.00000      91.00000
         3     15397   F   0.35000     110.00000     269.00000
         3     15401   F   0.35000     110.00000      91.00000
         3     15405   F   0.35000     110.00000     269.00000
         3     15409   F   0.35000     110.00000      91.00000
         3     15413   F   0.35000     110.00000     269.00000
         3     15417   F   0.35000     110.00000      91.00000
         3     15421   F   0.35000     110.00000     269.00000
         3     15425   F   0.35000     110.00000      91.00000
         3     15429   F   0.35000     110.00000     269.00000
         3     15433   F   0.35000     110.00000      91.00000
         3     15437   F   0.35000     110.00000     269.00000
         3     15441   F   0.35000     110.00000      91.00000
         3     15445   F   0.35000     110.00000     269.00000
         3     15449   F   0.35000     110.00000      91.00000
         3     15453   F   0.35000     110.00000     269.00000
         3     15457   F   0.35000     110.00000      91.00000
         3     15461   F   0.35000     110.00000     269.00000
         3     15465   F   0.35000     110.00000      91.00000
         3     15469   F   0.35000     110.00000     269.00000
         3     15473   F   0.35000     110.00000      91.00000
         3     15477   F   0.35000     110.00000     269.00000
         3     15481   F   0.35000     110.00000      91.00000
         3     15485   F   0.35000     110.00000     269.00000
         3     15489   F   0.35000     110.00000      91.00000
         3     15493   F   0.35000     110.00000     269.00000
         3     15497   F   0.35000     110.00000      91.00000
         3     15501   F   0.35000     110.00000     269.00000
         3     15505   F   0.35000     110.00000      91.00000
         3     15509   F   0.35000     110.00000     269.00000
         3     15513   F   0.35000     110.00000      91.00000
         3     15517   F   0.35000     110.00000     269.00000
         3     15521   F   0.35000     110.00000      91.00000
         3     15525   F   0.35000     110.00000     269.00000
         3     15529   F   0.35000     110.00000      91.00000
         3     15533   F   0.35000     110.00000     269.00000
         3     15537   F   0.35000     110.00000      91.00000
         3     15541   F   0.35000     110.00000     269.00000
         3     15545   F   0.35000     110.00000      91.00000
         3     15549   F   0.35000     110.00000     269.00000
         3     15553   F   0.35000     110.00000      91.00000
         3     15557   F   0.35000     110.00000     269.00000
         3     15561   F   0.35000     110.00000      91.00000
         3     15565   F   0.35000     110.00000     269.00000
         3     15569   F   0.35000     110.00000      91.00000
         3     15573   F   0.35000     110.00000     269.00000
         3     15577   F   0.35000     110.00000      91.00000
         3     15581   F   0.35000     110.00000     269.00000
         3     15585   F   0.35000     110.00000      91.00000
         3     15589   F   0.35000     110.00000     269.00000
         3     15593   F   0.35000     110.00000      91.00000
         3     15597   F   0.35000     110.00000     269.00000
         3     15601   F   0.35000     110.00000      91.00000
         3     15605   F   0.35000     110.00000     269.00000
         3     15609   F   0.35000     110.00000      91.00000
         3     15613   F   0.35000     110.00000     269.00000
         3     15617   F   0.35000     110.00000      91.00000
         3     15621   F   0.35000     110.00000     269.00000
         3     15625   F   0.35000     110.00000      91.00000
         3     15629   F   0.35000     110.00000     269.00000
         3     15633   F   0.35000     110.00000      91.00000
         3     15637   F   0.35000     110.00000     269.00000
         3     15641   F   0.35000     110.00000      91.00000
         3     15645   F   0.35000     110.00000     269.00000
         3     15649   F   0.35000     110.00000      91.00000
         3     15653   F   0.35000     110.00000     269.00000
         3     15657   F   0.35000     110.00000      91.00000
         3     15661   F   0.35000     110.00000     269.00000
         3     15665   F   0.35000     110.00000      91.00000
         3     15669   F   0.35000     110.00000     269.00000
         3     15673   F   0.35000     110.00000      91.00000
         3     15677   F   0.35000     110.00000     269.00000
         3     15681   F   0.35000     110.00000      91.00000
         3     15685   F   0.35000     110.00000     269.00000
         3     15689   F   0.35000     110.00000      91.00000
         3     15693   F   0.35000     110.00000     269.00000
         3     15697   F   0.35000     110.00000      91.00000
         3     15701   F   0.35000     110.00000     269.00000
         3     15705   F   0.35000     110.00000      91.00000
         3     15709   F   0.35000     110.00000     269.00000
         3     15713   F   0.35000     110.00000      91.00000
         3     15717   F   0.35000     110.00000     269.00000
         3     15721   F   0.35000     110.00000      91.00000
         3     15725   F   0.35000     110.00000     269.00000
         3     15729   F   0.35000     110.00000      91.00000
         3     15733   F   0.35000     110.00000     269.00000
         3     15737   F   0.35000     110.00000      91.00000
         3     15741   F   0.35000     110.00000     269.00000
         3     15745   F   0.35000     110.00000      91.00000
         3     15749   F   0.35000     110.00000     269.00000
         3     15753   F   0.35000     110.00000      91.00000
         3     15757   F   0.35000     110.00000     269.00000
         3     15761   F   0.35000     110.00000      91.00000
         3     15765   F   0.35000     110.00000     269.00000
         3     15769   F   0.35000     110.00000      91.00000
         3     15773   F   0.35000     110.00000     269.00000
         3     15777   F   0.35000     110.00000      91.00000
         3     15781   F   0.35000     110.00000     269.00000
         3     15785   F   0.35000     110.00000      91.00000
         3     15789   F   0.35000     110.00000     269.00000
         3     15793   F   0.35000     110.00000      91.00000
         3     15797   F   0.35000     110.00000     269.00000
         3     15801   F   0.35000     110.00000      91.00000
         3     15805   F   0.35000     110.00000     269.00000
         3     15809   F   0.35000     110.00000      91.00000
         3     15813   F   0.35000     110.00000     269.00000
         3     15817   F   0.35000     110.00000      91.00000
         3     15821   F   0.35000     110.00000     269.00000
         3     15825   F   0.35000     110.00000      91.00000
         3     15829   F   0.35000     110.00000     269.00000
         3     15833   F   0.35000     110.00000      91.00000
         3     15837   F   0.35000     110.00000     269.00000
         3     15841   F   0.35000     110.00000      91.00000
         3     15845   F   0.35000     110.00000     269.00000
         3     15849   F   0.35000     110.00000      91.00000
         3     15853   F   0.35000     110.00000     269.00000
         3     15857   F   0.35000     110.00000      91.00000
         3     15861   F   0.35000     110.00000     269.00000
         3     15865   F   0.35000     110.00000      91.00000
         3     15869   F   0.35000     110.00000     269.00000
         3     15873   F   0.35000     110.00000      91.00000
         3     15877   F   0.35000     110.00000     269.00000
         3     15881   F   0.35000     110.00000      91.00000
         3     15885   F   0.35000     110.00000     269.00000
         3     15889   F   0.35000     110.00000      91.00000
         3     15893   F   0.35000     110.00000     269.00000
         3     15897   F   0.35000     110.00000      91.00000
         3     15901   F   0.35000     110.00000     269.00000
         3     15905   F   0.35000     110.00000      91.00000
         3     15909   F   0.35000     110.00000     269.00000
         3     15913   F   0.35000     110.00000      91.00000
         3     15917   F   0.35000     110.00000     269.00000
         3     15921   F   0.35000     110.00000      91.00000
         3     15925   F   0.35000     110.00000     269.00000
         3     15929   F   0.35000     110.00000      91.00000
         3     15933   F   0.35000     110.00000     269.00000
         3     15937   F   0.35000     110.00000      91.00000
         3     15941   F   0.35000     110.00000     269.00000
         3     15945   F   0.35000     110.00000      91.00000
         3     15949   F   0.35000     110.00000     269.00000
         3     15953   F   0.35000     110.00000      91.00000
         3     15957   F   0.35000     110.00000     269.00000
         3     15961   F   0.35000     110.00000      91.00000
         3     15965   F   0.35000     110.00000     269.00000
         3     15969   F   0.35000     110.00000      91.00000
         3     15973   F   0.35000     110.00000     269.00000
         3     15977   F   0.35000     110.00000      91.00000
         3     15981   F   0.35000     110.00000     269.00000
         3     15985   F   0.35000     110.00000      91.00000
         3     15989   F   0.35000     110.00000     269.00000
         3     15993   F   0.35000     110.00000      91.00000
         3     15997   F   0.35000     110.00000     269.00000
         3     16001   F   0.35000     110.00000      91.00000
         3     16005   F   0.35000     110.00000     269.00000
         3     16009   F   0.35000     110.00000      91.00000
         3     16013   F   0.35000     110.00000     269.00000
         3     16017   F   0.35000     110.00000      91.00000
         3     16021   F   0.35000     110.00000     269.00000
         3     16025   F   0.35000     110.00000      91.00000
         3     16029   F   0.35000     110.00000     269.00000
         3     16033   F   0.35000     110.00000      91.00000
         3     16037   F   0.35000     110.00000     269.00000
         3     16041   F   0.35000     110.00000      91.00000
         3     16045   F   0.35000     110.00000     269.00000
         3     16049   F   0.35000     110.00000      91.00000
         3     16053   F   0.35000     110.00000     269.00000
         3     16057   F   0.35000     110.00000      91.00000
         3     16061   F   0.35000     110.00000     269.00000
         3     16065   F   0.35000     110.00000      91.00000
         3     16069   F   0.35000     110.00000     269.00000
         3     16073   F   0.35000     110.00000      91.00000
         3     16077   F   0.35000     110.00000     269.00000
         3     16081   F   0.35000     110.00000      91.00000
         3     16085   F   0.35000     110.00000     269.00000
         3     16089   F   0.35000     110.00000      91.00000
         3     16093   F   0.35000     110.00000     269.00000
         3     16097   F   0.35000     110.00000      91.00000
         3     16101   F   0.35000     110.00000     269.00000
         3     16105   F   0.35000     110.00000      91.00000
         3     16109   F   0.35000     110.00000     269.00000
         3     16113   F   0.35000     110.00000      91.00000
         3     16117   F   0.35000     110.00000     269.00000
         3     16121   F   0.35000     110.00000      91.00000
         3     16125   F   0.35000     110.00000     269.00000
         3     16129   F   0.35000     110.00000      91.00000
         3     16133   F   0.35000     110.00000     269.00000
         3     16137   F   0.35000     110.00000      91.00000
         3     16141   F   0.35000     110.00000     269.00000
         3     16145   F   0.35000     110.00000      91.00000
         3     16149   F   0.35000     110.00000     269.00000
         3     16153   F   0.35000     110.00000      91.00000
         3     16157   F   0.35000     110.00000     269.00000
         3     16161   F   0.35000     110.00000      91.00000
         3     16165   F   0.35000     110.00000     269.00000
         3     16169   F   0.35000     110.00000      91.00000
         3     16173   F   0.35000     110.00000     269.00000
         3     16177   F   0.35000     110.00000      91.00000
         3     16181   F   0.35000     110.00000     269.00000
         3     16185   F   0.35000     110.00000      91.00000
         3     16189   F   0.35000     110.00000     269.00000
         3     16193   F   0.35000     110.00000      91.00000
         3     16197   F   0.35000     110.00000     269.00000
         3     16201   F   0.35000     110.00000      91.00000
         3     16205   F   0.35000     110.00000     269.00000
         3     16209   F   0.35000     110.00000      91.00000
         3     16213   F   0.35000     110.00000     269.00000
         3     16217   F   0.35000     110.00000      91.00000
         3     16221   F   0.35000     110.00000     269.00000
         3     16225   F   0.35000     110.00000      91.00000
         3     16229   F   0.35000     110.00000     269.00000
         3     16233   F   0.35000     110.00000      91.00000
         3     16237   F   0.35000     110.00000     269.00000
         3     16241   F   0.35000     110.00000      91.00000
         3     16245   F   0.35000     110.00000     269.00000
         3     16249   F   0.35000     110.00000      91.00000
         3     16253   F   0.35000     110.00000     269.00000
         3     16257   F   0.35000     110.00000      91.00000
         3     16261   F   0.35000     110.00000     269.00000
         3     16265   F   0.35000     110.00000      91.00000
         3     16269   F   0.35000     110.00000     269.00000
         3     16273   F   0.35000     110.00000      91.00000
         3     16277   F   0.35000     110.00000     269.00000
         3     16281   F   0.35000     110.00000      91.00000
         3     16285   F   0.35000     110.00000     269.00000
         3     16289   F   0.35000     110.00000      91.00000
         3     16293   F   0.35000     110.00000     269.00000
         3     16297   F   0.35000     110.00000      91.00000
         3     16301   F   0.35000     110.00000     269.00000
         3     16305   F   0.35000     110.00000      91.00000
         3     16309   F   0.35000     110.00000     269.00000
         3     16313   F   0.35000     110.00000      91.00000
         3     16317   F   0.35000     110.00000     269.00000
         3     16321   F   0.35000     110.00000      91.00000
         3     16325   F   0.35000     110.00000     269.00000
         3     16329   F   0.35000     110.00000      91.00000
         3     16333   F   0.35000     110.00000     269.00000
         3     16337   F   0.35000     110.00000      91.00000
         3     16341   F   0.35000     110.00000     269.00000
         3     16345   F   0.35000     110.00000      91.00000
         3     16349   F   0.35000     110.00000     269.00000
         3     16353   F   0.35000     110.00000      91.00000
         3     16357   F   0.35000     110.00000     269.00000
         3     16361   F   0.35000     110.00000      91.00000
         3     16365   F   0.35000     110.00000     269.00000
         3     16369   F   0.35000     110.00000      91.00000
         3     16373   F   0.35000     110.00000     269.00000
         3     16377   F   0.35000     110.00000      91.00000
         3     16381   F   0.35000     110.00000     269.00000
         3     16385   F   0.35000     110.00000      91.00000
         3     16389   F   0.35000     110.00000     269.00000
         3     16393   F   0.35000     110.00000      91.00000
         3     16397   F   0.35000     110.00000     269.00000
         3     16401   F   0.35000     110.00000      91.00000
         3     16405   F   0.35000     110.00000     269.00000
         3     16409   F   0.35000     110.00000      91.00000
         3     16413   F   0.35000     110.00000     269.00000
         3     16417   F   0.35000     110.00000      91.00000
         3     16421   F   0.35000     110.00000     269.00000
         3     16425   F   0.35000     110.00000      91.00000
         3     16429   F   0.35000     110.00000     269.00000
         3     16433   F   0.35000     110.00000      91.00000
         3     16437   F   0.35000     110.00000     269.00000
         3     16441   F   0.35000     110.00000      91.00000
         3     16445   F   0.35000     110.00000     269.00000
         3     16449   F   0.35000     110.00000      91.00000
         3     16453   F   0.35000     110.00000     269.00000
         3     16457   F   0.35000     110.00000      91.00000
         3     16461   F   0.35000     110.00000     269.00000
         3     16465   F   0.35000     110.00000      91.00000
         3     16469   F   0.35000     110.00000     269.00000
         3     16473   F   0.35000     110.00000      91.00000
         3     16477   F   0.35000     110.00000     269.00000
         3     16481   F   0.35000     110.00000      91.00000
         3     16485   F   0.35000     110.00000     269.00000
         3     16489   F   0.35000     110.00000      91.00000
         3     16493   F   0.35000     110.00000     269.00000
         3     16497   F   0.35000     110.00000      91.00000
         3     16501   F   0.35000     110.00000     269.00000
         3     16505   F   0.35000     110.00000      91.00000
         3     16509   F   0.35000     110.00000     269.00000
         3     16513   F   0.35000     110.00000      91.00000
         3     16517   F   0.35000     110.00000     269.00000
         3     16521   F   0.35000     110.00000      91.00000
         3     16525   F   0.35000     110.00000     269.00000
         3     16529   F   0.35000     110.00000      91.00000
         3     16533   F   0.35000     110.00000     269.00000
         3     16537   F   0.35000     110.00000      91.00000
         3     16541   F   0.35000     110.00000     269.00000
         3     16545   F   0.35000     110.00000      91.00000
         3     16549   F   0.35000     110.00000     269.00000
         3     16553   F   0.35000     110.00000      91.00000
         3     16557   F   0.35000     110.00000     269.00000
         3     16561   F   0.35000     110.00000      91.00000
         3     16565   F   0.35000     110.00000     269.00000
         3     16569   F   0.35000     110.00000      91.00000
         3     16573   F   0.35000     110.00000     269.00000
         3     16577   F   0.35000     110.00000      91.00000
         3     16581   F   0.35000     110.00000     269.00000
         3     16585   F   0.35000     110.00000      91.00000
         3     16589   F   0.35000     110.00000     269.00000
         3     16593   F   0.35000     110.00000      91.00000
         3     16597   F   0.35000     110.00000     269.00000
         3     16601   F   0.35000     110.00000      91.00000
         3     16605   F   0.35000     110.00000     269.00000
         3     16609   F   0.35000     110.00000      91.00000
         3     16613   F   0.35000     110.00000     269.00000
         3     16617   F   0.35000     110.00000      91.00000
         3     16621   F   0.35000     110.00000     269.00000
         3     16625   F   0.35000     110.00000      91.00000
         3     16629   F   0.35000     110.00000     269.00000
         3     16633   F   0.35000     110.00000      91.00000
         3     16637   F   0.35000     110.00000     269.00000
         3     16641   F   0.35000     110.00000      91.00000
         3     16645   F   0.35000     110.00000     269.00000
         3     16649   F   0.35000     110.00000      91.00000
         3     16653   F   0.35000     110.00000     269.00000
         3     16657   F   0.35000     110.00000      91.00000
         3     16661   F   0.35000     110.00000     269.00000
         3     16665   F   0.35000     110.00000      91.00000
         3     16669   F   0.35000     110.00000     269.00000
         3     16673   F   0.35000     110.00000      91.00000
         3     16677   F   0.35000     110.00000     269.00000
         3     16681   F   0.35000     110.00000      91.00000
         3     16685   F   0.35000     110.00000     269.00000
         3     16689   F   0.35000     110.00000      91.00000
         3     16693   F   0.35000     110.00000     269.00000
         3     16697   F   0.35000     110.00000      91.00000
         3     16701   F   0.35000     110.00000     269.00000
         3     16705   F   0.35000     110.00000      91.00000
         3     16709   F   0.35000     110.00000     269.00000
         3     16713   F   0.35000     110.00000      91.00000
         3     16717   F   0.35000     110.00000     269.00000
         3     16721   F   0.35000     110.00000      91.00000
         3     16725   F   0.35000     110.00000     269.00000
         3     16729   F   0.35000     110.00000      91.00000
         3     16733   F   0.35000     110.00000     269.00000
         3     16737   F   0.35000     110.00000      91.00000
         3     16741   F   0.35000     110.00000     269.00000
         3     16745   F   0.35000     110.00000      91.00000
         3     16749   F   0.35000     110.00000     269.00000
         3     16753   F   0.35000     110.00000      91.00000
         3     16757   F   0.35000     110.00000     269.00000
         3     16761   F   0.35000     110.00000      91.00000
         3     16765   F   0.35000     110.00000     269.00000
         3     16769   F   0.35000     110.00000      91.00000
         3     16773   F   0.35000     110.00000     269.00000
         3     16777   F   0.35000     110.00000      91.00000
         3     16781   F   0.35000     110.00000     269.00000
         3     16785   F   0.35000     110.00000      91.00000
         3     16789   F   0.35000     110.00000     269.00000
         3     16793   F   0.35000     110.00000      91.00000
         3     16797   F   0.35000     110.00000     269.00000
         3     16801   F   0.35000     110.00000      91.00000
         3     16805   F   0.35000     110.00000     269.00000
         3     16809   F   0.35000     110.00000      91.00000
         3     16813   F   0.35000     110.00000     269.00000
         3     16817   F   0.35000     110.00000      91.00000
         3     16821   F   0.35000     110.00000     269.00000
         3     16825   F   0.35000     110.00000      91.00000
         3     16829   F   0.35000     110.00000     269.00000
         3     16833   F   0.35000     110.00000      91.00000
         3     16837   F   0.35000     110.00000     269.00000
         3     16841   F   0.35000     110.00000      91.00000
         3     16845   F   0.35000     110.00000     269.00000
         3     16849   F   0.35000     110.00000      91.00000
         3     16853   F   0.35000     110.00000     269.00000
         3     16857   F   0.35000     110.00000      91.00000
         3     16861   F   0.35000     110.00000     269.00000
         3     16865   F   0.35000     110.00000      91.00000
         3     16869   F   0.35000     110.00000     269.00000
         3     16873   F   0.35000     110.00000      91.00000
         3     16877   F   0.35000     110.00000     269.00000
         3     16881   F   0.35000     110.00000      91.00000
         3     16885   F   0.35000     110.00000     269.00000
         3     16889   F   0.35000     110.00000      91.00000
         3     16893   F   0.35000     110.00000     269.00000
         3     16897   F   0.35000     110.00000      91.00000
         3     16901   F   0.35000     110.00000     269.00000
         3     16905   F   0.35000     110.00000      91.00000
         3     16909   F   0.35000     110.00000     269.00000
         3     16913   F   0.35000     110.00000      91.00000
         3     16917   F   0.35000     110.00000     269.00000
         3     16921   F   0.35000     110.00000      91.00000
         3     16925   F   0.35000     110.00000     269.00000
         3     16929   F   0.35000     110.00000      91.00000
         3     16933   F   0.35000     110.00000     269.00000
         3     16937   F   0.35000     110.00000      91.00000
         3     16941   F   0.35000     110.00000     269.00000
         3     16945   F   0.35000     110.00000      91.00000
         3     16949   F   0.35000     110.00000     269.00000
         3     16953   F   0.35000     110.00000      91.00000
         3     16957   F   0.35000     110.00000     269.00000
         3     16961   F   0.35000     110.00000      91.00000
         3     16965   F   0.35000     110.00000     269.00000
         3     16969   F   0.35000     110.00000      91.00000
         3     16973   F   0.35000     110.00000     269.00000
         3     16977   F   0.35000     110.00000      91.00000
         3     16981   F   0.35000     110.00000     269.00000
         3     16985   F   0.35000     110.00000      91.00000
         3     16989   F   0.35000     110.00000     269.00000
         3     16993   F   0.35000     110.00000      91.00000
         3     16997   F   0.35000     110.00000     269.00000
         3     17001   F   0.35000     110.00000      91.00000
         3     17005   F   0.35000     110.00000     269.00000
         3     17009   F   0.35000     110.00000      91.00000
         3     17013   F   0.35000     110.00000     269.00000
         3     17017   F   0.35000     110.00000      91.00000
         3     17021   F   0.35000     110.00000     269.00000
         3     17025   F   0.35000     110.00000      91.00000
         3     17029   F   0.35000     110.00000     269.00000
         3     17033   F   0.35000     110.00000      91.00000
         3     17037   F   0.35000     110.00000     269.00000
         3     17041   F   0.35000     110.00000      91.00000
         3     17045   F   0.35000     110.00000     269.00000
         3     17049   F   0.35000     110.00000      91.00000
         3     17053   F   0.35000     110.00000     269.00000
         3     17057   F   0.35000     110.00000      91.00000
         3     17061   F   0.35000     110.00000     269.00000
         3     17065   F   0.35000     110.00000      91.00000
         3     17069   F   0.35000     110.00000     269.00000
         3     17073   F   0.35000     110.00000      91.00000
         3     17077   F   0.35000     110.00000     269.00000
         3     17081   F   0.35000     110.00000      91.00000
         3     17085   F   0.35000     110.00000     269.00000
         3     17089   F   0.35000     110.00000      91.00000
         3     17093   F   0.35000     110.00000     269.00000
         3     17097   F   0.35000     110.00000      91.00000
         3     17101   F   0.35000     110.00000     269.00000
         3     17105   F   0.35000     110.00000      91.00000
         3     17109   F   0.35000     110.00000     269.00000
         3     17113   F   0.35000     110.00000      91.00000
         3     17117   F   0.35000     110.00000     269.00000
         3     17121   F   0.35000     110.00000      91.00000
         3     17125   F   0.35000     110.00000     269.00000
         3     17129   F   0.35000     110.00000      91.00000
         3     17133   F   0.35000     110.00000     269.00000
         3     17137   F   0.35000     110.00000      91.00000
         3     17141   F   0.35000     110.00000     269.00000
         3     17145   F   0.35000     110.00000      91.00000
         3     17149   F   0.35000     110.00000     269.00000
         3     17153   F   0.35000     110.00000      91.00000
         3     17157   F   0.35000     110.00000     269.00000
         3     17161   F   0.35000     110.00000      91.00000
         3     17165   F   0.35000     110.00000     269.00000
         3     17169   F   0.35000     110.00000      91.00000
         3     17173   F   0.35000     110.00000     269.00000
         3     17177   F   0.35000     110.00000      91.00000
         3     17181   F   0.35000     110.00000     269.00000
         3     17185   F   0.35000     110.00000      91.00000
         3     17189   F   0.35000     110.00000     269.00000
         3     17193   F   0.35000     110.00000      91.00000
         3     17197   F   0.35000     110.00000     269.00000
         3     17201   F   0.35000     110.00000      91.00000
         3     17205   F   0.35000     110.00000     269.00000
         3     17209   F   0.35000     110.00000      91.00000
         3     17213   F   0.35000     110.00000     269.00000
         3     17217   F   0.35000     110.00000      91.00000
         3     17221   F   0.35000     110.00000     269.00000
         3     17225   F   0.35000     110.00000      91.00000
         3     17229   F   0.35000     110.00000     269.00000
         3     17233   F   0.35000     110.00000      91.00000
         3     17237   F   0.35000     110.00000     269.00000
         3     17241   F   0.35000     110.00000      91.00000
         3     17245   F   0.35000     110.00000     269.00000
         3     17249   F   0.35000     110.00000      91.00000
         3     17253   F   0.35000     110.00000     269.00000
         3     17257   F   0.35000     110.00000      91.00000
         3     17261   F   0.35000     110.00000     269.00000
         3     17265   F   0.35000     110.00000      91.00000
         3     17269   F   0.35000     110.00000     269.00000
         3     17273   F   0.35000     110.00000      91.00000
         3     17277   F   0.35000     110.00000     269.00000
         3     17281   F   0.35000     110.00000      91.00000
         3     17285   F   0.35000     110.00000     269.00000
         3     17289   F   0.35000     110.00000      91.00000
         3     17293   F   0.35000     110.00000     269.00000
         3     17297   F   0.35000     110.00000      91.00000
         3     17301   F   0.35000     110.00000     269.00000
         3     17305   F   0.35000     110.00000      91.00000
         3     17309   F   0.35000     110.00000     269.00000
         3     17313   F   0.35000     110.00000      91.00000
         3     17317   F   0.35000     110.00000     269.00000
         3     17321   F   0.35000     110.00000      91.00000
         3     17325   F   0.35000     110.00000     269.00000
         3     17329   F   0.35000     110.00000      91.00000
         3     17333   F   0.35000     110.00000     269.00000
         3     17337   F   0.35000     110.00000      91.00000
         3     17341   F   0.35000     110.00000     269.00000
         3     17345   F   0.35000     110.00000      91.00000
         3     17349   F   0.35000     110.00000     269.00000
         3     17353   F   0.35000     110.00000      91.00000
         3     17357   F   0.35000     110.00000     269.00000
         3     17361   F   0.35000     110.00000      91.00000
         3     17365   F   0.35000     110.00000     269.00000
         3     17369   F   0.35000     110.00000      91.00000
         3     17373   F   0.35000     110.00000     269.00000
         3     17377   F   0.35000     110.00000      91.00000
         3     17381   F   0.35000     110.00000     269.00000
         3     17385   F   0.35000     110.00000      91.00000
         3     17389   F   0.35000     110.00000     269.00000
         3     17393   F   0.35000     110.00000      91.00000
         3     17397   F   0.35000     110.00000     269.00000
         3     17401   F   0.35000     110.00000      91.00000
         3     17405   F   0.35000     110.00000     269.00000
         3     17409   F   0.35000     110.00000      91.00000
         3     17413   F   0.35000     110.00000     269.00000
         3     17417   F   0.35000     110.00000      91.00000
         3     17421   F   0.35000     110.00000     269.00000
         3     17425   F   0.35000     110.00000      91.00000
         3     17429   F   0.35000     110.00000     269.00000
         3     17433   F   0.35000     110.00000      91.00000
         3     17437   F   0.35000     110.00000     269.00000
         3     17441   F   0.35000     110.00000      91.00000
         3     17445   F   0.35000     110.00000     269.00000
         3     17449   F   0.35000     110.00000      91.00000
         3     17453   F   0.35000     110.00000     269.00000
         3     17457   F   0.35000     110.00000      91.00000
         3     17461   F   0.35000     110.00000     269.00000
         3     17465   F   0.35000     110.00000      91.00000
         3     17469   F   0.35000     110.00000     269.00000
         3     17473   F   0.35000     110.00000      91.00000
         3     17477   F   0.35000     110.00000     269.00000
         3     17481   F   0.35000     110.00000      91.00000
         3     17485   F   0.35000     110.00000     269.00000
         3     17489   F   0.35000     110.00000      91.00000
         3     17493   F   0.35000     110.00000     269.00000
         3     17497   F   0.35000     110.00000      91.00000
         3     17501   F   0.35000     110.00000     269.00000
         3     17505   F   0.35000     110.00000      91.00000
         3     17509   F   0.35000     110.00000     269.00000
         3     17513   F   0.35000     110.00000      91.00000
         3     17517   F   0.35000     110.00000     269.00000
         3     17521   F   0.35000     110.00000      91.00000
         3     17525   F   0.35000     110.00000     269.00000
         3     17529   F   0.35000     110.00000      91.00000
         3     17533   F   0.35000     110.00000     269.00000
         3     17537   F   0.35000     110.00000      91.00000
         3     17541   F   0.35000     110.00000     269.00000
         3     17545   F   0.35000     110.00000      91.00000
         3     17549   F   0.35000     110.00000     269.00000
         3     17553   F   0.35000     110.00000      91.00000
         3     17557   F   0.35000     110.00000     269.00000
         3     17561   F   0.35000     110.00000      91.00000
         3     17565   F   0.35000     110.00000     269.00000
         3     17569   F   0.35000     110.00000      91.00000
         3     17573   F   0.35000     110.00000     269.00000
         3     17577   F   0.35000     110.00000      91.00000
         3     17581   F   0.35000     110.00000     269.00000
         3     17585   F   0.35000     110.00000      91.00000
         3     17589   F   0.35000     110.00000     269.00000
         3     17593   F   0.35000     110.00000      91.00000
         3     17597   F   0.35000     110.00000     269.00000
         3     17601   F   0.35000     110.00000      91.00000
         3     17605   F   0.35000     110.00000     269.00000
         3     17609   F   0.35000     110.00000      91.00000
         3     17613   F   0.35000     110.00000     269.00000
         3     17617   F   0.35000     110.00000      91.00000
         3     17621   F   0.35000     110.00000     269.00000
         3     17625   F   0.35000     110.00000      91.00000
         3     17629   F   0.35000     110.00000     269.00000
         3     17633   F   0.35000     110.00000      91.00000
         3     17637   F   0.35000     110.00000     269.00000
         3     17641   F   0.35000     110.00000      91.00000
         3     17645   F   0.35000     110.00000     269.00000
         3     17649   F   0.35000     110.00000      91.00000
         3     17653   F   0.35000     110.00000     269.00000
         3     17657   F   0.35000     110.00000      91.00000
         3     17661   F   0.35000     110.00000     269.00000
         3     17665   F   0.35000     110.00000      91.00000
         3     17669   F   0.35000     110.00000     269.00000
         3     17673   F   0.35000     110.00000      91.00000
         3     17677   F   0.35000     110.00000     269.00000
         3     17681   F   0.35000     110.00000      91.00000
         3     17685   F   0.35000     110.00000     269.00000
         3     17689   F   0.35000     110.00000      91.00000
         3     17693   F   0.35000     110.00000     269.00000
         3     17697   F   0.35000     110.00000      91.00000
         3     17701   F   0.35000     110.00000     269.00000
         3     17705   F   0.35000     110.00000      91.00000
         3     17709   F   0.35000     110.00000     269.00000
         3     17713   F   0.35000     110.00000      91.00000
         3     17717   F   0.35000     110.00000     269.00000
         3     17721   F   0.35000     110.00000      91.00000
         3     17725   F   0.35000     110.00000     269.00000
         3     17729   F   0.35000     110.00000      91.00000
         3     17733   F   0.35000     110.00000     269.00000
         3     17737   F   0.35000     110.00000      91.00000
         3     17741   F   0.35000     110.00000     269.00000
         3     17745   F   0.35000     110.00000      91.00000
         3     17749   F   0.35000     110.00000     269.00000
         3     17753   F   0.35000     110.00000      91.00000
         3     17757   F   0.35000     110.00000     269.00000
         3     17761   F   0.35000     110.00000      91.00000
         3     17765   F   0.35000     110.00000     269.00000
         3     17769   F   0.35000     110.00000      91.00000
         3     17773   F   0.35000     110.00000     269.00000
         3     17777   F   0.35000     110.00000      91.00000
         3     17781   F   0.35000     110.00000     269.00000
         3     17785   F   0.35000     110.00000      91.00000
         3     17789   F   0.35000     110.00000     269.00000
         3     17793   F   0.35000     110.00000      91.00000
         3     17797   F   0.35000     110.00000     269.00000
         3     17801   F   0.35000     110.00000      91.00000
         3     17805   F   0.35000     110.00000     269.00000
         3     17809   F   0.35000     110.00000      91.00000
         3     17813   F   0.35000     110.00000     269.00000
         3     17817   F   0.35000     110.00000      91.00000
         3     17821   F   0.35000     110.00000     269.00000
         3     17825   F   0.35000     110.00000      91.00000
         3     17829   F   0.35000     110.00000     269.00000
         3     17833   F   0.35000     110.00000      91.00000
         3     17837   F   0.35000     110.00000     269.00000
         3     17841   F   0.35000     110.00000      91.00000
         3     17845   F   0.35000     110.00000     269.00000
         3     17849   F   0.35000     110.00000      91.00000
         3     17853   F   0.35000     110.00000     269.00000
         3     17857   F   0.35000     110.00000      91.00000
         3     17861   F   0.35000     110.00000     269.00000
         3     17865   F   0.35000     110.00000      91.00000
         3     17869   F   0.35000     110.00000     269.00000
         3     17873   F   0.35000     110.00000      91.00000
         3     17877   F   0.35000     110.00000     269.00000
         3     17881   F   0.35000     110.00000      91.00000
         3     17885   F   0.35000     110.00000     269.00000
         3     17889   F   0.35000     110.00000      91.00000
         3     17893   F   0.35000     110.00000     269.00000
         3     17897   F   0.35000     110.00000      91.00000
         3     17901   F   0.35000     110.00000     269.00000
         3     17905   F   0.35000     110.00000      91.00000
         3     17909   F   0.35000     110.00000     269.00000
         3     17913   F   0.35000     110.00000      91.00000
         3     17917   F   0.35000     110.00000     269.00000
         3     17921   F   0.35000     110.00000      91.00000
         3     17925   F   0.35000     110.00000     269.00000
         3     17929   F   0.35000     110.00000      91.00000
         3     17933   F   0.35000     110.00000     269.00000
         3     17937   F   0.35000     110.00000      91.00000
         3     17941   F   0.35000     110.00000     269.00000
         3     17945   F   0.35000     110.00000      91.00000
         3     17949   F   0.35000     110.00000     269.00000
         3     17953   F   0.35000     110.00000      91.00000
         3     17957   F   0.35000     110.00000     269.00000
         3     17961   F   0.35000     110.00000      91.00000
         3     17965   F   0.35000     110.00000     269.00000
         3     17969   F   0.35000     110.00000      91.00000
         3     17973   F   0.35000     110.00000     269.00000
         3     17977   F   0.35000     110.00000      91.00000
         3     17981   F   0.35000     110.00000     269.00000
         3     17985   F   0.35000     110.00000      91.00000
         3     17989   F   0.35000     110.00000     269.00000
         3     17993   F   0.35000     110.00000      91.00000
         3     17997   F   0.35000     110.00000     269.00000
         3     18001   F   0.35000     110.00000      91.00000
         3     18005   F   0.35000     110.00000     269.00000
         3     18009   F   0.35000     110.00000      91.00000
         3     18013   F   0.35000     110.00000     269.00000
         3     18017   F   0.35000     110.00000      91.00000
         3     18021   F   0.35000     110.00000     269.00000
         3     18025   F   0.35000     110.00000      91.00000
         3     18029   F   0.35000     110.00000     269.00000
         3     18033   F   0.35000     110.00000      91.00000
         3     18037   F   0.35000     110.00000     269.00000
         3     18041   F   0.35000     110.00000      91.00000
         3     18045   F   0.35000     110.00000     269.00000
         3     18049   F   0.35000     110.00000      91.00000
         3     18053   F   0.35000     110.00000     269.00000
         3     18057   F   0.35000     110.00000      91.00000
         3     18061   F   0.35000     110.00000     269.00000
         3     18065   F   0.35000     110.00000      91.00000
         3     18069   F   0.35000     110.00000     269.00000
         3     18073   F   0.35000     110.00000      91.00000
         3     18077   F   0.35000     110.00000     269.00000
         3     18081   F   0.35000     110.00000      91.00000
         3     18085   F   0.35000     110.00000     269.00000
         3     18089   F   0.35000     110.00000      91.00000
         3     18093   F   0.35000     110.00000     269.00000
         3     18097   F   0.35000     110.00000      91.00000
         3     18101   F   0.35000     110.00000     269.00000
         3     18105   F   0.35000     110.00000      91.00000
         3     18109   F   0.35000     110.00000     269.00000
         3     18113   F   0.35000     110.00000      91.00000
         3     18117   F   0.35000     110.00000     269.00000
         3     18121   F   0.35000     110.00000      91.00000
         3     18125   F   0.35000     110.00000     269.00000
         3     18129   F   0.35000     110.00000      91.00000
         3     18133   F   0.35000     110.00000     269.00000
         3     18137   F   0.35000     110.00000      91.00000
         3     18141   F   0.35000     110.00000     269.00000
         3     18145   F   0.35000     110.00000      91.00000
         3     18149   F   0.35000     110.00000     269.00000
         3     18153   F   0.35000     110.00000      91.00000
         3     18157   F   0.35000     110.00000     269.00000
         3     18161   F   0.35000     110.00000      91.00000
         3     18165   F   0.35000     110.00000     269.00000
         3     18169   F   0.35000     110.00000      91.00000
         3     18173   F   0.35000     110.00000     269.00000
         3     18177   F   0.35000     110.00000      91.00000
         3     18181   F   0.35000     110.00000     269.00000
         3     18185   F   0.35000     110.00000      91.00000
         3     18189   F   0.35000     110.00000     269.00000
         3     18193   F   0.35000     110.00000      91.00000
         3     18197   F   0.35000     110.00000     269.00000
         3     18201   F   0.35000     110.00000      91.00000
         3     18205   F   0.35000     110.00000     269.00000
         3     18209   F   0.35000     110.00000      91.00000
         3     18213   F   0.35000     110.00000     269.00000
         3     18217   F   0.35000     110.00000      91.00000
         3     18221   F   0.35000     110.00000     269.00000
         3     18225   F   0.35000     110.00000      91.00000
         3     18229   F   0.35000     110.00000     269.00000
         3     18233   F   0.35000     110.00000      91.00000
         3     18237   F   0.35000     110.00000     269.00000
         3     18241   F   0.35000     110.00000      91.00000
         3     18245   F   0.35000     110.00000     269.00000
         3     18249   F   0.35000     110.00000      91.00000
         3     18253   F   0.35000     110.00000     269.00000
         3     18257   F   0.35000     110.00000      91.00000
         3     18261   F   0.35000     110.00000     269.00000
         3     18265   F   0.35000     110.00000      91.00000
         3     18269   F   0.35000     110.00000     269.00000
         3     18273   F   0.35000     110.00000      91.00000
         3     18277   F   0.35000     110.00000     269.00000
         3     18281   F   0.35000     110.00000      91.00000
         3     18285   F   0.35000     110.00000     269.00000
         3     18289   F   0.35000     110.00000      91.00000
         3     18293   F   0.35000     110.00000     269.00000
         3     18297   F   0.35000     110.00000      91.00000
         3     18301   F   0.35000     110.00000     269.00000
         3     18305   F   0.35000     110.00000      91.00000
         3     18309   F   0.35000     110.00000     269.00000
         3     18313   F   0.35000     110.00000      91.00000
         3     18317   F   0.35000     110.00000     269.00000
         3     18321   F   0.35000     110.00000      91.00000
         3     18325   F   0.35000     110.00000     269.00000
         3     18329   F   0.35000     110.00000      91.00000
         3     18333   F   0.35000     110.00000     269.00000
         3     18337   F   0.35000     110.00000      91.00000
         3     18341   F   0.35000     110.00000     269.00000
         3     18345   F   0.35000     110.00000      91.00000
         3     18349   F   0.35000     110.00000     269.00000
         3     18353   F   0.35000     110.00000      91.00000
         3     18357   F   0.35000     110.00000     269.00000
         3     18361   F   0.35000     110.00000      91.00000
         3     18365   F   0.35000     110.00000     269.00000
         3     18369   F   0.35000     110.00000      91.00000
         3     18373   F   0.35000     110.00000     269.00000
         3     18377   F   0.35000     110.00000      91.00000
         3     18381   F   0.35000     110.00000     269.00000
         3     18385   F   0.35000     110.00000      91.00000
         3     18389   F   0.35000     110.00000     269.00000
         3     18393   F   0.35000     110.00000      91.00000
         3     18397   F   0.35000     110.00000     269.00000
         3     18401   F   0.35000     110.00000      91.00000
         3     18405   F   0.35000     110.00000     269.00000
         3     18409   F   0.35000     110.00000      91.00000
         3     18413   F   0.35000     110.00000     269.00000
         3     18417   F   0.35000     110.00000      91.00000
         3     18421   F   0.35000     110.00000     269.00000
         3     18425   F   0.35000     110.00000      91.00000
         3     18429   F   0.35000     110.00000     269.00000
         3     18433   F   0.35000     110.00000      91.00000
         3     18437   F   0.35000     110.00000     269.00000
         3     18441   F   0.35000     110.00000      91.00000
         3     18445   F   0.35000     110.00000     269.00000
         3     18449   F   0.35000     110.00000      91.00000
         3     18453   F   0.35000     110.00000     269.00000
         3     18457   F   0.35000     110.00000      91.00000
         3     18461   F   0.35000     110.00000     269.00000
         3     18465   F   0.35000     110.00000      91.00000
         3     18469   F   0.35000     110.00000     269.00000
         3     18473   F   0.35000     110.00000      91.00000
         3     18477   F   0.35000     110.00000     269.00000
         3     18481   F   0.35000     110.00000      91.00000
         3     18485   F   0.35000     110.00000     269.00000
         3     18489   F   0.35000     110.00000      91.00000
         3     18493   F   0.35000     110.00000     269.00000
         3     18497   F   0.35000     110.00000      91.00000
         3     18501   F   0.35000     110.00000     269.00000
         3     18505   F   0.35000     110.00000      91.00000
         3     18509   F   0.35000     110.00000     269.00000
         3     18513   F   0.35000     110.00000      91.00000
         3     18517   F   0.35000     110.00000     269.00000
         3     18521   F   0.35000     110.00000      91.00000
         3     18525   F   0.35000     110.00000     269.00000
         3     18529   F   0.35000     110.00000      91.00000
         3     18533   F   0.35000     110.00000     269.00000
         3     18537   F   0.35000     110.00000      91.00000
         3     18541   F   0.35000     110.00000     269.00000
         3     18545   F   0.35000     110.00000      91.00000
         3     18549   F   0.35000     110.00000     269.00000
         3     18553   F   0.35000     110.00000      91.00000
         3     18557   F   0.35000     110.00000     269.00000
         3     18561   F   0.35000     110.00000      91.00000
         3     18565   F   0.35000     110.00000     269.00000
         3     18569   F   0.35000     110.00000      91.00000
         3     18573   F   0.35000     110.00000     269.00000
         3     18577   F   0.35000     110.00000      91.00000
         3     18581   F   0.35000     110.00000     269.00000
         3     18585   F   0.35000     110.00000      91.00000
         3     18589   F   0.35000     110.00000     269.00000
         3     18593   F   0.35000     110.00000      91.00000
         3     18597   F   0.35000     110.00000     269.00000
         3     18601   F   0.35000     110.00000      91.00000
         3     18605   F   0.35000     110.00000     269.00000
         3     18609   F   0.35000     110.00000      91.00000
         3     18613   F   0.35000     110.00000     269.00000
         3     18617   F   0.35000     110.00000      91.00000
         3     18621   F   0.35000     110.00000     269.00000
         3     18625   F   0.35000     110.00000      91.00000
         3     18629   F   0.35000     110.00000     269.00000
         3     18633   F   0.35000     110.00000      91.00000
         3     18637   F   0.35000     110.00000     269.00000
         3     18641   F   0.35000     110.00000      91.00000
         3     18645   F   0.35000     110.00000     269.00000
         3     18649   F   0.35000     110.00000      91.00000
         3     18653   F   0.35000     110.00000     269.00000
         3     18657   F   0.35000     110.00000      91.00000
         3     18661   F   0.35000     110.00000     269.00000
         3     18665   F   0.35000     110.00000      91.00000
         3     18669   F   0.35000     110.00000     269.00000
         3     18673   F   0.35000     110.00000      91.00000
         3     18677   F   0.35000     110.00000     269.00000
         3     18681   F   0.35000     110.00000      91.00000
         3     18685   F   0.35000     110.00000     269.00000
         3     18689   F   0.35000     110.00000      91.00000
         3     18693   F   0.35000     110.00000     269.00000
         3     18697   F   0.35000     110.00000      91.00000
         3     18701   F   0.35000     110.00000     269.00000
         3     18705   F   0.35000     110.00000      91.00000
         3     18709   F   0.35000     110.00000     269.00000
         3     18713   F   0.35000     110.00000      91.00000
         3     18717   F   0.35000     110.00000     269.00000
         3     18721   F   0.35000     110.00000      91.00000
         3     18725   F   0.35000     110.00000     269.00000
         3     18729   F   0.35000     110.00000      91.00000
         3     18733   F   0.35000     110.00000     269.00000
         3     18737   F   0.35000     110.00000      91.00000
         3     18741   F   0.35000     110.00000     269.00000
         3     18745   F   0.35000     110.00000      91.00000
         3     18749   F   0.35000     110.00000     269.00000
         3     18753   F   0.35000     110.00000      91.00000
         3     18757   F   0.35000     110.00000     269.00000
         3     18761   F   0.35000     110.00000      91.00000
         3     18765   F   0.35000     110.00000     269.00000
         3     18769   F   0.35000     110.00000      91.00000
         3     18773   F   0.35000     110.00000     269.00000
         3     18777   F   0.35000     110.00000      91.00000
         3     18781   F   0.35000     110.00000     269.00000
         3     18785   F   0.35000     110.00000      91.00000
         3     18789   F   0.35000     110.00000     269.00000
         3     18793   F   0.35000     110.00000      91.00000
         3     18797   F   0.35000     110.00000     269.00000
         3     18801   F   0.35000     110.00000      91.00000
         3     18805   F   0.35000     110.00000     269.00000
         3     18809   F   0.35000     110.00000      91.00000
         3     18813   F   0.35000     110.00000     269.00000
         3     18817   F   0.35000     110.00000      91.00000
         3     18821   F   0.35000     110.00000     269.00000
         3     18825   F   0.35000     110.00000      91.00000
         3     18829   F   0.35000     110.00000     269.00000
         3     18833   F   0.35000     110.00000      91.00000
         3     18837   F   0.35000     110.00000     269.00000
         3     18841   F   0.35000     110.00000      91.00000
         3     18845   F   0.35000     110.00000     269.00000
         3     18849   F   0.35000     110.00000      91.00000
         3     18853   F   0.35000     110.00000     269.00000
         3     18857   F   0.35000     110.00000      91.00000
         3     18861   F   0.35000     110.00000     269.00000
         3     18865   F   0.35000     110.00000      91.00000
         3     18869   F   0.35000     110.00000     269.00000
         3     18873   F   0.35000     110.00000      91.00000
         3     18877   F   0.35000     110.00000     269.00000
         3     18881   F   0.35000     110.00000      91.00000
         3     18885   F   0.35000     110.00000     269.00000
         3     18889   F   0.35000     110.00000      91.00000
         3     18893   F   0.35000     110.00000     269.00000
         3     18897   F   0.35000     110.00000      91.00000
         3     18901   F   0.35000     110.00000     269.00000
         3     18905   F   0.35000     110.00000      91.00000
         3     18909   F   0.35000     110.00000     269.00000
         3     18913   F   0.35000     110.00000      91.00000
         3     18917   F   0.35000     110.00000     269.00000
         3     18921   F   0.35000     110.00000      91.00000
         3     18925   F   0.35000     110.00000     269.00000
         3     18929   F   0.35000     110.00000      91.00000
         3     18933   F   0.35000     110.00000     269.00000
         3     18937   F   0.35000     110.00000      91.00000
         3     18941   F   0.35000     110.00000     269.00000
         3     18945   F   0.35000     110.00000      91.00000
         3     18949   F   0.35000     110.00000     269.00000
         3     18953   F   0.35000     110.00000      91.00000
         3     18957   F   0.35000     110.00000     269.00000
         3     18961   F   0.35000     110.00000      91.00000
         3     18965   F   0.35000     110.00000     269.00000
         3     18969   F   0.35000     110.00000      91.00000
         3     18973   F   0.35000     110.00000     269.00000
         3     18977   F   0.35000     110.00000      91.00000
         3     18981   F   0.35000     110.00000     269.00000
         3     18985   F   0.35000     110.00000      91.00000
         3     18989   F   0.35000     110.00000     269.00000
         3     18993   F   0.35000     110.00000      91.00000
         3     18997   F   0.35000     110.00000     269.00000
         3     19001   F   0.35000     110.00000      91.00000
         3     19005   F   0.35000     110.00000     269.00000
         3     19009   F   0.35000     110.00000      91.00000
         3     19013   F   0.35000     110.00000     269.00000
         3     19017   F   0.35000     110.00000      91.00000
         3     19021   F   0.35000     110.00000     269.00000
         3     19025   F   0.35000     110.00000      91.00000
         3     19029   F   0.35000     110.00000     269.00000
         3     19033   F   0.35000     110.00000      91.00000
         3     19037   F   0.35000     110.00000     269.00000
         3     19041   F   0.35000     110.00000      91.00000
         3     19045   F   0.35000     110.00000     269.00000
         3     19049   F   0.35000     110.00000      91.00000
         3     19053   F   0.35000     110.00000     269.00000
         3     19057   F   0.35000     110.00000      91.00000
         3     19061   F   0.35000     110.00000     269.00000
         3     19065   F   0.35000     110.00000      91.00000
         3     19069   F   0.35000     110.00000     269.00000
         3     19073   F   0.35000     110.00000      91.00000
         3     19077   F   0.35000     110.00000     269.00000
         3     19081   F   0.35000     110.00000      91.00000
         3     19085   F   0.35000     110.00000     269.00000
         3     19089   F   0.35000     110.00000      91.00000
         3     19093   F   0.35000     110.00000     269.00000
         3     19097   F   0.35000     110.00000      91.00000
         3     19101   F   0.35000     110.00000     269.00000
         3     19105   F   0.35000     110.00000      91.00000
         3     19109   F   0.35000     110.00000     269.00000
         3     19113   F   0.35000     110.00000      91.00000
         3     19117   F   0.35000     110.00000     269.00000
         3     19121   F   0.35000     110.00000      91.00000
         3     19125   F   0.35000     110.00000     269.00000
         3     19129   F   0.35000     110.00000      91.00000
         3     19133   F   0.35000     110.00000     269.00000
         3     19137   F   0.35000     110.00000      91.00000
         3     19141   F   0.35000     110.00000     269.00000
         3     19145   F   0.35000     110.00000      91.00000
         3     19149   F   0.35000     110.00000     269.00000
         3     19153   F   0.35000     110.00000      91.00000
         3     19157   F   0.35000     110.00000     269.00000
         3     19161   F   0.35000     110.00000      91.00000
         3     19165   F   0.35000     110.00000     269.00000
         3     19169   F   0.35000     110.00000      91.00000
         3     19173   F   0.35000     110.00000     269.00000
         3     19177   F   0.35000     110.00000      91.00000
         3     19181   F   0.35000     110.00000     269.00000
         3     19185   F   0.35000     110.00000      91.00000
         3     19189   F   0.35000     110.00000     269.00000
         3     19193   F   0.35000     110.00000      91.00000
         3     19197   F   0.35000     110.00000     269.00000
         3     19201   F   0.35000     110.00000      91.00000
         3     19205   F   0.35000     110.00000     269.00000
         3     19209   F   0.35000     110.00000      91.00000
         3     19213   F   0.35000     110.00000     269.00000
         3     19217   F   0.35000     110.00000      91.00000
         3     19221   F   0.35000     110.00000     269.00000
         3     19225   F   0.35000     110.00000      91.00000
         3     19229   F   0.35000     110.00000     269.00000
         3     19233   F   0.35000     110.00000      91.00000
         3     19237   F   0.35000     110.00000     269.00000
         3     19241   F   0.35000     110.00000      91.00000
         3     19245   F   0.35000     110.00000     269.00000
         3     19249   F   0.35000     110.00000      91.00000
         3     19253   F   0.35000     110.00000     269.00000
         3     19257   F   0.35000     110.00000      91.00000
         3     19261   F   0.35000     110.00000     269.00000
         3     19265   F   0.35000     110.00000      91.00000
         3     19269   F   0.35000     110.00000     269.00000
         3     19273   F   0.35000     110.00000      91.00000
         3     19277   F   0.35000     110.00000     269.00000
         3     19281   F   0.35000     110.00000      91.00000
         3     19285   F   0.35000     110.00000     269.00000
         3     19289   F   0.35000     110.00000      91.00000
         3     19293   F   0.35000     110.00000     269.00000
         3     19297   F   0.35000     110.00000      91.00000
         3     19301   F   0.35000     110.00000     269.00000
         3     19305   F   0.35000     110.00000      91.00000
         3     19309   F   0.35000     110.00000     269.00000
         3     19313   F   0.35000     110.00000      91.00000
         3     19317   F   0.35000     110.00000     269.00000
         3     19321   F   0.35000     110.00000      91.00000
         3     19325   F   0.35000     110.00000     269.00000
         3     19329   F   0.35000     110.00000      91.00000
         3     19333   F   0.35000     110.00000     269.00000
         3     19337   F   0.35000     110.00000      91.00000
         3     19341   F   0.35000     110.00000     269.00000
         3     19345   F   0.35000     110.00000      91.00000
         3     19349   F   0.35000     110.00000     269.00000
         3     19353   F   0.35000     110.00000      91.00000
         3     19357   F   0.35000     110.00000     269.00000
         3     19361   F   0.35000     110.00000      91.00000
         3     19365   F   0.35000     110.00000     269.00000
         3     19369   F   0.35000     110.00000      91.00000
         3     19373   F   0.35000     110.00000     269.00000
         3     19377   F   0.35000     110.00000      91.00000
         3     19381   F   0.35000     110.00000     269.00000
         3     19385   F   0.35000     110.00000      91.00000
         3     19389   F   0.35000     110.00000     269.00000
         3     19393   F   0.35000     110.00000      91.00000
         3     19397   F   0.35000     110.00000     269.00000
         3     19401   F   0.35000     110.00000      91.00000
         3     19405   F   0.35000     110.00000     269.00000
         3     19409   F   0.35000     110.00000      91.00000
         3     19413   F   0.35000     110.00000     269.00000
         3     19417   F   0.35000     110.00000      91.00000
         3     19421   F   0.35000     110.00000     269.00000
         3     19425   F   0.35000     110.00000      91.00000
         3     19429   F   0.35000     110.00000     269.00000
         3     19433   F   0.35000     110.00000      91.00000
         3     19437   F   0.35000     110.00000     269.00000
         3     19441   F   0.35000     110.00000      91.00000
         3     19445   F   0.35000     110.00000     269.00000
         3     19449   F   0.35000     110.00000      91.00000
         3     19453   F   0.35000     110.00000     269.00000
         3     19457   F   0.35000     110.00000      91.00000
         3     19461   F   0.35000     110.00000     269.00000
         3     19465   F   0.35000     110.00000      91.00000
         3     19469   F   0.35000     110.00000     269.00000
         3     19473   F   0.35000     110.00000      91.00000
         3     19477   F   0.35000     110.00000     269.00000
         3     19481   F   0.35000     110.00000      91.00000
         3     19485   F   0.35000     110.00000     269.00000
         3     19489   F   0.35000     110.00000      91.00000
         3     19493   F   0.35000     110.00000     269.00000
         3     19497   F   0.35000     110.00000      91.00000
         3     19501   F   0.35000     110.00000     269.00000
         3     19505   F   0.35000     110.00000      91.00000
         3     19509   F   0.35000     110.00000     269.00000
         3     19513   F   0.35000     110.00000      91.00000
         3     19517   F   0.35000     110.00000     269.00000
         3     19521   F   0.35000     110.00000      91.00000
         3     19525   F   0.35000     110.00000     269.00000
         3     19529   F   0.35000     110.00000      91.00000
         3     19533   F   0.35000     110.00000     269.00000
         3     19537   F   0.35000     110.00000      91.00000
         3     19541   F   0.35000     110.00000     269.00000
         3     19545   F   0.35000     110.00000      91.00000
         3     19549   F   0.35000     110.00000     269.00000
         3     19553   F   0.35000     110.00000      91.00000
         3     19557   F   0.35000     110.00000     269.00000
         3     19561   F   0.35000     110.00000      91.00000
         3     19565   F   0.35000     110.00000     269.00000
         3     19569   F   0.35000     110.00000      91.00000
         3     19573   F   0.35000     110.00000     269.00000
         3     19577   F   0.35000     110.00000      91.00000
         3     19581   F   0.35000     110.00000     269.00000
         3     19585   F   0.35000     110.00000      91.00000
         3     19589   F   0.35000     110.00000     269.00000
         3     19593   F   0.35000     110.00000      91.00000
         3     19597   F   0.35000     110.00000     269.00000
         3     19601   F   0.35000     110.00000      91.00000
         3     19605   F   0.35000     110.00000     269.00000
         3     19609   F   0.35000     110.00000      91.00000
         3     19613   F   0.35000     110.00000     269.00000
         3     19617   F   0.35000     110.00000      91.00000
         3     19621   F   0.35000     110.00000     269.00000
         3     19625   F   0.35000     110.00000      91.00000
         3     19629   F   0.35000     110.00000     269.00000
         3     19633   F   0.35000     110.00000      91.00000
         3     19637   F   0.35000     110.00000     269.00000
         3     19641   F   0.35000     110.00000      91.00000
         3     19645   F   0.35000     110.00000     269.00000
         3     19649   F   0.35000     110.00000      91.00000
         3     19653   F   0.35000     110.00000     269.00000
         3     19657   F   0.35000     110.00000      91.00000
         3     19661   F   0.35000     110.00000     269.00000
         3     19665   F   0.35000     110.00000      91.00000
         3     19669   F   0.35000     110.00000     269.00000
         3     19673   F   0.35000     110.00000      91.00000
         3     19677   F   0.35000     110.00000     269.00000
         3     19681   F   0.35000     110.00000      91.00000
         3     19685   F   0.35000     110.00000     269.00000
         3     19689   F   0.35000     110.00000      91.00000
         3     19693   F   0.35000     110.00000     269.00000
         3     19697   F   0.35000     110.00000      91.00000
         3     19701   F   0.35000     110.00000     269.00000
         3     19705   F   0.35000     110.00000      91.00000
         3     19709   F   0.35000     110.00000     269.00000
         3     19713   F   0.35000     110.00000      91.00000
         3     19717   F   0.35000     110.00000     269.00000
         3     19721   F   0.35000     110.00000      91.00000
         3     19725   F   0.35000     110.00000     269.00000
         3     19729   F   0.35000     110.00000      91.00000
         3     19733   F   0.35000     110.00000     269.00000
         3     19737   F   0.35000     110.00000      91.00000
         3     19741   F   0.35000     110.00000     269.00000
         3     19745   F   0.35000     110.00000      91.00000
         3     19749   F   0.35000     110.00000     269.00000
         3     19753   F   0.35000     110.00000      91.00000
         3     19757   F   0.35000     110.00000     269.00000
         3     19761   F   0.35000     110.00000      91.00000
         3     19765   F   0.35000     110.00000     269.00000
         3     19769   F   0.35000     110.00000      91.00000
         3     19773   F   0.35000     110.00000     269.00000
         3     19777   F   0.35000     110.00000      91.00000
         3     19781   F   0.35000     110.00000     269.00000
         3     19785   F   0.35000     110.00000      91.00000
         3     19789   F   0.35000     110.00000     269.00000
         3     19793   F   0.35000     110.00000      91.00000
         3     19797   F   0.35000     110.00000     269.00000
         3     19801   F   0.35000     110.00000      91.00000
         3     19805   F   0.35000     110.00000     269.00000
         3     19809   F   0.35000     110.00000      91.00000
         3     19813   F   0.35000     110.00000     269.00000
         3     19817   F   0.35000     110.00000      91.00000
         3     19821   F   0.35000     110.00000     269.00000
         3     19825   F   0.35000     110.00000      91.00000
         3     19829   F   0.35000     110.00000     269.00000
         3     19833   F   0.35000     110.00000      91.00000
         3     19837   F   0.35000     110.00000     269.00000
         3     19841   F   0.35000     110.00000      91.00000
         3     19845   F   0.35000     110.00000     269.00000
         3     19849   F   0.35000     110.00000      91.00000
         3     19853   F   0.35000     110.00000     269.00000
         3     19857   F   0.35000     110.00000      91.00000
         3     19861   F   0.35000     110.00000     269.00000
         3     19865   F   0.35000     110.00000      91.00000
         3     19869   F   0.35000     110.00000     269.00000
         3     19873   F   0.35000     110.00000      91.00000
         3     19877   F   0.35000     110.00000     269.00000
         3     19881   F   0.35000     110.00000      91.00000
         3     19885   F   0.35000     110.00000     269.00000
         3     19889   F   0.35000     110.00000      91.00000
         3     19893   F   0.35000     110.00000     269.00000
         3     19897   F   0.35000     110.00000      91.00000
         3     19901   F   0.35000     110.00000     269.00000
         3     19905   F   0.35000     110.00000      91.00000
         3     19909   F   0.35000     110.00000     269.00000
         3     19913   F   0.35000     110.00000      91.00000
         3     19917   F   0.35000     110.00000     269.00000
         3     19921   F   0.35000     110.00000      91.00000
         3     19925   F   0.35000     110.00000     269.00000
         3     19929   F   0.35000     110.00000      91.00000
         3     19933   F   0.35000     110.00000     269.00000
         3     19937   F   0.35000     110.00000      91.00000
         3     19941   F   0.35000     110.00000     269.00000
         3     19945   F   0.35000     110.00000      91.00000
         3     19949   F   0.35000     110.00000     269.00000
         3     19953   F   0.35000     110.00000      91.00000
         3     19957   F   0.35000     110.00000     269.00000
         3     19961   F   0.35000     110.00000      91.00000
         3     19965   F   0.35000     110.00000     269.00000
         3     19969   F   0.35000     110.00000      91.00000
         3     19973   F   0.35000     110.00000     269.00000
         3     19977   F   0.35000     110.00000      91.00000
         3     19981   F   0.35000     110.00000     269.00000
         3     19985   F   0.35000     110.00000      91.00000
         3     19989   F   0.35000     110.00000     269.00000
         3     19993   F   0.35000     110.00000      91.00000
         3     19997   F   0.35000     110.00000     269.00000
         3     20001   F   0.35000     110.00000      91.00000
         3     20005   F   0.35000     110.00000     269.00000
         3     20009   F   0.35000     110.00000      91.00000
         3     20013   F   0.35000     110.00000     269.00000
         3     20017   F   0.35000     110.00000      91.00000
         3     20021   F   0.35000     110.00000     269.00000
         3     20025   F   0.35000     110.00000      91.00000
         3     20029   F   0.35000     110.00000     269.00000
         3     20033   F   0.35000     110.00000      91.00000
         3     20037   F   0.35000     110.00000     269.00000
         3     20041   F   0.35000     110.00000      91.00000
         3     20045   F   0.35000     110.00000     269.00000
         3     20049   F   0.35000     110.00000      91.00000
         3     20053   F   0.35000     110.00000     269.00000
         3     20057   F   0.35000     110.00000      91.00000
         3     20061   F   0.35000     110.00000     269.00000
         3     20065   F   0.35000     110.00000      91.00000
         3     20069   F   0.35000     110.00000     269.00000
         3     20073   F   0.35000     110.00000      91.00000
         3     20077   F   0.35000     110.00000     269.00000
         3     20081   F   0.35000     110.00000      91.00000
         3     20085   F   0.35000     110.00000     269.00000
         3     20089   F   0.35000     110.00000      91.00000
         3     20093   F   0.35000     110.00000     269.00000
         3     20097   F   0.35000     110.00000      91.00000
         3     20101   F   0.35000     110.00000     269.00000
         3     20105   F   0.35000     110.00000      91.00000
         3     20109   F   0.35000     110.00000     269.00000
         3     20113   F   0.35000     110.00000      91.00000
         3     20117   F   0.35000     110.00000     269.00000
         3     20121   F   0.35000     110.00000      91.00000
         3     20125   F   0.35000     110.00000     269.00000
         3     20129   F   0.35000     110.00000      91.00000
         3     20133   F   0.35000     110.00000     269.00000
         3     20137   F   0.35000     110.00000      91.00000
         3     20141   F   0.35000     110.00000     269.00000
         3     20145   F   0.35000     110.00000      91.00000
         3     20149   F   0.35000     110.00000     269.00000
         3     20153   F   0.35000     110.00000      91.00000
         3     20157   F   0.35000     110.00000     269.00000
         3     20161   F   0.35000     110.00000      91.00000
         3     20165   F   0.35000     110.00000     269.00000
         3     20169   F   0.35000     110.00000      91.00000
         3     20173   F   0.35000     110.00000     269.00000
         3     20177   F   0.35000     110.00000      91.00000
         3     20181   F   0.35000     110.00000     269.00000
         3     20185   F   0.35000     110.00000      91.00000
         3     20189   F   0.35000     110.00000     269.00000
         3     20193   F   0.35000     110.00000      91.00000
         3     20197   F   0.35000     110.00000     269.00000
         3     20201   F   0.35000     110.00000      91.00000
         3     20205   F   0.35000     110.00000     269.00000
         3     20209   F   0.35000     110.00000      91.00000
         3     20213   F   0.35000     110.00000     269.00000
         3     20217   F   0.35000     110.00000      91.00000
         3     20221   F   0.35000     110.00000     269.00000
         3     20225   F   0.35000     110.00000      91.00000
         3     20229   F   0.35000     110.00000     269.00000
         3     20233   F   0.35000     110.00000      91.00000
         3     20237   F   0.35000     110.00000     269.00000
         3     20241   F   0.35000     110.00000      91.00000
         3     20245   F   0.35000     110.00000     269.00000
         3     20249   F   0.35000     110.00000      91.00000
         3     20253   F   0.35000     110.00000     269.00000
         3     20257   F   0.35000     110.00000      91.00000
         3     20261   F   0.35000     110.00000     269.00000
         3     20265   F   0.35000     110.00000      91.00000
         3     20269   F   0.35000     110.00000     269.00000
         3     20273   F   0.35000     110.00000      91.00000
         3     20277   F   0.35000     110.00000     269.00000
         3     20281   F   0.35000     110.00000      91.00000
         3     20285   F   0.35000     110.00000     269.00000
         3     20289   F   0.35000     110.00000      91.00000
         3     20293   F   0.35000     110.00000     269.00000
         3     20297   F   0.35000     110.00000      91.00000
         3     20301   F   0.35000     110.00000     269.00000
         3     20305   F   0.35000     110.00000      91.00000
         3     20309   F   0.35000     110.00000     269.00000
         3     20313   F   0.35000     110.00000      91.00000
         3     20317   F   0.35000     110.00000     269.00000
         3     20321   F   0.35000     110.00000      91.00000
         3     20325   F   0.35000     110.00000     269.00000
         3     20329   F   0.35000     110.00000      91.00000
         3     20333   F   0.35000     110.00000     269.00000
         3     20337   F   0.35000     110.00000      91.00000
         3     20341   F   0.35000     110.00000     269.00000
         3     20345   F   0.35000     110.00000      91.00000
         3     20349   F   0.35000     110.00000     269.00000
         3     20353   F   0.35000     110.00000      91.00000
         3     20357   F   0.35000     110.00000     269.00000
         3     20361   F   0.35000     110.00000      91.00000
         3     20365   F   0.35000     110.00000     269.00000
         3     20369   F   0.35000     110.00000      91.00000
         3     20373   F   0.35000     110.00000     269.00000
         3     20377   F   0.35000     110.00000      91.00000
         3     20381   F   0.35000     110.00000     269.00000
         3     20385   F   0.35000     110.00000      91.00000
         3     20389   F   0.35000     110.00000     269.00000
         3     20393   F   0.35000     110.00000      91.00000
         3     20397   F   0.35000     110.00000     269.00000
         3     20401   F   0.35000     110.00000      91.00000
         3     20405   F   0.35000     110.00000     269.00000
         3     20409   F   0.35000     110.00000      91.00000
         3     20413   F   0.35000     110.00000     269.00000
         3     20417   F   0.35000     110.00000      91.00000
         3     20421   F   0.35000     110.00000     269.00000
         3     20425   F   0.35000     110.00000      91.00000
         3     20429   F   0.35000     110.00000     269.00000
         3     20433   F   0.35000     110.00000      91.00000
         3     20437   F   0.35000     110.00000     269.00000
         3     20441   F   0.35000     110.00000      91.00000
         3     20445   F   0.35000     110.00000     269.00000
         3     20449   F   0.35000     110.00000      91.00000
         3     20453   F   0.35000     110.00000     269.00000
         3     20457   F   0.35000     110.00000      91.00000
         3     20461   F   0.35000     110.00000     269.00000
         3     20465   F   0.35000     110.00000      91.00000
         3     20469   F   0.35000     110.00000     269.00000
         3     20473   F   0.35000     110.00000      91.00000
         3     20477   F   0.35000     110.00000     269.00000
         3     20481   F   0.35000     110.00000      91.00000
         3     20485   F   0.35000     110.00000     269.00000
         3     20489   F   0.35000     110.00000      91.00000
         3     20493   F   0.35000     110.00000     269.00000
         3     20497   F   0.35000     110.00000      91.00000
         3     20501   F   0.35000     110.00000     269.00000
         3     20505   F   0.35000     110.00000      91.00000
         3     20509   F   0.35000     110.00000     269.00000
         3     20513   F   0.35000     110.00000      91.00000
         3     20517   F   0.35000     110.00000     269.00000
         3     20521   F   0.35000     110.00000      91.00000
         3     20525   F   0.35000     110.00000     269.00000
         3     20529   F   0.35000     110.00000      91.00000
         3     20533   F   0.35000     110.00000     269.00000
         3     20537   F   0.35000     110.00000      91.00000
         3     20541   F   0.35000     110.00000     269.00000
         3     20545   F   0.35000     110.00000      91.00000
         3     20549   F   0.35000     110.00000     269.00000
         3     20553   F   0.35000     110.00000      91.00000
         3     20557   F   0.35000     110.00000     269.00000
         3     20561   F   0.35000     110.00000      91.00000
         3     20565   F   0.35000     110.00000     269.00000
         3     20569   F   0.35000     110.00000      91.00000
         3     20573   F   0.35000     110.00000     269.00000
         3     20577   F   0.35000     110.00000      91.00000
         3     20581   F   0.35000     110.00000     269.00000
         3     20585   F   0.35000     110.00000      91.00000
         3     20589   F   0.35000     110.00000     269.00000
         3     20593   F   0.35000     110.00000      91.00000
         3     20597   F   0.35000     110.00000     269.00000
         3     20601   F   0.35000     110.00000      91.00000
         3     20605   F   0.35000     110.00000     269.00000
         3     20609   F   0.35000     110.00000      91.00000
         3     20613   F   0.35000     110.00000     269.00000
         3     20617   F   0.35000     110.00000      91.00000
         3     20621   F   0.35000     110.00000     269.00000
         3     20625   F   0.35000     110.00000      91.00000
         3     20629   F   0.35000     110.00000     269.00000
         3     20633   F   0.35000     110.00000      91.00000
         3     20637   F   0.35000     110.00000     269.00000
         3     20641   F   0.35000     110.00000      91.00000
         3     20645   F   0.35000     110.00000     269.00000
         3     20649   F   0.35000     110.00000      91.00000
         3     20653   F   0.35000     110.00000     269.00000
         3     20657   F   0.35000     110.00000      91.00000
         3     20661   F   0.35000     110.00000     269.00000
         3     20665   F   0.35000     110.00000      91.00000
         3     20669   F   0.35000     110.00000     269.00000
         3     20673   F   0.35000     110.00000      91.00000
         3     20677   F   0.35000     110.00000     269.00000
         3     20681   F   0.35000     110.00000      91.00000
         3     20685   F   0.35000     110.00000     269.00000
         3     20689   F   0.35000     110.00000      91.00000
         3     20693   F   0.35000     110.00000     269.00000
         3     20697   F   0.35000     110.00000      91.00000
         3     20701   F   0.35000     110.00000     269.00000
         3     20705   F   0.35000     110.00000      91.00000
         3     20709   F   0.35000     110.00000     269.00000
         3     20713   F   0.35000     110.00000      91.00000
         3     20717   F   0.35000     110.00000     269.00000
         3     20721   F   0.35000     110.00000      91.00000
         3     20725   F   0.35000     110.00000     269.00000
         3     20729   F   0.35000     110.00000      91.00000
         3     20733   F   0.35000     110.00000     269.00000
         3     20737   F   0.35000     110.00000      91.00000
         3     20741   F   0.35000     110.00000     269.00000
         3     20745   F   0.35000     110.00000      91.00000
         3     20749   F   0.35000     110.00000     269.00000
         3     20753   F   0.35000     110.00000      91.00000
         3     20757   F   0.35000     110.00000     269.00000
         3     20761   F   0.35000     110.00000      91.00000
         3     20765   F   0.35000     110.00000     269.00000
         3     20769   F   0.35000     110.00000      91.00000
         3     20773   F   0.35000     110.00000     269.00000
         3     20777   F   0.35000     110.00000      91.00000
         3     20781   F   0.35000     110.00000     269.00000
         3     20785   F   0.35000     110.00000      91.00000
         3     20789   F   0.35000     110.00000     269.00000
         3     20793   F   0.35000     110.00000      91.00000
         3     20797   F   0.35000     110.00000     269.00000
         3     20801   F   0.35000     110.00000      91.00000
         3     20805   F   0.35000     110.00000     269.00000
         3     20809   F   0.35000     110.00000      91.00000
         3     20813   F   0.35000     110.00000     269.00000
         3     20817   F   0.35000     110.00000      91.00000
         3     20821   F   0.35000     110.00000     269.00000
         3     20825   F   0.35000     110.00000      91.00000
         3     20829   F   0.35000     110.00000     269.00000
         3     20833   F   0.35000     110.00000      91.00000
         3     20837   F   0.35000     110.00000     269.00000
         3     20841   F   0.35000     110.00000      91.00000
         3     20845   F   0.35000     110.00000     269.00000
         3     20849   F   0.35000     110.00000      91.00000
         3     20853   F   0.35000     110.00000     269.00000
         3     20857   F   0.35000     110.00000      91.00000
         3     20861   F   0.35000     110.00000     269.00000
         3     20865   F   0.35000     110.00000      91.00000
         3     20869   F   0.35000     110.00000     269.00000
         3     20873   F   0.35000     110.00000      91.00000
         3     20877   F   0.35000     110.00000     269.00000
         3     20881   F   0.35000     110.00000      91.00000
         3     20885   F   0.35000     110.00000     269.00000
         3     20889   F   0.35000     110.00000      91.00000
         3     20893   F   0.35000     110.00000     269.00000
         3     20897   F   0.35000     110.00000      91.00000
         3     20901   F   0.35000     110.00000     269.00000
         3     20905   F   0.35000     110.00000      91.00000
         3     20909   F   0.35000     110.00000     269.00000
         3     20913   F   0.35000     110.00000      91.00000
         3     20917   F   0.35000     110.00000     269.00000
         3     20921   F   0.35000     110.00000      91.00000
         3     20925   F   0.35000     110.00000     269.00000
         3     20929   F   0.35000     110.00000      91.00000
         3     20933   F   0.35000     110.00000     269.00000
         3     20937   F   0.35000     110.00000      91.00000
         3     20941   F   0.35000     110.00000     269.00000
         3     20945   F   0.35000     110.00000      91.00000
         3     20949   F   0.35000     110.00000     269.00000
         3     20953   F   0.35000     110.00000      91.00000
         3     20957   F   0.35000     110.00000     269.00000
         3     20961   F   0.35000     110.00000      91.00000
         3     20965   F   0.35000     110.00000     269.00000
         3     20969   F   0.35000     110.00000      91.00000
         3     20973   F   0.35000     110.00000     269.00000
         3     20977   F   0.35000     110.00000      91.00000
         3     20981   F   0.35000     110.00000     269.00000
         3     20985   F   0.35000     110.00000      91.00000
         3     20989   F   0.35000     110.00000     269.00000
         3     20993   F   0.35000     110.00000      91.00000
         3     20997   F   0.35000     110.00000     269.00000
         3     21001   F   0.35000     110.00000      91.00000
         3     21005   F   0.35000     110.00000     269.00000
         3     21009   F   0.35000     110.00000      91.00000
         3     21013   F   0.35000     110.00000     269.00000
         3     21017   F   0.35000     110.00000      91.00000
         3     21021   F   0.35000     110.00000     269.00000
         3     21025   F   0.35000     110.00000      91.00000
         3     21029   F   0.35000     110.00000     269.00000
         3     21033   F   0.35000     110.00000      91.00000
         3     21037   F   0.35000     110.00000     269.00000
         3     21041   F   0.35000     110.00000      91.00000
         3     21045   F   0.35000     110.00000     269.00000
         3     21049   F   0.35000     110.00000      91.00000
         3     21053   F   0.35000     110.00000     269.00000
         3     21057   F   0.35000     110.00000      91.00000
         3     21061   F   0.35000     110.00000     269.00000
         3     21065   F   0.35000     110.00000      91.00000
         3     21069   F   0.35000     110.00000     269.00000
         3     21073   F   0.35000     110.00000      91.00000
         3     21077   F   0.35000     110.00000     269.00000
         3     21081   F   0.35000     110.00000      91.00000
         3     21085   F   0.35000     110.00000     269.00000
         3     21089   F   0.35000     110.00000      91.00000
         3     21093   F   0.35000     110.00000     269.00000
         3     21097   F   0.35000     110.00000      91.00000
         3     21101   F   0.35000     110.00000     269.00000
         3     21105   F   0.35000     110.00000      91.00000
         3     21109   F   0.35000     110.00000     269.00000
         3     21113   F   0.35000     110.00000      91.00000
         3     21117   F   0.35000     110.00000     269.00000
         3     21121   F   0.35000     110.00000      91.00000
         3     21125   F   0.35000     110.00000     269.00000
         3     21129   F   0.35000     110.00000      91.00000
         3     21133   F   0.35000     110.00000     269.00000
         3     21137   F   0.35000     110.00000      91.00000
         3     21141   F   0.35000     110.00000     269.00000
         3     21145   F   0.35000     110.00000      91.00000
         3     21149   F   0.35000     110.00000     269.00000
         3     21153   F   0.35000     110.00000      91.00000
         3     21157   F   0.35000     110.00000     269.00000
         3     21161   F   0.35000     110.00000      91.00000
         3     21165   F   0.35000     110.00000     269.00000
         3     21169   F   0.35000     110.00000      91.00000
         3     21173   F   0.35000     110.00000     269.00000
         3     21177   F   0.35000     110.00000      91.00000
         3     21181   F   0.35000     110.00000     269.00000
         3     21185   F   0.35000     110.00000      91.00000
         3     21189   F   0.35000     110.00000     269.00000
         3     21193   F   0.35000     110.00000      91.00000
         3     21197   F   0.35000     110.00000     269.00000
         3     21201   F   0.35000     110.00000      91.00000
         3     21205   F   0.35000     110.00000     269.00000
         3     21209   F   0.35000     110.00000      91.00000
         3     21213   F   0.35000     110.00000     269.00000
         3     21217   F   0.35000     110.00000      91.00000
         3     21221   F   0.35000     110.00000     269.00000
         3     21225   F   0.35000     110.00000      91.00000
         3     21229   F   0.35000     110.00000     269.00000
         3     21233   F   0.35000     110.00000      91.00000
         3     21237   F   0.35000     110.00000     269.00000
         3     21241   F   0.35000     110.00000      91.00000
         3     21245   F   0.35000     110.00000     269.00000
         3     21249   F   0.35000     110.00000      91.00000
         3     21253   F   0.35000     110.00000     269.00000
         3     21257   F   0.35000     110.00000      91.00000
         3     21261   F   0.35000     110.00000     269.00000
         3     21265   F   0.35000     110.00000      91.00000
         3     21269   F   0.35000     110.00000     269.00000
         3     21273   F   0.35000     110.00000      91.00000
         3     21277   F   0.35000     110.00000     269.00000
         3     21281   F   0.35000     110.00000      91.00000
         3     21285   F   0.35000     110.00000     269.00000
         3     21289   F   0.35000     110.00000      91.00000
         3     21293   F   0.35000     110.00000     269.00000
         3     21297   F   0.35000     110.00000      91.00000
         3     21301   F   0.35000     110.00000     269.00000
         3     21305   F   0.35000     110.00000      91.00000
         3     21309   F   0.35000     110.00000     269.00000
         3     21313   F   0.35000     110.00000      91.00000
         3     21317   F   0.35000     110.00000     269.00000
         3     21321   F   0.35000     110.00000      91.00000
         3     21325   F   0.35000     110.00000     269.00000
         3     21329   F   0.35000     110.00000      91.00000
         3     21333   F   0.35000     110.00000     269.00000
         3     21337   F   0.35000     110.00000      91.00000
         3     21341   F   0.35000     110.00000     269.00000
         3     21345   F   0.35000     110.00000      91.00000
         3     21349   F   0.35000     110.00000     269.00000
         3     21353   F   0.35000     110.00000      91.00000
         3     21357   F   0.35000     110.00000     269.00000
         3     21361   F   0.35000     110.00000      91.00000
         3     21365   F   0.35000     110.00000     269.00000
         3     21369   F   0.35000     110.00000      91.00000
         3     21373   F   0.35000     110.00000     269.00000
         3     21377   F   0.35000     110.00000      91.00000
         3     21381   F   0.35000     110.00000     269.00000
         3     21385   F   0.35000     110.00000      91.00000
         3     21389   F   0.35000     110.00000     269.00000
         3     21393   F   0.35000     110.00000      91.00000
         3     21397   F   0.35000     110.00000     269.00000
         3     21401   F   0.35000     110.00000      91.00000
         3     21405   F   0.35000     110.00000     269.00000
         3     21409   F   0.35000     110.00000      91.00000
         3     21413   F   0.35000     110.00000     269.00000
         3     21417   F   0.35000     110.00000      91.00000
         3     21421   F   0.35000     110.00000     269.00000
         3     21425   F   0.35000     110.00000      91.00000
         3     21429   F   0.35000     110.00000     269.00000
         3     21433   F   0.35000     110.00000      91.00000
         3     21437   F   0.35000     110.00000     269.00000
         3     21441   F   0.35000     110.00000      91.00000
         3     21445   F   0.35000     110.00000     269.00000
         3     21449   F   0.35000     110.00000      91.00000
         3     21453   F   0.35000     110.00000     269.00000
         3     21457   F   0.35000     110.00000      91.00000
         3     21461   F   0.35000     110.00000     269.00000
         3     21465   F   0.35000     110.00000      91.00000
         3     21469   F   0.35000     110.00000     269.00000
         3     21473   F   0.35000     110.00000      91.00000
         3     21477   F   0.35000     110.00000     269.00000
         3     21481   F   0.35000     110.00000      91.00000
         3     21485   F   0.35000     110.00000     269.00000
         3     21489   F   0.35000     110.00000      91.00000
         3     21493   F   0.35000     110.00000     269.00000
         3     21497   F   0.35000     110.00000      91.00000
         3     21501   F   0.35000     110.00000     269.00000
         3     21505   F   0.35000     110.00000      91.00000
         3     21509   F   0.35000     110.00000     269.00000
         3     21513   F   0.35000     110.00000      91.00000
         3     21517   F   0.35000     110.00000     269.00000
         3     21521   F   0.35000     110.00000      91.00000
         3     21525   F   0.35000     110.00000     269.00000
         3     21529   F   0.35000     110.00000      91.00000
         3     21533   F   0.35000     110.00000     269.00000
         3     21537   F   0.35000     110.00000      91.00000
         3     21541   F   0.35000     110.00000     269.00000
         3     21545   F   0.35000     110.00000      91.00000
         3     21549   F   0.35000     110.00000     269.00000
         3     21553   F   0.35000     110.00000      91.00000
         3     21557   F   0.35000     110.00000     269.00000
         3     21561   F   0.35000     110.00000      91.00000
         3     21565   F   0.35000     110.00000     269.00000
         3     21569   F   0.35000     110.00000      91.00000
         3     21573   F   0.35000     110.00000     269.00000
         3     21577   F   0.35000     110.00000      91.00000
         3     21581   F   0.35000     110.00000     269.00000
         3     21585   F   0.35000     110.00000      91.00000
         3     21589   F   0.35000     110.00000     269.00000
         3     21593   F   0.35000     110.00000      91.00000
         3     21597   F   0.35000     110.00000     269.00000
         3     21601   F   0.35000     110.00000      91.00000
         3     21605   F   0.35000     110.00000     269.00000
         3     21609   F   0.35000     110.00000      91.00000
         3     21613   F   0.35000     110.00000     269.00000
         3     21617   F   0.35000     110.00000      91.00000
         3     21621   F   0.35000     110.00000     269.00000
         3     21625   F   0.35000     110.00000      91.00000
         3     21629   F   0.35000     110.00000     269.00000
         3     21633   F   0.35000     110.00000      91.00000
         3     21637   F   0.35000     110.00000     269.00000
         3     21641   F   0.35000     110.00000      91.00000
         3     21645   F   0.35000     110.00000     269.00000
         3     21649   F   0.35000     110.00000      91.00000
         3     21653   F   0.35000     110.00000     269.00000
         3     21657   F   0.35000     110.00000      91.00000
         3     21661   F   0.35000     110.00000     269.00000
         3     21665   F   0.35000     110.00000      91.00000
         3     21669   F   0.35000     110.00000     269.00000
         3     21673   F   0.35000     110.00000      91.00000
         3     21677   F   0.35000     110.00000     269.00000
         3     21681   F   0.35000     110.00000      91.00000
         3     21685   F   0.35000     110.00000     269.00000
         3     21689   F   0.35000     110.00000      91.00000
         3     21693   F   0.35000     110.00000     269.00000
         3     21697   F   0.35000     110.00000      91.00000
         3     21701   F   0.35000     110.00000     269.00000
         3     21705   F   0.35000     110.00000      91.00000
         3     21709   F   0.35000     110.00000     269.00000
         3     21713   F   0.35000     110.00000      91.00000
         3     21717   F   0.35000     110.00000     269.00000
         3     21721   F   0.35000     110.00000      91.00000
         3     21725   F   0.35000     110.00000     269.00000
         3     21729   F   0.35000     110.00000      91.00000
         3     21733   F   0.35000     110.00000     269.00000
         3     21737   F   0.35000     110.00000      91.00000
         3     21741   F   0.35000     110.00000     269.00000
         3     21745   F   0.35000     110.00000      91.00000
         3     21749   F   0.35000     110.00000     269.00000
         3     21753   F   0.35000     110.00000      91.00000
         3     21757   F   0.35000     110.00000     269.00000
         3     21761   F   0.35000     110.00000      91.00000
         3     21765   F   0.35000     110.00000     269.00000
         3     21769   F   0.35000     110.00000      91.00000
         3     21773   F   0.35000     110.00000     269.00000
         3     21777   F   0.35000     110.00000      91.00000
         3     21781   F   0.35000     110.00000     269.00000
         3     21785   F   0.35000     110.00000      91.00000
         3     21789   F   0.35000     110.00000     269.00000
         3     21793   F   0.35000     110.00000      91.00000
         3     21797   F   0.35000     110.00000     269.00000
         3     21801   F   0.35000     110.00000      91.00000
         3     21805   F   0.35000     110.00000     269.00000
         3     21809   F   0.35000     110.00000      91.00000
         3     21813   F   0.35000     110.00000     269.00000
         3     21817   F   0.35000     110.00000      91.00000
         3     21821   F   0.35000     110.00000     269.00000
         3     21825   F   0.35000     110.00000      91.00000
         3     21829   F   0.35000     110.00000     269.00000
         3     21833   F   0.35000     110.00000      91.00000
         3     21837   F   0.35000     110.00000     269.00000
         3     21841   F   0.35000     110.00000      91.00000
         3     21845   F   0.35000     110.00000     269.00000
         3     21849   F   0.35000     110.00000      91.00000
         3     21853   F   0.35000     110.00000     269.00000
         3     21857   F   0.35000     110.00000      91.00000
         3     21861   F   0.35000     110.00000     269.00000
         3     21865   F   0.35000     110.00000      91.00000
         3     21869   F   0.35000     110.00000     269.00000
         3     21873   F   0.35000     110.00000      91.00000
         3     21877   F   0.35000     110.00000     269.00000
         3     21881   F   0.35000     110.00000      91.00000
         3     21885   F   0.35000     110.00000     269.00000
         3     21889   F   0.35000     110.00000      91.00000
         3     21893   F   0.35000     110.00000     269.00000
         3     21897   F   0.35000     110.00000      91.00000
         3     21901   F   0.35000     110.00000     269.00000
         3     21905   F   0.35000     110.00000      91.00000
         3     21909   F   0.35000     110.00000     269.00000
         3     21913   F   0.35000     110.00000      91.00000
         3     21917   F   0.35000     110.00000     269.00000
         3     21921   F   0.35000     110.00000      91.00000
         3     21925   F   0.35000     110.00000     269.00000
         3     21929   F   0.35000     110.00000      91.00000
         3     21933   F   0.35000     110.00000     269.00000
         3     21937   F   0.35000     110.00000      91.00000
         3     21941   F   0.35000     110.00000     269.00000
         3     21945   F   0.35000     110.00000      91.00000
         3     21949   F   0.35000     110.00000     269.00000
         3     21953   F   0.35000     110.00000      91.00000
         3     21957   F   0.35000     110.00000     269.00000
         3     21961   F   0.35000     110.00000      91.00000
         3     21965   F   0.35000     110.00000     269.00000
         3     21969   F   0.35000     110.00000      91.00000
         3     21973   F   0.35000     110.00000     269.00000
         3     21977   F   0.35000     110.00000      91.00000
         3     21981   F   0.35000     110.00000     269.00000
         3     21985   F   0.35000     110.00000      91.00000
         3     21989   F   0.35000     110.00000     269.00000
         3     21993   F   0.35000     110.00000      91.00000
         3     21997   F   0.35000     110.00000     269.00000
         3     22001   F   0.35000     110.00000      91.00000
         3     22005   F   0.35000     110.00000     269.00000
         3     22009   F   0.35000     110.00000      91.00000
         3     22013   F   0.35000     110.00000     269.00000
         3     22017   F   0.35000     110.00000      91.00000
         3     22021   F   0.35000     110.00000     269.00000
         3     22025   F   0.35000     110.00000      91.00000
         3     22029   F   0.35000     110.00000     269.00000
         3     22033   F   0.35000     110.00000      91.00000
         3     22037   F   0.35000     110.00000     269.00000
         3     22041   F   0.35000     110.00000      91.00000
         3     22045   F   0.35000     110.00000     269.00000
         3     22049   F   0.35000     110.00000      91.00000
         3     22053   F   0.35000     110.00000     269.00000
         3     22057   F   0.35000     110.00000      91.00000
         3     22061   F   0.35000     110.00000     269.00000
         3     22065   F   0.35000     110.00000      91.00000
         3     22069   F   0.35000     110.00000     269.00000
         3     22073   F   0.35000     110.00000      91.00000
         3     22077   F   0.35000     110.00000     269.00000
         3     22081   F   0.35000     110.00000      91.00000
         3     22085   F   0.35000     110.00000     269.00000
         3     22089   F   0.35000     110.00000      91.00000
         3     22093   F   0.35000     110.00000     269.00000
         3     22097   F   0.35000     110.00000      91.00000
         3     22101   F   0.35000     110.00000     269.00000
         3     22105   F   0.35000     110.00000      91.00000
         3     22109   F   0.35000     110.00000     269.00000
         3     22113   F   0.35000     110.00000      91.00000
         3     22117   F   0.35000     110.00000     269.00000
         3     22121   F   0.35000     110.00000      91.00000
         3     22125   F   0.35000     110.00000     269.00000
         3     22129   F   0.35000     110.00000      91.00000
         3     22133   F   0.35000     110.00000     269.00000
         3     22137   F   0.35000     110.00000      91.00000
         3     22141   F   0.35000     110.00000     269.00000
         3     22145   F   0.35000     110.00000      91.00000
         3     22149   F   0.35000     110.00000     269.00000
         3     22153   F   0.35000     110.00000      91.00000
         3     22157   F   0.35000     110.00000     269.00000
         3     22161   F   0.35000     110.00000      91.00000
         3     22165   F   0.35000     110.00000     269.00000
         3     22169   F   0.35000     110.00000      91.00000
         3     22173   F   0.35000     110.00000     269.00000
         3     22177   F   0.35000     110.00000      91.00000
         3     22181   F   0.35000     110.00000     269.00000
         3     22185   F   0.35000     110.00000      91.00000
         3     22189   F   0.35000     110.00000     269.00000
         3     22193   F   0.35000     110.00000      91.00000
         3     22197   F   0.35000     110.00000     269.00000
         3     22201   F   0.35000     110.00000      91.00000
         3     22205   F   0.35000     110.00000     269.00000
         3     22209   F   0.35000     110.00000      91.00000
         3     22213   F   0.35000     110.00000     269.00000
         3     22217   F   0.35000     110.00000      91.00000
         3     22221   F   0.35000     110.00000     269.00000
         3     22225   F   0.35000     110.00000      91.00000
         3     22229   F   0.35000     110.00000     269.00000
         3     22233   F   0.35000     110.00000      91.00000
         3     22237   F   0.35000     110.00000     269.00000
         3     22241   F   0.35000     110.00000      91.00000
         3     22245   F   0.35000     110.00000     269.00000
         3     22249   F   0.35000     110.00000      91.00000
         3     22253   F   0.35000     110.00000     269.00000
         3     22257   F   0.35000     110.00000      91.00000
         3     22261   F   0.35000     110.00000     269.00000
         3     22265   F   0.35000     110.00000      91.00000
         3     22269   F   0.35000     110.00000     269.00000
         3     22273   F   0.35000     110.00000      91.00000
         3     22277   F   0.35000     110.00000     269.00000
         3     22281   F   0.35000     110.00000      91.00000
         3     22285   F   0.35000     110.00000     269.00000
         3     22289   F   0.35000     110.00000      91.00000
         3     22293   F   0.35000     110.00000     269.00000
         3     22297   F   0.35000     110.00000      91.00000
         3     22301   F   0.35000     110.00000     269.00000
         3     22305   F   0.35000     110.00000      91.00000
         3     22309   F   0.35000     110.00000     269.00000
         3     22313   F   0.35000     110.00000      91.00000
         3     22317   F   0.35000     110.00000     269.00000
         3     22321   F   0.35000     110.00000      91.00000
         3     22325   F   0.35000     110.00000     269.00000
         3     22329   F   0.35000     110.00000      91.00000
         3     22333   F   0.35000     110.00000     269.00000
         3     22337   F   0.35000     110.00000      91.00000
         3     22341   F   0.35000     110.00000     269.00000
         3     22345   F   0.35000     110.00000      91.00000
         3     22349   F   0.35000     110.00000     269.00000
         3     22353   F   0.35000     110.00000      91.00000
         3     22357   F   0.35000     110.00000     269.00000
         3     22361   F   0.35000     110.00000      91.00000
         3     22365   F   0.35000     110.00000     269.00000
         3     22369   F   0.35000     110.00000      91.00000
         3     22373   F   0.35000     110.00000     269.00000
         3     22377   F   0.35000     110.00000      91.00000
         3     22381   F   0.35000     110.00000     269.00000
         3     22385   F   0.35000     110.00000      91.00000
         3     22389   F   0.35000     110.00000     269.00000
         3     22393   F   0.35000     110.00000      91.00000
         3     22397   F   0.35000     110.00000     269.00000
         3     22401   F   0.35000     110.00000      91.00000
         3     22405   F   0.35000     110.00000     269.00000
         3     22409   F   0.35000     110.00000      91.00000
         3     22413   F   0.35000     110.00000     269.00000
         3     22417   F   0.35000     110.00000      91.00000
         3     22421   F   0.35000     110.00000     269.00000
         3     22425   F   0.35000     110.00000      91.00000
         3     22429   F   0.35000     110.00000     269.00000
         3     22433   F   0.35000     110.00000      91.00000
         3     22437   F   0.35000     110.00000     269.00000
         3     22441   F   0.35000     110.00000      91.00000
         3     22445   F   0.35000     110.00000     269.00000
         3     22449   F   0.35000     110.00000      91.00000
         3     22453   F   0.35000     110.00000     269.00000
         3     22457   F   0.35000     110.00000      91.00000
         3     22461   F   0.35000     110.00000     269.00000
         3     22465   F   0.35000     110.00000      91.00000
         3     22469   F   0.35000     110.00000     269.00000
         3     22473   F   0.35000     110.00000      91.00000
         3     22477   F   0.35000     110.00000     269.00000
         3     22481   F   0.35000     110.00000      91.00000
         3     22485   F   0.35000     110.00000     269.00000
         3     22489   F   0.35000     110.00000      91.00000
         3     22493   F   0.35000     110.00000     269.00000
         3     22497   F   0.35000     110.00000      91.00000
         3     22501   F   0.35000     110.00000     269.00000
         3     22505   F   0.35000     110.00000      91.00000
         3     22509   F   0.35000     110.00000     269.00000
         3     22513   F   0.35000     110.00000      91.00000
         3     22517   F   0.35000     110.00000     269.00000
         3     22521   F   0.35000     110.00000      91.00000
         3     22525   F   0.35000     110.00000     269.00000
         3     22529   F   0.35000     110.00000      91.00000
         3     22533   F   0.35000     110.00000     269.00000
         3     22537   F   0.35000     110.00000      91.00000
         3     22541   F   0.35000     110.00000     269.00000
         3     22545   F   0.35000     110.00000      91.00000
         3     22549   F   0.35000     110.00000     269.00000
         3     22553   F   0.35000     110.00000      91.00000
         3     22557   F   0.35000     110.00000     269.00000
         3     22561   F   0.35000     110.00000      91.00000
         3     22565   F   0.35000     110.00000     269.00000
         3     22569   F   0.35000     110.00000      91.00000
         3     22573   F   0.35000     110.00000     269.00000
         3     22577   F   0.35000     110.00000      91.00000
         3     22581   F   0.35000     110.00000     269.00000
         3     22585   F   0.35000     110.00000      91.00000
         3     22589   F   0.35000     110.00000     269.00000
         3     22593   F   0.35000     110.00000      91.00000
         3     22597   F   0.35000     110.00000     269.00000
         3     22601   F   0.35000     110.00000      91.00000
         3     22605   F   0.35000     110.00000     269.00000
         3     22609   F   0.35000     110.00000      91.00000
         3     22613   F   0.35000     110.00000     269.00000
         3     22617   F   0.35000     110.00000      91.00000
         3     22621   F   0.35000     110.00000     269.00000
         3     22625   F   0.35000     110.00000      91.00000
         3     22629   F   0.35000     110.00000     269.00000
         3     22633   F   0.35000     110.00000      91.00000
         3     22637   F   0.35000     110.00000     269.00000
         3     22641   F   0.35000     110.00000      91.00000
         3     22645   F   0.35000     110.00000     269.00000
         3     22649   F   0.35000     110.00000      91.00000
         3     22653   F   0.35000     110.00000     269.00000
         3     22657   F   0.35000     110.00000      91.00000
         3     22661   F   0.35000     110.00000     269.00000
         3     22665   F   0.35000     110.00000      91.00000
         3     22669   F   0.35000     110.00000     269.00000
         3     22673   F   0.35000     110.00000      91.00000
         3     22677   F   0.35000     110.00000     269.00000
         3     22681   F   0.35000     110.00000      91.00000
         3     22685   F   0.35000     110.00000     269.00000
         3     22689   F   0.35000     110.00000      91.00000
         3     22693   F   0.35000     110.00000     269.00000
         3     22697   F   0.35000     110.00000      91.00000
         3     22701   F   0.35000     110.00000     269.00000
         3     22705   F   0.35000     110.00000      91.00000
         3     22709   F   0.35000     110.00000     269.00000
         3     22713   F   0.35000     110.00000      91.00000
         3     22717   F   0.35000     110.00000     269.00000
         3     22721   F   0.35000     110.00000      91.00000
         3     22725   F   0.35000     110.00000     269.00000
         3     22729   F   0.35000     110.00000      91.00000
         3     22733   F   0.35000     110.00000     269.00000
         3     22737   F   0.35000     110.00000      91.00000
         3     22741   F   0.35000     110.00000     269.00000
         3     22745   F   0.35000     110.00000      91.00000
         3     22749   F   0.35000     110.00000     269.00000
         3     22753   F   0.35000     110.00000      91.00000
         3     22757   F   0.35000     110.00000     269.00000
         3     22761   F   0.35000     110.00000      91.00000
         3     22765   F   0.35000     110.00000     269.00000
         3     22769   F   0.35000     110.00000      91.00000
         3     22773   F   0.35000     110.00000     269.00000
         3     22777   F   0.35000     110.00000      91.00000
         3     22781   F   0.35000     110.00000     269.00000
         3     22785   F   0.35000     110.00000      91.00000
         3     22789   F   0.35000     110.00000     269.00000
         3     22793   F   0.35000     110.00000      91.00000
         3     22797   F   0.35000     110.00000     269.00000
         3     22801   F   0.35000     110.00000      91.00000
         3     22805   F   0.35000     110.00000     269.00000
         3     22809   F   0.35000     110.00000      91.00000
         3     22813   F   0.35000     110.00000     269.00000
         3     22817   F   0.35000     110.00000      91.00000
         3     22821   F   0.35000     110.00000     269.00000
         3     22825   F   0.35000     110.00000      91.00000
         3     22829   F   0.35000     110.00000     269.00000
         3     22833   F   0.35000     110.00000      91.00000
         3     22837   F   0.35000     110.00000     269.00000
         3     22841   F   0.35000     110.00000      91.00000
         3     22845   F   0.35000     110.00000     269.00000
         3     22849   F   0.35000     110.00000      91.00000
         3     22853   F   0.35000     110.00000     269.00000
         3     22857   F   0.35000     110.00000      91.00000
         3     22861   F   0.35000     110.00000     269.00000
         3     22865   F   0.35000     110.00000      91.00000
         3     22869   F   0.35000     110.00000     269.00000
         3     22873   F   0.35000     110.00000      91.00000
         3     22877   F   0.35000     110.00000     269.00000
         3     22881   F   0.35000     110.00000      91.00000
         3     22885   F   0.35000     110.00000     269.00000
         3     22889   F   0.35000     110.00000      91.00000
         3     22893   F   0.35000     110.00000     269.00000
         3     22897   F   0.35000     110.00000      91.00000
         3     22901   F   0.35000     110.00000     269.00000
         3     22905   F   0.35000     110.00000      91.00000
         3     22909   F   0.35000     110.00000     269.00000
         3     22913   F   0.35000     110.00000      91.00000
         3     22917   F   0.35000     110.00000     269.00000
         3     22921   F   0.35000     110.00000      91.00000
         3     22925   F   0.35000     110.00000     269.00000
         3     22929   F   0.35000     110.00000      91.00000
         3     22933   F   0.35000     110.00000     269.00000
         3     22937   F   0.35000     110.00000      91.00000
         3     22941   F   0.35000     110.00000     269.00000
         3     22945   F   0.35000     110.00000      91.00000
         3     22949   F   0.35000     110.00000     269.00000
         3     22953   F   0.35000     110.00000      91.00000
         3     22957   F   0.35000     110.00000     269.00000
         3     22961   F   0.35000     110.00000      91.00000
         3     22965   F   0.35000     110.00000     269.00000
         3     22969   F   0.35000     110.00000      91.00000
         3     22973   F   0.35000     110.00000     269.00000
         3     22977   F   0.35000     110.00000      91.00000
         3     22981   F   0.35000     110.00000     269.00000
         3     22985   F   0.35000     110.00000      91.00000
         3     22989   F   0.35000     110.00000     269.00000
         3     22993   F   0.35000     110.00000      91.00000
         3     22997   F   0.35000     110.00000     269.00000
         3     23001   F   0.35000     110.00000      91.00000
         3     23005   F   0.35000     110.00000     269.00000
         3     23009   F   0.35000     110.00000      91.00000
         3     23013   F   0.35000     110.00000     269.00000
         3     23017   F   0.35000     110.00000      91.00000
         3     23021   F   0.35000     110.00000     269.00000
         3     23025   F   0.35000     110.00000      91.00000
         3     23029   F   0.35000     110.00000     269.00000
         3     23033   F   0.35000     110.00000      91.00000
         3     23037   F   0.35000     110.00000     269.00000
         3     23041   F   0.35000     110.00000      91.00000
         3     23045   F   0.35000     110.00000     269.00000
         3     23049   F   0.35000     110.00000      91.00000
         3     23053   F   0.35000     110.00000     269.00000
         3     23057   F   0.35000     110.00000      91.00000
         3     23061   F   0.35000     110.00000     269.00000
         3     23065   F   0.35000     110.00000      91.00000
         3     23069   F   0.35000     110.00000     269.00000
         3     23073   F   0.35000     110.00000      91.00000
         3     23077   F   0.35000     110.00000     269.00000
         3     23081   F   0.35000     110.00000      91.00000
         3     23085   F   0.35000     110.00000     269.00000
         3     23089   F   0.35000     110.00000      91.00000
         3     23093   F   0.35000     110.00000     269.00000
         3     23097   F   0.35000     110.00000      91.00000
         3     23101   F   0.35000     110.00000     269.00000
         3     23105   F   0.35000     110.00000      91.00000
         3     23109   F   0.35000     110.00000     269.00000
         3     23113   F   0.35000     110.00000      91.00000
         3     23117   F   0.35000     110.00000     269.00000
         3     23121   F   0.35000     110.00000      91.00000
         3     23125   F   0.35000     110.00000     269.00000
         3     23129   F   0.35000     110.00000      91.00000
         3     23133   F   0.35000     110.00000     269.00000
         3     23137   F   0.35000     110.00000      91.00000
         3     23141   F   0.35000     110.00000     269.00000
         3     23145   F   0.35000     110.00000      91.00000
         3     23149   F   0.35000     110.00000     269.00000
         3     23153   F   0.35000     110.00000      91.00000
         3     23157   F   0.35000     110.00000     269.00000
         3     23161   F   0.35000     110.00000      91.00000
         3     23165   F   0.35000     110.00000     269.00000
         3     23169   F   0.35000     110.00000      91.00000
         3     23173   F   0.35000     110.00000     269.00000
         3     23177   F   0.35000     110.00000      91.00000
         3     23181   F   0.35000     110.00000     269.00000
         3     23185   F   0.35000     110.00000      91.00000
         3     23189   F   0.35000     110.00000     269.00000
         3     23193   F   0.35000     110.00000      91.00000
         3     23197   F   0.35000     110.00000     269.00000
         3     23201   F   0.35000     110.00000      91.00000
         3     23205   F   0.35000     110.00000     269.00000
         3     23209   F   0.35000     110.00000      91.00000
         3     23213   F   0.35000     110.00000     269.00000
         3     23217   F   0.35000     110.00000      91.00000
         3     23221   F   0.35000     110.00000     269.00000
         3     23225   F   0.35000     110.00000      91.00000
         3     23229   F   0.35000     110.00000     269.00000
         3     23233   F   0.35000     110.00000      91.00000
         3     23237   F   0.35000     110.00000     269.00000
         3     23241   F   0.35000     110.00000      91.00000
         3     23245   F   0.35000     110.00000     269.00000
         3     23249   F   0.35000     110.00000      91.00000
         3     23253   F   0.35000     110.00000     269.00000
         3     23257   F   0.35000     110.00000      91.00000
         3     23261   F   0.35000     110.00000     269.00000
         3     23265   F   0.35000     110.00000      91.00000
         3     23269   F   0.35000     110.00000     269.00000
         3     23273   F   0.35000     110.00000      91.00000
         3     23277   F   0.35000     110.00000     269.00000
         3     23281   F   0.35000     110.00000      91.00000
         3     23285   F   0.35000     110.00000     269.00000
         3     23289   F   0.35000     110.00000      91.00000
         3     23293   F   0.35000     110.00000     269.00000
         3     23297   F   0.35000     110.00000      91.00000
         3     23301   F   0.35000     110.00000     269.00000
         3     23305   F   0.35000     110.00000      91.00000
         3     23309   F   0.35000     110.00000     269.00000
         3     23313   F   0.35000     110.00000      91.00000
         3     23317   F   0.35000     110.00000     269.00000
         3     23321   F   0.35000     110.00000      91.00000
         3     23325   F   0.35000     110.00000     269.00000
         3     23329   F   0.35000     110.00000      91.00000
         3     23333   F   0.35000     110.00000     269.00000
         3     23337   F   0.35000     110.00000      91.00000
         3     23341   F   0.35000     110.00000     269.00000
         3     23345   F   0.35000     110.00000      91.00000
         3     23349   F   0.35000     110.00000     269.00000
         3     23353   F   0.35000     110.00000      91.00000
         3     23357   F   0.35000     110.00000     269.00000
         3     23361   F   0.35000     110.00000      91.00000
         3     23365   F   0.35000     110.00000     269.00000
         3     23369   F   0.35000     110.00000      91.00000
         3     23373   F   0.35000     110.00000     269.00000
         3     23377   F   0.35000     110.00000      91.00000
         3     23381   F   0.35000     110.00000     269.00000
         3     23385   F   0.35000     110.00000      91.00000
         3     23389   F   0.35000     110.00000     269.00000
         3     23393   F   0.35000     110.00000      91.00000
         3     23397   F   0.35000     110.00000     269.00000
         3     23401   F   0.35000     110.00000      91.00000
         3     23405   F   0.35000     110.00000     269.00000
         3     23409   F   0.35000     110.00000      91.00000
         3     23413   F   0.35000     110.00000     269.00000
         3     23417   F   0.35000     110.00000      91.00000
         3     23421   F   0.35000     110.00000     269.00000
         3     23425   F   0.35000     110.00000      91.00000
         3     23429   F   0.35000     110.00000     269.00000
         3     23433   F   0.35000     110.00000      91.00000
         3     23437   F   0.35000     110.00000     269.00000
         3     23441   F   0.35000     110.00000      91.00000
         3     23445   F   0.35000     110.00000     269.00000
         3     23449   F   0.35000     110.00000      91.00000
         3     23453   F   0.35000     110.00000     269.00000
         3     23457   F   0.35000     110.00000      91.00000
         3     23461   F   0.35000     110.00000     269.00000
         3     23465   F   0.35000     110.00000      91.00000
         3     23469   F   0.35000     110.00000     269.00000
         3     23473   F   0.35000     110.00000      91.00000
         3     23477   F   0.35000     110.00000     269.00000
         3     23481   F   0.35000     110.00000      91.00000
         3     23485   F   0.35000     110.00000     269.00000
         3     23489   F   0.35000     110.00000      91.00000
         3     23493   F   0.35000     110.00000     269.00000
         3     23497   F   0.35000     110.00000      91.00000
         3     23501   F   0.35000     110.00000     269.00000
         3     23505   F   0.35000     110.00000      91.00000
         3     23509   F   0.35000     110.00000     269.00000
         3     23513   F   0.35000     110.00000      91.00000
         3     23517   F   0.35000     110.00000     269.00000
         3     23521   F   0.35000     110.00000      91.00000
         3     23525   F   0.35000     110.00000     269.00000
         3     23529   F   0.35000     110.00000      91.00000
         3     23533   F   0.35000     110.00000     269.00000
         3     23537   F   0.35000     110.00000      91.00000
         3     23541   F   0.35000     110.00000     269.00000
         3     23545   F   0.35000     110.00000      91.00000
         3     23549   F   0.35000     110.00000     269.00000
         3     23553   F   0.35000     110.00000      91.00000
         3     23557   F   0.35000     110.00000     269.00000
         3     23561   F   0.35000     110.00000      91.00000
         3     23565   F   0.35000     110.00000     269.00000
         3     23569   F   0.35000     110.00000      91.00000
         3     23573   F   0.35000     110.00000     269.00000
         3     23577   F   0.35000     110.00000      91.00000
         3     23581   F   0.35000     110.00000     269.00000
         3     23585   F   0.35000     110.00000      91.00000
         3     23589   F   0.35000     110.00000     269.00000
         3     23593   F   0.35000     110.00000      91.00000
         3     23597   F   0.35000     110.00000     269.00000
         3     23601   F   0.35000     110.00000      91.00000
         3     23605   F   0.35000     110.00000     269.00000
         3     23609   F   0.35000     110.00000      91.00000
         3     23613   F   0.35000     110.00000     269.00000
         3     23617   F   0.35000     110.00000      91.00000
         3     23621   F   0.35000     110.00000     269.00000
         3     23625   F   0.35000     110.00000      91.00000
         3     23629   F   0.35000     110.00000     269.00000
         3     23633   F   0.35000     110.00000      91.00000
         3     23637   F   0.35000     110.00000     269.00000
         3     23641   F   0.35000     110.00000      91.00000
         3     23645   F   0.35000     110.00000     269.00000
         3     23649   F   0.35000     110.00000      91.00000
         3     23653   F   0.35000     110.00000     269.00000
         3     23657   F   0.35000     110.00000      91.00000
         3     23661   F   0.35000     110.00000     269.00000
         3     23665   F   0.35000     110.00000      91.00000
         3     23669   F   0.35000     110.00000     269.00000
         3     23673   F   0.35000     110.00000      91.00000
         3     23677   F   0.35000     110.00000     269.00000
         3     23681   F   0.35000     110.00000      91.00000
         3     23685   F   0.35000     110.00000     269.00000
         3     23689   F   0.35000     110.00000      91.00000
         3     23693   F   0.35000     110.00000     269.00000
         3     23697   F   0.35000     110.00000      91.00000
         3     23701   F   0.35000     110.00000     269.00000
         3     23705   F   0.35000     110.00000      91.00000
         3     23709   F   0.35000     110.00000     269.00000
         3     23713   F   0.35000     110.00000      91.00000
         3     23717   F   0.35000     110.00000     269.00000
         3     23721   F   0.35000     110.00000      91.00000
         3     23725   F   0.35000     110.00000     269.00000
         3     23729   F   0.35000     110.00000      91.00000
         3     23733   F   0.35000     110.00000     269.00000
         3     23737   F   0.35000     110.00000      91.00000
         3     23741   F   0.35000     110.00000     269.00000
         3     23745   F   0.35000     110.00000      91.00000
         3     23749   F   0.35000     110.00000     269.00000
         3     23753   F   0.35000     110.00000      91.00000
         3     23757   F   0.35000     110.00000     269.00000
         3     23761   F   0.35000     110.00000      91.00000
         3     23765   F   0.35000     110.00000     269.00000
         3     23769   F   0.35000     110.00000      91.00000
         3     23773   F   0.35000     110.00000     269.00000
         3     23777   F   0.35000     110.00000      91.00000
         3     23781   F   0.35000     110.00000     269.00000
         3     23785   F   0.35000     110.00000      91.00000
         3     23789   F   0.35000     110.00000     269.00000
         3     23793   F   0.35000     110.00000      91.00000
         3     23797   F   0.35000     110.00000     269.00000
         3     23801   F   0.35000     110.00000      91.00000
         3     23805   F   0.35000     110.00000     269.00000
         3     23809   F   0.35000     110.00000      91.00000
         3     23813   F   0.35000     110.00000     269.00000
         3     23817   F   0.35000     110.00000      91.00000
         3     23821   F   0.35000     110.00000     269.00000
         3     23825   F   0.35000     110.00000      91.00000
         3     23829   F   0.35000     110.00000     269.00000
         3     23833   F   0.35000     110.00000      91.00000
         3     23837   F   0.35000     110.00000     269.00000
         3     23841   F   0.35000     110.00000      91.00000
         3     23845   F   0.35000     110.00000     269.00000
         3     23849   F   0.35000     110.00000      91.00000
         3     23853   F   0.35000     110.00000     269.00000
         3     23857   F   0.35000     110.00000      91.00000
         3     23861   F   0.35000     110.00000     269.00000
         3     23865   F   0.35000     110.00000      91.00000
         3     23869   F   0.35000     110.00000     269.00000
         3     23873   F   0.35000     110.00000      91.00000
         3     23877   F   0.35000     110.00000     269.00000
         3     23881   F   0.35000     110.00000      91.00000
         3     23885   F   0.35000     110.00000     269.00000
         3     23889   F   0.35000     110.00000      91.00000
         3     23893   F   0.35000     110.00000     269.00000
         3     23897   F   0.35000     110.00000      91.00000
         3     23901   F   0.35000     110.00000     269.00000
         3     23905   F   0.35000     110.00000      91.00000
         3     23909   F   0.35000     110.00000     269.00000
         3     23913   F   0.35000     110.00000      91.00000
         3     23917   F   0.35000     110.00000     269.00000
         3     23921   F   0.35000     110.00000      91.00000
         3     23925   F   0.35000     110.00000     269.00000
         3     23929   F   0.35000     110.00000      91.00000
         3     23933   F   0.35000     110.00000     269.00000
         3     23937   F   0.35000     110.00000      91.00000
         3     23941   F   0.35000     110.00000     269.00000
         3     23945   F   0.35000     110.00000      91.00000
         3     23949   F   0.35000     110.00000     269.00000
         3     23953   F   0.35000     110.00000      91.00000
         3     23957   F   0.35000     110.00000     269.00000
         3     23961   F   0.35000     110.00000      91.00000
         3     23965   F   0.35000     110.00000     269.00000
         3     23969   F   0.35000     110.00000      91.00000
         3     23973   F   0.35000     110.00000     269.00000
         3     23977   F   0.35000     110.00000      91.00000
         3     23981   F   0.35000     110.00000     269.00000
         3     23985   F   0.35000     110.00000      91.00000
         3     23989   F   0.35000     110.00000     269.00000
         3     23993   F   0.35000     110.00000      91.00000
         3     23997   F   0.35000     110.00000     269.00000
         3     24001   F   0.35000     110.00000      91.00000
         3     24005   F   0.35000     110.00000     269.00000
         3     24009   F   0.35000     110.00000      91.00000
         3     24013   F   0.35000     110.00000     269.00000
         3     24017   F   0.35000     110.00000      91.00000
         3     24021   F   0.35000     110.00000     269.00000
         3     24025   F   0.35000     110.00000      91.00000
         3     24029   F   0.35000     110.00000     269.00000
         3     24033   F   0.35000     110.00000      91.00000
         3     24037   F   0.35000     110.00000     269.00000
         3     24041   F   0.35000     110.00000      91.00000
         3     24045   F   0.35000     110.00000     269.00000
         3     24049   F   0.35000     110.00000      91.00000
         3     24053   F   0.35000     110.00000     269.00000
         3     24057   F   0.35000     110.00000      91.00000
         3     24061   F   0.35000     110.00000     269.00000
         3     24065   F   0.35000     110.00000      91.00000
         3     24069   F   0.35000     110.00000     269.00000
         3     24073   F   0.35000     110.00000      91.00000
         3     24077   F   0.35000     110.00000     269.00000
         3     24081   F   0.35000     110.00000      91.00000
         3     24085   F   0.35000     110.00000     269.00000
         3     24089   F   0.35000     110.00000      91.00000
         3     24093   F   0.35000     110.00000     269.00000
         3     24097   F   0.35000     110.00000      91.00000
         3     24101   F   0.35000     110.00000     269.00000
         3     24105   F   0.35000     110.00000      91.00000
         3     24109   F   0.35000     110.00000     269.00000
         3     24113   F   0.35000     110.00000      91.00000
         3     24117   F   0.35000     110.00000     269.00000
         3     24121   F   0.35000     110.00000      91.00000
         3     24125   F   0.35000     110.00000     269.00000
         3     24129   F   0.35000     110.00000      91.00000
         3     24133   F   0.35000     110.00000     269.00000
         3     24137   F   0.35000     110.00000      91.00000
         3     24141   F   0.35000     110.00000     269.00000
         3     24145   F   0.35000     110.00000      91.00000
         3     24149   F   0.35000     110.00000     269.00000
         3     24153   F   0.35000     110.00000      91.00000
         3     24157   F   0.35000     110.00000     269.00000
         3     24161   F   0.35000     110.00000      91.00000
         3     24165   F   0.35000     110.00000     269.00000
         3     24169   F   0.35000     110.00000      91.00000
         3     24173   F   0.35000     110.00000     269.00000
         3     24177   F   0.35000     110.00000      91.00000
         3     24181   F   0.35000     110.00000     269.00000
         3     24185   F   0.35000     110.00000      91.00000
         3     24189   F   0.35000     110.00000     269.00000
         3     24193   F   0.35000     110.00000      91.00000
         3     24197   F   0.35000     110.00000     269.00000
         3     24201   F   0.35000     110.00000      91.00000
         3     24205   F   0.35000     110.00000     269.00000
         3     24209   F   0.35000     110.00000      91.00000
         3     24213   F   0.35000     110.00000     269.00000
         3     24217   F   0.35000     110.00000      91.00000
         3     24221   F   0.35000     110.00000     269.00000
         3     24225   F   0.35000     110.00000      91.00000
         3     24229   F   0.35000     110.00000     269.00000
         3     24233   F   0.35000     110.00000      91.00000
         3     24237   F   0.35000     110.00000     269.00000
         3     24241   F   0.35000     110.00000      91.00000
         3     24245   F   0.35000     110.00000     269.00000
         3     24249   F   0.35000     110.00000      91.00000
         3     24253   F   0.35000     110.00000     269.00000
         3     24257   F   0.35000     110.00000      91.00000
         3     24261   F   0.35000     110.00000     269.00000
         3     24265   F   0.35000     110.00000      91.00000
         3     24269   F   0.35000     110.00000     269.00000
         3     24273   F   0.35000     110.00000      91.00000
         3     24277   F   0.35000     110.00000     269.00000
         3     24281   F   0.35000     110.00000      91.00000
         3     24285   F   0.35000     110.00000     269.00000
         3     24289   F   0.35000     110.00000      91.00000
         3     24293   F   0.35000     110.00000     269.00000
         3     24297   F   0.35000     110.00000      91.00000
         3     24301   F   0.35000     110.00000     269.00000
         3     24305   F   0.35000     110.00000      91.00000
         3     24309   F   0.35000     110.00000     269.00000
         3     24313   F   0.35000     110.00000      91.00000
         3     24317   F   0.35000     110.00000     269.00000
         3     24321   F   0.35000     110.00000      91.00000
         3     24325   F   0.35000     110.00000     269.00000
         3     24329   F   0.35000     110.00000      91.00000
         3     24333   F   0.35000     110.00000     269.00000
         3     24337   F   0.35000     110.00000      91.00000
         3     24341   F   0.35000     110.00000     269.00000
         3     24345   F   0.35000     110.00000      91.00000
         3     24349   F   0.35000     110.00000     269.00000
         3     24353   F   0.35000     110.00000      91.00000
         3     24357   F   0.35000     110.00000     269.00000
         3     24361   F   0.35000     110.00000      91.00000
         3     24365   F   0.35000     110.00000     269.00000
         3     24369   F   0.35000     110.00000      91.00000
         3     24373   F   0.35000     110.00000     269.00000
         3     24377   F   0.35000     110.00000      91.00000
         3     24381   F   0.35000     110.00000     269.00000
         3     24385   F   0.35000     110.00000      91.00000
         3     24389   F   0.35000     110.00000     269.00000
         3     24393   F   0.35000     110.00000      91.00000
         3     24397   F   0.35000     110.00000     269.00000
         3     24401   F   0.35000     110.00000      91.00000
         3     24405   F   0.35000     110.00000     269.00000
         3     24409   F   0.35000     110.00000      91.00000
         3     24413   F   0.35000     110.00000     269.00000
         3     24417   F   0.35000     110.00000      91.00000
         3     24421   F   0.35000     110.00000     269.00000
         3     24425   F   0.35000     110.00000      91.00000
         3     24429   F   0.35000     110.00000     269.00000
         3     24433   F   0.35000     110.00000      91.00000
         3     24437   F   0.35000     110.00000     269.00000
         3     24441   F   0.35000     110.00000      91.00000
         3     24445   F   0.35000     110.00000     269.00000
         3     24449   F   0.35000     110.00000      91.00000
         3     24453   F   0.35000     110.00000     269.00000
         3     24457   F   0.35000     110.00000      91.00000
         3     24461   F   0.35000     110.00000     269.00000
         3     24465   F   0.35000     110.00000      91.00000
         3     24469   F   0.35000     110.00000     269.00000
         3     24473   F   0.35000     110.00000      91.00000
         3     24477   F   0.35000     110.00000     269.00000
         3     24481   F   0.35000     110.00000      91.00000
         3     24485   F   0.35000     110.00000     269.00000
         3     24489   F   0.35000     110.00000      91.00000
         3     24493   F   0.35000     110.00000     269.00000
         3     24497   F   0.35000     110.00000      91.00000
         3     24501   F   0.35000     110.00000     269.00000
         3     24505   F   0.35000     110.00000      91.00000
         3     24509   F   0.35000     110.00000     269.00000
         3     24513   F   0.35000     110.00000      91.00000
         3     24517   F   0.35000     110.00000     269.00000
         3     24521   F   0.35000     110.00000      91.00000
         3     24525   F   0.35000     110.00000     269.00000
         3     24529   F   0.35000     110.00000      91.00000
         3     24533   F   0.35000     110.00000     269.00000
         3     24537   F   0.35000     110.00000      91.00000
         3     24541   F   0.35000     110.00000     269.00000
         3     24545   F   0.35000     110.00000      91.00000
         3     24549   F   0.35000     110.00000     269.00000
         3     24553   F   0.35000     110.00000      91.00000
         3     24557   F   0.35000     110.00000     269.00000
         3     24561   F   0.35000     110.00000      91.00000
         3     24565   F   0.35000     110.00000     269.00000
         3     24569   F   0.35000     110.00000      91.00000
         3     24573   F   0.35000     110.00000     269.00000
         3     24577   F   0.35000     110.00000      91.00000
         3     24581   F   0.35000     110.00000     269.00000
         3     24585   F   0.35000     110.00000      91.00000
         3     24589   F   0.35000     110.00000     269.00000
         3     24593   F   0.35000     110.00000      91.00000
         3     24597   F   0.35000     110.00000     269.00000
         3     24601   F   0.35000     110.00000      91.00000
         3     24605   F   0.35000     110.00000     269.00000
         3     24609   F   0.35000     110.00000      91.00000
         3     24613   F   0.35000     110.00000     269.00000
         3     24617   F   0.35000     110.00000      91.00000
         3     24621   F   0.35000     110.00000     269.00000
         3     24625   F   0.35000     110.00000      91.00000
         3     24629   F   0.35000     110.00000     269.00000
         3     24633   F   0.35000     110.00000      91.00000
         3     24637   F   0.35000     110.00000     269.00000
         3     24641   F   0.35000     110.00000      91.00000
         3     24645   F   0.35000     110.00000     269.00000
         3     24649   F   0.35000     110.00000      91.00000
         3     24653   F   0.35000     110.00000     269.00000
         3     24657   F   0.35000     110.00000      91.00000
         3     24661   F   0.35000     110.00000     269.00000
         3     24665   F   0.35000     110.00000      91.00000
         3     24669   F   0.35000     110.00000     269.00000
         3     24673   F   0.35000     110.00000      91.00000
         3     24677   F   0.35000     110.00000     269.00000
         3     24681   F   0.35000     110.00000      91.00000
         3     24685   F   0.35000     110.00000     269.00000
         3     24689   F   0.35000     110.00000      91.00000
         3     24693   F   0.35000     110.00000     269.00000
         3     24697   F   0.35000     110.00000      91.00000
         3     24701   F   0.35000     110.00000     269.00000
         3     24705   F   0.35000     110.00000      91.00000
         3     24709   F   0.35000     110.00000     269.00000
         3     24713   F   0.35000     110.00000      91.00000
         3     24717   F   0.35000     110.00000     269.00000
         3     24721   F   0.35000     110.00000      91.00000
         3     24725   F   0.35000     110.00000     269.00000
         3     24729   F   0.35000     110.00000      91.00000
         3     24733   F   0.35000     110.00000     269.00000
         3     24737   F   0.35000     110.00000      91.00000
         3     24741   F   0.35000     110.00000     269.00000
         3     24745   F   0.35000     110.00000      91.00000
         3     24749   F   0.35000     110.00000     269.00000
         3     24753   F   0.35000     110.00000      91.00000
         3     24757   F   0.35000     110.00000     269.00000
         3     24761   F   0.35000     110.00000      91.00000
         3     24765   F   0.35000     110.00000     269.00000
         3     24769   F   0.35000     110.00000      91.00000
         3     24773   F   0.35000     110.00000     269.00000
         3     24777   F   0.35000     110.00000      91.00000
         3     24781   F   0.35000     110.00000     269.00000
         3     24785   F   0.35000     110.00000      91.00000
         3     24789   F   0.35000     110.00000     269.00000
         3     24793   F   0.35000     110.00000      91.00000
         3     24797   F   0.35000     110.00000     269.00000
         3     24801   F   0.35000     110.00000      91.00000
         3     24805   F   0.35000     110.00000     269.00000
         3     24809   F   0.35000     110.00000      91.00000
         3     24813   F   0.35000     110.00000     269.00000
         3     24817   F   0.35000     110.00000      91.00000
         3     24821   F   0.35000     110.00000     269.00000
         3     24825   F   0.35000     110.00000      91.00000
         3     24829   F   0.35000     110.00000     269.00000
         3     24833   F   0.35000     110.00000      91.00000
         3     24837   F   0.35000     110.00000     269.00000
         3     24841   F   0.35000     110.00000      91.00000
         3     24845   F   0.35000     110.00000     269.00000
         3     24849   F   0.35000     110.00000      91.00000
         3     24853   F   0.35000     110.00000     269.00000
         3     24857   F   0.35000     110.00000      91.00000
         3     24861   F   0.35000     110.00000     269.00000
         3     24865   F   0.35000     110.00000      91.00000
         3     24869   F   0.35000     110.00000     269.00000
         3     24873   F   0.35000     110.00000      91.00000
         3     24877   F   0.35000     110.00000     269.00000
         3     24881   F   0.35000     110.00000      91.00000
         3     24885   F   0.35000     110.00000     269.00000
         3     24889   F   0.35000     110.00000      91.00000
         3     24893   F   0.35000     110.00000     269.00000
         3     24897   F   0.35000     110.00000      91.00000
         3     24901   F   0.35000     110.00000     269.00000
         3     24905   F   0.35000     110.00000      91.00000
         3     24909   F   0.35000     110.00000     269.00000
         3     24913   F   0.35000     110.00000      91.00000
         3     24917   F   0.35000     110.00000     269.00000
         3     24921   F   0.35000     110.00000      91.00000
         3     24925   F   0.35000     110.00000     269.00000
         3     24929   F   0.35000     110.00000      91.00000
         3     24933   F   0.35000     110.00000     269.00000
         3     24937   F   0.35000     110.00000      91.00000
         3     24941   F   0.35000     110.00000     269.00000
         3     24945   F   0.35000     110.00000      91.00000
         3     24949   F   0.35000     110.00000     269.00000
         3     24953   F   0.35000     110.00000      91.00000
         3     24957   F   0.35000     110.00000     269.00000
         3     24961   F   0.35000     110.00000      91.00000
         3     24965   F   0.35000     110.00000     269.00000
         3     24969   F   0.35000     110.00000      91.00000
         3     24973   F   0.35000     110.00000     269.00000
         3     24977   F   0.35000     110.00000      91.00000
         3     24981   F   0.35000     110.00000     269.00000
         3     24985   F   0.35000     110.00000      91.00000
         3     24989   F   0.35000     110.00000     269.00000
         3     24993   F   0.35000     110.00000      91.00000
         3     24997   F   0.35000     110.00000     269.00000
         3     25001   F   0.35000     110.00000      91.00000
         3     25005   F   0.35000     110.00000     269.00000
         3     25009   F   0.35000     110.00000      91.00000
         3     25013   F   0.35000     110.00000     269.00000
         3     25017   F   0.35000     110.00000      91.00000
         3     25021   F   0.35000     110.00000     269.00000
         3     25025   F   0.35000     110.00000      91.00000
         3     25029   F   0.35000     110.00000     269.00000
         3     25033   F   0.35000     110.00000      91.00000
         3     25037   F   0.35000     110.00000     269.00000
         3     25041   F   0.35000     110.00000      91.00000
         3     25045   F   0.35000     110.00000     269.00000
         3     25049   F   0.35000     110.00000      91.00000
         3     25053   F   0.35000     110.00000     269.00000
         3     25057   F   0.35000     110.00000      91.00000
         3     25061   F   0.35000     110.00000     269.00000
         3     25065   F   0.35000     110.00000      91.00000
         3     25069   F   0.35000     110.00000     269.00000
         3     25073   F   0.35000     110.00000      91.00000
         3     25077   F   0.35000     110.00000     269.00000
         3     25081   F   0.35000     110.00000      91.00000
         3     25085   F   0.35000     110.00000     269.00000
         3     25089   F   0.35000     110.00000      91.00000
         3     25093   F   0.35000     110.00000     269.00000
         3     25097   F   0.35000     110.00000      91.00000
         3     25101   F   0.35000     110.00000     269.00000
         3     25105   F   0.35000     110.00000      91.00000
         3     25109   F   0.35000     110.00000     269.00000
         3     25113   F   0.35000     110.00000      91.00000
         3     25117   F   0.35000     110.00000     269.00000
         3     25121   F   0.35000     110.00000      91.00000
         3     25125   F   0.35000     110.00000     269.00000
         3     25129   F   0.35000     110.00000      91.00000
         3     25133   F   0.35000     110.00000     269.00000
         3     25137   F   0.35000     110.00000      91.00000
         3     25141   F   0.35000     110.00000     269.00000
         3     25145   F   0.35000     110.00000      91.00000
         3     25149   F   0.35000     110.00000     269.00000
         3     25153   F   0.35000     110.00000      91.00000
         3     25157   F   0.35000     110.00000     269.00000
         3     25161   F   0.35000     110.00000      91.00000
         3     25165   F   0.35000     110.00000     269.00000
         3     25169   F   0.35000     110.00000      91.00000
         3     25173   F   0.35000     110.00000     269.00000
         3     25177   F   0.35000     110.00000      91.00000
         3     25181   F   0.35000     110.00000     269.00000
         3     25185   F   0.35000     110.00000      91.00000
         3     25189   F   0.35000     110.00000     269.00000
         3     25193   F   0.35000     110.00000      91.00000
         3     25197   F   0.35000     110.00000     269.00000
         3     25201   F   0.35000     110.00000      91.00000
         3     25205   F   0.35000     110.00000     269.00000
         3     25209   F   0.35000     110.00000      91.00000
         3     25213   F   0.35000     110.00000     269.00000
         3     25217   F   0.35000     110.00000      91.00000
         3     25221   F   0.35000     110.00000     269.00000
         3     25225   F   0.35000     110.00000      91.00000
         3     25229   F   0.35000     110.00000     269.00000
         3     25233   F   0.35000     110.00000      91.00000
         3     25237   F   0.35000     110.00000     269.00000
         3     25241   F   0.35000     110.00000      91.00000
         3     25245   F   0.35000     110.00000     269.00000
         3     25249   F   0.35000     110.00000      91.00000
         3     25253   F   0.35000     110.00000     269.00000
         3     25257   F   0.35000     110.00000      91.00000
         3     25261   F   0.35000     110.00000     269.00000
         3     25265   F   0.35000     110.00000      91.00000
         3     25269   F   0.35000     110.00000     269.00000
         3     25273   F   0.35000     110.00000      91.00000
         3     25277   F   0.35000     110.00000     269.00000
         3     25281   F   0.35000     110.00000      91.00000
         3     25285   F   0.35000     110.00000     269.00000
         3     25289   F   0.35000     110.00000      91.00000
         3     25293   F   0.35000     110.00000     269.00000
         3     25297   F   0.35000     110.00000      91.00000
         3     25301   F   0.35000     110.00000     269.00000
         3     25305   F   0.35000     110.00000      91.00000
         3     25309   F   0.35000     110.00000     269.00000
         3     25313   F   0.35000     110.00000      91.00000
         3     25317   F   0.35000     110.00000     269.00000
         3     25321   F   0.35000     110.00000      91.00000
         3     25325   F   0.35000     110.00000     269.00000
         3     25329   F   0.35000     110.00000      91.00000
         3     25333   F   0.35000     110.00000     269.00000
         3     25337   F   0.35000     110.00000      91.00000
         3     25341   F   0.35000     110.00000     269.00000
         3     25345   F   0.35000     110.00000      91.00000
         3     25349   F   0.35000     110.00000     269.00000
         3     25353   F   0.35000     110.00000      91.00000
         3     25357   F   0.35000     110.00000     269.00000
         3     25361   F   0.35000     110.00000      91.00000
         3     25365   F   0.35000     110.00000     269.00000
         3     25369   F   0.35000     110.00000      91.00000
         3     25373   F   0.35000     110.00000     269.00000
         3     25377   F   0.35000     110.00000      91.00000
         3     25381   F   0.35000     110.00000     269.00000
         3     25385   F   0.35000     110.00000      91.00000
         3     25389   F   0.35000     110.00000     269.00000
         3     25393   F   0.35000     110.00000      91.00000
         3     25397   F   0.35000     110.00000     269.00000
         3     25401   F   0.35000     110.00000      91.00000
         3     25405   F   0.35000     110.00000     269.00000
         3     25409   F   0.35000     110.00000      91.00000
         3     25413   F   0.35000     110.00000     269.00000
         3     25417   F   0.35000     110.00000      91.00000
         3     25421   F   0.35000     110.00000     269.00000
         3     25425   F   0.35000     110.00000      91.00000
         3     25429   F   0.35000     110.00000     269.00000
         3     25433   F   0.35000     110.00000      91.00000
         3     25437   F   0.35000     110.00000     269.00000
         3     25441   F   0.35000     110.00000      91.00000
         3     25445   F   0.35000     110.00000     269.00000
         3     25449   F   0.35000     110.00000      91.00000
         3     25453   F   0.35000     110.00000     269.00000
         3     25457   F   0.35000     110.00000      91.00000
         3     25461   F   0.35000     110.00000     269.00000
         3     25465   F   0.35000     110.00000      91.00000
         3     25469   F   0.35000     110.00000     269.00000
         3     25473   F   0.35000     110.00000      91.00000
         3     25477   F   0.35000     110.00000     269.00000
         3     25481   F   0.35000     110.00000      91.00000
         3     25485   F   0.35000     110.00000     269.00000
         3     25489   F   0.35000     110.00000      91.00000
         3     25493   F   0.35000     110.00000     269.00000
         3     25497   F   0.35000     110.00000      91.00000
         3     25501   F   0.35000     110.00000     269.00000
         3     25505   F   0.35000     110.00000      91.00000
         3     25509   F   0.35000     110.00000     269.00000
         3     25513   F   0.35000     110.00000      91.00000
         3     25517   F   0.35000     110.00000     269.00000
         3     25521   F   0.35000     110.00000      91.00000
         3     25525   F   0.35000     110.00000     269.00000
         3     25529   F   0.35000     110.00000      91.00000
         3     25533   F   0.35000     110.00000     269.00000
         3     25537   F   0.35000     110.00000      91.00000
         3     25541   F   0.35000     110.00000     269.00000
         3     25545   F   0.35000     110.00000      91.00000
         3     25549   F   0.35000     110.00000     269.00000
         3     25553   F   0.35000     110.00000      91.00000
         3     25557   F   0.35000     110.00000     269.00000
         3     25561   F   0.35000     110.00000      91.00000
         3     25565   F   0.35000     110.00000     269.00000
         3     25569   F   0.35000     110.00000      91.00000
         3     25573   F   0.35000     110.00000     269.00000
         3     25577   F   0.35000     110.00000      91.00000
         3     25581   F   0.35000     110.00000     269.00000
         3     25585   F   0.35000     110.00000      91.00000
         3     25589   F   0.35000     110.00000     269.00000
         3     25593   F   0.35000     110.00000      91.00000
         3     25597   F   0.35000     110.00000     269.00000
         3     25601   F   0.35000     110.00000      91.00000
         3     25605   F   0.35000     110.00000     269.00000
         3     25609   F   0.35000     110.00000      91.00000
         3     25613   F   0.35000     110.00000     269.00000
         3     25617   F   0.35000     110.00000      91.00000
         3     25621   F   0.35000     110.00000     269.00000
         3     25625   F   0.35000     110.00000      91.00000
         3     25629   F   0.35000     110.00000     269.00000
         3     25633   F   0.35000     110.00000      91.00000
         3     25637   F   0.35000     110.00000     269.00000
         3     25641   F   0.35000     110.00000      91.00000
         3     25645   F   0.35000     110.00000     269.00000
         3     25649   F   0.35000     110.00000      91.00000
         3     25653   F   0.35000     110.00000     269.00000
         3     25657   F   0.35000     110.00000      91.00000
         3     25661   F   0.35000     110.00000     269.00000
         3     25665   F   0.35000     110.00000      91.00000
         3     25669   F   0.35000     110.00000     269.00000
         3     25673   F   0.35000     110.00000      91.00000
         3     25677   F   0.35000     110.00000     269.00000
         3     25681   F   0.35000     110.00000      91.00000
         3     25685   F   0.35000     110.00000     269.00000
         3     25689   F   0.35000     110.00000      91.00000
         3     25693   F   0.35000     110.00000     269.00000
         3     25697   F   0.35000     110.00000      91.00000
         3     25701   F   0.35000     110.00000     269.00000
         3     25705   F   0.35000     110.00000      91.00000
         3     25709   F   0.35000     110.00000     269.00000
         3     25713   F   0.35000     110.00000      91.00000
         3     25717   F   0.35000     110.00000     269.00000
         3     25721   F   0.35000     110.00000      91.00000
         3     25725   F   0.35000     110.00000     269.00000
         3     25729   F   0.35000     110.00000      91.00000
         3     25733   F   0.35000     110.00000     269.00000
         3     25737   F   0.35000     110.00000      91.00000
         3     25741   F   0.35000     110.00000     269.00000
         3     25745   F   0.35000     110.00000      91.00000
         3     25749   F   0.35000     110.00000     269.00000
         3     25753   F   0.35000     110.00000      91.00000
         3     25757   F   0.35000     110.00000     269.00000
         3     25761   F   0.35000     110.00000      91.00000
         3     25765   F   0.35000     110.00000     269.00000
         3     25769   F   0.35000     110.00000      91.00000
         3     25773   F   0.35000     110.00000     269.00000
         3     25777   F   0.35000     110.00000      91.00000
         3     25781   F   0.35000     110.00000     269.00000
         3     25785   F   0.35000     110.00000      91.00000
         3     25789   F   0.35000     110.00000     269.00000
         3     25793   F   0.35000     110.00000      91.00000
         3     25797   F   0.35000     110.00000     269.00000
         3     25801   F   0.35000     110.00000      91.00000
         3     25805   F   0.35000     110.00000     269.00000
         3     25809   F   0.35000     110.00000      91.00000
         3     25813   F   0.35000     110.00000     269.00000
         3     25817   F   0.35000     110.00000      91.00000
         3     25821   F   0.35000     110.00000     269.00000
         3     25825   F   0.35000     110.00000      91.00000
         3     25829   F   0.35000     110.00000     269.00000
         3     25833   F   0.35000     110.00000      91.00000
         3     25837   F   0.35000     110.00000     269.00000
         3     25841   F   0.35000     110.00000      91.00000
         3     25845   F   0.35000     110.00000     269.00000
         3     25849   F   0.35000     110.00000      91.00000
         3     25853   F   0.35000     110.00000     269.00000
         3     25857   F   0.35000     110.00000      91.00000
         3     25861   F   0.35000     110.00000     269.00000
         3     25865   F   0.35000     110.00000      91.00000
         3     25869   F   0.35000     110.00000     269.00000
         3     25873   F   0.35000     110.00000      91.00000
         3     25877   F   0.35000     110.00000     269.00000
         3     25881   F   0.35000     110.00000      91.00000
         3     25885   F   0.35000     110.00000     269.00000
         3     25889   F   0.35000     110.00000      91.00000
         3     25893   F   0.35000     110.00000     269.00000
         3     25897   F   0.35000     110.00000      91.00000
         3     25901   F   0.35000     110.00000     269.00000
         3     25905   F   0.35000     110.00000      91.00000
         3     25909   F   0.35000     110.00000     269.00000
         3     25913   F   0.35000     110.00000      91.00000
         3     25917   F   0.35000     110.00000     269.00000
         3     25921   F   0.35000     110.00000      91.00000
         3     25925   F   0.35000     110.00000     269.00000
         3     25929   F   0.35000     110.00000      91.00000
         3     25933   F   0.35000     110.00000     269.00000
         3     25937   F   0.35000     110.00000      91.00000
         3     25941   F   0.35000     110.00000     269.00000
         3     25945   F   0.35000     110.00000      91.00000
         3     25949   F   0.35000     110.00000     269.00000
         3     25953   F   0.35000     110.00000      91.00000
         3     25957   F   0.35000     110.00000     269.00000
         3     25961   F   0.35000     110.00000      91.00000
         3     25965   F   0.35000     110.00000     269.00000
         3     25969   F   0.35000     110.00000      91.00000
         3     25973   F   0.35000     110.00000     269.00000
         3     25977   F   0.35000     110.00000      91.00000
         3     25981   F   0.35000     110.00000     269.00000
         3     25985   F   0.35000     110.00000      91.00000
         3     25989   F   0.35000     110.00000     269.00000
         3     25993   F   0.35000     110.00000      91.00000
         3     25997   F   0.35000     110.00000     269.00000
         3     26001   F   0.35000     110.00000      91.00000
         3     26005   F   0.35000     110.00000     269.00000
         3     26009   F   0.35000     110.00000      91.00000
         3     26013   F   0.35000     110.00000     269.00000
         3     26017   F   0.35000     110.00000      91.00000
         3     26021   F   0.35000     110.00000     269.00000
         3     26025   F   0.35000     110.00000      91.00000
         3     26029   F   0.35000     110.00000     269.00000
         3     26033   F   0.35000     110.00000      91.00000
         3     26037   F   0.35000     110.00000     269.00000
         3     26041   F   0.35000     110.00000      91.00000
         3     26045   F   0.35000     110.00000     269.00000
         3     26049   F   0.35000     110.00000      91.00000
         3     26053   F   0.35000     110.00000     269.00000
         3     26057   F   0.35000     110.00000      91.00000
         3     26061   F   0.35000     110.00000     269.00000
         3     26065   F   0.35000     110.00000      91.00000
         3     26069   F   0.35000     110.00000     269.00000
         3     26073   F   0.35000     110.00000      91.00000
         3     26077   F   0.35000     110.00000     269.00000
         3     26081   F   0.35000     110.00000      91.00000
         3     26085   F   0.35000     110.00000     269.00000
         3     26089   F   0.35000     110.00000      91.00000
         3     26093   F   0.35000     110.00000     269.00000
         3     26097   F   0.35000     110.00000      91.00000
         3     26101   F   0.35000     110.00000     269.00000
         3     26105   F   0.35000     110.00000      91.00000
         3     26109   F   0.35000     110.00000     269.00000
         3     26113   F   0.35000     110.00000      91.00000
         3     26117   F   0.35000     110.00000     269.00000
         3     26121   F   0.35000     110.00000      91.00000
         3     26125   F   0.35000     110.00000     269.00000
         3     26129   F   0.35000     110.00000      91.00000
         3     26133   F   0.35000     110.00000     269.00000
         3     26137   F   0.35000     110.00000      91.00000
         3     26141   F   0.35000     110.00000     269.00000
         3     26145   F   0.35000     110.00000      91.00000
         3     26149   F   0.35000     110.00000     269.00000
         3     26153   F   0.35000     110.00000      91.00000
         3     26157   F   0.35000     110.00000     269.00000
         3     26161   F   0.35000     110.00000      91.00000
         3     26165   F   0.35000     110.00000     269.00000
         3     26169   F   0.35000     110.00000      91.00000
         3     26173   F   0.35000     110.00000     269.00000
         3     26177   F   0.35000     110.00000      91.00000
         3     26181   F   0.35000     110.00000     269.00000
         3     26185   F   0.35000     110.00000      91.00000
         3     26189   F   0.35000     110.00000     269.00000
         3     26193   F   0.35000     110.00000      91.00000
         3     26197   F   0.35000     110.00000     269.00000
         3     26201   F   0.35000     110.00000      91.00000
         3     26205   F   0.35000     110.00000     269.00000
         3     26209   F   0.35000     110.00000      91.00000
         3     26213   F   0.35000     110.00000     269.00000
         3     26217   F   0.35000     110.00000      91.00000
         3     26221   F   0.35000     110.00000     269.00000
         3     26225   F   0.35000     110.00000      91.00000
         3     26229   F   0.35000     110.00000     269.00000
         3     26233   F   0.35000     110.00000      91.00000
         3     26237   F   0.35000     110.00000     269.00000
         3     26241   F   0.35000     110.00000      91.00000
         3     26245   F   0.35000     110.00000     269.00000
         3     26249   F   0.35000     110.00000      91.00000
         3     26253   F   0.35000     110.00000     269.00000
         3     26257   F   0.35000     110.00000      91.00000
         3     26261   F   0.35000     110.00000     269.00000
         3     26265   F   0.35000     110.00000      91.00000
         3     26269   F   0.35000     110.00000     269.00000
         3     26273   F   0.35000     110.00000      91.00000
         3     26277   F   0.35000     110.00000     269.00000
         3     26281   F   0.35000     110.00000      91.00000
         3     26285   F   0.35000     110.00000     269.00000
         3     26289   F   0.35000     110.00000      91.00000
         3     26293   F   0.35000     110.00000     269.00000
         3     26297   F   0.35000     110.00000      91.00000
         3     26301   F   0.35000     110.00000     269.00000
         3     26305   F   0.35000     110.00000      91.00000
         3     26309   F   0.35000     110.00000     269.00000
         3     26313   F   0.35000     110.00000      91.00000
         3     26317   F   0.35000     110.00000     269.00000
         3     26321   F   0.35000     110.00000      91.00000
         3     26325   F   0.35000     110.00000     269.00000
         3     26329   F   0.35000     110.00000      91.00000
         3     26333   F   0.35000     110.00000     269.00000
         3     26337   F   0.35000     110.00000      91.00000
         3     26341   F   0.35000     110.00000     269.00000
         3     26345   F   0.35000     110.00000      91.00000
         3     26349   F   0.35000     110.00000     269.00000
         3     26353   F   0.35000     110.00000      91.00000
         3     26357   F   0.35000     110.00000     269.00000
         3     26361   F   0.35000     110.00000      91.00000
         3     26365   F   0.35000     110.00000     269.00000
         3     26369   F   0.35000     110.00000      91.00000
         3     26373   F   0.35000     110.00000     269.00000
         3     26377   F   0.35000     110.00000      91.00000
         3     26381   F   0.35000     110.00000     269.00000
         3     26385   F   0.35000     110.00000      91.00000
         3     26389   F   0.35000     110.00000     269.00000
         3     26393   F   0.35000     110.00000      91.00000
         3     26397   F   0.35000     110.00000     269.00000
         3     26401   F   0.35000     110.00000      91.00000
         3     26405   F   0.35000     110.00000     269.00000
         3     26409   F   0.35000     110.00000      91.00000
         3     26413   F   0.35000     110.00000     269.00000
         3     26417   F   0.35000     110.00000      91.00000
         3     26421   F   0.35000     110.00000     269.00000
         3     26425   F   0.35000     110.00000      91.00000
         3     26429   F   0.35000     110.00000     269.00000
         3     26433   F   0.35000     110.00000      91.00000
         3     26437   F   0.35000     110.00000     269.00000
         3     26441   F   0.35000     110.00000      91.00000
         3     26445   F   0.35000     110.00000     269.00000
         3     26449   F   0.35000     110.00000      91.00000
         3     26453   F   0.35000     110.00000     269.00000
         3     26457   F   0.35000     110.00000      91.00000
         3     26461   F   0.35000     110.00000     269.00000
         3     26465   F   0.35000     110.00000      91.00000
         3     26469   F   0.35000     110.00000     269.00000
         3     26473   F   0.35000     110.00000      91.00000
         3     26477   F   0.35000     110.00000     269.00000
         3     26481   F   0.35000     110.00000      91.00000
         3     26485   F   0.35000     110.00000     269.00000
         3     26489   F   0.35000     110.00000      91.00000
         3     26493   F   0.35000     110.00000     269.00000
         3     26497   F   0.35000     110.00000      91.00000
         3     26501   F   0.35000     110.00000     269.00000
         3     26505   F   0.35000     110.00000      91.00000
         3     26509   F   0.35000     110.00000     269.00000
         3     26513   F   0.35000     110.00000      91.00000
         3     26517   F   0.35000     110.00000     269.00000
         3     26521   F   0.35000     110.00000      91.00000
         3     26525   F   0.35000     110.00000     269.00000
         3     26529   F   0.35000     110.00000      91.00000
         3     26533   F   0.35000     110.00000     269.00000
         3     26537   F   0.35000     110.00000      91.00000
         3     26541   F   0.35000     110.00000     269.00000
         3     26545   F   0.35000     110.00000      91.00000
         3     26549   F   0.35000     110.00000     269.00000
         3     26553   F   0.35000     110.00000      91.00000
         3     26557   F   0.35000     110.00000     269.00000
         3     26561   F   0.35000     110.00000      91.00000
         3     26565   F   0.35000     110.00000     269.00000
         3     26569   F   0.35000     110.00000      91.00000
         3     26573   F   0.35000     110.00000     269.00000
         3     26577   F   0.35000     110.00000      91.00000
         3     26581   F   0.35000     110.00000     269.00000
         3     26585   F   0.35000     110.00000      91.00000
         3     26589   F   0.35000     110.00000     269.00000
         3     26593   F   0.35000     110.00000      91.00000
         3     26597   F   0.35000     110.00000     269.00000
         3     26601   F   0.35000     110.00000      91.00000
         3     26605   F   0.35000     110.00000     269.00000
         3     26609   F   0.35000     110.00000      91.00000
         3     26613   F   0.35000     110.00000     269.00000
         3     26617   F   0.35000     110.00000      91.00000
         3     26621   F   0.35000     110.00000     269.00000
         3     26625   F   0.35000     110.00000      91.00000
         3     26629   F   0.35000     110.00000     269.00000
         3     26633   F   0.35000     110.00000      91.00000
         3     26637   F   0.35000     110.00000     269.00000
         3     26641   F   0.35000     110.00000      91.00000
         3     26645   F   0.35000     110.00000     269.00000
         3     26649   F   0.35000     110.00000      91.00000
         3     26653   F   0.35000     110.00000     269.00000
         3     26657   F   0.35000     110.00000      91.00000
         3     26661   F   0.35000     110.00000     269.00000
         3     26665   F   0.35000     110.00000      91.00000
         3     26669   F   0.35000     110.00000     269.00000
         3     26673   F   0.35000     110.00000      91.00000
         3     26677   F   0.35000     110.00000     269.00000
         3     26681   F   0.35000     110.00000      91.00000
         3     26685   F   0.35000     110.00000     269.00000
         3     26689   F   0.35000     110.00000      91.00000
         3     26693   F   0.35000     110.00000     269.00000
         3     26697   F   0.35000     110.00000      91.00000
         3     26701   F   0.35000     110.00000     269.00000
         3     26705   F   0.35000     110.00000      91.00000
         3     26709   F   0.35000     110.00000     269.00000
         3     26713   F   0.35000     110.00000      91.00000
         3     26717   F   0.35000     110.00000     269.00000
         3     26721   F   0.35000     110.00000      91.00000
         3     26725   F   0.35000     110.00000     269.00000
         3     26729   F   0.35000     110.00000      91.00000
         3     26733   F   0.35000     110.00000     269.00000
         3     26737   F   0.35000     110.00000      91.00000
         3     26741   F   0.35000     110.00000     269.00000
         3     26745   F   0.35000     110.00000      91.00000
         3     26749   F   0.35000     110.00000     269.00000
         3     26753   F   0.35000     110.00000      91.00000
         3     26757   F   0.35000     110.00000     269.00000
         3     26761   F   0.35000     110.00000      91.00000
         3     26765   F   0.35000     110.00000     269.00000
         3     26769   F   0.35000     110.00000      91.00000
         3     26773   F   0.35000     110.00000     269.00000
         3     26777   F   0.35000     110.00000      91.00000
         3     26781   F   0.35000     110.00000     269.00000
         3     26785   F   0.35000     110.00000      91.00000
         3     26789   F   0.35000     110.00000     269.00000
         3     26793   F   0.35000     110.00000      91.00000
         3     26797   F   0.35000     110.00000     269.00000
         3     26801   F   0.35000     110.00000      91.00000
         3     26805   F   0.35000     110.00000     269.00000
         3     26809   F   0.35000     110.00000      91.00000
         3     26813   F   0.35000     110.00000     269.00000
         3     26817   F   0.35000     110.00000      91.00000
         3     26821   F   0.35000     110.00000     269.00000
         3     26825   F   0.35000     110.00000      91.00000
         3     26829   F   0.35000     110.00000     269.00000
         3     26833   F   0.35000     110.00000      91.00000
         3     26837   F   0.35000     110.00000     269.00000
         3     26841   F   0.35000     110.00000      91.00000
         3     26845   F   0.35000     110.00000     269.00000
         3     26849   F   0.35000     110.00000      91.00000
         3     26853   F   0.35000     110.00000     269.00000
         3     26857   F   0.35000     110.00000      91.00000
         3     26861   F   0.35000     110.00000     269.00000
         3     26865   F   0.35000     110.00000      91.00000
         3     26869   F   0.35000     110.00000     269.00000
         3     26873   F   0.35000     110.00000      91.00000
         3     26877   F   0.35000     110.00000     269.00000
         3     26881   F   0.35000     110.00000      91.00000
         3     26885   F   0.35000     110.00000     269.00000
         3     26889   F   0.35000     110.00000      91.00000
         3     26893   F   0.35000     110.00000     269.00000
         3     26897   F   0.35000     110.00000      91.00000
         3     26901   F   0.35000     110.00000     269.00000
         3     26905   F   0.35000     110.00000      91.00000
         3     26909   F   0.35000     110.00000     269.00000
         3     26913   F   0.35000     110.00000      91.00000
         3     26917   F   0.35000     110.00000     269.00000
         3     26921   F   0.35000     110.00000      91.00000
         3     26925   F   0.35000     110.00000     269.00000
         3     26929   F   0.35000     110.00000      91.00000
         3     26933   F   0.35000     110.00000     269.00000
         3     26937   F   0.35000     110.00000      91.00000
         3     26941   F   0.35000     110.00000     269.00000
         3     26945   F   0.35000     110.00000      91.00000
         3     26949   F   0.35000     110.00000     269.00000
         3     26953   F   0.35000     110.00000      91.00000
         3     26957   F   0.35000     110.00000     269.00000
         3     26961   F   0.35000     110.00000      91.00000
         3     26965   F   0.35000     110.00000     269.00000
         3     26969   F   0.35000     110.00000      91.00000
         3     26973   F   0.35000     110.00000     269.00000
         3     26977   F   0.35000     110.00000      91.00000
         3     26981   F   0.35000     110.00000     269.00000
         3     26985   F   0.35000     110.00000      91.00000
         3     26989   F   0.35000     110.00000     269.00000
         3     26993   F   0.35000     110.00000      91.00000
         3     26997   F   0.35000     110.00000     269.00000
         3     27001   F   0.35000     110.00000      91.00000
         3     27005   F   0.35000     110.00000     269.00000
         3     27009   F   0.35000     110.00000      91.00000
         3     27013   F   0.35000     110.00000     269.00000
         3     27017   F   0.35000     110.00000      91.00000
         3     27021   F   0.35000     110.00000     269.00000
         3     27025   F   0.35000     110.00000      91.00000
         3     27029   F   0.35000     110.00000     269.00000
         3     27033   F   0.35000     110.00000      91.00000
         3     27037   F   0.35000     110.00000     269.00000
         3     27041   F   0.35000     110.00000      91.00000
         3     27045   F   0.35000     110.00000     269.00000
         3     27049   F   0.35000     110.00000      91.00000
         3     27053   F   0.35000     110.00000     269.00000
         3     27057   F   0.35000     110.00000      91.00000
         3     27061   F   0.35000     110.00000     269.00000
         3     27065   F   0.35000     110.00000      91.00000
         3     27069   F   0.35000     110.00000     269.00000
         3     27073   F   0.35000     110.00000      91.00000
         3     27077   F   0.35000     110.00000     269.00000
         3     27081   F   0.35000     110.00000      91.00000
         3     27085   F   0.35000     110.00000     269.00000
         3     27089   F   0.35000     110.00000      91.00000
         3     27093   F   0.35000     110.00000     269.00000
         3     27097   F   0.35000     110.00000      91.00000
         3     27101   F   0.35000     110.00000     269.00000
         3     27105   F   0.35000     110.00000      91.00000
         3     27109   F   0.35000     110.00000     269.00000
         3     27113   F   0.35000     110.00000      91.00000
         3     27117   F   0.35000     110.00000     269.00000
         3     27121   F   0.35000     110.00000      91.00000
         3     27125   F   0.35000     110.00000     269.00000
         3     27129   F   0.35000     110.00000      91.00000
         3     27133   F   0.35000     110.00000     269.00000
         3     27137   F   0.35000     110.00000      91.00000
         3     27141   F   0.35000     110.00000     269.00000
         3     27145   F   0.35000     110.00000      91.00000
         3     27149   F   0.35000     110.00000     269.00000
         3     27153   F   0.35000     110.00000      91.00000
         3     27157   F   0.35000     110.00000     269.00000
         3     27161   F   0.35000     110.00000      91.00000
         3     27165   F   0.35000     110.00000     269.00000
         3     27169   F   0.35000     110.00000      91.00000
         3     27173   F   0.35000     110.00000     269.00000
         3     27177   F   0.35000     110.00000      91.00000
         3     27181   F   0.35000     110.00000     269.00000
         3     27185   F   0.35000     110.00000      91.00000
         3     27189   F   0.35000     110.00000     269.00000
         3     27193   F   0.35000     110.00000      91.00000
         3     27197   F   0.35000     110.00000     269.00000
         3     27201   F   0.35000     110.00000      91.00000
         3     27205   F   0.35000     110.00000     269.00000
         3     27209   F   0.35000     110.00000      91.00000
         3     27213   F   0.35000     110.00000     269.00000
         3     27217   F   0.35000     110.00000      91.00000
         3     27221   F   0.35000     110.00000     269.00000
         3     27225   F   0.35000     110.00000      91.00000
         3     27229   F   0.35000     110.00000     269.00000
         3     27233   F   0.35000     110.00000      91.00000
         3     27237   F   0.35000     110.00000     269.00000
         3     27241   F   0.35000     110.00000      91.00000
         3     27245   F   0.35000     110.00000     269.00000
         3     27249   F   0.35000     110.00000      91.00000
         3     27253   F   0.35000     110.00000     269.00000
         3     27257   F   0.35000     110.00000      91.00000
         3     27261   F   0.35000     110.00000     269.00000
         3     27265   F   0.35000     110.00000      91.00000
         3     27269   F   0.35000     110.00000     269.00000
         3     27273   F   0.35000     110.00000      91.00000
         3     27277   F   0.35000     110.00000     269.00000
         3     27281   F   0.35000     110.00000      91.00000
         3     27285   F   0.35000     110.00000     269.00000
         3     27289   F   0.35000     110.00000      91.00000
         3     27293   F   0.35000     110.00000     269.00000
         3     27297   F   0.35000     110.00000      91.00000
         3     27301   F   0.35000     110.00000     269.00000
         3     27305   F   0.35000     110.00000      91.00000
         3     27309   F   0.35000     110.00000     269.00000
         3     27313   F   0.35000     110.00000      91.00000
         3     27317   F   0.35000     110.00000     269.00000
         3     27321   F   0.35000     110.00000      91.00000
         3     27325   F   0.35000     110.00000     269.00000
         3     27329   F   0.35000     110.00000      91.00000
         3     27333   F   0.35000     110.00000     269.00000
         3     27337   F   0.35000     110.00000      91.00000
         3     27341   F   0.35000     110.00000     269.00000
         3     27345   F   0.35000     110.00000      91.00000
         3     27349   F   0.35000     110.00000     269.00000
         3     27353   F   0.35000     110.00000      91.00000
         3     27357   F   0.35000     110.00000     269.00000
         3     27361   F   0.35000     110.00000      91.00000
         3     27365   F   0.35000     110.00000     269.00000
         3     27369   F   0.35000     110.00000      91.00000
         3     27373   F   0.35000     110.00000     269.00000
         3     27377   F   0.35000     110.00000      91.00000
         3     27381   F   0.35000     110.00000     269.00000
         3     27385   F   0.35000     110.00000      91.00000
         3     27389   F   0.35000     110.00000     269.00000
         3     27393   F   0.35000     110.00000      91.00000
         3     27397   F   0.35000     110.00000     269.00000
         3     27401   F   0.35000     110.00000      91.00000
         3     27405   F   0.35000     110.00000     269.00000
         3     27409   F   0.35000     110.00000      91.00000
         3     27413   F   0.35000     110.00000     269.00000
         3     27417   F   0.35000     110.00000      91.00000
         3     27421   F   0.35000     110.00000     269.00000
         3     27425   F   0.35000     110.00000      91.00000
         3     27429   F   0.35000     110.00000     269.00000
         3     27433   F   0.35000     110.00000      91.00000
         3     27437   F   0.35000     110.00000     269.00000
         3     27441   F   0.35000     110.00000      91.00000
         3     27445   F   0.35000     110.00000     269.00000
         3     27449   F   0.35000     110.00000      91.00000
         3     27453   F   0.35000     110.00000     269.00000
         3     27457   F   0.35000     110.00000      91.00000
         3     27461   F   0.35000     110.00000     269.00000
         3     27465   F   0.35000     110.00000      91.00000
         3     27469   F   0.35000     110.00000     269.00000
         3     27473   F   0.35000     110.00000      91.00000
         3     27477   F   0.35000     110.00000     269.00000
         3     27481   F   0.35000     110.00000      91.00000
         3     27485   F   0.35000     110.00000     269.00000
         3     27489   F   0.35000     110.00000      91.00000
         3     27493   F   0.35000     110.00000     269.00000
         3     27497   F   0.35000     110.00000      91.00000
         3     27501   F   0.35000     110.00000     269.00000
         3     27505   F   0.35000     110.00000      91.00000
         3     27509   F   0.35000     110.00000     269.00000
         3     27513   F   0.35000     110.00000      91.00000
         3     27517   F   0.35000     110.00000     269.00000
         3     27521   F   0.35000     110.00000      91.00000
         3     27525   F   0.35000     110.00000     269.00000
         3     27529   F   0.35000     110.00000      91.00000
         3     27533   F   0.35000     110.00000     269.00000
         3     27537   F   0.35000     110.00000      91.00000
         3     27541   F   0.35000     110.00000     269.00000
         3     27545   F   0.35000     110.00000      91.00000
         3     27549   F   0.35000     110.00000     269.00000
         3     27553   F   0.35000     110.00000      91.00000
         3     27557   F   0.35000     110.00000     269.00000
         3     27561   F   0.35000     110.00000      91.00000
         3     27565   F   0.35000     110.00000     269.00000
         3     27569   F   0.35000     110.00000      91.00000
         3     27573   F   0.35000     110.00000     269.00000
         3     27577   F   0.35000     110.00000      91.00000
         3     27581   F   0.35000     110.00000     269.00000
         3     27585   F   0.35000     110.00000      91.00000
         3     27589   F   0.35000     110.00000     269.00000
         3     27593   F   0.35000     110.00000      91.00000
         3     27597   F   0.35000     110.00000     269.00000
         3     27601   F   0.35000     110.00000      91.00000
         3     27605   F   0.35000     110.00000     269.00000
         3     27609   F   0.35000     110.00000      91.00000
         3     27613   F   0.35000     110.00000     269.00000
         3     27617   F   0.35000     110.00000      91.00000
         3     27621   F   0.35000     110.00000     269.00000
         3     27625   F   0.35000     110.00000      91.00000
         3     27629   F   0.35000     110.00000     269.00000
         3     27633   F   0.35000     110.00000      91.00000
         3     27637   F   0.35000     110.00000     269.00000
         3     27641   F   0.35000     110.00000      91.00000
         3     27645   F   0.35000     110.00000     269.00000
         3     27649   F   0.35000     110.00000      91.00000
         3     27653   F   0.35000     110.00000     269.00000
         3     27657   F   0.35000     110.00000      91.00000
         3     27661   F   0.35000     110.00000     269.00000
         3     27665   F   0.35000     110.00000      91.00000
         3     27669   F   0.35000     110.00000     269.00000
         3     27673   F   0.35000     110.00000      91.00000
         3     27677   F   0.35000     110.00000     269.00000
         3     27681   F   0.35000     110.00000      91.00000
         3     27685   F   0.35000     110.00000     269.00000
         3     27689   F   0.35000     110.00000      91.00000
         3     27693   F   0.35000     110.00000     269.00000
         3     27697   F   0.35000     110.00000      91.00000
         3     27701   F   0.35000     110.00000     269.00000
         3     27705   F   0.35000     110.00000      91.00000
         3     27709   F   0.35000     110.00000     269.00000
         3     27713   F   0.35000     110.00000      91.00000
         3     27717   F   0.35000     110.00000     269.00000
         3     27721   F   0.35000     110.00000      91.00000
         3     27725   F   0.35000     110.00000     269.00000
         3     27729   F   0.35000     110.00000      91.00000
         3     27733   F   0.35000     110.00000     269.00000
         3     27737   F   0.35000     110.00000      91.00000
         3     27741   F   0.35000     110.00000     269.00000
         3     27745   F   0.35000     110.00000      91.00000
         3     27749   F   0.35000     110.00000     269.00000
         3     27753   F   0.35000     110.00000      91.00000
         3     27757   F   0.35000     110.00000     269.00000
         3     27761   F   0.35000     110.00000      91.00000
         3     27765   F   0.35000     110.00000     269.00000
         3     27769   F   0.35000     110.00000      91.00000
         3     27773   F   0.35000     110.00000     269.00000
         3     27777   F   0.35000     110.00000      91.00000
         3     27781   F   0.35000     110.00000     269.00000
         3     27785   F   0.35000     110.00000      91.00000
         3     27789   F   0.35000     110.00000     269.00000
         3     27793   F   0.35000     110.00000      91.00000
         3     27797   F   0.35000     110.00000     269.00000
         3     27801   F   0.35000     110.00000      91.00000
         3     27805   F   0.35000     110.00000     269.00000
         3     27809   F   0.35000     110.00000      91.00000
         3     27813   F   0.35000     110.00000     269.00000
         3     27817   F   0.35000     110.00000      91.00000
         3     27821   F   0.35000     110.00000     269.00000
         3     27825   F   0.35000     110.00000      91.00000
         3     27829   F   0.35000     110.00000     269.00000
         3     27833   F   0.35000     110.00000      91.00000
         3     27837   F   0.35000     110.00000     269.00000
         3     27841   F   0.35000     110.00000      91.00000
         3     27845   F   0.35000     110.00000     269.00000
         3     27849   F   0.35000     110.00000      91.00000
         3     27853   F   0.35000     110.00000     269.00000
         3     27857   F   0.35000     110.00000      91.00000
         3     27861   F   0.35000     110.00000     269.00000
         3     27865   F   0.35000     110.00000      91.00000
         3     27869   F   0.35000     110.00000     269.00000
         3     27873   F   0.35000     110.00000      91.00000
         3     27877   F   0.35000     110.00000     269.00000
         3     27881   F   0.35000     110.00000      91.00000
         3     27885   F   0.35000     110.00000     269.00000
         3     27889   F   0.35000     110.00000      91.00000
         3     27893   F   0.35000     110.00000     269.00000
         3     27897   F   0.35000     110.00000      91.00000
         3     27901   F   0.35000     110.00000     269.00000
         3     27905   F   0.35000     110.00000      91.00000
         3     27909   F   0.35000     110.00000     269.00000
         3     27913   F   0.35000     110.00000      91.00000
         3     27917   F   0.35000     110.00000     269.00000
         3     27921   F   0.35000     110.00000      91.00000
         3     27925   F   0.35000     110.00000     269.00000
         3     27929   F   0.35000     110.00000      91.00000
         3     27933   F   0.35000     110.00000     269.00000
         3     27937   F   0.35000     110.00000      91.00000
         3     27941   F   0.35000     110.00000     269.00000
         3     27945   F   0.35000     110.00000      91.00000
         3     27949   F   0.35000     110.00000     269.00000
         3     27953   F   0.35000     110.00000      91.00000
         3     27957   F   0.35000     110.00000     269.00000
         3     27961   F   0.35000     110.00000      91.00000
         3     27965   F   0.35000     110.00000     269.00000
         3     27969   F   0.35000     110.00000      91.00000
         3     27973   F   0.35000     110.00000     269.00000
         3     27977   F   0.35000     110.00000      91.00000
         3     27981   F   0.35000     110.00000     269.00000
         3     27985   F   0.35000     110.00000      91.00000
         3     27989   F   0.35000     110.00000     269.00000
         3     27993   F   0.35000     110.00000      91.00000
         3     27997   F   0.35000     110.00000     269.00000
         3     28001   F   0.35000     110.00000      91.00000
         3     28005   F   0.35000     110.00000     269.00000
         3     28009   F   0.35000     110.00000      91.00000
         3     28013   F   0.35000     110.00000     269.00000
         3     28017   F   0.35000     110.00000      91.00000
         3     28021   F   0.35000     110.00000     269.00000
         3     28025   F   0.35000     110.00000      91.00000
         3     28029   F   0.35000     110.00000     269.00000
         3     28033   F   0.35000     110.00000      91.00000
         3     28037   F   0.35000     110.00000     269.00000
         3     28041   F   0.35000     110.00000      91.00000
         3     28045   F   0.35000     110.00000     269.00000
         3     28049   F   0.35000     110.00000      91.00000
         3     28053   F   0.35000     110.00000     269.00000
         3     28057   F   0.35000     110.00000      91.00000
         3     28061   F   0.35000     110.00000     269.00000
         3     28065   F   0.35000     110.00000      91.00000
         3     28069   F   0.35000     110.00000     269.00000
         3     28073   F   0.35000     110.00000      91.00000
         3     28077   F   0.35000     110.00000     269.00000
         3     28081   F   0.35000     110.00000      91.00000
         3     28085   F   0.35000     110.00000     269.00000
         3     28089   F   0.35000     110.00000      91.00000
         3     28093   F   0.35000     110.00000     269.00000
         3     28097   F   0.35000     110.00000      91.00000
         3     28101   F   0.35000     110.00000     269.00000
         3     28105   F   0.35000     110.00000      91.00000
         3     28109   F   0.35000     110.00000     269.00000
         3     28113   F   0.35000     110.00000      91.00000
         3     28117   F   0.35000     110.00000     269.00000
         3     28121   F   0.35000     110.00000      91.00000
         3     28125   F   0.35000     110.00000     269.00000
         3     28129   F   0.35000     110.00000      91.00000
         3     28133   F   0.35000     110.00000     269.00000
         3     28137   F   0.35000     110.00000      91.00000
         3     28141   F   0.35000     110.00000     269.00000
         3     28145   F   0.35000     110.00000      91.00000
         3     28149   F   0.35000     110.00000     269.00000
         3     28153   F   0.35000     110.00000      91.00000
         3     28157   F   0.35000     110.00000     269.00000
         3     28161   F   0.35000     110.00000      91.00000
         3     28165   F   0.35000     110.00000     269.00000
         3     28169   F   0.35000     110.00000      91.00000
         3     28173   F   0.35000     110.00000     269.00000
         3     28177   F   0.35000     110.00000      91.00000
         3     28181   F   0.35000     110.00000     269.00000
         3     28185   F   0.35000     110.00000      91.00000
         3     28189   F   0.35000     110.00000     269.00000
         3     28193   F   0.35000     110.00000      91.00000
         3     28197   F   0.35000     110.00000     269.00000
         3     28201   F   0.35000     110.00000      91.00000
         3     28205   F   0.35000     110.00000     269.00000
         3     28209   F   0.35000     110.00000      91.00000
         3     28213   F   0.35000     110.00000     269.00000
         3     28217   F   0.35000     110.00000      91.00000
         3     28221   F   0.35000     110.00000     269.00000
         3     28225   F   0.35000     110.00000      91.00000
         3     28229   F   0.35000     110.00000     269.00000
         3     28233   F   0.35000     110.00000      91.00000
         3     28237   F   0.35000     110.00000     269.00000
         3     28241   F   0.35000     110.00000      91.00000
         3     28245   F   0.35000     110.00000     269.00000
         3     28249   F   0.35000     110.00000      91.00000
         3     28253   F   0.35000     110.00000     269.00000
         3     28257   F   0.35000     110.00000      91.00000
         3     28261   F   0.35000     110.00000     269.00000
         3     28265   F   0.35000     110.00000      91.00000
         3     28269   F   0.35000     110.00000     269.00000
         3     28273   F   0.35000     110.00000      91.00000
         3     28277   F   0.35000     110.00000     269.00000
         3     28281   F   0.35000     110.00000      91.00000
         3     28285   F   0.35000     110.00000     269.00000
         3     28289   F   0.35000     110.00000      91.00000
         3     28293   F   0.35000     110.00000     269.00000
         3     28297   F   0.35000     110.00000      91.00000
         3     28301   F   0.35000     110.00000     269.00000
         3     28305   F   0.35000     110.00000      91.00000
         3     28309   F   0.35000     110.00000     269.00000
         3     28313   F   0.35000     110.00000      91.00000
         3     28317   F   0.35000     110.00000     269.00000
         3     28321   F   0.35000     110.00000      91.00000
         3     28325   F   0.35000     110.00000     269.00000
         3     28329   F   0.35000     110.00000      91.00000
         3     28333   F   0.35000     110.00000     269.00000
         3     28337   F   0.35000     110.00000      91.00000
         3     28341   F   0.35000     110.00000     269.00000
         3     28345   F   0.35000     110.00000      91.00000
         3     28349   F   0.35000     110.00000     269.00000
         3     28353   F   0.35000     110.00000      91.00000
         3     28357   F   0.35000     110.00000     269.00000
         3     28361   F   0.35000     110.00000      91.00000
         3     28365   F   0.35000     110.00000     269.00000
         3     28369   F   0.35000     110.00000      91.00000
         3     28373   F   0.35000     110.00000     269.00000
         3     28377   F   0.35000     110.00000      91.00000
         3     28381   F   0.35000     110.00000     269.00000
         3     28385   F   0.35000     110.00000      91.00000
         3     28389   F   0.35000     110.00000     269.00000
         3     28393   F   0.35000     110.00000      91.00000
         3     28397   F   0.35000     110.00000     269.00000
         3     28401   F   0.35000     110.00000      91.00000
         3     28405   F   0.35000     110.00000     269.00000
         3     28409   F   0.35000     110.00000      91.00000
         3     28413   F   0.35000     110.00000     269.00000
         3     28417   F   0.35000     110.00000      91.00000
         3     28421   F   0.35000     110.00000     269.00000
         3     28425   F   0.35000     110.00000      91.00000
         3     28429   F   0.35000     110.00000     269.00000
         3     28433   F   0.35000     110.00000      91.00000
         3     28437   F   0.35000     110.00000     269.00000
         3     28441   F   0.35000     110.00000      91.00000
         3     28445   F   0.35000     110.00000     269.00000
         3     28449   F   0.35000     110.00000      91.00000
         3     28453   F   0.35000     110.00000     269.00000
         3     28457   F   0.35000     110.00000      91.00000
         3     28461   F   0.35000     110.00000     269.00000
         3     28465   F   0.35000     110.00000      91.00000
         3     28469   F   0.35000     110.00000     269.00000
         3     28473   F   0.35000     110.00000      91.00000
         3     28477   F   0.35000     110.00000     269.00000
         3     28481   F   0.35000     110.00000      91.00000
         3     28485   F   0.35000     110.00000     269.00000
         3     28489   F   0.35000     110.00000      91.00000
         3     28493   F   0.35000     110.00000     269.00000
         3     28497   F   0.35000     110.00000      91.00000
         3     28501   F   0.35000     110.00000     269.00000
         3     28505   F   0.35000     110.00000      91.00000
         3     28509   F   0.35000     110.00000     269.00000
         3     28513   F   0.35000     110.00000      91.00000
         3     28517   F   0.35000     110.00000     269.00000
         3     28521   F   0.35000     110.00000      91.00000
         3     28525   F   0.35000     110.00000     269.00000
         3     28529   F   0.35000     110.00000      91.00000
         3     28533   F   0.35000     110.00000     269.00000
         3     28537   F   0.35000     110.00000      91.00000
         3     28541   F   0.35000     110.00000     269.00000
         3     28545   F   0.35000     110.00000      91.00000
         3     28549   F   0.35000     110.00000     269.00000
         3     28553   F   0.35000     110.00000      91.00000
         3     28557   F   0.35000     110.00000     269.00000
         3     28561   F   0.35000     110.00000      91.00000
         3     28565   F   0.35000     110.00000     269.00000
         3     28569   F   0.35000     110.00000      91.00000
         3     28573   F   0.35000     110.00000     269.00000
         3     28577   F   0.35000     110.00000      91.00000
         3     28581   F   0.35000     110.00000     269.00000
         3     28585   F   0.35000     110.00000      91.00000
         3     28589   F   0.35000     110.00000     269.00000
         3     28593   F   0.35000     110.00000      91.00000
         3     28597   F   0.35000     110.00000     269.00000
         3     28601   F   0.35000     110.00000      91.00000
         3     28605   F   0.35000     110.00000     269.00000
         3     28609   F   0.35000     110.00000      91.00000
         3     28613   F   0.35000     110.00000     269.00000
         3     28617   F   0.35000     110.00000      91.00000
         3     28621   F   0.35000     110.00000     269.00000
         3     28625   F   0.35000     110.00000      91.00000
         3     28629   F   0.35000     110.00000     269.00000
         3     28633   F   0.35000     110.00000      91.00000
         3     28637   F   0.35000     110.00000     269.00000
         3     28641   F   0.35000     110.00000      91.00000
         3     28645   F   0.35000     110.00000     269.00000
         3     28649   F   0.35000     110.00000      91.00000
         3     28653   F   0.35000     110.00000     269.00000
         3     28657   F   0.35000     110.00000      91.00000
         3     28661   F   0.35000     110.00000     269.00000
         3     28665   F   0.35000     110.00000      91.00000
         3     28669   F   0.35000     110.00000     269.00000
         3     28673   F   0.35000     110.00000      91.00000
         3     28677   F   0.35000     110.00000     269.00000
         3     28681   F   0.35000     110.00000      91.00000
         3     28685   F   0.35000     110.00000     269.00000
         3     28689   F   0.35000     110.00000      91.00000
         3     28693   F   0.35000     110.00000     269.00000
         3     28697   F   0.35000     110.00000      91.00000
         3     28701   F   0.35000     110.00000     269.00000
         3     28705   F   0.35000     110.00000      91.00000
         3     28709   F   0.35000     110.00000     269.00000
         3     28713   F   0.35000     110.00000      91.00000
         3     28717   F   0.35000     110.00000     269.00000
         3     28721   F   0.35000     110.00000      91.00000
         3     28725   F   0.35000     110.00000     269.00000
         3     28729   F   0.35000     110.00000      91.00000
         3     28733   F   0.35000     110.00000     269.00000
         3     28737   F   0.35000     110.00000      91.00000
         3     28741   F   0.35000     110.00000     269.00000
         3     28745   F   0.35000     110.00000      91.00000
         3     28749   F   0.35000     110.00000     269.00000
         3     28753   F   0.35000     110.00000      91.00000
         3     28757   F   0.35000     110.00000     269.00000
         3     28761   F   0.35000     110.00000      91.00000
         3     28765   F   0.35000     110.00000     269.00000
         3     28769   F   0.35000     110.00000      91.00000
         3     28773   F   0.35000     110.00000     269.00000
         3     28777   F   0.35000     110.00000      91.00000
         3     28781   F   0.35000     110.00000     269.00000
         3     28785   F   0.35000     110.00000      91.00000
         3     28789   F   0.35000     110.00000     269.00000
         3     28793   F   0.35000     110.00000      91.00000
         3     28797   F   0.35000     110.00000     269.00000
         3     28801   F   0.35000     110.00000      91.00000
         3     28805   F   0.35000     110.00000     269.00000
         3     28809   F   0.35000     110.00000      91.00000
         3     28813   F   0.35000     110.00000     269.00000
         3     28817   F   0.35000     110.00000      91.00000
         3     28821   F   0.35000     110.00000     269.00000
         3     28825   F   0.35000     110.00000      91.00000
         3     28829   F   0.35000     110.00000     269.00000
         3     28833   F   0.35000     110.00000      91.00000
         3     28837   F   0.35000     110.00000     269.00000
         3     28841   F   0.35000     110.00000      91.00000
         3     28845   F   0.35000     110.00000     269.00000
         3     28849   F   0.35000     110.00000      91.00000
         3     28853   F   0.35000     110.00000     269.00000
         3     28857   F   0.35000     110.00000      91.00000
         3     28861   F   0.35000     110.00000     269.00000
         3     28865   F   0.35000     110.00000      91.00000
         3     28869   F   0.35000     110.00000     269.00000
         3     28873   F   0.35000     110.00000      91.00000
         3     28877   F   0.35000     110.00000     269.00000
         3     28881   F   0.35000     110.00000      91.00000
         3     28885   F   0.35000     110.00000     269.00000
         3     28889   F   0.35000     110.00000      91.00000
         3     28893   F   0.35000     110.00000     269.00000
         3     28897   F   0.35000     110.00000      91.00000
         3     28901   F   0.35000     110.00000     269.00000
         3     28905   F   0.35000     110.00000      91.00000
         3     28909   F   0.35000     110.00000     269.00000
         3     28913   F   0.35000     110.00000      91.00000
         3     28917   F   0.35000     110.00000     269.00000
         3     28921   F   0.35000     110.00000      91.00000
         3     28925   F   0.35000     110.00000     269.00000
         3     28929   F   0.35000     110.00000      91.00000
         3     28933   F   0.35000     110.00000     269.00000
         3     28937   F   0.35000     110.00000      91.00000
         3     28941   F   0.35000     110.00000     269.00000
         3     28945   F   0.35000     110.00000      91.00000
         3     28949   F   0.35000     110.00000     269.00000
         3     28953   F   0.35000     110.00000      91.00000
         3     28957   F   0.35000     110.00000     269.00000
         3     28961   F   0.35000     110.00000      91.00000
         3     28965   F   0.35000     110.00000     269.00000
         3     28969   F   0.35000     110.00000      91.00000
         3     28973   F   0.35000     110.00000     269.00000
         3     28977   F   0.35000     110.00000      91.00000
         3     28981   F   0.35000     110.00000     269.00000
         3     28985   F   0.35000     110.00000      91.00000
         3     28989   F   0.35000     110.00000     269.00000
         3     28993   F   0.35000     110.00000      91.00000
         3     28997   F   0.35000     110.00000     269.00000
         3     29001   F   0.35000     110.00000      91.00000
         3     29005   F   0.35000     110.00000     269.00000
         3     29009   F   0.35000     110.00000      91.00000
         3     29013   F   0.35000     110.00000     269.00000
         3     29017   F   0.35000     110.00000      91.00000
         3     29021   F   0.35000     110.00000     269.00000
         3     29025   F   0.35000     110.00000      91.00000
         3     29029   F   0.35000     110.00000     269.00000
         3     29033   F   0.35000     110.00000      91.00000
         3     29037   F   0.35000     110.00000     269.00000
         3     29041   F   0.35000     110.00000      91.00000
         3     29045   F   0.35000     110.00000     269.00000
         3     29049   F   0.35000     110.00000      91.00000
         3     29053   F   0.35000     110.00000     269.00000
         3     29057   F   0.35000     110.00000      91.00000
         3     29061   F   0.35000     110.00000     269.00000
         3     29065   F   0.35000     110.00000      91.00000
         3     29069   F   0.35000     110.00000     269.00000
         3     29073   F   0.35000     110.00000      91.00000
         3     29077   F   0.35000     110.00000     269.00000
         3     29081   F   0.35000     110.00000      91.00000
         3     29085   F   0.35000     110.00000     269.00000
         3     29089   F   0.35000     110.00000      91.00000
         3     29093   F   0.35000     110.00000     269.00000
         3     29097   F   0.35000     110.00000      91.00000
         3     29101   F   0.35000     110.00000     269.00000
         3     29105   F   0.35000     110.00000      91.00000
         3     29109   F   0.35000     110.00000     269.00000
         3     29113   F   0.35000     110.00000      91.00000
         3     29117   F   0.35000     110.00000     269.00000
         3     29121   F   0.35000     110.00000      91.00000
         3     29125   F   0.35000     110.00000     269.00000
         3     29129   F   0.35000     110.00000      91.00000
         3     29133   F   0.35000     110.00000     269.00000
         3     29137   F   0.35000     110.00000      91.00000
         3     29141   F   0.35000     110.00000     269.00000
         3     29145   F   0.35000     110.00000      91.00000
         3     29149   F   0.35000     110.00000     269.00000
         3     29153   F   0.35000     110.00000      91.00000
         3     29157   F   0.35000     110.00000     269.00000
         3     29161   F   0.35000     110.00000      91.00000
         3     29165   F   0.35000     110.00000     269.00000
         3     29169   F   0.35000     110.00000      91.00000
         3     29173   F   0.35000     110.00000     269.00000
         3     29177   F   0.35000     110.00000      91.00000
         3     29181   F   0.35000     110.00000     269.00000
         3     29185   F   0.35000     110.00000      91.00000
         3     29189   F   0.35000     110.00000     269.00000
         3     29193   F   0.35000     110.00000      91.00000
         3     29197   F   0.35000     110.00000     269.00000
         3     29201   F   0.35000     110.00000      91.00000
         3     29205   F   0.35000     110.00000     269.00000
         3     29209   F   0.35000     110.00000      91.00000
         3     29213   F   0.35000     110.00000     269.00000
         3     29217   F   0.35000     110.00000      91.00000
         3     29221   F   0.35000     110.00000     269.00000
         3     29225   F   0.35000     110.00000      91.00000
         3     29229   F   0.35000     110.00000     269.00000
         3     29233   F   0.35000     110.00000      91.00000
         3     29237   F   0.35000     110.00000     269.00000
         3     29241   F   0.35000     110.00000      91.00000
         3     29245   F   0.35000     110.00000     269.00000
         3     29249   F   0.35000     110.00000      91.00000
         3     29253   F   0.35000     110.00000     269.00000
         3     29257   F   0.35000     110.00000      91.00000
         3     29261   F   0.35000     110.00000     269.00000
         3     29265   F   0.35000     110.00000      91.00000
         3     29269   F   0.35000     110.00000     269.00000
         3     29273   F   0.35000     110.00000      91.00000
         3     29277   F   0.35000     110.00000     269.00000
         3     29281   F   0.35000     110.00000      91.00000
         3     29285   F   0.35000     110.00000     269.00000
         3     29289   F   0.35000     110.00000      91.00000
         3     29293   F   0.35000     110.00000     269.00000
         3     29297   F   0.35000     110.00000      91.00000
         3     29301   F   0.35000     110.00000     269.00000
         3     29305   F   0.35000     110.00000      91.00000
         3     29309   F   0.35000     110.00000     269.00000
         3     29313   F   0.35000     110.00000      91.00000
         3     29317   F   0.35000     110.00000     269.00000
         3     29321   F   0.35000     110.00000      91.00000
         3     29325   F   0.35000     110.00000     269.00000
         3     29329   F   0.35000     110.00000      91.00000
         3     29333   F   0.35000     110.00000     269.00000
         3     29337   F   0.35000     110.00000      91.00000
         3     29341   F   0.35000     110.00000     269.00000
         3     29345   F   0.35000     110.00000      91.00000
         3     29349   F   0.35000     110.00000     269.00000
         3     29353   F   0.35000     110.00000      91.00000
         3     29357   F   0.35000     110.00000     269.00000
         3     29361   F   0.35000     110.00000      91.00000
         3     29365   F   0.35000     110.00000     269.00000
         3     29369   F   0.35000     110.00000      91.00000
         3     29373   F   0.35000     110.00000     269.00000
         3     29377   F   0.35000     110.00000      91.00000
         3     29381   F   0.35000     110.00000     269.00000
         3     29385   F   0.35000     110.00000      91.00000
         3     29389   F   0.35000     110.00000     269.00000
         3     29393   F   0.35000     110.00000      91.00000
         3     29397   F   0.35000     110.00000     269.00000
         3     29401   F   0.35000     110.00000      91.00000
         3     29405   F   0.35000     110.00000     269.00000
         3     29409   F   0.35000     110.00000      91.00000
         3     29413   F   0.35000     110.00000     269.00000
         3     29417   F   0.35000     110.00000      91.00000
         3     29421   F   0.35000     110.00000     269.00000
         3     29425   F   0.35000     110.00000      91.00000
         3     29429   F   0.35000     110.00000     269.00000
         3     29433   F   0.35000     110.00000      91.00000
         3     29437   F   0.35000     110.00000     269.00000
         3     29441   F   0.35000     110.00000      91.00000
         3     29445   F   0.35000     110.00000     269.00000
         3     29449   F   0.35000     110.00000      91.00000
         3     29453   F   0.35000     110.00000     269.00000
         3     29457   F   0.35000     110.00000      91.00000
         3     29461   F   0.35000     110.00000     269.00000
         3     29465   F   0.35000     110.00000      91.00000
         3     29469   F   0.35000     110.00000     269.00000
         3     29473   F   0.35000     110.00000      91.00000
         3     29477   F   0.35000     110.00000     269.00000
         3     29481   F   0.35000     110.00000      91.00000
         3     29485   F   0.35000     110.00000     269.00000
         3     29489   F   0.35000     110.00000      91.00000
         3     29493   F   0.35000     110.00000     269.00000
         3     29497   F   0.35000     110.00000      91.00000
         3     29501   F   0.35000     110.00000     269.00000
         3     29505   F   0.35000     110.00000      91.00000
         3     29509   F   0.35000     110.00000     269.00000
         3     29513   F   0.35000     110.00000      91.00000
         3     29517   F   0.35000     110.00000     269.00000
         3     29521   F   0.35000     110.00000      91.00000
         3     29525   F   0.35000     110.00000     269.00000
         3     29529   F   0.35000     110.00000      91.00000
         3     29533   F   0.35000     110.00000     269.00000
         3     29537   F   0.35000     110.00000      91.00000
         3     29541   F   0.35000     110.00000     269.00000
         3     29545   F   0.35000     110.00000      91.00000
         3     29549   F   0.35000     110.00000     269.00000
         3     29553   F   0.35000     110.00000      91.00000
         3     29557   F   0.35000     110.00000     269.00000
         3     29561   F   0.35000     110.00000      91.00000
         3     29565   F   0.35000     110.00000     269.00000
         3     29569   F   0.35000     110.00000      91.00000
         3     29573   F   0.35000     110.00000     269.00000
         3     29577   F   0.35000     110.00000      91.00000
         3     29581   F   0.35000     110.00000     269.00000
         3     29585   F   0.35000     110.00000      91.00000
         3     29589   F   0.35000     110.00000     269.00000
         3     29593   F   0.35000     110.00000      91.00000
         3     29597   F   0.35000     110.00000     269.00000
         3     29601   F   0.35000     110.00000      91.00000
         3     29605   F   0.35000     110.00000     269.00000
         3     29609   F   0.35000     110.00000      91.00000
         3     29613   F   0.35000     110.00000     269.00000
         3     29617   F   0.35000     110.00000      91.00000
         3     29621   F   0.35000     110.00000     269.00000
         3     29625   F   0.35000     110.00000      91.00000
         3     29629   F   0.35000     110.00000     269.00000
         3     29633   F   0.35000     110.00000      91.00000
         3     29637   F   0.35000     110.00000     269.00000
         3     29641   F   0.35000     110.00000      91.00000
         3     29645   F   0.35000     110.00000     269.00000
         3     29649   F   0.35000     110.00000      91.00000
         3     29653   F   0.35000     110.00000     269.00000
         3     29657   F   0.35000     110.00000      91.00000
         3     29661   F   0.35000     110.00000     269.00000
         3     29665   F   0.35000     110.00000      91.00000
         3     29669   F   0.35000     110.00000     269.00000
         3     29673   F   0.35000     110.00000      91.00000
         3     29677   F   0.35000     110.00000     269.00000
         3     29681   F   0.35000     110.00000      91.00000
         3     29685   F   0.35000     110.00000     269.00000
         3     29689   F   0.35000     110.00000      91.00000
         3     29693   F   0.35000     110.00000     269.00000
         3     29697   F   0.35000     110.00000      91.00000
         3     29701   F   0.35000     110.00000     269.00000
         3     29705   F   0.35000     110.00000      91.00000
         3     29709   F   0.35000     110.00000     269.00000
         3     29713   F   0.35000     110.00000      91.00000
         3     29717   F   0.35000     110.00000     269.00000
         3     29721   F   0.35000     110.00000      91.00000
         3     29725   F   0.35000     110.00000     269.00000
         3     29729   F   0.35000     110.00000      91.00000
         3     29733   F   0.35000     110.00000     269.00000
         3     29737   F   0.35000     110.00000      91.00000
         3     29741   F   0.35000     110.00000     269.00000
         3     29745   F   0.35000     110.00000      91.00000
         3     29749   F   0.35000     110.00000     269.00000
         3     29753   F   0.35000     110.00000      91.00000
         3     29757   F   0.35000     110.00000     269.00000
         3     29761   F   0.35000     110.00000      91.00000
         3     29765   F   0.35000     110.00000     269.00000
         3     29769   F   0.35000     110.00000      91.00000
         3     29773   F   0.35000     110.00000     269.00000
         3     29777   F   0.35000     110.00000      91.00000
         3     29781   F   0.35000     110.00000     269.00000
         3     29785   F   0.35000     110.00000      91.00000
         3     29789   F   0.35000     110.00000     269.00000
         3     29793   F   0.35000     110.00000      91.00000
         3     29797   F   0.35000     110.00000     269.00000
         3     29801   F   0.35000     110.00000      91.00000
         3     29805   F   0.35000     110.00000     269.00000
         3     29809   F   0.35000     110.00000      91.00000
         3     29813   F   0.35000     110.00000     269.00000
         3     29817   F   0.35000     110.00000      91.00000
         3     29821   F   0.35000     110.00000     269.00000
         3     29825   F   0.35000     110.00000      91.00000
         3     29829   F   0.35000     110.00000     269.00000
         3     29833   F   0.35000     110.00000      91.00000
         3     29837   F   0.35000     110.00000     269.00000
         3     29841   F   0.35000     110.00000      91.00000
         3     29845   F   0.35000     110.00000     269.00000
         3     29849   F   0.35000     110.00000      91.00000
         3     29853   F   0.35000     110.00000     269.00000
         3     29857   F   0.35000     110.00000      91.00000
         3     29861   F   0.35000     110.00000     269.00000
         3     29865   F   0.35000     110.00000      91.00000
         3     29869   F   0.35000     110.00000     269.00000
         3     29873   F   0.35000     110.00000      91.00000
         3     29877   F   0.35000     110.00000     269.00000
         3     29881   F   0.35000     110.00000      91.00000
         3     29885   F   0.35000     110.00000     269.00000
         3     29889   F   0.35000     110.00000      91.00000
         3     29893   F   0.35000     110.00000     269.00000
         3     29897   F   0.35000     110.00000      91.00000
         3     29901   F   0.35000     110.00000     269.00000
         3     29905   F   0.35000     110.00000      91.00000
         3     29909   F   0.35000     110.00000     269.00000
         3     29913   F   0.35000     110.00000      91.00000
         3     29917   F   0.35000     110.00000     269.00000
         3     29921   F   0.35000     110.00000      91.00000
         3     29925   F   0.35000     110.00000     269.00000
         3     29929   F   0.35000     110.00000      91.00000
         3     29933   F   0.35000     110.00000     269.00000
         3     29937   F   0.35000     110.00000      91.00000
         3     29941   F   0.35000     110.00000     269.00000
         3     29945   F   0.35000     110.00000      91.00000
         3     29949   F   0.35000     110.00000     269.00000
         3     29953   F   0.35000     110.00000      91.00000
         3     29957   F   0.35000     110.00000     269.00000
         3     29961   F   0.35000     110.00000      91.00000
         3     29965   F   0.35000     110.00000     269.00000
         3     29969   F   0.35000     110.00000      91.00000
         3     29973   F   0.35000     110.00000     269.00000
         3     29977   F   0.35000     110.00000      91.00000
         3     29981   F   0.35000     110.00000     269.00000
         3     29985   F   0.35000     110.00000      91.00000
         3     29989   F   0.35000     110.00000     269.00000
         3     29993   F   0.35000     110.00000      91.00000
         3     29997   F   0.35000     110.00000     269.00000
         3     30001   F   0.35000     110.00000      91.00000
         3     30005   F   0.35000     110.00000     269.00000
         3     30009   F   0.35000     110.00000      91.00000
         3     30013   F   0.35000     110.00000     269.00000
         3     30017   F   0.35000     110.00000      91.00000
         3     30021   F   0.35000     110.00000     269.00000
         3     30025   F   0.35000     110.00000      91.00000
         3     30029   F   0.35000     110.00000     269.00000
         3     30033   F   0.35000     110.00000      91.00000
         3     30037   F   0.35000     110.00000     269.00000
         3     30041   F   0.35000     110.00000      91.00000
         3     30045   F   0.35000     110.00000     269.00000
         3     30049   F   0.35000     110.00000      91.00000
         3     30053   F   0.35000     110.00000     269.00000
         3     30057   F   0.35000     110.00000      91.00000
         3     30061   F   0.35000     110.00000     269.00000
         3     30065   F   0.35000     110.00000      91.00000
         3     30069   F   0.35000     110.00000     269.00000
         3     30073   F   0.35000     110.00000      91.00000
         3     30077   F   0.35000     110.00000     269.00000
         3     30081   F   0.35000     110.00000      91.00000
         3     30085   F   0.35000     110.00000     269.00000
         3     30089   F   0.35000     110.00000      91.00000
         3     30093   F   0.35000     110.00000     269.00000
         3     30097   F   0.35000     110.00000      91.00000
         3     30101   F   0.35000     110.00000     269.00000
         3     30105   F   0.35000     110.00000      91.00000
         3     30109   F   0.35000     110.00000     269.00000
         3     30113   F   0.35000     110.00000      91.00000
         3     30117   F   0.35000     110.00000     269.00000
         3     30121   F   0.35000     110.00000      91.00000
         3     30125   F   0.35000     110.00000     269.00000
         3     30129   F   0.35000     110.00000      91.00000
         3     30133   F   0.35000     110.00000     269.00000
         3     30137   F   0.35000     110.00000      91.00000
         3     30141   F   0.35000     110.00000     269.00000
         3     30145   F   0.35000     110.00000      91.00000
         3     30149   F   0.35000     110.00000     269.00000
         3     30153   F   0.35000     110.00000      91.00000
         3     30157   F   0.35000     110.00000     269.00000
         3     30161   F   0.35000     110.00000      91.00000
         3     30165   F   0.35000     110.00000     269.00000
         3     30169   F   0.35000     110.00000      91.00000
         3     30173   F   0.35000     110.00000     269.00000
         3     30177   F   0.35000     110.00000      91.00000
         3     30181   F   0.35000     110.00000     269.00000
         3     30185   F   0.35000     110.00000      91.00000
         3     30189   F   0.35000     110.00000     269.00000
         3     30193   F   0.35000     110.00000      91.00000
         3     30197   F   0.35000     110.00000     269.00000
         3     30201   F   0.35000     110.00000      91.00000
         3     30205   F   0.35000     110.00000     269.00000
         3     30209   F   0.35000     110.00000      91.00000
         3     30213   F   0.35000     110.00000     269.00000
         3     30217   F   0.35000     110.00000      91.00000
         3     30221   F   0.35000     110.00000     269.00000
         3     30225   F   0.35000     110.00000      91.00000
         3     30229   F   0.35000     110.00000     269.00000
         3     30233   F   0.35000     110.00000      91.00000
         3     30237   F   0.35000     110.00000     269.00000
         3     30241   F   0.35000     110.00000      91.00000
         3     30245   F   0.35000     110.00000     269.00000
         3     30249   F   0.35000     110.00000      91.00000
         3     30253   F   0.35000     110.00000     269.00000
         3     30257   F   0.35000     110.00000      91.00000
         3     30261   F   0.35000     110.00000     269.00000
         3     30265   F   0.35000     110.00000      91.00000
         3     30269   F   0.35000     110.00000     269.00000
         3     30273   F   0.35000     110.00000      91.00000
         3     30277   F   0.35000     110.00000     269.00000
         3     30281   F   0.35000     110.00000      91.00000
         3     30285   F   0.35000     110.00000     269.00000
         3     30289   F   0.35000     110.00000      91.00000
         3     30293   F   0.35000     110.00000     269.00000
         3     30297   F   0.35000     110.00000      91.00000
         3     30301   F   0.35000     110.00000     269.00000
         3     30305   F   0.35000     110.00000      91.00000
         3     30309   F   0.35000     110.00000     269.00000
         3     30313   F   0.35000     110.00000      91.00000
         3     30317   F   0.35000     110.00000     269.00000
         3     30321   F   0.35000     110.00000      91.00000
         3     30325   F   0.35000     110.00000     269.00000
         3     30329   F   0.35000     110.00000      91.00000
         3     30333   F   0.35000     110.00000     269.00000
         3     30337   F   0.35000     110.00000      91.00000
         3     30341   F   0.35000     110.00000     269.00000
         3     30345   F   0.35000     110.00000      91.00000
         3     30349   F   0.35000     110.00000     269.00000
         3     30353   F   0.35000     110.00000      91.00000
         3     30357   F   0.35000     110.00000     269.00000
         3     30361   F   0.35000     110.00000      91.00000
         3     30365   F   0.35000     110.00000     269.00000
         3     30369   F   0.35000     110.00000      91.00000
         3     30373   F   0.35000     110.00000     269.00000
         3     30377   F   0.35000     110.00000      91.00000
         3     30381   F   0.35000     110.00000     269.00000
         3     30385   F   0.35000     110.00000      91.00000
         3     30389   F   0.35000     110.00000     269.00000
         3     30393   F   0.35000     110.00000      91.00000
         3     30397   F   0.35000     110.00000     269.00000
         3     30401   F   0.35000     110.00000      91.00000
         3     30405   F   0.35000     110.00000     269.00000
         3     30409   F   0.35000     110.00000      91.00000
         3     30413   F   0.35000     110.00000     269.00000
         3     30417   F   0.35000     110.00000      91.00000
         3     30421   F   0.35000     110.00000     269.00000
         3     30425   F   0.35000     110.00000      91.00000
         3     30429   F   0.35000     110.00000     269.00000
         3     30433   F   0.35000     110.00000      91.00000
         3     30437   F   0.35000     110.00000     269.00000
         3     30441   F   0.35000     110.00000      91.00000
         3     30445   F   0.35000     110.00000     269.00000
         3     30449   F   0.35000     110.00000      91.00000
         3     30453   F   0.35000     110.00000     269.00000
         3     30457   F   0.35000     110.00000      91.00000
         3     30461   F   0.35000     110.00000     269.00000
         3     30465   F   0.35000     110.00000      91.00000
         3     30469   F   0.35000     110.00000     269.00000
         3     30473   F   0.35000     110.00000      91.00000
         3     30477   F   0.35000     110.00000     269.00000
         3     30481   F   0.35000     110.00000      91.00000
         3     30485   F   0.35000     110.00000     269.00000
         3     30489   F   0.35000     110.00000      91.00000
         3     30493   F   0.35000     110.00000     269.00000
         3     30497   F   0.35000     110.00000      91.00000
         3     30501   F   0.35000     110.00000     269.00000
         3     30505   F   0.35000     110.00000      91.00000
         3     30509   F   0.35000     110.00000     269.00000
         3     30513   F   0.35000     110.00000      91.00000
         3     30517   F   0.35000     110.00000     269.00000
         3     30521   F   0.35000     110.00000      91.00000
         3     30525   F   0.35000     110.00000     269.00000
         3     30529   F   0.35000     110.00000      91.00000
         3     30533   F   0.35000     110.00000     269.00000
         3     30537   F   0.35000     110.00000      91.00000
         3     30541   F   0.35000     110.00000     269.00000
         3     30545   F   0.35000     110.00000      91.00000
         3     30549   F   0.35000     110.00000     269.00000
         3     30553   F   0.35000     110.00000      91.00000
         3     30557   F   0.35000     110.00000     269.00000
         3     30561   F   0.35000     110.00000      91.00000
         3     30565   F   0.35000     110.00000     269.00000
         3     30569   F   0.35000     110.00000      91.00000
         3     30573   F   0.35000     110.00000     269.00000
         3     30577   F   0.35000     110.00000      91.00000
         3     30581   F   0.35000     110.00000     269.00000
         3     30585   F   0.35000     110.00000      91.00000
         3     30589   F   0.35000     110.00000     269.00000
         3     30593   F   0.35000     110.00000      91.00000
         3     30597   F   0.35000     110.00000     269.00000
         3     30601   F   0.35000     110.00000      91.00000
         3     30605   F   0.35000     110.00000     269.00000
         3     30609   F   0.35000     110.00000      91.00000
         3     30613   F   0.35000     110.00000     269.00000
         3     30617   F   0.35000     110.00000      91.00000
         3     30621   F   0.35000     110.00000     269.00000
         3     30625   F   0.35000     110.00000      91.00000
         3     30629   F   0.35000     110.00000     269.00000
         3     30633   F   0.35000     110.00000      91.00000
         3     30637   F   0.35000     110.00000     269.00000
         3     30641   F   0.35000     110.00000      91.00000
         3     30645   F   0.35000     110.00000     269.00000
         3     30649   F   0.35000     110.00000      91.00000
         3     30653   F   0.35000     110.00000     269.00000
         3     30657   F   0.35000     110.00000      91.00000
         3     30661   F   0.35000     110.00000     269.00000
         3     30665   F   0.35000     110.00000      91.00000
         3     30669   F   0.35000     110.00000     269.00000
         3     30673   F   0.35000     110.00000      91.00000
         3     30677   F   0.35000     110.00000     269.00000
         3     30681   F   0.35000     110.00000      91.00000
         3     30685   F   0.35000     110.00000     269.00000
         3     30689   F   0.35000     110.00000      91.00000
         3     30693   F   0.35000     110.00000     269.00000
         3     30697   F   0.35000     110.00000      91.00000
         3     30701   F   0.35000     110.00000     269.00000
         3     30705   F   0.35000     110.00000      91.00000
         3     30709   F   0.35000     110.00000     269.00000
         3     30713   F   0.35000     110.00000      91.00000
         3     30717   F   0.35000     110.00000     269.00000
         3     30721   F   0.35000     110.00000      91.00000
         3     30725   F   0.35000     110.00000     269.00000
         3     30729   F   0.35000     110.00000      91.00000
         3     30733   F   0.35000     110.00000     269.00000
         3     30737   F   0.35000     110.00000      91.00000
         3     30741   F   0.35000     110.00000     269.00000
         3     30745   F   0.35000     110.00000      91.00000
         3     30749   F   0.35000     110.00000     269.00000
         3     30753   F   0.35000     110.00000      91.00000
         3     30757   F   0.35000     110.00000     269.00000
         3     30761   F   0.35000     110.00000      91.00000
         3     30765   F   0.35000     110.00000     269.00000
         3     30769   F   0.35000     110.00000      91.00000
         3     30773   F   0.35000     110.00000     269.00000
         3     30777   F   0.35000     110.00000      91.00000
         3     30781   F   0.35000     110.00000     269.00000
         3     30785   F   0.35000     110.00000      91.00000
         3     30789   F   0.35000     110.00000     269.00000
         3     30793   F   0.35000     110.00000      91.00000
         3     30797   F   0.35000     110.00000     269.00000
         3     30801   F   0.35000     110.00000      91.00000
         3     30805   F   0.35000     110.00000     269.00000
         3     30809   F   0.35000     110.00000      91.00000
         3     30813   F   0.35000     110.00000     269.00000
         3     30817   F   0.35000     110.00000      91.00000
         3     30821   F   0.35000     110.00000     269.00000
         3     30825   F   0.35000     110.00000      91.00000
         3     30829   F   0.35000     110.00000     269.00000
         3     30833   F   0.35000     110.00000      91.00000
         3     30837   F   0.35000     110.00000     269.00000
         3     30841   F   0.35000     110.00000      91.00000
         3     30845   F   0.35000     110.00000     269.00000
         3     30849   F   0.35000     110.00000      91.00000
         3     30853   F   0.35000     110.00000     269.00000
         3     30857   F   0.35000     110.00000      91.00000
         3     30861   F   0.35000     110.00000     269.00000
         3     30865   F   0.35000     110.00000      91.00000
         3     30869   F   0.35000     110.00000     269.00000
         3     30873   F   0.35000     110.00000      91.00000
         3     30877   F   0.35000     110.00000     269.00000
         3     30881   F   0.35000     110.00000      91.00000
         3     30885   F   0.35000     110.00000     269.00000
         3     30889   F   0.35000     110.00000      91.00000
         3     30893   F   0.35000     110.00000     269.00000
         3     30897   F   0.35000     110.00000      91.00000
         3     30901   F   0.35000     110.00000     269.00000
         3     30905   F   0.35000     110.00000      91.00000
         3     30909   F   0.35000     110.00000     269.00000
         3     30913   F   0.35000     110.00000      91.00000
         3     30917   F   0.35000     110.00000     269.00000
         3     30921   F   0.35000     110.00000      91.00000
         3     30925   F   0.35000     110.00000     269.00000
         3     30929   F   0.35000     110.00000      91.00000
         3     30933   F   0.35000     110.00000     269.00000
         3     30937   F   0.35000     110.00000      91.00000
         3     30941   F   0.35000     110.00000     269.00000
         3     30945   F   0.35000     110.00000      91.00000
         3     30949   F   0.35000     110.00000     269.00000
         3     30953   F   0.35000     110.00000      91.00000
         3     30957   F   0.35000     110.00000     269.00000
         3     30961   F   0.35000     110.00000      91.00000
         3     30965   F   0.35000     110.00000     269.00000
         3     30969   F   0.35000     110.00000      91.00000
         3     30973   F   0.35000     110.00000     269.00000
         3     30977   F   0.35000     110.00000      91.00000
         3     30981   F   0.35000     110.00000     269.00000
         3     30985   F   0.35000     110.00000      91.00000
         3     30989   F   0.35000     110.00000     269.00000
         3     30993   F   0.35000     110.00000      91.00000
         3     30997   F   0.35000     110.00000     269.00000
         3     31001   F   0.35000     110.00000      91.00000
         3     31005   F   0.35000     110.00000     269.00000
         3     31009   F   0.35000     110.00000      91.00000
         3     31013   F   0.35000     110.00000     269.00000
         3     31017   F   0.35000     110.00000      91.00000
         3     31021   F   0.35000     110.00000     269.00000
         3     31025   F   0.35000     110.00000      91.00000
         3     31029   F   0.35000     110.00000     269.00000
         3     31033   F   0.35000     110.00000      91.00000
         3     31037   F   0.35000     110.00000     269.00000
         3     31041   F   0.35000     110.00000      91.00000
         3     31045   F   0.35000     110.00000     269.00000
         3     31049   F   0.35000     110.00000      91.00000
         3     31053   F   0.35000     110.00000     269.00000
         3     31057   F   0.35000     110.00000      91.00000
         3     31061   F   0.35000     110.00000     269.00000
         3     31065   F   0.35000     110.00000      91.00000
         3     31069   F   0.35000     110.00000     269.00000
         3     31073   F   0.35000     110.00000      91.00000
         3     31077   F   0.35000     110.00000     269.00000
         3     31081   F   0.35000     110.00000      91.00000
         3     31085   F   0.35000     110.00000     269.00000
         3     31089   F   0.35000     110.00000      91.00000
         3     31093   F   0.35000     110.00000     269.00000
         3     31097   F   0.35000     110.00000      91.00000
         3     31101   F   0.35000     110.00000     269.00000
         3     31105   F   0.35000     110.00000      91.00000
         3     31109   F   0.35000     110.00000     269.00000
         3     31113   F   0.35000     110.00000      91.00000
         3     31117   F   0.35000     110.00000     269.00000
         3     31121   F   0.35000     110.00000      91.00000
         3     31125   F   0.35000     110.00000     269.00000
         3     31129   F   0.35000     110.00000      91.00000
         3     31133   F   0.35000     110.00000     269.00000
         3     31137   F   0.35000     110.00000      91.00000
         3     31141   F   0.35000     110.00000     269.00000
         3     31145   F   0.35000     110.00000      91.00000
         3     31149   F   0.35000     110.00000     269.00000
         3     31153   F   0.35000     110.00000      91.00000
         3     31157   F   0.35000     110.00000     269.00000
         3     31161   F   0.35000     110.00000      91.00000
         3     31165   F   0.35000     110.00000     269.00000
         3     31169   F   0.35000     110.00000      91.00000
         3     31173   F   0.35000     110.00000     269.00000
         3     31177   F   0.35000     110.00000      91.00000
         3     31181   F   0.35000     110.00000     269.00000
         3     31185   F   0.35000     110.00000      91.00000
         3     31189   F   0.35000     110.00000     269.00000
         3     31193   F   0.35000     110.00000      91.00000
         3     31197   F   0.35000     110.00000     269.00000
         3     31201   F   0.35000     110.00000      91.00000
         3     31205   F   0.35000     110.00000     269.00000
         3     31209   F   0.35000     110.00000      91.00000
         3     31213   F   0.35000     110.00000     269.00000
         3     31217   F   0.35000     110.00000      91.00000
         3     31221   F   0.35000     110.00000     269.00000
         3     31225   F   0.35000     110.00000      91.00000
         3     31229   F   0.35000     110.00000     269.00000
         3     31233   F   0.35000     110.00000      91.00000
         3     31237   F   0.35000     110.00000     269.00000
         3     31241   F   0.35000     110.00000      91.00000
         3     31245   F   0.35000     110.00000     269.00000
         3     31249   F   0.35000     110.00000      91.00000
         3     31253   F   0.35000     110.00000     269.00000
         3     31257   F   0.35000     110.00000      91.00000
         3     31261   F   0.35000     110.00000     269.00000
         3     31265   F   0.35000     110.00000      91.00000
         3     31269   F   0.35000     110.00000     269.00000
         3     31273   F   0.35000     110.00000      91.00000
         3     31277   F   0.35000     110.00000     269.00000
         3     31281   F   0.35000     110.00000      91.00000
         3     31285   F   0.35000     110.00000     269.00000
         3     31289   F   0.35000     110.00000      91.00000
         3     31293   F   0.35000     110.00000     269.00000
         3     31297   F   0.35000     110.00000      91.00000
         3     31301   F   0.35000     110.00000     269.00000
         3     31305   F   0.35000     110.00000      91.00000
         3     31309   F   0.35000     110.00000     269.00000
         3     31313   F   0.35000     110.00000      91.00000
         3     31317   F   0.35000     110.00000     269.00000
         3     31321   F   0.35000     110.00000      91.00000
         3     31325   F   0.35000     110.00000     269.00000
         3     31329   F   0.35000     110.00000      91.00000
         3     31333   F   0.35000     110.00000     269.00000
         3     31337   F   0.35000     110.00000      91.00000
         3     31341   F   0.35000     110.00000     269.00000
         3     31345   F   0.35000     110.00000      91.00000
         3     31349   F   0.35000     110.00000     269.00000
         3     31353   F   0.35000     110.00000      91.00000
         3     31357   F   0.35000     110.00000     269.00000
         3     31361   F   0.35000     110.00000      91.00000
         3     31365   F   0.35000     110.00000     269.00000
         3     31369   F   0.35000     110.00000      91.00000
         3     31373   F   0.35000     110.00000     269.00000
         3     31377   F   0.35000     110.00000      91.00000
         3     31381   F   0.35000     110.00000     269.00000
         3     31385   F   0.35000     110.00000      91.00000
         3     31389   F   0.35000     110.00000     269.00000
         3     31393   F   0.35000     110.00000      91.00000
         3     31397   F   0.35000     110.00000     269.00000
         3     31401   F   0.35000     110.00000      91.00000
         3     31405   F   0.35000     110.00000     269.00000
         3     31409   F   0.35000     110.00000      91.00000
         3     31413   F   0.35000     110.00000     269.00000
         3     31417   F   0.35000     110.00000      91.00000
         3     31421   F   0.35000     110.00000     269.00000
         3     31425   F   0.35000     110.00000      91.00000
         3     31429   F   0.35000     110.00000     269.00000
         3     31433   F   0.35000     110.00000      91.00000
         3     31437   F   0.35000     110.00000     269.00000
         3     31441   F   0.35000     110.00000      91.00000
         3     31445   F   0.35000     110.00000     269.00000
         3     31449   F   0.35000     110.00000      91.00000
         3     31453   F   0.35000     110.00000     269.00000
         3     31457   F   0.35000     110.00000      91.00000
         3     31461   F   0.35000     110.00000     269.00000
         3     31465   F   0.35000     110.00000      91.00000
         3     31469   F   0.35000     110.00000     269.00000
         3     31473   F   0.35000     110.00000      91.00000
         3     31477   F   0.35000     110.00000     269.00000
         3     31481   F   0.35000     110.00000      91.00000
         3     31485   F   0.35000     110.00000     269.00000
         3     31489   F   0.35000     110.00000      91.00000
         3     31493   F   0.35000     110.00000     269.00000
         3     31497   F   0.35000     110.00000      91.00000
         3     31501   F   0.35000     110.00000     269.00000
         3     31505   F   0.35000     110.00000      91.00000
         3     31509   F   0.35000     110.00000     269.00000
         3     31513   F   0.35000     110.00000      91.00000
         3     31517   F   0.35000     110.00000     269.00000
         3     31521   F   0.35000     110.00000      91.00000
         3     31525   F   0.35000     110.00000     269.00000
         3     31529   F   0.35000     110.00000      91.00000
         3     31533   F   0.35000     110.00000     269.00000
         3     31537   F   0.35000     110.00000      91.00000
         3     31541   F   0.35000     110.00000     269.00000
         3     31545   F   0.35000     110.00000      91.00000
         3     31549   F   0.35000     110.00000     269.00000
         3     31553   F   0.35000     110.00000      91.00000
         3     31557   F   0.35000     110.00000     269.00000
         3     31561   F   0.35000     110.00000      91.00000
         3     31565   F   0.35000     110.00000     269.00000
         3     31569   F   0.35000     110.00000      91.00000
         3     31573   F   0.35000     110.00000     269.00000
         3     31577   F   0.35000     110.00000      91.00000
         3     31581   F   0.35000     110.00000     269.00000
         3     31585   F   0.35000     110.00000      91.00000
         3     31589   F   0.35000     110.00000     269.00000
         3     31593   F   0.35000     110.00000      91.00000
         3     31597   F   0.35000     110.00000     269.00000
         3     31601   F   0.35000     110.00000      91.00000
         3     31605   F   0.35000     110.00000     269.00000
         3     31609   F   0.35000     110.00000      91.00000
         3     31613   F   0.35000     110.00000     269.00000
         3     31617   F   0.35000     110.00000      91.00000
         3     31621   F   0.35000     110.00000     269.00000
         3     31625   F   0.35000     110.00000      91.00000
         3     31629   F   0.35000     110.00000     269.00000
         3     31633   F   0.35000     110.00000      91.00000
         3     31637   F   0.35000     110.00000     269.00000
         3     31641   F   0.35000     110.00000      91.00000
         3     31645   F   0.35000     110.00000     269.00000
         3     31649   F   0.35000     110.00000      91.00000
         3     31653   F   0.35000     110.00000     269.00000
         3     31657   F   0.35000     110.00000      91.00000
         3     31661   F   0.35000     110.00000     269.00000
         3     31665   F   0.35000     110.00000      91.00000
         3     31669   F   0.35000     110.00000     269.00000
         3     31673   F   0.35000     110.00000      91.00000
         3     31677   F   0.35000     110.00000     269.00000
         3     31681   F   0.35000     110.00000      91.00000
         3     31685   F   0.35000     110.00000     269.00000
         3     31689   F   0.35000     110.00000      91.00000
         3     31693   F   0.35000     110.00000     269.00000
         3     31697   F   0.35000     110.00000      91.00000
         3     31701   F   0.35000     110.00000     269.00000
         3     31705   F   0.35000     110.00000      91.00000
         3     31709   F   0.35000     110.00000     269.00000
         3     31713   F   0.35000     110.00000      91.00000
         3     31717   F   0.35000     110.00000     269.00000
         3     31721   F   0.35000     110.00000      91.00000
         3     31725   F   0.35000     110.00000     269.00000
         3     31729   F   0.35000     110.00000      91.00000
         3     31733   F   0.35000     110.00000     269.00000
         3     31737   F   0.35000     110.00000      91.00000
         3     31741   F   0.35000     110.00000     269.00000
         3     31745   F   0.35000     110.00000      91.00000
         3     31749   F   0.35000     110.00000     269.00000
         3     31753   F   0.35000     110.00000      91.00000
         3     31757   F   0.35000     110.00000     269.00000
         3     31761   F   0.35000     110.00000      91.00000
         3     31765   F   0.35000     110.00000     269.00000
         3     31769   F   0.35000     110.00000      91.00000
         3     31773   F   0.35000     110.00000     269.00000
         3     31777   F   0.35000     110.00000      91.00000
         3     31781   F   0.35000     110.00000     269.00000
         3     31785   F   0.35000     110.00000      91.00000
         3     31789   F   0.35000     110.00000     269.00000
         3     31793   F   0.35000     110.00000      91.00000
         3     31797   F   0.35000     110.00000     269.00000
         3     31801   F   0.35000     110.00000      91.00000
         3     31805   F   0.35000     110.00000     269.00000
         3     31809   F   0.35000     110.00000      91.00000
         3     31813   F   0.35000     110.00000     269.00000
         3     31817   F   0.35000     110.00000      91.00000
         3     31821   F   0.35000     110.00000     269.00000
         3     31825   F   0.35000     110.00000      91.00000
         3     31829   F   0.35000     110.00000     269.00000
         3     31833   F   0.35000     110.00000      91.00000
         3     31837   F   0.35000     110.00000     269.00000
         3     31841   F   0.35000     110.00000      91.00000
         3     31845   F   0.35000     110.00000     269.00000
         3     31849   F   0.35000     110.00000      91.00000
         3     31853   F   0.35000     110.00000     269.00000
         3     31857   F   0.35000     110.00000      91.00000
         3     31861   F   0.35000     110.00000     269.00000
         3     31865   F   0.35000     110.00000      91.00000
         3     31869   F   0.35000     110.00000     269.00000
         3     31873   F   0.35000     110.00000      91.00000
         3     31877   F   0.35000     110.00000     269.00000
         3     31881   F   0.35000     110.00000      91.00000
         3     31885   F   0.35000     110.00000     269.00000
         3     31889   F   0.35000     110.00000      91.00000
         3     31893   F   0.35000     110.00000     269.00000
         3     31897   F   0.35000     110.00000      91.00000
         3     31901   F   0.35000     110.00000     269.00000
         3     31905   F   0.35000     110.00000      91.00000
         3     31909   F   0.35000     110.00000     269.00000
         3     31913   F   0.35000     110.00000      91.00000
         3     31917   F   0.35000     110.00000     269.00000
         3     31921   F   0.35000     110.00000      91.00000
         3     31925   F   0.35000     110.00000     269.00000
         3     31929   F   0.35000     110.00000      91.00000
         3     31933   F   0.35000     110.00000     269.00000
         3     31937   F   0.35000     110.00000      91.00000
         3     31941   F   0.35000     110.00000     269.00000
         3     31945   F   0.35000     110.00000      91.00000
         3     31949   F   0.35000     110.00000     269.00000
         3     31953   F   0.35000     110.00000      91.00000
         3     31957   F   0.35000     110.00000     269.00000
         3     31961   F   0.35000     110.00000      91.00000
         3     31965   F   0.35000     110.00000     269.00000
         3     31969   F   0.35000     110.00000      91.00000
         3     31973   F   0.35000     110.00000     269.00000
         3     31977   F   0.35000     110.00000      91.00000
         3     31981   F   0.35000     110.00000     269.00000
         3     31985   F   0.35000     110.00000      91.00000
         3     31989   F   0.35000     110.00000     269.00000
         3     31993   F   0.35000     110.00000      91.00000
         3     31997   F   0.35000     110.00000     269.00000
         3     32001   F   0.35000     110.00000      91.00000
         3     32005   F   0.35000     110.00000     269.00000
         3     32009   F   0.35000     110.00000      91.00000
         3     32013   F   0.35000     110.00000     269.00000
         3     32017   F   0.35000     110.00000      91.00000
         3     32021   F   0.35000     110.00000     269.00000
         3     32025   F   0.35000     110.00000      91.00000
         3     32029   F   0.35000     110.00000     269.00000
         3     32033   F   0.35000     110.00000      91.00000
         3     32037   F   0.35000     110.00000     269.00000
         3     32041   F   0.35000     110.00000      91.00000
         3     32045   F   0.35000     110.00000     269.00000
         3     32049   F   0.35000     110.00000      91.00000
         3     32053   F   0.35000     110.00000     269.00000
         3     32057   F   0.35000     110.00000      91.00000
         3     32061   F   0.35000     110.00000     269.00000
         3     32065   F   0.35000     110.00000      91.00000
         3     32069   F   0.35000     110.00000     269.00000
         3     32073   F   0.35000     110.00000      91.00000
         3     32077   F   0.35000     110.00000     269.00000
         3     32081   F   0.35000     110.00000      91.00000
         3     32085   F   0.35000     110.00000     269.00000
         3     32089   F   0.35000     110.00000      91.00000
         3     32093   F   0.35000     110.00000     269.00000
         3     32097   F   0.35000     110.00000      91.00000
         3     32101   F   0.35000     110.00000     269.00000
         3     32105   F   0.35000     110.00000      91.00000
         3     32109   F   0.35000     110.00000     269.00000
         3     32113   F   0.35000     110.00000      91.00000
         3     32117   F   0.35000     110.00000     269.00000
         3     32121   F   0.35000     110.00000      91.00000
         3     32125   F   0.35000     110.00000     269.00000
         3     32129   F   0.35000     110.00000      91.00000
         3     32133   F   0.35000     110.00000     269.00000
         3     32137   F   0.35000     110.00000      91.00000
         3     32141   F   0.35000     110.00000     269.00000
         3     32145   F   0.35000     110.00000      91.00000
         3     32149   F   0.35000     110.00000     269.00000
         3     32153   F   0.35000     110.00000      91.00000
         3     32157   F   0.35000     110.00000     269.00000
         3     32161   F   0.35000     110.00000      91.00000
         3     32165   F   0.35000     110.00000     269.00000
         3     32169   F   0.35000     110.00000      91.00000
         3     32173   F   0.35000     110.00000     269.00000
         3     32177   F   0.35000     110.00000      91.00000
         3     32181   F   0.35000     110.00000     269.00000
         3     32185   F   0.35000     110.00000      91.00000
         3     32189   F   0.35000     110.00000     269.00000
         3     32193   F   0.35000     110.00000      91.00000
         3     32197   F   0.35000     110.00000     269.00000
         3     32201   F   0.35000     110.00000      91.00000
         3     32205   F   0.35000     110.00000     269.00000
         3     32209   F   0.35000     110.00000      91.00000
         3     32213   F   0.35000     110.00000     269.00000
         3     32217   F   0.35000     110.00000      91.00000
         3     32221   F   0.35000     110.00000     269.00000
         3     32225   F   0.35000     110.00000      91.00000
         3     32229   F   0.35000     110.00000     269.00000
         3     32233   F   0.35000     110.00000      91.00000
         3     32237   F   0.35000     110.00000     269.00000
         3     32241   F   0.35000     110.00000      91.00000
         3     32245   F   0.35000     110.00000     269.00000
         3     32249   F   0.35000     110.00000      91.00000
         3     32253   F   0.35000     110.00000     269.00000
         3     32257   F   0.35000     110.00000      91.00000
         3     32261   F   0.35000     110.00000     269.00000
         3     32265   F   0.35000     110.00000      91.00000
         3     32269   F   0.35000     110.00000     269.00000
         3     32273   F   0.35000     110.00000      91.00000
         3     32277   F   0.35000     110.00000     269.00000
         3     32281   F   0.35000     110.00000      91.00000
         3     32285   F   0.35000     110.00000     269.00000
         3     32289   F   0.35000     110.00000      91.00000
         3     32293   F   0.35000     110.00000     269.00000
         3     32297   F   0.35000     110.00000      91.00000
         3     32301   F   0.35000     110.00000     269.00000
         3     32305   F   0.35000     110.00000      91.00000
         3     32309   F   0.35000     110.00000     269.00000
         3     32313   F   0.35000     110.00000      91.00000
         3     32317   F   0.35000     110.00000     269.00000
         3     32321   F   0.35000     110.00000      91.00000
         3     32325   F   0.35000     110.00000     269.00000
         3     32329   F   0.35000     110.00000      91.00000
         3     32333   F   0.35000     110.00000     269.00000
         3     32337   F   0.35000     110.00000      91.00000
         3     32341   F   0.35000     110.00000     269.00000
         3     32345   F   0.35000     110.00000      91.00000
         3     32349   F   0.35000     110.00000     269.00000
         3     32353   F   0.35000     110.00000      91.00000
         3     32357   F   0.35000     110.00000     269.00000
         3     32361   F   0.35000     110.00000      91.00000
         3     32365   F   0.35000     110.00000     269.00000
         3     32369   F   0.35000     110.00000      91.00000
         3     32373   F   0.35000     110.00000     269.00000
         3     32377   F   0.35000     110.00000      91.00000
         3     32381   F   0.35000     110.00000     269.00000
         3     32385   F   0.35000     110.00000      91.00000
         3     32389   F   0.35000     110.00000     269.00000
         3     32393   F   0.35000     110.00000      91.00000
         3     32397   F   0.35000     110.00000     269.00000
         3     32401   F   0.35000     110.00000      91.00000
         3     32405   F   0.35000     110.00000     269.00000
         3     32409   F   0.35000     110.00000      91.00000
         3     32413   F   0.35000     110.00000     269.00000
         3     32417   F   0.35000     110.00000      91.00000
         3     32421   F   0.35000     110.00000     269.00000
         3     32425   F   0.35000     110.00000      91.00000
         3     32429   F   0.35000     110.00000     269.00000
         3     32433   F   0.35000     110.00000      91.00000
         3     32437   F   0.35000     110.00000     269.00000
         3     32441   F   0.35000     110.00000      91.00000
         3     32445   F   0.35000     110.00000     269.00000
         3     32449   F   0.35000     110.00000      91.00000
         3     32453   F   0.35000     110.00000     269.00000
         3     32457   F   0.35000     110.00000      91.00000
         3     32461   F   0.35000     110.00000     269.00000
         3     32465   F   0.35000     110.00000      91.00000
         3     32469   F   0.35000     110.00000     269.00000
         3     32473   F   0.35000     110.00000      91.00000
         3     32477   F   0.35000     110.00000     269.00000
         3     32481   F   0.35000     110.00000      91.00000
         3     32485   F   0.35000     110.00000     269.00000
         3     32489   F   0.35000     110.00000      91.00000
         3     32493   F   0.35000     110.00000     269.00000
         3     32497   F   0.35000     110.00000      91.00000
         3     32501   F   0.35000     110.00000     269.00000
         3     32505   F   0.35000     110.00000      91.00000
         3     32509   F   0.35000     110.00000     269.00000
         3     32513   F   0.35000     110.00000      91.00000
         3     32517   F   0.35000     110.00000     269.00000
         3     32521   F   0.35000     110.00000      91.00000
         3     32525   F   0.35000     110.00000     269.00000
         3     32529   F   0.35000     110.00000      91.00000
         3     32533   F   0.35000     110.00000     269.00000
         3     32537   F   0.35000     110.00000      91.00000
         3     32541   F   0.35000     110.00000     269.00000
         3     32545   F   0.35000     110.00000      91.00000
         3     32549   F   0.35000     110.00000     269.00000
         3     32553   F   0.35000     110.00000      91.00000
         3     32557   F   0.35000     110.00000     269.00000
         3     32561   F   0.35000     110.00000      91.00000
         3     32565   F   0.35000     110.00000     269.00000
         3     32569   F   0.35000     110.00000      91.00000
         3     32573   F   0.35000     110.00000     269.00000
         3     32577   F   0.35000     110.00000      91.00000
         3     32581   F   0.35000     110.00000     269.00000
         3     32585   F   0.35000     110.00000      91.00000
         3     32589   F   0.35000     110.00000     269.00000
         3     32593   F   0.35000     110.00000      91.00000
         3     32597   F   0.35000     110.00000     269.00000
         3     32601   F   0.35000     110.00000      91.00000
         3     32605   F   0.35000     110.00000     269.00000
         3     32609   F   0.35000     110.00000      91.00000
         3     32613   F   0.35000     110.00000     269.00000
         3     32617   F   0.35000     110.00000      91.00000
         3     32621   F   0.35000     110.00000     269.00000
         3     32625   F   0.35000     110.00000      91.00000
         3     32629   F   0.35000     110.00000     269.00000
         3     32633   F   0.35000     110.00000      91.00000
         3     32637   F   0.35000     110.00000     269.00000
         3     32641   F   0.35000     110.00000      91.00000
         3     32645   F   0.35000     110.00000     269.00000
         3     32649   F   0.35000     110.00000      91.00000
         3     32653   F   0.35000     110.00000     269.00000
         3     32657   F   0.35000     110.00000      91.00000
         3     32661   F   0.35000     110.00000     269.00000
         3     32665   F   0.35000     110.00000      91.00000
         3     32669   F   0.35000     110.00000     269.00000
         3     32673   F   0.35000     110.00000      91.00000
         3     32677   F   0.35000     110.00000     269.00000
         3     32681   F   0.35000     110.00000      91.00000
         3     32685   F   0.35000     110.00000     269.00000
         3     32689   F   0.35000     110.00000      91.00000
         3     32693   F   0.35000     110.00000     269.00000
         3     32697   F   0.35000     110.00000      91.00000
         3     32701   F   0.35000     110.00000     269.00000
         3     32705   F   0.35000     110.00000      91.00000
         3     32709   F   0.35000     110.00000     269.00000
         3     32713   F   0.35000     110.00000      91.00000
         3     32717   F   0.35000     110.00000     269.00000
         3     32721   F   0.35000     110.00000      91.00000
         3     32725   F   0.35000     110.00000     269.00000
         3     32729   F   0.35000     110.00000      91.00000
         3     32733   F   0.35000     110.00000     269.00000
         3     32737   F   0.35000     110.00000      91.00000
         3     32741   F   0.35000     110.00000     269.00000
         3     32745   F   0.35000     110.00000      91.00000
         3     32749   F   0.35000     110.00000     269.00000
         3     32753   F   0.35000     110.00000      91.00000
         3     32757   F   0.35000     110.00000     269.00000
         3     32761   F   0.35000     110.00000      91.00000
         3     32765   F   0.35000     110.00000     269.00000
         3     32769   F   0.35000     110.00000      91.00000
         3     32773   F   0.35000     110.00000     269.00000
         3     32777   F   0.35000     110.00000      91.00000
         3     32781   F   0.35000     110.00000     269.00000
         3     32785   F   0.35000     110.00000      91.00000
         3     32789   F   0.35000     110.00000     269.00000
         3     32793   F   0.35000     110.00000      91.00000
         3     32797   F   0.35000     110.00000     269.00000
         3     32801   F   0.35000     110.00000      91.00000
         3     32805   F   0.35000     110.00000     269.00000
         3     32809   F   0.35000     110.00000      91.00000
         3     32813   F   0.35000     110.00000     269.00000
         3     32817   F   0.35000     110.00000      91.00000
         3     32821   F   0.35000     110.00000     269.00000
         3     32825   F   0.35000     110.00000      91.00000
         3     32829   F   0.35000     110.00000     269.00000
         3     32833   F   0.35000     110.00000      91.00000
         3     32837   F   0.35000     110.00000     269.00000
         3     32841   F   0.35000     110.00000      91.00000
         3     32845   F   0.35000     110.00000     269.00000
         3     32849   F   0.35000     110.00000      91.00000
         3     32853   F   0.35000     110.00000     269.00000
         3     32857   F   0.35000     110.00000      91.00000
         3     32861   F   0.35000     110.00000     269.00000
         3     32865   F   0.35000     110.00000      91.00000
         3     32869   F   0.35000     110.00000     269.00000
         3     32873   F   0.35000     110.00000      91.00000
         3     32877   F   0.35000     110.00000     269.00000
         3     32881   F   0.35000     110.00000      91.00000
         3     32885   F   0.35000     110.00000     269.00000
         3     32889   F   0.35000     110.00000      91.00000
         3     32893   F   0.35000     110.00000     269.00000
         3     32897   F   0.35000     110.00000      91.00000
         3     32901   F   0.35000     110.00000     269.00000
         3     32905   F   0.35000     110.00000      91.00000
         3     32909   F   0.35000     110.00000     269.00000
         3     32913   F   0.35000     110.00000      91.00000
         3     32917   F   0.35000     110.00000     269.00000
         3     32921   F   0.35000     110.00000      91.00000
         3     32925   F   0.35000     110.00000     269.00000
         3     32929   F   0.35000     110.00000      91.00000
         3     32933   F   0.35000     110.00000     269.00000
         3     32937   F   0.35000     110.00000      91.00000
         3     32941   F   0.35000     110.00000     269.00000
         3     32945   F   0.35000     110.00000      91.00000
         3     32949   F   0.35000     110.00000     269.00000
         3     32953   F   0.35000     110.00000      91.00000
         3     32957   F   0.35000     110.00000     269.00000
         3     32961   F   0.35000     110.00000      91.00000
         3     32965   F   0.35000     110.00000     269.00000
         3     32969   F   0.35000     110.00000      91.00000
         3     32973   F   0.35000     110.00000     269.00000
         3     32977   F   0.35000     110.00000      91.00000
         3     32981   F   0.35000     110.00000     269.00000
         3     32985   F   0.35000     110.00000      91.00000
         3     32989   F   0.35000     110.00000     269.00000
         3     32993   F   0.35000     110.00000      91.00000
         3     32997   F   0.35000     110.00000     269.00000
         3     33001   F   0.35000     110.00000      91.00000
         3     33005   F   0.35000     110.00000     269.00000
         3     33009   F   0.35000     110.00000      91.00000
         3     33013   F   0.35000     110.00000     269.00000
         3     33017   F   0.35000     110.00000      91.00000
         3     33021   F   0.35000     110.00000     269.00000
         3     33025   F   0.35000     110.00000      91.00000
         3     33029   F   0.35000     110.00000     269.00000
         3     33033   F   0.35000     110.00000      91.00000
         3     33037   F   0.35000     110.00000     269.00000
         3     33041   F   0.35000     110.00000      91.00000
         3     33045   F   0.35000     110.00000     269.00000
         3     33049   F   0.35000     110.00000      91.00000
         3     33053   F   0.35000     110.00000     269.00000
         3     33057   F   0.35000     110.00000      91.00000
         3     33061   F   0.35000     110.00000     269.00000
         3     33065   F   0.35000     110.00000      91.00000
         3     33069   F   0.35000     110.00000     269.00000
         3     33073   F   0.35000     110.00000      91.00000
         3     33077   F   0.35000     110.00000     269.00000
         3     33081   F   0.35000     110.00000      91.00000
         3     33085   F   0.35000     110.00000     269.00000
         3     33089   F   0.35000     110.00000      91.00000
         3     33093   F   0.35000     110.00000     269.00000
         3     33097   F   0.35000     110.00000      91.00000
         3     33101   F   0.35000     110.00000     269.00000
         3     33105   F   0.35000     110.00000      91.00000
         3     33109   F   0.35000     110.00000     269.00000
         3     33113   F   0.35000     110.00000      91.00000
         3     33117   F   0.35000     110.00000     269.00000
         3     33121   F   0.35000     110.00000      91.00000
         3     33125   F   0.35000     110.00000     269.00000
         3     33129   F   0.35000     110.00000      91.00000
         3     33133   F   0.35000     110.00000     269.00000
         3     33137   F   0.35000     110.00000      91.00000
         3     33141   F   0.35000     110.00000     269.00000
         3     33145   F   0.35000     110.00000      91.00000
         3     33149   F   0.35000     110.00000     269.00000
         3     33153   F   0.35000     110.00000      91.00000
         3     33157   F   0.35000     110.00000     269.00000
         3     33161   F   0.35000     110.00000      91.00000
         3     33165   F   0.35000     110.00000     269.00000
         3     33169   F   0.35000     110.00000      91.00000
         3     33173   F   0.35000     110.00000     269.00000
         3     33177   F   0.35000     110.00000      91.00000
         3     33181   F   0.35000     110.00000     269.00000
         3     33185   F   0.35000     110.00000      91.00000
         3     33189   F   0.35000     110.00000     269.00000
         3     33193   F   0.35000     110.00000      91.00000
         3     33197   F   0.35000     110.00000     269.00000
         3     33201   F   0.35000     110.00000      91.00000
         3     33205   F   0.35000     110.00000     269.00000
         3     33209   F   0.35000     110.00000      91.00000
         3     33213   F   0.35000     110.00000     269.00000
         3     33217   F   0.35000     110.00000      91.00000
         3     33221   F   0.35000     110.00000     269.00000
         3     33225   F   0.35000     110.00000      91.00000
         3     33229   F   0.35000     110.00000     269.00000
         3     33233   F   0.35000     110.00000      91.00000
         3     33237   F   0.35000     110.00000     269.00000
         3     33241   F   0.35000     110.00000      91.00000
         3     33245   F   0.35000     110.00000     269.00000
         3     33249   F   0.35000     110.00000      91.00000
         3     33253   F   0.35000     110.00000     269.00000
         3     33257   F   0.35000     110.00000      91.00000
         3     33261   F   0.35000     110.00000     269.00000
         3     33265   F   0.35000     110.00000      91.00000
         3     33269   F   0.35000     110.00000     269.00000
         3     33273   F   0.35000     110.00000      91.00000
         3     33277   F   0.35000     110.00000     269.00000
         3     33281   F   0.35000     110.00000      91.00000
         3     33285   F   0.35000     110.00000     269.00000
         3     33289   F   0.35000     110.00000      91.00000
         3     33293   F   0.35000     110.00000     269.00000
         3     33297   F   0.35000     110.00000      91.00000
         3     33301   F   0.35000     110.00000     269.00000
         3     33305   F   0.35000     110.00000      91.00000
         3     33309   F   0.35000     110.00000     269.00000
         3     33313   F   0.35000     110.00000      91.00000
         3     33317   F   0.35000     110.00000     269.00000
         3     33321   F   0.35000     110.00000      91.00000
         3     33325   F   0.35000     110.00000     269.00000
         3     33329   F   0.35000     110.00000      91.00000
         3     33333   F   0.35000     110.00000     269.00000
         3     33337   F   0.35000     110.00000      91.00000
         3     33341   F   0.35000     110.00000     269.00000
         3     33345   F   0.35000     110.00000      91.00000
         3     33349   F   0.35000     110.00000     269.00000
         3     33353   F   0.35000     110.00000      91.00000
         3     33357   F   0.35000     110.00000     269.00000
         3     33361   F   0.35000     110.00000      91.00000
         3     33365   F   0.35000     110.00000     269.00000
         3     33369   F   0.35000     110.00000      91.00000
         3     33373   F   0.35000     110.00000     269.00000
         3     33377   F   0.35000     110.00000      91.00000
         3     33381   F   0.35000     110.00000     269.00000
         3     33385   F   0.35000     110.00000      91.00000
         3     33389   F   0.35000     110.00000     269.00000
         3     33393   F   0.35000     110.00000      91.00000
         3     33397   F   0.35000     110.00000     269.00000
         3     33401   F   0.35000     110.00000      91.00000
         3     33405   F   0.35000     110.00000     269.00000
         3     33409   F   0.35000     110.00000      91.00000
         3     33413   F   0.35000     110.00000     269.00000
         3     33417   F   0.35000     110.00000      91.00000
         3     33421   F   0.35000     110.00000     269.00000
         3     33425   F   0.35000     110.00000      91.00000
         3     33429   F   0.35000     110.00000     269.00000
         3     33433   F   0.35000     110.00000      91.00000
         3     33437   F   0.35000     110.00000     269.00000
         3     33441   F   0.35000     110.00000      91.00000
         3     33445   F   0.35000     110.00000     269.00000
         3     33449   F   0.35000     110.00000      91.00000
         3     33453   F   0.35000     110.00000     269.00000
         3     33457   F   0.35000     110.00000      91.00000
         3     33461   F   0.35000     110.00000     269.00000
         3     33465   F   0.35000     110.00000      91.00000
         3     33469   F   0.35000     110.00000     269.00000
         3     33473   F   0.35000     110.00000      91.00000
         3     33477   F   0.35000     110.00000     269.00000
         3     33481   F   0.35000     110.00000      91.00000
         3     33485   F   0.35000     110.00000     269.00000
         3     33489   F   0.35000     110.00000      91.00000
         3     33493   F   0.35000     110.00000     269.00000
         3     33497   F   0.35000     110.00000      91.00000
         3     33501   F   0.35000     110.00000     269.00000
         3     33505   F   0.35000     110.00000      91.00000
         3     33509   F   0.35000     110.00000     269.00000
         3     33513   F   0.35000     110.00000      91.00000
         3     33517   F   0.35000     110.00000     269.00000
         3     33521   F   0.35000     110.00000      91.00000
         3     33525   F   0.35000     110.00000     269.00000
         3     33529   F   0.35000     110.00000      91.00000
         3     33533   F   0.35000     110.00000     269.00000
         3     33537   F   0.35000     110.00000      91.00000
         3     33541   F   0.35000     110.00000     269.00000
         3     33545   F   0.35000     110.00000      91.00000
         3     33549   F   0.35000     110.00000     269.00000
         3     33553   F   0.35000     110.00000      91.00000
         3     33557   F   0.35000     110.00000     269.00000
         3     33561   F   0.35000     110.00000      91.00000
         3     33565   F   0.35000     110.00000     269.00000
         3     33569   F   0.35000     110.00000      91.00000
         3     33573   F   0.35000     110.00000     269.00000
         3     33577   F   0.35000     110.00000      91.00000
         3     33581   F   0.35000     110.00000     269.00000
         3     33585   F   0.35000     110.00000      91.00000
         3     33589   F   0.35000     110.00000     269.00000
         3     33593   F   0.35000     110.00000      91.00000
         3     33597   F   0.35000     110.00000     269.00000
         3     33601   F   0.35000     110.00000      91.00000
         3     33605   F   0.35000     110.00000     269.00000
         3     33609   F   0.35000     110.00000      91.00000
         3     33613   F   0.35000     110.00000     269.00000
         3     33617   F   0.35000     110.00000      91.00000
         3     33621   F   0.35000     110.00000     269.00000
         3     33625   F   0.35000     110.00000      91.00000
         3     33629   F   0.35000     110.00000     269.00000
         3     33633   F   0.35000     110.00000      91.00000
         3     33637   F   0.35000     110.00000     269.00000
         3     33641   F   0.35000     110.00000      91.00000
         3     33645   F   0.35000     110.00000     269.00000
         3     33649   F   0.35000     110.00000      91.00000
         3     33653   F   0.35000     110.00000     269.00000
         3     33657   F   0.35000     110.00000      91.00000
         3     33661   F   0.35000     110.00000     269.00000
         3     33665   F   0.35000     110.00000      91.00000
         3     33669   F   0.35000     110.00000     269.00000
         3     33673   F   0.35000     110.00000      91.00000
         3     33677   F   0.35000     110.00000     269.00000
         3     33681   F   0.35000     110.00000      91.00000
         3     33685   F   0.35000     110.00000     269.00000
         3     33689   F   0.35000     110.00000      91.00000
         3     33693   F   0.35000     110.00000     269.00000
         3     33697   F   0.35000     110.00000      91.00000
         3     33701   F   0.35000     110.00000     269.00000
         3     33705   F   0.35000     110.00000      91.00000
         3     33709   F   0.35000     110.00000     269.00000
         3     33713   F   0.35000     110.00000      91.00000
         3     33717   F   0.35000     110.00000     269.00000
         3     33721   F   0.35000     110.00000      91.00000
         3     33725   F   0.35000     110.00000     269.00000
         3     33729   F   0.35000     110.00000      91.00000
         3     33733   F   0.35000     110.00000     269.00000
         3     33737   F   0.35000     110.00000      91.00000
         3     33741   F   0.35000     110.00000     269.00000
         3     33745   F   0.35000     110.00000      91.00000
         3     33749   F   0.35000     110.00000     269.00000
         3     33753   F   0.35000     110.00000      91.00000
         3     33757   F   0.35000     110.00000     269.00000
         3     33761   F   0.35000     110.00000      91.00000
         3     33765   F   0.35000     110.00000     269.00000
         3     33769   F   0.35000     110.00000      91.00000
         3     33773   F   0.35000     110.00000     269.00000
         3     33777   F   0.35000     110.00000      91.00000
         3     33781   F   0.35000     110.00000     269.00000
         3     33785   F   0.35000     110.00000      91.00000
         3     33789   F   0.35000     110.00000     269.00000
         3     33793   F   0.35000     110.00000      91.00000
         3     33797   F   0.35000     110.00000     269.00000
         3     33801   F   0.35000     110.00000      91.00000
         3     33805   F   0.35000     110.00000     269.00000
         3     33809   F   0.35000     110.00000      91.00000
         3     33813   F   0.35000     110.00000     269.00000
         3     33817   F   0.35000     110.00000      91.00000
         3     33821   F   0.35000     110.00000     269.00000
         3     33825   F   0.35000     110.00000      91.00000
         3     33829   F   0.35000     110.00000     269.00000
         3     33833   F   0.35000     110.00000      91.00000
         3     33837   F   0.35000     110.00000     269.00000
         3     33841   F   0.35000     110.00000      91.00000
         3     33845   F   0.35000     110.00000     269.00000
         3     33849   F   0.35000     110.00000      91.00000
         3     33853   F   0.35000     110.00000     269.00000
         3     33857   F   0.35000     110.00000      91.00000
         3     33861   F   0.35000     110.00000     269.00000
         3     33865   F   0.35000     110.00000      91.00000
         3     33869   F   0.35000     110.00000     269.00000
         3     33873   F   0.35000     110.00000      91.00000
         3     33877   F   0.35000     110.00000     269.00000
         3     33881   F   0.35000     110.00000      91.00000
         3     33885   F   0.35000     110.00000     269.00000
         3     33889   F   0.35000     110.00000      91.00000
         3     33893   F   0.35000     110.00000     269.00000
         3     33897   F   0.35000     110.00000      91.00000
         3     33901   F   0.35000     110.00000     269.00000
         3     33905   F   0.35000     110.00000      91.00000
         3     33909   F   0.35000     110.00000     269.00000
         3     33913   F   0.35000     110.00000      91.00000
         3     33917   F   0.35000     110.00000     269.00000
         3     33921   F   0.35000     110.00000      91.00000
         3     33925   F   0.35000     110.00000     269.00000
         3     33929   F   0.35000     110.00000      91.00000
         3     33933   F   0.35000     110.00000     269.00000
         3     33937   F   0.35000     110.00000      91.00000
         3     33941   F   0.35000     110.00000     269.00000
         3     33945   F   0.35000     110.00000      91.00000
         3     33949   F   0.35000     110.00000     269.00000
         3     33953   F   0.35000     110.00000      91.00000
         3     33957   F   0.35000     110.00000     269.00000
         3     33961   F   0.35000     110.00000      91.00000
         3     33965   F   0.35000     110.00000     269.00000
         3     33969   F   0.35000     110.00000      91.00000
         3     33973   F   0.35000     110.00000     269.00000
         3     33977   F   0.35000     110.00000      91.00000
         3     33981   F   0.35000     110.00000     269.00000
         3     33985   F   0.35000     110.00000      91.00000
         3     33989   F   0.35000     110.00000     269.00000
         3     33993   F   0.35000     110.00000      91.00000
         3     33997   F   0.35000     110.00000     269.00000
         3     34001   F   0.35000     110.00000      91.00000
         3     34005   F   0.35000     110.00000     269.00000
         3     34009   F   0.35000     110.00000      91.00000
         3     34013   F   0.35000     110.00000     269.00000
         3     34017   F   0.35000     110.00000      91.00000
         3     34021   F   0.35000     110.00000     269.00000
         3     34025   F   0.35000     110.00000      91.00000
         3     34029   F   0.35000     110.00000     269.00000
         3     34033   F   0.35000     110.00000      91.00000
         3     34037   F   0.35000     110.00000     269.00000
         3     34041   F   0.35000     110.00000      91.00000
         3     34045   F   0.35000     110.00000     269.00000
         3     34049   F   0.35000     110.00000      91.00000
         3     34053   F   0.35000     110.00000     269.00000
         3     34057   F   0.35000     110.00000      91.00000
         3     34061   F   0.35000     110.00000     269.00000
         3     34065   F   0.35000     110.00000      91.00000
         3     34069   F   0.35000     110.00000     269.00000
         3     34073   F   0.35000     110.00000      91.00000
         3     34077   F   0.35000     110.00000     269.00000
         3     34081   F   0.35000     110.00000      91.00000
         3     34085   F   0.35000     110.00000     269.00000
         3     34089   F   0.35000     110.00000      91.00000
         3     34093   F   0.35000     110.00000     269.00000
         3     34097   F   0.35000     110.00000      91.00000
         3     34101   F   0.35000     110.00000     269.00000
         3     34105   F   0.35000     110.00000      91.00000
         3     34109   F   0.35000     110.00000     269.00000
         3     34113   F   0.35000     110.00000      91.00000
         3     34117   F   0.35000     110.00000     269.00000
         3     34121   F   0.35000     110.00000      91.00000
         3     34125   F   0.35000     110.00000     269.00000
         3     34129   F   0.35000     110.00000      91.00000
         3     34133   F   0.35000     110.00000     269.00000
         3     34137   F   0.35000     110.00000      91.00000
         3     34141   F   0.35000     110.00000     269.00000
         3     34145   F   0.35000     110.00000      91.00000
         3     34149   F   0.35000     110.00000     269.00000
         3     34153   F   0.35000     110.00000      91.00000
         3     34157   F   0.35000     110.00000     269.00000
         3     34161   F   0.35000     110.00000      91.00000
         3     34165   F   0.35000     110.00000     269.00000
         3     34169   F   0.35000     110.00000      91.00000
         3     34173   F   0.35000     110.00000     269.00000
         3     34177   F   0.35000     110.00000      91.00000
         3     34181   F   0.35000     110.00000     269.00000
         3     34185   F   0.35000     110.00000      91.00000
         3     34189   F   0.35000     110.00000     269.00000
         3     34193   F   0.35000     110.00000      91.00000
         3     34197   F   0.35000     110.00000     269.00000
         3     34201   F   0.35000     110.00000      91.00000
         3     34205   F   0.35000     110.00000     269.00000
         3     34209   F   0.35000     110.00000      91.00000
         3     34213   F   0.35000     110.00000     269.00000
         3     34217   F   0.35000     110.00000      91.00000
         3     34221   F   0.35000     110.00000     269.00000
         3     34225   F   0.35000     110.00000      91.00000
         3     34229   F   0.35000     110.00000     269.00000
         3     34233   F   0.35000     110.00000      91.00000
         3     34237   F   0.35000     110.00000     269.00000
         3     34241   F   0.35000     110.00000      91.00000
         3     34245   F   0.35000     110.00000     269.00000
         3     34249   F   0.35000     110.00000      91.00000
         3     34253   F   0.35000     110.00000     269.00000
         3     34257   F   0.35000     110.00000      91.00000
         3     34261   F   0.35000     110.00000     269.00000
         3     34265   F   0.35000     110.00000      91.00000
         3     34269   F   0.35000     110.00000     269.00000
         3     34273   F   0.35000     110.00000      91.00000
         3     34277   F   0.35000     110.00000     269.00000
         3     34281   F   0.35000     110.00000      91.00000
         3     34285   F   0.35000     110.00000     269.00000
         3     34289   F   0.35000     110.00000      91.00000
         3     34293   F   0.35000     110.00000     269.00000
         3     34297   F   0.35000     110.00000      91.00000
         3     34301   F   0.35000     110.00000     269.00000
         3     34305   F   0.35000     110.00000      91.00000
         3     34309   F   0.35000     110.00000     269.00000
         3     34313   F   0.35000     110.00000      91.00000
         3     34317   F   0.35000     110.00000     269.00000
         3     34321   F   0.35000     110.00000      91.00000
         3     34325   F   0.35000     110.00000     269.00000
         3     34329   F   0.35000     110.00000      91.00000
         3     34333   F   0.35000     110.00000     269.00000
         3     34337   F   0.35000     110.00000      91.00000
         3     34341   F   0.35000     110.00000     269.00000
         3     34345   F   0.35000     110.00000      91.00000
         3     34349   F   0.35000     110.00000     269.00000
         3     34353   F   0.35000     110.00000      91.00000
         3     34357   F   0.35000     110.00000     269.00000
         3     34361   F   0.35000     110.00000      91.00000
         3     34365   F   0.35000     110.00000     269.00000
         3     34369   F   0.35000     110.00000      91.00000
         3     34373   F   0.35000     110.00000     269.00000
         3     34377   F   0.35000     110.00000      91.00000
         3     34381   F   0.35000     110.00000     269.00000
         3     34385   F   0.35000     110.00000      91.00000
         3     34389   F   0.35000     110.00000     269.00000
         3     34393   F   0.35000     110.00000      91.00000
         3     34397   F   0.35000     110.00000     269.00000
         3     34401   F   0.35000     110.00000      91.00000
         3     34405   F   0.35000     110.00000     269.00000
         3     34409   F   0.35000     110.00000      91.00000
         3     34413   F   0.35000     110.00000     269.00000
         3     34417   F   0.35000     110.00000      91.00000
         3     34421   F   0.35000     110.00000     269.00000
         3     34425   F   0.35000     110.00000      91.00000
         3     34429   F   0.35000     110.00000     269.00000
         3     34433   F   0.35000     110.00000      91.00000
         3     34437   F   0.35000     110.00000     269.00000
         3     34441   F   0.35000     110.00000      91.00000
         3     34445   F   0.35000     110.00000     269.00000
         3     34449   F   0.35000     110.00000      91.00000
         3     34453   F   0.35000     110.00000     269.00000
         3     34457   F   0.35000     110.00000      91.00000
         3     34461   F   0.35000     110.00000     269.00000
         3     34465   F   0.35000     110.00000      91.00000
         3     34469   F   0.35000     110.00000     269.00000
         3     34473   F   0.35000     110.00000      91.00000
         3     34477   F   0.35000     110.00000     269.00000
         3     34481   F   0.35000     110.00000      91.00000
         3     34485   F   0.35000     110.00000     269.00000
         3     34489   F   0.35000     110.00000      91.00000
         3     34493   F   0.35000     110.00000     269.00000
         3     34497   F   0.35000     110.00000      91.00000
         3     34501   F   0.35000     110.00000     269.00000
         3     34505   F   0.35000     110.00000      91.00000
         3     34509   F   0.35000     110.00000     269.00000
         3     34513   F   0.35000     110.00000      91.00000
         3     34517   F   0.35000     110.00000     269.00000
         3     34521   F   0.35000     110.00000      91.00000
         3     34525   F   0.35000     110.00000     269.00000
         3     34529   F   0.35000     110.00000      91.00000
         3     34533   F   0.35000     110.00000     269.00000
         3     34537   F   0.35000     110.00000      91.00000
         3     34541   F   0.35000     110.00000     269.00000
         3     34545   F   0.35000     110.00000      91.00000
         3     34549   F   0.35000     110.00000     269.00000
         3     34553   F   0.35000     110.00000      91.00000
         3     34557   F   0.35000     110.00000     269.00000
         3     34561   F   0.35000     110.00000      91.00000
         3     34565   F   0.35000     110.00000     269.00000
         3     34569   F   0.35000     110.00000      91.00000
         3     34573   F   0.35000     110.00000     269.00000
         3     34577   F   0.35000     110.00000      91.00000
         3     34581   F   0.35000     110.00000     269.00000
         3     34585   F   0.35000     110.00000      91.00000
         3     34589   F   0.35000     110.00000     269.00000
         3     34593   F   0.35000     110.00000      91.00000
         3     34597   F   0.35000     110.00000     269.00000
         3     34601   F   0.35000     110.00000      91.00000
         3     34605   F   0.35000     110.00000     269.00000
         3     34609   F   0.35000     110.00000      91.00000
         3     34613   F   0.35000     110.00000     269.00000
         3     34617   F   0.35000     110.00000      91.00000
         3     34621   F   0.35000     110.00000     269.00000
         3     34625   F   0.35000     110.00000      91.00000
         3     34629   F   0.35000     110.00000     269.00000
         3     34633   F   0.35000     110.00000      91.00000
         3     34637   F   0.35000     110.00000     269.00000
         3     34641   F   0.35000     110.00000      91.00000
         3     34645   F   0.35000     110.00000     269.00000
         3     34649   F   0.35000     110.00000      91.00000
         3     34653   F   0.35000     110.00000     269.00000
         3     34657   F   0.35000     110.00000      91.00000
         3     34661   F   0.35000     110.00000     269.00000
         3     34665   F   0.35000     110.00000      91.00000
         3     34669   F   0.35000     110.00000     269.00000
         3     34673   F   0.35000     110.00000      91.00000
         3     34677   F   0.35000     110.00000     269.00000
         3     34681   F   0.35000     110.00000      91.00000
         3     34685   F   0.35000     110.00000     269.00000
         3     34689   F   0.35000     110.00000      91.00000
         3     34693   F   0.35000     110.00000     269.00000
         3     34697   F   0.35000     110.00000      91.00000
         3     34701   F   0.35000     110.00000     269.00000
         3     34705   F   0.35000     110.00000      91.00000
         3     34709   F   0.35000     110.00000     269.00000
         3     34713   F   0.35000     110.00000      91.00000
         3     34717   F   0.35000     110.00000     269.00000
         3     34721   F   0.35000     110.00000      91.00000
         3     34725   F   0.35000     110.00000     269.00000
         3     34729   F   0.35000     110.00000      91.00000
         3     34733   F   0.35000     110.00000     269.00000
         3     34737   F   0.35000     110.00000      91.00000
         3     34741   F   0.35000     110.00000     269.00000
         3     34745   F   0.35000     110.00000      91.00000
         3     34749   F   0.35000     110.00000     269.00000
         3     34753   F   0.35000     110.00000      91.00000
         3     34757   F   0.35000     110.00000     269.00000
         3     34761   F   0.35000     110.00000      91.00000
         3     34765   F   0.35000     110.00000     269.00000
         3     34769   F   0.35000     110.00000      91.00000
         3     34773   F   0.35000     110.00000     269.00000
         3     34777   F   0.35000     110.00000      91.00000
         3     34781   F   0.35000     110.00000     269.00000
         3     34785   F   0.35000     110.00000      91.00000
         3     34789   F   0.35000     110.00000     269.00000
         3     34793   F   0.35000     110.00000      91.00000
         3     34797   F   0.35000     110.00000     269.00000
         3     34801   F   0.35000     110.00000      91.00000
         3     34805   F   0.35000     110.00000     269.00000
         3     34809   F   0.35000     110.00000      91.00000
         3     34813   F   0.35000     110.00000     269.00000
         3     34817   F   0.35000     110.00000      91.00000
         3     34821   F   0.35000     110.00000     269.00000
         3     34825   F   0.35000     110.00000      91.00000
         3     34829   F   0.35000     110.00000     269.00000
         3     34833   F   0.35000     110.00000      91.00000
         3     34837   F   0.35000     110.00000     269.00000
         3     34841   F   0.35000     110.00000      91.00000
         3     34845   F   0.35000     110.00000     269.00000
         3     34849   F   0.35000     110.00000      91.00000
         3     34853   F   0.35000     110.00000     269.00000
         3     34857   F   0.35000     110.00000      91.00000
         3     34861   F   0.35000     110.00000     269.00000
         3     34865   F   0.35000     110.00000      91.00000
         3     34869   F   0.35000     110.00000     269.00000
         3     34873   F   0.35000     110.00000      91.00000
         3     34877   F   0.35000     110.00000     269.00000
         3     34881   F   0.35000     110.00000      91.00000
         3     34885   F   0.35000     110.00000     269.00000
         3     34889   F   0.35000     110.00000      91.00000
         3     34893   F   0.35000     110.00000     269.00000
         3     34897   F   0.35000     110.00000      91.00000
         3     34901   F   0.35000     110.00000     269.00000
         3     34905   F   0.35000     110.00000      91.00000
         3     34909   F   0.35000     110.00000     269.00000
         3     34913   F   0.35000     110.00000      91.00000
         3     34917   F   0.35000     110.00000     269.00000
         3     34921   F   0.35000     110.00000      91.00000
         3     34925   F   0.35000     110.00000     269.00000
         3     34929   F   0.35000     110.00000      91.00000
         3     34933   F   0.35000     110.00000     269.00000
         3     34937   F   0.35000     110.00000      91.00000
         3     34941   F   0.35000     110.00000     269.00000
         3     34945   F   0.35000     110.00000      91.00000
         3     34949   F   0.35000     110.00000     269.00000
         3     34953   F   0.35000     110.00000      91.00000
         3     34957   F   0.35000     110.00000     269.00000
         3     34961   F   0.35000     110.00000      91.00000
         3     34965   F   0.35000     110.00000     269.00000
         3     34969   F   0.35000     110.00000      91.00000
         3     34973   F   0.35000     110.00000     269.00000
         3     34977   F   0.35000     110.00000      91.00000
         3     34981   F   0.35000     110.00000     269.00000
         3     34985   F   0.35000     110.00000      91.00000
         3     34989   F   0.35000     110.00000     269.00000
         3     34993   F   0.35000     110.00000      91.00000
         3     34997   F   0.35000     110.00000     269.00000
         3     35001   F   0.35000     110.00000      91.00000
         3     35005   F   0.35000     110.00000     269.00000
         3     35009   F   0.35000     110.00000      91.00000
         3     35013   F   0.35000     110.00000     269.00000
         3     35017   F   0.35000     110.00000      91.00000
         3     35021   F   0.35000     110.00000     269.00000
         3     35025   F   0.35000     110.00000      91.00000
         3     35029   F   0.35000     110.00000     269.00000
         3     35033   F   0.35000     110.00000      91.00000
         3     35037   F   0.35000     110.00000     269.00000
         3     35041   F   0.35000     110.00000      91.00000
         3     35045   F   0.35000     110.00000     269.00000
         3     35049   F   0.35000     110.00000      91.00000
         3     35053   F   0.35000     110.00000     269.00000
         3     35057   F   0.35000     110.00000      91.00000
         3     35061   F   0.35000     110.00000     269.00000
         3     35065   F   0.35000     110.00000      91.00000
         3     35069   F   0.35000     110.00000     269.00000
         3     35073   F   0.35000     110.00000      91.00000
         3     35077   F   0.35000     110.00000     269.00000
         3     35081   F   0.35000     110.00000      91.00000
         3     35085   F   0.35000     110.00000     269.00000
         3     35089   F   0.35000     110.00000      91.00000
         3     35093   F   0.35000     110.00000     269.00000
         3     35097   F   0.35000     110.00000      91.00000
         3     35101   F   0.35000     110.00000     269.00000
         3     35105   F   0.35000     110.00000      91.00000
         3     35109   F   0.35000     110.00000     269.00000
         3     35113   F   0.35000     110.00000      91.00000
         3     35117   F   0.35000     110.00000     269.00000
         3     35121   F   0.35000     110.00000      91.00000
         3     35125   F   0.35000     110.00000     269.00000
         3     35129   F   0.35000     110.00000      91.00000
         3     35133   F   0.35000     110.00000     269.00000
         3     35137   F   0.35000     110.00000      91.00000
         3     35141   F   0.35000     110.00000     269.00000
         3     35145   F   0.35000     110.00000      91.00000
         3     35149   F   0.35000     110.00000     269.00000
         3     35153   F   0.35000     110.00000      91.00000
         3     35157   F   0.35000     110.00000     269.00000
         3     35161   F   0.35000     110.00000      91.00000
         3     35165   F   0.35000     110.00000     269.00000
         3     35169   F   0.35000     110.00000      91.00000
         3     35173   F   0.35000     110.00000     269.00000
         3     35177   F   0.35000     110.00000      91.00000
         3     35181   F   0.35000     110.00000     269.00000
         3     35185   F   0.35000     110.00000      91.00000
         3     35189   F   0.35000     110.00000     269.00000
         3     35193   F   0.35000     110.00000      91.00000
         3     35197   F   0.35000     110.00000     269.00000
         3     35201   F   0.35000     110.00000      91.00000
         3     35205   F   0.35000     110.00000     269.00000
         3     35209   F   0.35000     110.00000      91.00000
         3     35213   F   0.35000     110.00000     269.00000
         3     35217   F   0.35000     110.00000      91.00000
         3     35221   F   0.35000     110.00000     269.00000
         3     35225   F   0.35000     110.00000      91.00000
         3     35229   F   0.35000     110.00000     269.00000
         3     35233   F   0.35000     110.00000      91.00000
         3     35237   F   0.35000     110.00000     269.00000
         3     35241   F   0.35000     110.00000      91.00000
         3     35245   F   0.35000     110.00000     269.00000
         3     35249   F   0.35000     110.00000      91.00000
         3     35253   F   0.35000     110.00000     269.00000
         3     35257   F   0.35000     110.00000      91.00000
         3     35261   F   0.35000     110.00000     269.00000
         3     35265   F   0.35000     110.00000      91.00000
         3     35269   F   0.35000     110.00000     269.00000
         3     35273   F   0.35000     110.00000      91.00000
         3     35277   F   0.35000     110.00000     269.00000
         3     35281   F   0.35000     110.00000      91.00000
         3     35285   F   0.35000     110.00000     269.00000
         3     35289   F   0.35000     110.00000      91.00000
         3     35293   F   0.35000     110.00000     269.00000
         3     35297   F   0.35000     110.00000      91.00000
         3     35301   F   0.35000     110.00000     269.00000
         3     35305   F   0.35000     110.00000      91.00000
         3     35309   F   0.35000     110.00000     269.00000
         3     35313   F   0.35000     110.00000      91.00000
         3     35317   F   0.35000     110.00000     269.00000
         3     35321   F   0.35000     110.00000      91.00000
         3     35325   F   0.35000     110.00000     269.00000
         3     35329   F   0.35000     110.00000      91.00000
         3     35333   F   0.35000     110.00000     269.00000
         3     35337   F   0.35000     110.00000      91.00000
         3     35341   F   0.35000     110.00000     269.00000
         3     35345   F   0.35000     110.00000      91.00000
         3     35349   F   0.35000     110.00000     269.00000
         3     35353   F   0.35000     110.00000      91.00000
         3     35357   F   0.35000     110.00000     269.00000
         3     35361   F   0.35000     110.00000      91.00000
         3     35365   F   0.35000     110.00000     269.00000
         3     35369   F   0.35000     110.00000      91.00000
         3     35373   F   0.35000     110.00000     269.00000
         3     35377   F   0.35000     110.00000      91.00000
         3     35381   F   0.35000     110.00000     269.00000
         3     35385   F   0.35000     110.00000      91.00000
         3     35389   F   0.35000     110.00000     269.00000
         3     35393   F   0.35000     110.00000      91.00000
         3     35397   F   0.35000     110.00000     269.00000
         3     35401   F   0.35000     110.00000      91.00000
         3     35405   F   0.35000     110.00000     269.00000
         3     35409   F   0.35000     110.00000      91.00000
         3     35413   F   0.35000     110.00000     269.00000
         3     35417   F   0.35000     110.00000      91.00000
         3     35421   F   0.35000     110.00000     269.00000
         3     35425   F   0.35000     110.00000      91.00000
         3     35429   F   0.35000     110.00000     269.00000
         3     35433   F   0.35000     110.00000      91.00000
         3     35437   F   0.35000     110.00000     269.00000
         3     35441   F   0.35000     110.00000      91.00000
         3     35445   F   0.35000     110.00000     269.00000
         3     35449   F   0.35000     110.00000      91.00000
         3     35453   F   0.35000     110.00000     269.00000
         3     35457   F   0.35000     110.00000      91.00000
         3     35461   F   0.35000     110.00000     269.00000
         3     35465   F   0.35000     110.00000      91.00000
         3     35469   F   0.35000     110.00000     269.00000
         3     35473   F   0.35000     110.00000      91.00000
         3     35477   F   0.35000     110.00000     269.00000
         3     35481   F   0.35000     110.00000      91.00000
         3     35485   F   0.35000     110.00000     269.00000
         3     35489   F   0.35000     110.00000      91.00000
         3     35493   F   0.35000     110.00000     269.00000
         3     35497   F   0.35000     110.00000      91.00000
         3     35501   F   0.35000     110.00000     269.00000
         3     35505   F   0.35000     110.00000      91.00000
         3     35509   F   0.35000     110.00000     269.00000
         3     35513   F   0.35000     110.00000      91.00000
         3     35517   F   0.35000     110.00000     269.00000
         3     35521   F   0.35000     110.00000      91.00000
         3     35525   F   0.35000     110.00000     269.00000
         3     35529   F   0.35000     110.00000      91.00000
         3     35533   F   0.35000     110.00000     269.00000
         3     35537   F   0.35000     110.00000      91.00000
         3     35541   F   0.35000     110.00000     269.00000
         3     35545   F   0.35000     110.00000      91.00000
         3     35549   F   0.35000     110.00000     269.00000
         3     35553   F   0.35000     110.00000      91.00000
         3     35557   F   0.35000     110.00000     269.00000
         3     35561   F   0.35000     110.00000      91.00000
         3     35565   F   0.35000     110.00000     269.00000
         3     35569   F   0.35000     110.00000      91.00000
         3     35573   F   0.35000     110.00000     269.00000
         3     35577   F   0.35000     110.00000      91.00000
         3     35581   F   0.35000     110.00000     269.00000
         3     35585   F   0.35000     110.00000      91.00000
         3     35589   F   0.35000     110.00000     269.00000
         3     35593   F   0.35000     110.00000      91.00000
         3     35597   F   0.35000     110.00000     269.00000
         3     35601   F   0.35000     110.00000      91.00000
         3     35605   F   0.35000     110.00000     269.00000
         3     35609   F   0.35000     110.00000      91.00000
         3     35613   F   0.35000     110.00000     269.00000
         3     35617   F   0.35000     110.00000      91.00000
         3     35621   F   0.35000     110.00000     269.00000
         3     35625   F   0.35000     110.00000      91.00000
         3     35629   F   0.35000     110.00000     269.00000
         3     35633   F   0.35000     110.00000      91.00000
         3     35637   F   0.35000     110.00000     269.00000
         3     35641   F   0.35000     110.00000      91.00000
         3     35645   F   0.35000     110.00000     269.00000
         3     35649   F   0.35000     110.00000      91.00000
         3     35653   F   0.35000     110.00000     269.00000
         3     35657   F   0.35000     110.00000      91.00000
         3     35661   F   0.35000     110.00000     269.00000
         3     35665   F   0.35000     110.00000      91.00000
         3     35669   F   0.35000     110.00000     269.00000
         3     35673   F   0.35000     110.00000      91.00000
         3     35677   F   0.35000     110.00000     269.00000
         3     35681   F   0.35000     110.00000      91.00000
         3     35685   F   0.35000     110.00000     269.00000
         3     35689   F   0.35000     110.00000      91.00000
         3     35693   F   0.35000     110.00000     269.00000
         3     35697   F   0.35000     110.00000      91.00000
         3     35701   F   0.35000     110.00000     269.00000
         3     35705   F   0.35000     110.00000      91.00000
         3     35709   F   0.35000     110.00000     269.00000
         3     35713   F   0.35000     110.00000      91.00000
         3     35717   F   0.35000     110.00000     269.00000
         3     35721   F   0.35000     110.00000      91.00000
         3     35725   F   0.35000     110.00000     269.00000
         3     35729   F   0.35000     110.00000      91.00000
         3     35733   F   0.35000     110.00000     269.00000
         3     35737   F   0.35000     110.00000      91.00000
         3     35741   F   0.35000     110.00000     269.00000
         3     35745   F   0.35000     110.00000      91.00000
         3     35749   F   0.35000     110.00000     269.00000
         3     35753   F   0.35000     110.00000      91.00000
         3     35757   F   0.35000     110.00000     269.00000
         3     35761   F   0.35000     110.00000      91.00000
         3     35765   F   0.35000     110.00000     269.00000
         3     35769   F   0.35000     110.00000      91.00000
         3     35773   F   0.35000     110.00000     269.00000
         3     35777   F   0.35000     110.00000      91.00000
         3     35781   F   0.35000     110.00000     269.00000
         3     35785   F   0.35000     110.00000      91.00000
         3     35789   F   0.35000     110.00000     269.00000
         3     35793   F   0.35000     110.00000      91.00000
         3     35797   F   0.35000     110.00000     269.00000
         3     35801   F   0.35000     110.00000      91.00000
         3     35805   F   0.35000     110.00000     269.00000
         3     35809   F   0.35000     110.00000      91.00000
         3     35813   F   0.35000     110.00000     269.00000
         3     35817   F   0.35000     110.00000      91.00000
         3     35821   F   0.35000     110.00000     269.00000
         3     35825   F   0.35000     110.00000      91.00000
         3     35829   F   0.35000     110.00000     269.00000
         3     35833   F   0.35000     110.00000      91.00000
         3     35837   F   0.35000     110.00000     269.00000
         3     35841   F   0.35000     110.00000      91.00000
         3     35845   F   0.35000     110.00000     269.00000
         3     35849   F   0.35000     110.00000      91.00000
         3     35853   F   0.35000     110.00000     269.00000
         3     35857   F   0.35000     110.00000      91.00000
         3     35861   F   0.35000     110.00000     269.00000
         3     35865   F   0.35000     110.00000      91.00000
         3     35869   F   0.35000     110.00000     269.00000
         3     35873   F   0.35000     110.00000      91.00000
         3     35877   F   0.35000     110.00000     269.00000
         3     35881   F   0.35000     110.00000      91.00000
         3     35885   F   0.35000     110.00000     269.00000
         3     35889   F   0.35000     110.00000      91.00000
         3     35893   F   0.35000     110.00000     269.00000
         3     35897   F   0.35000     110.00000      91.00000
         3     35901   F   0.35000     110.00000     269.00000
         3     35905   F   0.35000     110.00000      91.00000
         3     35909   F   0.35000     110.00000     269.00000
         3     35913   F   0.35000     110.00000      91.00000
         3     35917   F   0.35000     110.00000     269.00000
         3     35921   F   0.35000     110.00000      91.00000
         3     35925   F   0.35000     110.00000     269.00000
         3     35929   F   0.35000     110.00000      91.00000
         3     35933   F   0.35000     110.00000     269.00000
         3     35937   F   0.35000     110.00000      91.00000
         3     35941   F   0.35000     110.00000     269.00000
         3     35945   F   0.35000     110.00000      91.00000
         3     35949   F   0.35000     110.00000     269.00000
         3     35953   F   0.35000     110.00000      91.00000
         3     35957   F   0.35000     110.00000     269.00000
         3     35961   F   0.35000     110.00000      91.00000
         3     35965   F   0.35000     110.00000     269.00000
         3     35969   F   0.35000     110.00000      91.00000
         3     35973   F   0.35000     110.00000     269.00000
         3     35977   F   0.35000     110.00000      91.00000
         3     35981   F   0.35000     110.00000     269.00000
         3     35985   F   0.35000     110.00000      91.00000
         3     35989   F   0.35000     110.00000     269.00000
         3     35993   F   0.35000     110.00000      91.00000
         3     35997   F   0.35000     110.00000     269.00000
         3     36001   F   0.35000     110.00000      91.00000
         3     36005   F   0.35000     110.00000     269.00000
         3     36009   F   0.35000     110.00000      91.00000
         3     36013   F   0.35000     110.00000     269.00000
         3     36017   F   0.35000     110.00000      91.00000
         3     36021   F   0.35000     110.00000     269.00000
         3     36025   F   0.35000     110.00000      91.00000
         3     36029   F   0.35000     110.00000     269.00000
         3     36033   F   0.35000     110.00000      91.00000
         3     36037   F   0.35000     110.00000     269.00000
         3     36041   F   0.35000     110.00000      91.00000
         3     36045   F   0.35000     110.00000     269.00000
         3     36049   F   0.35000     110.00000      91.00000
         3     36053   F   0.35000     110.00000     269.00000
         3     36057   F   0.35000     110.00000      91.00000
         3     36061   F   0.35000     110.00000     269.00000
         3     36065   F   0.35000     110.00000      91.00000
         3     36069   F   0.35000     110.00000     269.00000
         3     36073   F   0.35000     110.00000      91.00000
         3     36077   F   0.35000     110.00000     269.00000
         3     36081   F   0.35000     110.00000      91.00000
         3     36085   F   0.35000     110.00000     269.00000
         3     36089   F   0.35000     110.00000      91.00000
         3     36093   F   0.35000     110.00000     269.00000
         3     36097   F   0.35000     110.00000      91.00000
         3     36101   F   0.35000     110.00000     269.00000
         3     36105   F   0.35000     110.00000      91.00000
         3     36109   F   0.35000     110.00000     269.00000
         3     36113   F   0.35000     110.00000      91.00000
         3     36117   F   0.35000     110.00000     269.00000
         3     36121   F   0.35000     110.00000      91.00000
         3     36125   F   0.35000     110.00000     269.00000
         3     36129   F   0.35000     110.00000      91.00000
         3     36133   F   0.35000     110.00000     269.00000
         3     36137   F   0.35000     110.00000      91.00000
         3     36141   F   0.35000     110.00000     269.00000
         3     36145   F   0.35000     110.00000      91.00000
         3     36149   F   0.35000     110.00000     269.00000
         3     36153   F   0.35000     110.00000      91.00000
         3     36157   F   0.35000     110.00000     269.00000
         3     36161   F   0.35000     110.00000      91.00000
         3     36165   F   0.35000     110.00000     269.00000
         3     36169   F   0.35000     110.00000      91.00000
         3     36173   F   0.35000     110.00000     269.00000
         3     36177   F   0.35000     110.00000      91.00000
         3     36181   F   0.35000     110.00000     269.00000
         3     36185   F   0.35000     110.00000      91.00000
         3     36189   F   0.35000     110.00000     269.00000
         3     36193   F   0.35000     110.00000      91.00000
         3     36197   F   0.35000     110.00000     269.00000
         3     36201   F   0.35000     110.00000      91.00000
         3     36205   F   0.35000     110.00000     269.00000
         3     36209   F   0.35000     110.00000      91.00000
         3     36213   F   0.35000     110.00000     269.00000
         3     36217   F   0.35000     110.00000      91.00000
         3     36221   F   0.35000     110.00000     269.00000
         3     36225   F   0.35000     110.00000      91.00000
         3     36229   F   0.35000     110.00000     269.00000
         3     36233   F   0.35000     110.00000      91.00000
         3     36237   F   0.35000     110.00000     269.00000
         3     36241   F   0.35000     110.00000      91.00000
         3     36245   F   0.35000     110.00000     269.00000
         3     36249   F   0.35000     110.00000      91.00000
         3     36253   F   0.35000     110.00000     269.00000
         3     36257   F   0.35000     110.00000      91.00000
         3     36261   F   0.35000     110.00000     269.00000
         3     36265   F   0.35000     110.00000      91.00000
         3     36269   F   0.35000     110.00000     269.00000
         3     36273   F   0.35000     110.00000      91.00000
         3     36277   F   0.35000     110.00000     269.00000
         3     36281   F   0.35000     110.00000      91.00000
         3     36285   F   0.35000     110.00000     269.00000
         3     36289   F   0.35000     110.00000      91.00000
         3     36293   F   0.35000     110.00000     269.00000
         3     36297   F   0.35000     110.00000      91.00000
         3     36301   F   0.35000     110.00000     269.00000
         3     36305   F   0.35000     110.00000      91.00000
         3     36309   F   0.35000     110.00000     269.00000
         3     36313   F   0.35000     110.00000      91.00000
         3     36317   F   0.35000     110.00000     269.00000
         3     36321   F   0.35000     110.00000      91.00000
         3     36325   F   0.35000     110.00000     269.00000
         3     36329   F   0.35000     110.00000      91.00000
         3     36333   F   0.35000     110.00000     269.00000
         3     36337   F   0.35000     110.00000      91.00000
         3     36341   F   0.35000     110.00000     269.00000
         3     36345   F   0.35000     110.00000      91.00000
         3     36349   F   0.35000     110.00000     269.00000
         3     36353   F   0.35000     110.00000      91.00000
         3     36357   F   0.35000     110.00000     269.00000
         3     36361   F   0.35000     110.00000      91.00000
         3     36365   F   0.35000     110.00000     269.00000
         3     36369   F   0.35000     110.00000      91.00000
         3     36373   F   0.35000     110.00000     269.00000
         3     36377   F   0.35000     110.00000      91.00000
         3     36381   F   0.35000     110.00000     269.00000
         3     36385   F   0.35000     110.00000      91.00000
         3     36389   F   0.35000     110.00000     269.00000
         3     36393   F   0.35000     110.00000      91.00000
         3     36397   F   0.35000     110.00000     269.00000
         3     36401   F   0.35000     110.00000      91.00000
         3     36405   F   0.35000     110.00000     269.00000
         3     36409   F   0.35000     110.00000      91.00000
         3     36413   F   0.35000     110.00000     269.00000
         3     36417   F   0.35000     110.00000      91.00000
         3     36421   F   0.35000     110.00000     269.00000
         3     36425   F   0.35000     110.00000      91.00000
         3     36429   F   0.35000     110.00000     269.00000
         3     36433   F   0.35000     110.00000      91.00000
         3     36437   F   0.35000     110.00000     269.00000
         3     36441   F   0.35000     110.00000      91.00000
         3     36445   F   0.35000     110.00000     269.00000
         3     36449   F   0.35000     110.00000      91.00000
         3     36453   F   0.35000     110.00000     269.00000
         3     36457   F   0.35000     110.00000      91.00000
         3     36461   F   0.35000     110.00000     269.00000
         3     36465   F   0.35000     110.00000      91.00000
         3     36469   F   0.35000     110.00000     269.00000
         3     36473   F   0.35000     110.00000      91.00000
         3     36477   F   0.35000     110.00000     269.00000
         3     36481   F   0.35000     110.00000      91.00000
         3     36485   F   0.35000     110.00000     269.00000
         3     36489   F   0.35000     110.00000      91.00000
         3     36493   F   0.35000     110.00000     269.00000
         3     36497   F   0.35000     110.00000      91.00000
         3     36501   F   0.35000     110.00000     269.00000
         3     36505   F   0.35000     110.00000      91.00000
         3     36509   F   0.35000     110.00000     269.00000
         3     36513   F   0.35000     110.00000      91.00000
         3     36517   F   0.35000     110.00000     269.00000
         3     36521   F   0.35000     110.00000      91.00000
         3     36525   F   0.35000     110.00000     269.00000
         3     36529   F   0.35000     110.00000      91.00000
         3     36533   F   0.35000     110.00000     269.00000
         3     36537   F   0.35000     110.00000      91.00000
         3     36541   F   0.35000     110.00000     269.00000
         3     36545   F   0.35000     110.00000      91.00000
         3     36549   F   0.35000     110.00000     269.00000
         3     36553   F   0.35000     110.00000      91.00000
         3     36557   F   0.35000     110.00000     269.00000
         3     36561   F   0.35000     110.00000      91.00000
         3     36565   F   0.35000     110.00000     269.00000
         3     36569   F   0.35000     110.00000      91.00000
         3     36573   F   0.35000     110.00000     269.00000
         3     36577   F   0.35000     110.00000      91.00000
         3     36581   F   0.35000     110.00000     269.00000
         3     36585   F   0.35000     110.00000      91.00000
         3     36589   F   0.35000     110.00000     269.00000
         3     36593   F   0.35000     110.00000      91.00000
         3     36597   F   0.35000     110.00000     269.00000
         3     36601   F   0.35000     110.00000      91.00000
         3     36605   F   0.35000     110.00000     269.00000
         3     36609   F   0.35000     110.00000      91.00000
         3     36613   F   0.35000     110.00000     269.00000
         3     36617   F   0.35000     110.00000      91.00000
         3     36621   F   0.35000     110.00000     269.00000
         3     36625   F   0.35000     110.00000      91.00000
         3     36629   F   0.35000     110.00000     269.00000
         3     36633   F   0.35000     110.00000      91.00000
         3     36637   F   0.35000     110.00000     269.00000
         3     36641   F   0.35000     110.00000      91.00000
         3     36645   F   0.35000     110.00000     269.00000
         3     36649   F   0.35000     110.00000      91.00000
         3     36653   F   0.35000     110.00000     269.00000
         3     36657   F   0.35000     110.00000      91.00000
         3     36661   F   0.35000     110.00000     269.00000
         3     36665   F   0.35000     110.00000      91.00000
         3     36669   F   0.35000     110.00000     269.00000
         3     36673   F   0.35000     110.00000      91.00000
         3     36677   F   0.35000     110.00000     269.00000
         3     36681   F   0.35000     110.00000      91.00000
         3     36685   F   0.35000     110.00000     269.00000
         3     36689   F   0.35000     110.00000      91.00000
         3     36693   F   0.35000     110.00000     269.00000
         3     36697   F   0.35000     110.00000      91.00000
         3     36701   F   0.35000     110.00000     269.00000
         3     36705   F   0.35000     110.00000      91.00000
         3     36709   F   0.35000     110.00000     269.00000
         3     36713   F   0.35000     110.00000      91.00000
         3     36717   F   0.35000     110.00000     269.00000
         3     36721   F   0.35000     110.00000      91.00000
         3     36725   F   0.35000     110.00000     269.00000
         3     36729   F   0.35000     110.00000      91.00000
         3     36733   F   0.35000     110.00000     269.00000
         3     36737   F   0.35000     110.00000      91.00000
         3     36741   F   0.35000     110.00000     269.00000
         3     36745   F   0.35000     110.00000      91.00000
         3     36749   F   0.35000     110.00000     269.00000
         3     36753   F   0.35000     110.00000      91.00000
         3     36757   F   0.35000     110.00000     269.00000
         3     36761   F   0.35000     110.00000      91.00000
         3     36765   F   0.35000     110.00000     269.00000
         3     36769   F   0.35000     110.00000      91.00000
         3     36773   F   0.35000     110.00000     269.00000
         3     36777   F   0.35000     110.00000      91.00000
         3     36781   F   0.35000     110.00000     269.00000
         3     36785   F   0.35000     110.00000      91.00000
         3     36789   F   0.35000     110.00000     269.00000
         3     36793   F   0.35000     110.00000      91.00000
         3     36797   F   0.35000     110.00000     269.00000
         3     36801   F   0.35000     110.00000      91.00000
         3     36805   F   0.35000     110.00000     269.00000
         3     36809   F   0.35000     110.00000      91.00000
         3     36813   F   0.35000     110.00000     269.00000
         3     36817   F   0.35000     110.00000      91.00000
         3     36821   F   0.35000     110.00000     269.00000
         3     36825   F   0.35000     110.00000      91.00000
         3     36829   F   0.35000     110.00000     269.00000
         3     36833   F   0.35000     110.00000      91.00000
         3     36837   F   0.35000     110.00000     269.00000
         3     36841   F   0.35000     110.00000      91.00000
         3     36845   F   0.35000     110.00000     269.00000
         3     36849   F   0.35000     110.00000      91.00000
         3     36853   F   0.35000     110.00000     269.00000
         3     36857   F   0.35000     110.00000      91.00000
         3     36861   F   0.35000     110.00000     269.00000
         3     36865   F   0.35000     110.00000      91.00000
         3     36869   F   0.35000     110.00000     269.00000
         3     36873   F   0.35000     110.00000      91.00000
         3     36877   F   0.35000     110.00000     269.00000
         3     36881   F   0.35000     110.00000      91.00000
         3     36885   F   0.35000     110.00000     269.00000
         3     36889   F   0.35000     110.00000      91.00000
         3     36893   F   0.35000     110.00000     269.00000
         3     36897   F   0.35000     110.00000      91.00000
         3     36901   F   0.35000     110.00000     269.00000
         3     36905   F   0.35000     110.00000      91.00000
         3     36909   F   0.35000     110.00000     269.00000
         3     36913   F   0.35000     110.00000      91.00000
         3     36917   F   0.35000     110.00000     269.00000
         3     36921   F   0.35000     110.00000      91.00000
         3     36925   F   0.35000     110.00000     269.00000
         3     36929   F   0.35000     110.00000      91.00000
         3     36933   F   0.35000     110.00000     269.00000
         3     36937   F   0.35000     110.00000      91.00000
         3     36941   F   0.35000     110.00000     269.00000
         3     36945   F   0.35000     110.00000      91.00000
         3     36949   F   0.35000     110.00000     269.00000
         3     36953   F   0.35000     110.00000      91.00000
         3     36957   F   0.35000     110.00000     269.00000
         3     36961   F   0.35000     110.00000      91.00000
         3     36965   F   0.35000     110.00000     269.00000
         3     36969   F   0.35000     110.00000      91.00000
         3     36973   F   0.35000     110.00000     269.00000
         3     36977   F   0.35000     110.00000      91.00000
         3     36981   F   0.35000     110.00000     269.00000
         3     36985   F   0.35000     110.00000      91.00000
         3     36989   F   0.35000     110.00000     269.00000
         3     36993   F   0.35000     110.00000      91.00000
         3     36997   F   0.35000     110.00000     269.00000
         3     37001   F   0.35000     110.00000      91.00000
         3     37005   F   0.35000     110.00000     269.00000
         3     37009   F   0.35000     110.00000      91.00000
         3     37013   F   0.35000     110.00000     269.00000
         3     37017   F   0.35000     110.00000      91.00000
         3     37021   F   0.35000     110.00000     269.00000
         3     37025   F   0.35000     110.00000      91.00000
         3     37029   F   0.35000     110.00000     269.00000
         3     37033   F   0.35000     110.00000      91.00000
         3     37037   F   0.35000     110.00000     269.00000
         3     37041   F   0.35000     110.00000      91.00000
         3     37045   F   0.35000     110.00000     269.00000
         3     37049   F   0.35000     110.00000      91.00000
         3     37053   F   0.35000     110.00000     269.00000
         3     37057   F   0.35000     110.00000      91.00000
         3     37061   F   0.35000     110.00000     269.00000
         3     37065   F   0.35000     110.00000      91.00000
         3     37069   F   0.35000     110.00000     269.00000
         3     37073   F   0.35000     110.00000      91.00000
         3     37077   F   0.35000     110.00000     269.00000
         3     37081   F   0.35000     110.00000      91.00000
         3     37085   F   0.35000     110.00000     269.00000
         3     37089   F   0.35000     110.00000      91.00000
         3     37093   F   0.35000     110.00000     269.00000
         3     37097   F   0.35000     110.00000      91.00000
         3     37101   F   0.35000     110.00000     269.00000
         3     37105   F   0.35000     110.00000      91.00000
         3     37109   F   0.35000     110.00000     269.00000
         3     37113   F   0.35000     110.00000      91.00000
         3     37117   F   0.35000     110.00000     269.00000
         3     37121   F   0.35000     110.00000      91.00000
         3     37125   F   0.35000     110.00000     269.00000
         3     37129   F   0.35000     110.00000      91.00000
         3     37133   F   0.35000     110.00000     269.00000
         3     37137   F   0.35000     110.00000      91.00000
         3     37141   F   0.35000     110.00000     269.00000
         3     37145   F   0.35000     110.00000      91.00000
         3     37149   F   0.35000     110.00000     269.00000
         3     37153   F   0.35000     110.00000      91.00000
         3     37157   F   0.35000     110.00000     269.00000
         3     37161   F   0.35000     110.00000      91.00000
         3     37165   F   0.35000     110.00000     269.00000
         3     37169   F   0.35000     110.00000      91.00000
         3     37173   F   0.35000     110.00000     269.00000
         3     37177   F   0.35000     110.00000      91.00000
         3     37181   F   0.35000     110.00000     269.00000
         3     37185   F   0.35000     110.00000      91.00000
         3     37189   F   0.35000     110.00000     269.00000
         3     37193   F   0.35000     110.00000      91.00000
         3     37197   F   0.35000     110.00000     269.00000
         3     37201   F   0.35000     110.00000      91.00000
         3     37205   F   0.35000     110.00000     269.00000
         3     37209   F   0.35000     110.00000      91.00000
         3     37213   F   0.35000     110.00000     269.00000
         3     37217   F   0.35000     110.00000      91.00000
         3     37221   F   0.35000     110.00000     269.00000
         3     37225   F   0.35000     110.00000      91.00000
         3     37229   F   0.35000     110.00000     269.00000
         3     37233   F   0.35000     110.00000      91.00000
         3     37237   F   0.35000     110.00000     269.00000
         3     37241   F   0.35000     110.00000      91.00000
         3     37245   F   0.35000     110.00000     269.00000
         3     37249   F   0.35000     110.00000      91.00000
         3     37253   F   0.35000     110.00000     269.00000
         3     37257   F   0.35000     110.00000      91.00000
         3     37261   F   0.35000     110.00000     269.00000
         3     37265   F   0.35000     110.00000      91.00000
         3     37269   F   0.35000     110.00000     269.00000
         3     37273   F   0.35000     110.00000      91.00000
         3     37277   F   0.35000     110.00000     269.00000
         3     37281   F   0.35000     110.00000      91.00000
         3     37285   F   0.35000     110.00000     269.00000
         3     37289   F   0.35000     110.00000      91.00000
         3     37293   F   0.35000     110.00000     269.00000
         3     37297   F   0.35000     110.00000      91.00000
         3     37301   F   0.35000     110.00000     269.00000
         3     37305   F   0.35000     110.00000      91.00000
         3     37309   F   0.35000     110.00000     269.00000
         3     37313   F   0.35000     110.00000      91.00000
         3     37317   F   0.35000     110.00000     269.00000
         3     37321   F   0.35000     110.00000      91.00000
         3     37325   F   0.35000     110.00000     269.00000
         3     37329   F   0.35000     110.00000      91.00000
         3     37333   F   0.35000     110.00000     269.00000
         3     37337   F   0.35000     110.00000      91.00000
         3     37341   F   0.35000     110.00000     269.00000
         3     37345   F   0.35000     110.00000      91.00000
         3     37349   F   0.35000     110.00000     269.00000
         3     37353   F   0.35000     110.00000      91.00000
         3     37357   F   0.35000     110.00000     269.00000
         3     37361   F   0.35000     110.00000      91.00000
         3     37365   F   0.35000     110.00000     269.00000
         3     37369   F   0.35000     110.00000      91.00000
         3     37373   F   0.35000     110.00000     269.00000
         3     37377   F   0.35000     110.00000      91.00000
         3     37381   F   0.35000     110.00000     269.00000
         3     37385   F   0.35000     110.00000      91.00000
         3     37389   F   0.35000     110.00000     269.00000
         3     37393   F   0.35000     110.00000      91.00000
         3     37397   F   0.35000     110.00000     269.00000
         3     37401   F   0.35000     110.00000      91.00000
         3     37405   F   0.35000     110.00000     269.00000
         3     37409   F   0.35000     110.00000      91.00000
         3     37413   F   0.35000     110.00000     269.00000
         3     37417   F   0.35000     110.00000      91.00000
         3     37421   F   0.35000     110.00000     269.00000
         3     37425   F   0.35000     110.00000      91.00000
         3     37429   F   0.35000     110.00000     269.00000
         3     37433   F   0.35000     110.00000      91.00000
         3     37437   F   0.35000     110.00000     269.00000
         3     37441   F   0.35000     110.00000      91.00000
         3     37445   F   0.35000     110.00000     269.00000
         3     37449   F   0.35000     110.00000      91.00000
         3     37453   F   0.35000     110.00000     269.00000
         3     37457   F   0.35000     110.00000      91.00000
         3     37461   F   0.35000     110.00000     269.00000
         3     37465   F   0.35000     110.00000      91.00000
         3     37469   F   0.35000     110.00000     269.00000
         3     37473   F   0.35000     110.00000      91.00000
         3     37477   F   0.35000     110.00000     269.00000
         3     37481   F   0.35000     110.00000      91.00000
         3     37485   F   0.35000     110.00000     269.00000
         3     37489   F   0.35000     110.00000      91.00000
         3     37493   F   0.35000     110.00000     269.00000
         3     37497   F   0.35000     110.00000      91.00000
         3     37501   F   0.35000     110.00000     269.00000
         3     37505   F   0.35000     110.00000      91.00000
         3     37509   F   0.35000     110.00000     269.00000
         3     37513   F   0.35000     110.00000      91.00000
         3     37517   F   0.35000     110.00000     269.00000
         3     37521   F   0.35000     110.00000      91.00000
         3     37525   F   0.35000     110.00000     269.00000
         3     37529   F   0.35000     110.00000      91.00000
         3     37533   F   0.35000     110.00000     269.00000
         3     37537   F   0.35000     110.00000      91.00000
         3     37541   F   0.35000     110.00000     269.00000
         3     37545   F   0.35000     110.00000      91.00000
         3     37549   F   0.35000     110.00000     269.00000
         3     37553   F   0.35000     110.00000      91.00000
         3     37557   F   0.35000     110.00000     269.00000
         3     37561   F   0.35000     110.00000      91.00000
         3     37565   F   0.35000     110.00000     269.00000
         3     37569   F   0.35000     110.00000      91.00000
         3     37573   F   0.35000     110.00000     269.00000
         3     37577   F   0.35000     110.00000      91.00000
         3     37581   F   0.35000     110.00000     269.00000
         3     37585   F   0.35000     110.00000      91.00000
         3     37589   F   0.35000     110.00000     269.00000
         3     37593   F   0.35000     110.00000      91.00000
         3     37597   F   0.35000     110.00000     269.00000
         3     37601   F   0.35000     110.00000      91.00000
         3     37605   F   0.35000     110.00000     269.00000
         3     37609   F   0.35000     110.00000      91.00000
         3     37613   F   0.35000     110.00000     269.00000
         3     37617   F   0.35000     110.00000      91.00000
         3     37621   F   0.35000     110.00000     269.00000
         3     37625   F   0.35000     110.00000      91.00000
         3     37629   F   0.35000     110.00000     269.00000
         3     37633   F   0.35000     110.00000      91.00000
         3     37637   F   0.35000     110.00000     269.00000
         3     37641   F   0.35000     110.00000      91.00000
         3     37645   F   0.35000     110.00000     269.00000
         3     37649   F   0.35000     110.00000      91.00000
         3     37653   F   0.35000     110.00000     269.00000
         3     37657   F   0.35000     110.00000      91.00000
         3     37661   F   0.35000     110.00000     269.00000
         3     37665   F   0.35000     110.00000      91.00000
         3     37669   F   0.35000     110.00000     269.00000
         3     37673   F   0.35000     110.00000      91.00000
         3     37677   F   0.35000     110.00000     269.00000
         3     37681   F   0.35000     110.00000      91.00000
         3     37685   F   0.35000     110.00000     269.00000
         3     37689   F   0.35000     110.00000      91.00000
         3     37693   F   0.35000     110.00000     269.00000
         3     37697   F   0.35000     110.00000      91.00000
         3     37701   F   0.35000     110.00000     269.00000
         3     37705   F   0.35000     110.00000      91.00000
         3     37709   F   0.35000     110.00000     269.00000
         3     37713   F   0.35000     110.00000      91.00000
         3     37717   F   0.35000     110.00000     269.00000
         3     37721   F   0.35000     110.00000      91.00000
         3     37725   F   0.35000     110.00000     269.00000
         3     37729   F   0.35000     110.00000      91.00000
         3     37733   F   0.35000     110.00000     269.00000
         3     37737   F   0.35000     110.00000      91.00000
         3     37741   F   0.35000     110.00000     269.00000
         3     37745   F   0.35000     110.00000      91.00000
         3     37749   F   0.35000     110.00000     269.00000
         3     37753   F   0.35000     110.00000      91.00000
         3     37757   F   0.35000     110.00000     269.00000
         3     37761   F   0.35000     110.00000      91.00000
         3     37765   F   0.35000     110.00000     269.00000
         3     37769   F   0.35000     110.00000      91.00000
         3     37773   F   0.35000     110.00000     269.00000
         3     37777   F   0.35000     110.00000      91.00000
         3     37781   F   0.35000     110.00000     269.00000
         3     37785   F   0.35000     110.00000      91.00000
         3     37789   F   0.35000     110.00000     269.00000
         3     37793   F   0.35000     110.00000      91.00000
         3     37797   F   0.35000     110.00000     269.00000
         3     37801   F   0.35000     110.00000      91.00000
         3     37805   F   0.35000     110.00000     269.00000
         3     37809   F   0.35000     110.00000      91.00000
         3     37813   F   0.35000     110.00000     269.00000
         3     37817   F   0.35000     110.00000      91.00000
         3     37821   F   0.35000     110.00000     269.00000
         3     37825   F   0.35000     110.00000      91.00000
         3     37829   F   0.35000     110.00000     269.00000
         3     37833   F   0.35000     110.00000      91.00000
         3     37837   F   0.35000     110.00000     269.00000
         3     37841   F   0.35000     110.00000      91.00000
         3     37845   F   0.35000     110.00000     269.00000
         3     37849   F   0.35000     110.00000      91.00000
         3     37853   F   0.35000     110.00000     269.00000
         3     37857   F   0.35000     110.00000      91.00000
         3     37861   F   0.35000     110.00000     269.00000
         3     37865   F   0.35000     110.00000      91.00000
         3     37869   F   0.35000     110.00000     269.00000
         3     37873   F   0.35000     110.00000      91.00000
         3     37877   F   0.35000     110.00000     269.00000
         3     37881   F   0.35000     110.00000      91.00000
         3     37885   F   0.35000     110.00000     269.00000
         3     37889   F   0.35000     110.00000      91.00000
         3     37893   F   0.35000     110.00000     269.00000
         3     37897   F   0.35000     110.00000      91.00000
         3     37901   F   0.35000     110.00000     269.00000
         3     37905   F   0.35000     110.00000      91.00000
         3     37909   F   0.35000     110.00000     269.00000
         3     37913   F   0.35000     110.00000      91.00000
         3     37917   F   0.35000     110.00000     269.00000
         3     37921   F   0.35000     110.00000      91.00000
         3     37925   F   0.35000     110.00000     269.00000
         3     37929   F   0.35000     110.00000      91.00000
         3     37933   F   0.35000     110.00000     269.00000
         3     37937   F   0.35000     110.00000      91.00000
         3     37941   F   0.35000     110.00000     269.00000
         3     37945   F   0.35000     110.00000      91.00000
         3     37949   F   0.35000     110.00000     269.00000
         3     37953   F   0.35000     110.00000      91.00000
         3     37957   F   0.35000     110.00000     269.00000
         3     37961   F   0.35000     110.00000      91.00000
         3     37965   F   0.35000     110.00000     269.00000
         3     37969   F   0.35000     110.00000      91.00000
         3     37973   F   0.35000     110.00000     269.00000
        20        17        14        11        40        37        34        31
        60        57        54        51        80        77        74        71
       100        97        94        91       120       117       114       111
       140       137       134       131       160       157       154       151
       180       177       174       171       200       197       194       191
       220       217       214       211       240       237       234       231
       260       257       254       251       280       277       274       271
       300       297       294       291       320       317       314       311
       340       337       334       331       360       357       354       351
       380       377       374       371       400       397       394       391
       420       417       414       411       440       437       434       431
       460       457       454       451       480       477       474       471
       500       497       494       491       520       517       514       511
       540       537       534       531       560       557       554       551
       580       577       574       571       600       597       594       591
       620       617       614       611       640       637       634       631
       660       657       654       651       680       677       674       671
       700       697       694       691       720       717       714       711
       740       737       734       731       760       757       754       751
       780       777       774       771       800       797       794       791
       820       817       814       811       840       837       834       831
       860       857       854       851       880       877       874       871
       900       897       894       891       920       917       914       911
       940       937       934       931       960       957       954       951
       980       977       974       971      1000       997       994       991
      1020      1017      1014      1011      1040      1037      1034      1031
      1060      1057      1054      1051      1080      1077      1074      1071
      1100      1097      1094      1091      1120      1117      1114      1111
      1140      1137      1134      1131      1160      1157      1154      1151
      1180      1177      1174      1171      1200      1197      1194      1191
      1220      1217      1214      1211      1240      1237      1234      1231
      1260      1257      1254      1251      1280      1277      1274      1271
      1300      1297      1294      1291      1320      1317      1314      1311
      1340      1337      1334      1331      1360      1357      1354      1351
      1380      1377      1374      1371      1400      1397      1394      1391
      1420      1417      1414      1411      1440      1437      1434      1431
      1460      1457      1454      1451      1480      1477      1474      1471
      1500      1497      1494      1491      1520      1517      1514      1511
      1540      1537      1534      1531      1560      1557      1554      1551
      1580      1577      1574      1571      1600      1597      1594      1591
      1620      1617      1614      1611      1640      1637      1634      1631
      1660      1657      1654      1651      1680      1677      1674      1671
      1700      1697      1694      1691      1720      1717      1714      1711
      1740      1737      1734      1731      1760      1757      1754      1751
      1780      1777      1774      1771      1800      1797      1794      1791
      1820      1817      1814      1811      1840      1837      1834      1831
      1860      1857      1854      1851      1880      1877      1874      1871
      1900      1897      1894      1891      1920      1917      1914      1911
      1940      1937      1934      1931      1960      1957      1954      1951
      1980      1977      1974      1971      2000      1997      1994      1991
      2020      2017      2014      2011      2040      2037      2034      2031
      2060      2057      2054      2051      2080      2077      2074      2071
      2100      2097      2094      2091      2120      2117      2114      2111
      2140      2137      2134      2131      2160      2157      2154      2151
      2180      2177      2174      2171      2200      2197      2194      2191
      2220      2217      2214      2211      2240      2237      2234      2231
      2260      2257      2254      2251      2280      2277      2274      2271
      2300      2297      2294      2291      2320      2317      2314      2311
      2340      2337      2334      2331      2360      2357      2354      2351
      2380      2377      2374      2371      2400      2397      2394      2391
      2420      2417      2414      2411      2440      2437      2434      2431
      2460      2457      2454      2451      2480      2477      2474      2471
      2500      2497      2494      2491      2520      2517      2514      2511
      2540      2537      2534      2531      2560      2557      2554      2551
      2580      2577      2574      2571      2600      2597      2594      2591
      2620      2617      2614      2611      2640      2637      2634      2631
      2660      2657      2654      2651      2680      2677      2674      2671
      2700      2697      2694      2691      2720      2717      2714      2711
      2740      2737      2734      2731      2760      2757      2754      2751
      2780      2777      2774      2771      2800      2797      2794      2791
      2820      2817      2814      2811      2840      2837      2834      2831
      2860      2857      2854      2851      2880      2877      2874      2871
      2900      2897      2894      2891      2920      2917      2914      2911
      2940      2937      2934      2931      2953      2948      2941      2943
      2954      2948      2941      2943      2955      2950      2941      2943
      2956      2950      2941      2943      2969      2964      2957      2959
      2970      2964      2957      2959      2971      2966      2957      2959
      2972      2966      2957      2959      2985      2980      2973      2975
      2986      2980      2973      2975      2987      2982      2973      2975
      2988      2982      2973      2975      3001      2996      2989      2991
      3002      2996      2989      2991      3003      2998      2989      2991
      3004      2998      2989      2991      3017      3012      3005      3007
      3018      3012      3005      3007      3019      3014      3005      3007
      3020      3014      3005      3007      3033      3028      3021      3023
      3034      3028      3021      3023      3035      3030      3021      3023
      3036      3030      3021      3023      3049      3044      3037      3039
      3050      3044      3037      3039      3051      3046      3037      3039
      3052      3046      3037      3039      3065      3060      3053      3055
      3066      3060      3053      3055      3067      3062      3053      3055
      3068      3062      3053      3055      3081      3076      3069      3071
      3082      3076      3069      3071      3083      3078      3069      3071
      3084      3078      3069      3071      3097      3092      3085      3087
      3098      3092      3085      3087      3099      3094      3085      3087
      3100      3094      3085      3087      3113      3108      3101      3103
      3114      3108      3101      3103      3115      3110      3101      3103
      3116      3110      3101      3103      3129      3124      3117      3119
      3130      3124      3117      3119      3131      3126      3117      3119
      3132      3126      3117      3119      3145      3140      3133      3135
      3146      3140      3133      3135      3147      3142      3133      3135
      3148      3142      3133      3135      3161      3156      3149      3151
      3162      3156      3149      3151      3163      3158      3149      3151
      3164      3158      3149      3151      3177      3172      3165      3167
      3178      3172      3165      3167      3179      3174      3165      3167
      3180      3174      3165      3167      3193      3188      3181      3183
      3194      3188      3181      3183      3195      3190      3181      3183
      3196      3190      3181      3183      3209      3204      3197      3199
      3210      3204      3197      3199      3211      3206      3197      3199
      3212      3206      3197      3199      3225      3220      3213      3215
      3226      3220      3213      3215      3227      3222      3213      3215
      3228      3222      3213      3215      3241      3236      3229      3231
      3242      3236      3229      3231      3243      3238      3229      3231
      3244      3238      3229      3231      3257      3252      3245      3247
      3258      3252      3245      3247      3259      3254      3245      3247
      3260      3254      3245      3247      3273      3268      3261      3263
      3274      3268      3261      3263      3275      3270      3261      3263
      3276      3270      3261      3263      3289      3284      3277      3279
      3290      3284      3277      3279      3291      3286      3277      3279
      3292      3286      3277      3279      3305      3300      3293      3295
      3306      3300      3293      3295      3307      3302      3293      3295
      3308      3302      3293      3295      3321      3316      3309      3311
      3322      3316      3309      3311      3323      3318      3309      3311
      3324      3318      3309      3311      3337      3332      3325      3327
      3338      3332      3325      3327      3339      3334      3325      3327
      3340      3334      3325      3327      3353      3348      3341      3343
      3354      3348      3341      3343      3355      3350      3341      3343
      3356      3350      3341      3343      3369      3364      3357      3359
      3370      3364      3357      3359      3371      3366      3357      3359
      3372      3366      3357      3359      3385      3380      3373      3375
      3386      3380      3373      3375      3387      3382      3373      3375
      3388      3382      3373      3375      3401      3396      3389      3391
      3402      3396      3389      3391      3403      3398      3389      3391
      3404      3398      3389      3391      3417      3412      3405      3407
      3418      3412      3405      3407      3419      3414      3405      3407
      3420      3414      3405      3407      3433      3428      3421      3423
      3434      3428      3421      3423      3435      3430      3421      3423
      3436      3430      3421      3423      3449      3444      3437      3439
      3450      3444      3437      3439      3451      3446      3437      3439
      3452      3446      3437      3439      3465      3460      3453      3455
      3466      3460      3453      3455      3467      3462      3453      3455
      3468      3462      3453      3455      3481      3476      3469      3471
      3482      3476      3469      3471      3483      3478      3469      3471
      3484      3478      3469      3471      3497      3492      3485      3487
      3498      3492      3485      3487      3499      3494      3485      3487
      3500      3494      3485      3487      3513      3508      3501      3503
      3514      3508      3501      3503      3515      3510      3501      3503
      3516      3510      3501      3503      3529      3524      3517      3519
      3530      3524      3517      3519      3531      3526      3517      3519
      3532      3526      3517      3519      3545      3540      3533      3535
      3546      3540      3533      3535      3547      3542      3533      3535
      3548      3542      3533      3535      3561      3556      3549      3551
      3562      3556      3549      3551      3563      3558      3549      3551
      3564      3558      3549      3551      3577      3572      3565      3567
      3578      3572      3565      3567      3579      3574      3565      3567
      3580      3574      3565      3567      3593      3588      3581      3583
      3594      3588      3581      3583      3595      3590      3581      3583
      3596      3590      3581      3583      3609      3604      3597      3599
      3610      3604      3597      3599      3611      3606      3597      3599
      3612      3606      3597      3599      3625      3620      3613      3615
      3626      3620      3613      3615      3627      3622      3613      3615
      3628      3622      3613      3615      3641      3636      3629      3631
      3642      3636      3629      3631      3643      3638      3629      3631
      3644      3638      3629      3631      3657      3652      3645      3647
      3658      3652      3645      3647      3659      3654      3645      3647
      3660      3654      3645      3647      3673      3668      3661      3663
      3674      3668      3661      3663      3675      3670      3661      3663
      3676      3670      3661      3663      3689      3684      3677      3679
      3690      3684      3677      3679      3691      3686      3677      3679
      3692      3686      3677      3679      3705      3700      3693      3695
      3706      3700      3693      3695      3707      3702      3693      3695
      3708      3702      3693      3695      3721      3716      3709      3711
      3722      3716      3709      3711      3723      3718      3709      3711
      3724      3718      3709      3711      3737      3732      3725      3727
      3738      3732      3725      3727      3739      3734      3725      3727
      3740      3734      3725      3727      3753      3748      3741      3743
      3754      3748      3741      3743      3755      3750      3741      3743
      3756      3750      3741      3743      3769      3764      3757      3759
      3770      3764      3757      3759      3771      3766      3757      3759
      3772      3766      3757      3759      3785      3780      3773      3775
      3786      3780      3773      3775      3787      3782      3773      3775
      3788      3782      3773      3775      3801      3796      3789      3791
      3802      3796      3789      3791      3803      3798      3789      3791
      3804      3798      3789      3791      3817      3812      3805      3807
      3818      3812      3805      3807      3819      3814      3805      3807
      3820      3814      3805      3807      3833      3828      3821      3823
      3834      3828      3821      3823      3835      3830      3821      3823
      3836      3830      3821      3823      3849      3844      3837      3839
      3850      3844      3837      3839      3851      3846      3837      3839
      3852      3846      3837      3839      3865      3860      3853      3855
      3866      3860      3853      3855      3867      3862      3853      3855
      3868      3862      3853      3855      3881      3876      3869      3871
      3882      3876      3869      3871      3883      3878      3869      3871
      3884      3878      3869      3871      3897      3892      3885      3887
      3898      3892      3885      3887      3899      3894      3885      3887
      3900      3894      3885      3887      3913      3908      3901      3903
      3914      3908      3901      3903      3915      3910      3901      3903
      3916      3910      3901      3903      3929      3924      3917      3919
      3930      3924      3917      3919      3931      3926      3917      3919
      3932      3926      3917      3919      3945      3940      3933      3935
      3946      3940      3933      3935      3947      3942      3933      3935
      3948      3942      3933      3935      3961      3956      3949      3951
      3962      3956      3949      3951      3963      3958      3949      3951
      3964      3958      3949      3951      3977      3972      3965      3967
      3978      3972      3965      3967      3979      3974      3965      3967
      3980      3974      3965      3967      3993      3988      3981      3983
      3994      3988      3981      3983      3995      3990      3981      3983
      3996      3990      3981      3983      4009      4004      3997      3999
      4010      4004      3997      3999      4011      4006      3997      3999
      4012      4006      3997      3999      4025      4020      4013      4015
      4026      4020      4013      4015      4027      4022      4013      4015
      4028      4022      4013      4015      4041      4036      4029      4031
      4042      4036      4029      4031      4043      4038      4029      4031
      4044      4038      4029      4031      4057      4052      4045      4047
      4058      4052      4045      4047      4059      4054      4045      4047
      4060      4054      4045      4047      4073      4068      4061      4063
      4074      4068      4061      4063      4075      4070      4061      4063
      4076      4070      4061      4063      4089      4084      4077      4079
      4090      4084      4077      4079      4091      4086      4077      4079
      4092      4086      4077      4079      4105      4100      4093      4095
      4106      4100      4093      4095      4107      4102      4093      4095
      4108      4102      4093      4095      4121      4116      4109      4111
      4122      4116      4109      4111      4123      4118      4109      4111
      4124      4118      4109      4111      4137      4132      4125      4127
      4138      4132      4125      4127      4139      4134      4125      4127
      4140      4134      4125      4127      4153      4148      4141      4143
      4154      4148      4141      4143      4155      4150      4141      4143
      4156      4150      4141      4143      4169      4164      4157      4159
      4170      4164      4157      4159      4171      4166      4157      4159
      4172      4166      4157      4159      4185      4180      4173      4175
      4186      4180      4173      4175      4187      4182      4173      4175
      4188      4182      4173      4175      4201      4196      4189      4191
      4202      4196      4189      4191      4203      4198      4189      4191
      4204      4198      4189      4191      4217      4212      4205      4207
      4218      4212      4205      4207      4219      4214      4205      4207
      4220      4214      4205      4207      4233      4228      4221      4223
      4234      4228      4221      4223      4235      4230      4221      4223
      4236      4230      4221      4223      4249      4244      4237      4239
      4250      4244      4237      4239      4251      4246      4237      4239
      4252      4246      4237      4239      4265      4260      4253      4255
      4266      4260      4253      4255      4267      4262      4253      4255
      4268      4262      4253      4255      4281      4276      4269      4271
      4282      4276      4269      4271      4283      4278      4269      4271
      4284      4278      4269      4271      4297      4292      4285      4287
      4298      4292      4285      4287      4299      4294      4285      4287
      4300      4294      4285      4287      4313      4308      4301      4303
      4314      4308      4301      4303      4315      4310      4301      4303
      4316      4310      4301      4303      4329      4324      4317      4319
      4330      4324      4317      4319      4331      4326      4317      4319
      4332      4326      4317      4319      4345      4340      4333      4335
      4346      4340      4333      4335      4347      4342      4333      4335
      4348      4342      4333      4335      4361      4356      4349      4351
      4362      4356      4349      4351      4363      4358      4349      4351
      4364      4358      4349      4351      4377      4372      4365      4367
      4378      4372      4365      4367      4379      4374      4365      4367
      4380      4374      4365      4367      4393      4388      4381      4383
      4394      4388      4381      4383      4395      4390      4381      4383
      4396      4390      4381      4383      4409      4404      4397      4399
      4410      4404      4397      4399      4411      4406      4397      4399
      4412      4406      4397      4399      4425      4420      4413      4415
      4426      4420      4413      4415      4427      4422      4413      4415
      4428      4422      4413      4415      4448      4445      4442      4439
      4468      4465      4462      4459      4488      4485      4482      4479
      4508      4505      4502      4499      4528      4525      4522      4519
      4548      4545      4542      4539      4568      4565      4562      4559
      4588      4585      4582      4579      4608      4605      4602      4599
      4628      4625      4622      4619      4648      4645      4642      4639
      4668      4665      4662      4659      4688      4685      4682      4679
      4708      4705      4702      4699      4728      4725      4722      4719
      4748      4745      4742      4739      4768      4765      4762      4759
      4788      4785      4782      4779      4808      4805      4802      4799
      4828      4825      4822      4819      4848      4845      4842      4839
      4868      4865      4862      4859      4888      4885      4882      4879
      4908      4905      4902      4899      4928      4925      4922      4919
      4948      4945      4942      4939      4968      4965      4962      4959
      4988      4985      4982      4979      5008      5005      5002      4999
      5028      5025      5022      5019      5048      5045      5042      5039
      5068      5065      5062      5059      5088      5085      5082      5079
      5108      5105      5102      5099      5128      5125      5122      5119
      5148      5145      5142      5139      5168      5165      5162      5159
      5188      5185      5182      5179      5208      5205      5202      5199
      5228      5225      5222      5219      5248      5245      5242      5239
      5268      5265      5262      5259      5288      5285      5282      5279
      5308      5305      5302      5299      5328      5325      5322      5319
      5348      5345      5342      5339      5368      5365      5362      5359
      5388      5385      5382      5379      5408      5405      5402      5399
      5428      5425      5422      5419      5448      5445      5442      5439
      5468      5465      5462      5459      5488      5485      5482      5479
      5508      5505      5502      5499      5528      5525      5522      5519
      5548      5545      5542      5539      5568      5565      5562      5559
      5588      5585      5582      5579      5608      5605      5602      5599
      5628      5625      5622      5619      5648      5645      5642      5639
      5668      5665      5662      5659      5688      5685      5682      5679
      5708      5705      5702      5699      5728      5725      5722      5719
      5748      5745      5742      5739      5768      5765      5762      5759
      5788      5785      5782      5779      5808      5805      5802      5799
      5828      5825      5822      5819      5848      5845      5842      5839
      5868      5865      5862      5859      5888      5885      5882      5879
      5908      5905      5902      5899      5928      5925      5922      5919
      5948      5945      5942      5939      5968      5965      5962      5959
      5988      5985      5982      5979      6008      6005      6002      5999
      6028      6025      6022      6019      6048      6045      6042      6039
      6068      6065      6062      6059      6088      6085      6082      6079
      6108      6105      6102      6099      6128      6125      6122      6119
      6148      6145      6142      6139      6168      6165      6162      6159
      6188      6185      6182      6179      6208      6205      6202      6199
      6228      6225      6222      6219      6248      6245      6242      6239
      6268      6265      6262      6259      6288      6285      6282      6279
      6308      6305      6302      6299      6328      6325      6322      6319
      6348      6345      6342      6339      6368      6365      6362      6359
      6388      6385      6382      6379      6408      6405      6402      6399
      6428      6425      6422      6419      6448      6445      6442      6439
      6468      6465      6462      6459      6488      6485      6482      6479
      6508      6505      6502      6499      6528      6525      6522      6519
      6548      6545      6542      6539      6568      6565      6562      6559
      6588      6585      6582      6579      6608      6605      6602      6599
      6628      6625      6622      6619      6648      6645      6642      6639
      6668      6665      6662      6659      6688      6685      6682      6679
      6708      6705      6702      6699      6728      6725      6722      6719
      6748      6745      6742      6739      6768      6765      6762      6759
      6788      6785      6782      6779      6808      6805      6802      6799
      6828      6825      6822      6819      6848      6845      6842      6839
      6868      6865      6862      6859      6888      6885      6882      6879
      6908      6905      6902      6899      6928      6925      6922      6919
      6948      6945      6942      6939      6968      6965      6962      6959
      6988      6985      6982      6979      7008      7005      7002      6999
      7028      7025      7022      7019      7048      7045      7042      7039
      7068      7065      7062      7059      7088      7085      7082      7079
      7108      7105      7102      7099      7128      7125      7122      7119
      7148      7145      7142      7139      7168      7165      7162      7159
      7188      7185      7182      7179      7208      7205      7202      7199
      7228      7225      7222      7219      7248      7245      7242      7239
      7268      7265      7262      7259      7288      7285      7282      7279
      7308      7305      7302      7299      7328      7325      7322      7319
      7348      7345      7342      7339      7368      7365      7362      7359
      7388      7385      7382      7379      7408      7405      7402      7399
      7428      7425      7422      7419      7448      7445      7442      7439
      7468      7465      7462      7459      7488      7485      7482      7479
      7508      7505      7502      7499      7528      7525      7522      7519
      7548      7545      7542      7539      7568      7565      7562      7559
      7588      7585      7582      7579      7608      7605      7602      7599
      7628      7625      7622      7619      7648      7645      7642      7639
      7668      7665      7662      7659      7688      7685      7682      7679
      7708      7705      7702      7699      7728      7725      7722      7719
      7748      7745      7742      7739      7768      7765      7762      7759
      7788      7785      7782      7779      7808      7805      7802      7799
      7828      7825      7822      7819      7848      7845      7842      7839
      7868      7865      7862      7859      7888      7885      7882      7879
      7908      7905      7902      7899      7928      7925      7922      7919
      7948      7945      7942      7939      7968      7965      7962      7959
      7988      7985      7982      7979      8008      8005      8002      7999
      8028      8025      8022      8019      8048      8045      8042      8039
      8068      8065      8062      8059      8088      8085      8082      8079
      8108      8105      8102      8099      8128      8125      8122      8119
      8148      8145      8142      8139      8168      8165      8162      8159
      8188      8185      8182      8179      8208      8205      8202      8199
      8228      8225      8222      8219      8248      8245      8242      8239
      8268      8265      8262      8259      8288      8285      8282      8279
      8308      8305      8302      8299      8328      8325      8322      8319
      8348      8345      8342      8339      8368      8365      8362      8359
      8388      8385      8382      8379      8408      8405      8402      8399
      8428      8425      8422      8419      8448      8445      8442      8439
      8468      8465      8462      8459      8488      8485      8482      8479
      8508      8505      8502      8499      8528      8525      8522      8519
      8548      8545      8542      8539      8568      8565      8562      8559
      8588      8585      8582      8579      8608      8605      8602      8599
      8628      8625      8622      8619      8648      8645      8642      8639
      8668      8665      8662      8659      8688      8685      8682      8679
      8708      8705      8702      8699      8728      8725      8722      8719
      8748      8745      8742      8739      8768      8765      8762      8759
      8781      8776      8769      8778      8782      8776      8769      8778
      8783      8778      8769      8780      8784      8778      8769      8780
      8797      8792      8785      8794      8798      8792      8785      8794
      8799      8794      8785      8796      8800      8794      8785      8796
      8813      8808      8801      8810      8814      8808      8801      8810
      8815      8810      8801      8812      8816      8810      8801      8812
      8829      8824      8817      8826      8830      8824      8817      8826
      8831      8826      8817      8828      8832      8826      8817      8828
      8845      8840      8833      8842      8846      8840      8833      8842
      8847      8842      8833      8844      8848      8842      8833      8844
      8861      8856      8849      8858      8862      8856      8849      8858
      8863      8858      8849      8860      8864      8858      8849      8860
      8877      8872      8865      8874      8878      8872      8865      8874
      8879      8874      8865      8876      8880      8874      8865      8876
      8893      8888      8881      8890      8894      8888      8881      8890
      8895      8890      8881      8892      8896      8890      8881      8892
      8909      8904      8897      8906      8910      8904      8897      8906
      8911      8906      8897      8908      8912      8906      8897      8908
      8925      8920      8913      8922      8926      8920      8913      8922
      8927      8922      8913      8924      8928      8922      8913      8924
      8941      8936      8929      8938      8942      8936      8929      8938
      8943      8938      8929      8940      8944      8938      8929      8940
      8957      8952      8945      8954      8958      8952      8945      8954
      8959      8954      8945      8956      8960      8954      8945      8956
      8973      8968      8961      8970      8974      8968      8961      8970
      8975      8970      8961      8972      8976      8970      8961      8972
      8989      8984      8977      8986      8990      8984      8977      8986
      8991      8986      8977      8988      8992      8986      8977      8988
      9005      9000      8993      9002      9006      9000      8993      9002
      9007      9002      8993      9004      9008      9002      8993      9004
      9021      9016      9009      9018      9022      9016      9009      9018
      9023      9018      9009      9020      9024      9018      9009      9020
      9037      9032      9025      9034      9038      9032      9025      9034
      9039      9034      9025      9036      9040      9034      9025      9036
      9053      9048      9041      9050      9054      9048      9041      9050
      9055      9050      9041      9052      9056      9050      9041      9052
      9069      9064      9057      9066      9070      9064      9057      9066
      9071      9066      9057      9068      9072      9066      9057      9068
      9085      9080      9073      9082      9086      9080      9073      9082
      9087      9082      9073      9084      9088      9082      9073      9084
      9101      9096      9089      9098      9102      9096      9089      9098
      9103      9098      9089      9100      9104      9098      9089      9100
      9117      9112      9105      9114      9118      9112      9105      9114
      9119      9114      9105      9116      9120      9114      9105      9116
      9133      9128      9121      9130      9134      9128      9121      9130
      9135      9130      9121      9132      9136      9130      9121      9132
      9149      9144      9137      9146      9150      9144      9137      9146
      9151      9146      9137      9148      9152      9146      9137      9148
      9165      9160      9153      9162      9166      9160      9153      9162
      9167      9162      9153      9164      9168      9162      9153      9164
      9181      9176      9169      9178      9182      9176      9169      9178
      9183      9178      9169      9180      9184      9178      9169      9180
      9197      9192      9185      9194      9198      9192      9185      9194
      9199      9194      9185      9196      9200      9194      9185      9196
      9213      9208      9201      9210      9214      9208      9201      9210
      9215      9210      9201      9212      9216      9210      9201      9212
      9229      9224      9217      9226      9230      9224      9217      9226
      9231      9226      9217      9228      9232      9226      9217      9228
      9245      9240      9233      9242      9246      9240      9233      9242
      9247      9242      9233      9244      9248      9242      9233      9244
      9261      9256      9249      9258      9262      9256      9249      9258
      9263      9258      9249      9260      9264      9258      9249      9260
      9277      9272      9265      9274      9278      9272      9265      9274
      9279      9274      9265      9276      9280      9274      9265      9276
      9293      9288      9281      9290      9294      9288      9281      9290
      9295      9290      9281      9292      9296      9290      9281      9292
      9309      9304      9297      9306      9310      9304      9297      9306
      9311      9306      9297      9308      9312      9306      9297      9308
      9325      9320      9313      9322      9326      9320      9313      9322
      9327      9322      9313      9324      9328      9322      9313      9324
      9341      9336      9329      9338      9342      9336      9329      9338
      9343      9338      9329      9340      9344      9338      9329      9340
      9357      9352      9345      9354      9358      9352      9345      9354
      9359      9354      9345      9356      9360      9354      9345      9356
      9373      9368      9361      9370      9374      9368      9361      9370
      9375      9370      9361      9372      9376      9370      9361      9372
      9389      9384      9377      9386      9390      9384      9377      9386
      9391      9386      9377      9388      9392      9386      9377      9388
      9405      9400      9393      9402      9406      9400      9393      9402
      9407      9402      9393      9404      9408      9402      9393      9404
      9421      9416      9409      9418      9422      9416      9409      9418
      9423      9418      9409      9420      9424      9418      9409      9420
      9437      9432      9425      9434      9438      9432      9425      9434
      9439      9434      9425      9436      9440      9434      9425      9436
      9453      9448      9441      9450      9454      9448      9441      9450
      9455      9450      9441      9452      9456      9450      9441      9452
      9469      9464      9457      9466      9470      9464      9457      9466
      9471      9466      9457      9468      9472      9466      9457      9468
      9485      9480      9473      9482      9486      9480      9473      9482
      9487      9482      9473      9484      9488      9482      9473      9484
      9501      9496      9489      9498      9502      9496      9489      9498
      9503      9498      9489      9500      9504      9498      9489      9500
      9517      9512      9505      9514      9518      9512      9505      9514
      9519      9514      9505      9516      9520      9514      9505      9516
      9533      9528      9521      9530      9534      9528      9521      9530
      9535      9530      9521      9532      9536      9530      9521      9532
      9549      9544      9537      9546      9550      9544      9537      9546
      9551      9546      9537      9548      9552      9546      9537      9548
      9565      9560      9553      9562      9566      9560      9553      9562
      9567      9562      9553      9564      9568      9562      9553      9564
      9581      9576      9569      9578      9582      9576      9569      9578
      9583      9578      9569      9580      9584      9578      9569      9580
      9597      9592      9585      9594      9598      9592      9585      9594
      9599      9594      9585      9596      9600      9594      9585      9596
      9613      9608      9601      9610      9614      9608      9601      9610
      9615      9610      9601      9612      9616      9610      9601      9612
      9629      9624      9617      9626      9630      9624      9617      9626
      9631      9626      9617      9628      9632      9626      9617      9628
      9645      9640      9633      9642      9646      9640      9633      9642
      9647      9642      9633      9644      9648      9642      9633      9644
      9661      9656      9649      9658      9662      9656      9649      9658
      9663      9658      9649      9660      9664      9658      9649      9660
      9677      9672      9665      9674      9678      9672      9665      9674
      9679      9674      9665      9676      9680      9674      9665      9676
      9693      9688      9681      9690      9694      9688      9681      9690
      9695      9690      9681      9692      9696      9690      9681      9692
      9709      9704      9697      9706      9710      9704      9697      9706
      9711      9706      9697      9708      9712      9706      9697      9708
      9725      9720      9713      9722      9726      9720      9713      9722
      9727      9722      9713      9724      9728      9722      9713      9724
      9741      9736      9729      9738      9742      9736      9729      9738
      9743      9738      9729      9740      9744      9738      9729      9740
      9757      9752      9745      9754      9758      9752      9745      9754
      9759      9754      9745      9756      9760      9754      9745      9756
      9773      9768      9761      9770      9774      9768      9761      9770
      9775      9770      9761      9772      9776      9770      9761      9772
      9789      9784      9777      9786      9790      9784      9777      9786
      9791      9786      9777      9788      9792      9786      9777      9788
      9805      9800      9793      9802      9806      9800      9793      9802
      9807      9802      9793      9804      9808      9802      9793      9804
      9821      9816      9809      9818      9822      9816      9809      9818
      9823      9818      9809      9820      9824      9818      9809      9820
      9837      9832      9825      9834      9838      9832      9825      9834
      9839      9834      9825      9836      9840      9834      9825      9836
      9853      9848      9841      9850      9854      9848      9841      9850
      9855      9850      9841      9852      9856      9850      9841      9852
      9869      9864      9857      9866      9870      9864      9857      9866
      9871      9866      9857      9868      9872      9866      9857      9868
      9885      9880      9873      9882      9886      9880      9873      9882
      9887      9882      9873      9884      9888      9882      9873      9884
      9901      9896      9889      9898      9902      9896      9889      9898
      9903      9898      9889      9900      9904      9898      9889      9900
      9917      9912      9905      9914      9918      9912      9905      9914
      9919      9914      9905      9916      9920      9914      9905      9916
      9933      9928      9921      9930      9934      9928      9921      9930
      9935      9930      9921      9932      9936      9930      9921      9932
      9949      9944      9937      9946      9950      9944      9937      9946
      9951      9946      9937      9948      9952      9946      9937      9948
      9965      9960      9953      9962      9966      9960      9953      9962
      9967      9962      9953      9964      9968      9962      9953      9964
      9981      9976      9969      9978      9982      9976      9969      9978
      9983      9978      9969      9980      9984      9978      9969      9980
      9997      9992      9985      9994      9998      9992      9985      9994
      9999      9994      9985      9996     10000      9994      9985      9996
     10013     10008     10001     10010     10014     10008     10001     10010
     10015     10010     10001     10012     10016     10010     10001     10012
     10029     10024     10017     10026     10030     10024     10017     10026
     10031     10026     10017     10028     10032     10026     10017     10028
     10045     10040     10033     10042     10046     10040     10033     10042
     10047     10042     10033     10044     10048     10042     10033     10044
     10061     10056     10049     10058     10062     10056     10049     10058
     10063     10058     10049     10060     10064     10058     10049     10060
     10077     10072     10065     10074     10078     10072     10065     10074
     10079     10074     10065     10076     10080     10074     10065     10076
     10093     10088     10081     10090     10094     10088     10081     10090
     10095     10090     10081     10092     10096     10090     10081     10092
     10109     10104     10097     10106     10110     10104     10097     10106
     10111     10106     10097     10108     10112     10106     10097     10108
     10125     10120     10113     10122     10126     10120     10113     10122
     10127     10122     10113     10124     10128     10122     10113     10124
     10141     10136     10129     10138     10142     10136     10129     10138
     10143     10138     10129     10140     10144     10138     10129     10140
     10157     10152     10145     10154     10158     10152     10145     10154
     10159     10154     10145     10156     10160     10154     10145     10156
     10173     10168     10161     10170     10174     10168     10161     10170
     10175     10170     10161     10172     10176     10170     10161     10172
     10189     10184     10177     10186     10190     10184     10177     10186
     10191     10186     10177     10188     10192     10186     10177     10188
     10205     10200     10193     10202     10206     10200     10193     10202
     10207     10202     10193     10204     10208     10202     10193     10204
     10221     10216     10209     10218     10222     10216     10209     10218
     10223     10218     10209     10220     10224     10218     10209     10220
     10237     10232     10225     10234     10238     10232     10225     10234
     10239     10234     10225     10236     10240     10234     10225     10236
     10253     10248     10241     10250     10254     10248     10241     10250
     10255     10250     10241     10252     10256     10250     10241     10252
     10269     10264     10257     10266     10270     10264     10257     10266
     10271     10266     10257     10268     10272     10266     10257     10268
     10285     10280     10273     10282     10286     10280     10273     10282
     10287     10282     10273     10284     10288     10282     10273     10284
     10301     10296     10289     10298     10302     10296     10289     10298
     10303     10298     10289     10300     10304     10298     10289     10300
     10317     10312     10305     10314     10318     10312     10305     10314
     10319     10314     10305     10316     10320     10314     10305     10316
     10333     10328     10321     10330     10334     10328     10321     10330
     10335     10330     10321     10332     10336     10330     10321     10332
     10349     10344     10337     10346     10350     10344     10337     10346
     10351     10346     10337     10348     10352     10346     10337     10348
     10365     10360     10353     10362     10366     10360     10353     10362
     10367     10362     10353     10364     10368     10362     10353     10364
     10381     10376     10369     10378     10382     10376     10369     10378
     10383     10378     10369     10380     10384     10378     10369     10380
     10397     10392     10385     10394     10398     10392     10385     10394
     10399     10394     10385     10396     10400     10394     10385     10396
     10413     10408     10401     10410     10414     10408     10401     10410
     10415     10410     10401     10412     10416     10410     10401     10412
     10429     10424     10417     10426     10430     10424     10417     10426
     10431     10426     10417     10428     10432     10426     10417     10428
     10445     10440     10433     10442     10446     10440     10433     10442
     10447     10442     10433     10444     10448     10442     10433     10444
     10461     10456     10449     10458     10462     10456     10449     10458
     10463     10458     10449     10460     10464     10458     10449     10460
     10477     10472     10465     10474     10478     10472     10465     10474
     10479     10474     10465     10476     10480     10474     10465     10476
     10493     10488     10481     10490     10494     10488     10481     10490
     10495     10490     10481     10492     10496     10490     10481     10492
     10509     10504     10497     10506     10510     10504     10497     10506
     10511     10506     10497     10508     10512     10506     10497     10508
     10525     10520     10513     10522     10526     10520     10513     10522
     10527     10522     10513     10524     10528     10522     10513     10524
     10541     10536     10529     10538     10542     10536     10529     10538
     10543     10538     10529     10540     10544     10538     10529     10540
     10557     10552     10545     10554     10558     10552     10545     10554
     10559     10554     10545     10556     10560     10554     10545     10556
     10573     10568     10561     10570     10574     10568     10561     10570
     10575     10570     10561     10572     10576     10570     10561     10572
     10589     10584     10577     10586     10590     10584     10577     10586
     10591     10586     10577     10588     10592     10586     10577     10588
     10605     10600     10593     10602     10606     10600     10593     10602
     10607     10602     10593     10604     10608     10602     10593     10604
     10621     10616     10609     10618     10622     10616     10609     10618
     10623     10618     10609     10620     10624     10618     10609     10620
     10637     10632     10625     10634     10638     10632     10625     10634
     10639     10634     10625     10636     10640     10634     10625     10636
     10653     10648     10641     10650     10654     10648     10641     10650
     10655     10650     10641     10652     10656     10650     10641     10652
     10669     10664     10657     10666     10670     10664     10657     10666
     10671     10666     10657     10668     10672     10666     10657     10668
     10685     10680     10673     10682     10686     10680     10673     10682
     10687     10682     10673     10684     10688     10682     10673     10684
     10701     10696     10689     10698     10702     10696     10689     10698
     10703     10698     10689     10700     10704     10698     10689     10700
     10717     10712     10705     10714     10718     10712     10705     10714
     10719     10714     10705     10716     10720     10714     10705     10716
     10733     10728     10721     10730     10734     10728     10721     10730
     10735     10730     10721     10732     10736     10730     10721     10732
     10749     10744     10737     10746     10750     10744     10737     10746
     10751     10746     10737     10748     10752     10746     10737     10748
     10765     10760     10753     10762     10766     10760     10753     10762
     10767     10762     10753     10764     10768     10762     10753     10764
     10781     10776     10769     10778     10782     10776     10769     10778
     10783     10778     10769     10780     10784     10778     10769     10780
     10797     10792     10785     10794     10798     10792     10785     10794
     10799     10794     10785     10796     10800     10794     10785     10796
     10813     10808     10801     10810     10814     10808     10801     10810
     10815     10810     10801     10812     10816     10810     10801     10812
     10829     10824     10817     10826     10830     10824     10817     10826
     10831     10826     10817     10828     10832     10826     10817     10828
     10845     10840     10833     10842     10846     10840     10833     10842
     10847     10842     10833     10844     10848     10842     10833     10844
     10861     10856     10849     10858     10862     10856     10849     10858
     10863     10858     10849     10860     10864     10858     10849     10860
     10877     10872     10865     10874     10878     10872     10865     10874
     10879     10874     10865     10876     10880     10874     10865     10876
     10893     10888     10881     10890     10894     10888     10881     10890
     10895     10890     10881     10892     10896     10890     10881     10892
     10909     10904     10897     10906     10910     10904     10897     10906
     10911     10906     10897     10908     10912     10906     10897     10908
     10925     10920     10913     10922     10926     10920     10913     10922
     10927     10922     10913     10924     10928     10922     10913     10924
     10941     10936     10929     10938     10942     10936     10929     10938
     10943     10938     10929     10940     10944     10938     10929     10940
     10957     10952     10945     10954     10958     10952     10945     10954
     10959     10954     10945     10956     10960     10954     10945     10956
     10973     10968     10961     10970     10974     10968     10961     10970
     10975     10970     10961     10972     10976     10970     10961     10972
     10989     10984     10977     10986     10990     10984     10977     10986
     10991     10986     10977     10988     10992     10986     10977     10988
     11005     11000     10993     11002     11006     11000     10993     11002
     11007     11002     10993     11004     11008     11002     10993     11004
     11021     11016     11009     11018     11022     11016     11009     11018
     11023     11018     11009     11020     11024     11018     11009     11020
     11037     11032     11025     11034     11038     11032     11025     11034
     11039     11034     11025     11036     11040     11034     11025     11036
     11053     11048     11041     11050     11054     11048     11041     11050
     11055     11050     11041     11052     11056     11050     11041     11052
     11069     11064     11057     11066     11070     11064     11057     11066
     11071     11066     11057     11068     11072     11066     11057     11068
     11085     11080     11073     11082     11086     11080     11073     11082
     11087     11082     11073     11084     11088     11082     11073     11084
     11101     11096     11089     11098     11102     11096     11089     11098
     11103     11098     11089     11100     11104     11098     11089     11100
     11117     11112     11105     11114     11118     11112     11105     11114
     11119     11114     11105     11116     11120     11114     11105     11116
     11133     11128     11121     11130     11134     11128     11121     11130
     11135     11130     11121     11132     11136     11130     11121     11132
     11149     11144     11137     11146     11150     11144     11137     11146
     11151     11146     11137     11148     11152     11146     11137     11148
     11165     11160     11153     11162     11166     11160     11153     11162
     11167     11162     11153     11164     11168     11162     11153     11164
     11181     11176     11169     11178     11182     11176     11169     11178
     11183     11178     11169     11180     11184     11178     11169     11180
     11197     11192     11185     11194     11198     11192     11185     11194
     11199     11194     11185     11196     11200     11194     11185     11196
     11213     11208     11201     11210     11214     11208     11201     11210
     11215     11210     11201     11212     11216     11210     11201     11212
     11229     11224     11217     11226     11230     11224     11217     11226
     11231     11226     11217     11228     11232     11226     11217     11228
     11245     11240     11233     11242     11246     11240     11233     11242
     11247     11242     11233     11244     11248     11242     11233     11244
     11261     11256     11249     11258     11262     11256     11249     11258
     11263     11258     11249     11260     11264     11258     11249     11260
     11277     11272     11265     11274     11278     11272     11265     11274
     11279     11274     11265     11276     11280     11274     11265     11276
     11293     11288     11281     11290     11294     11288     11281     11290
     11295     11290     11281     11292     11296     11290     11281     11292
     11309     11304     11297     11306     11310     11304     11297     11306
     11311     11306     11297     11308     11312     11306     11297     11308
     11325     11320     11313     11322     11326     11320     11313     11322
     11327     11322     11313     11324     11328     11322     11313     11324
     11341     11336     11329     11338     11342     11336     11329     11338
     11343     11338     11329     11340     11344     11338     11329     11340
     11357     11352     11345     11354     11358     11352     11345     11354
     11359     11354     11345     11356     11360     11354     11345     11356
     11373     11368     11361     11370     11374     11368     11361     11370
     11375     11370     11361     11372     11376     11370     11361     11372
     11389     11384     11377     11386     11390     11384     11377     11386
     11391     11386     11377     11388     11392     11386     11377     11388
     11405     11400     11393     11402     11406     11400     11393     11402
     11407     11402     11393     11404     11408     11402     11393     11404
     11421     11416     11409     11418     11422     11416     11409     11418
     11423     11418     11409     11420     11424     11418     11409     11420
     11437     11432     11425     11434     11438     11432     11425     11434
     11439     11434     11425     11436     11440     11434     11425     11436
     11453     11448     11441     11450     11454     11448     11441     11450
     11455     11450     11441     11452     11456     11450     11441     11452
     11469     11464     11457     11466     11470     11464     11457     11466
     11471     11466     11457     11468     11472     11466     11457     11468
     11485     11480     11473     11482     11486     11480     11473     11482
     11487     11482     11473     11484     11488     11482     11473     11484
     11501     11496     11489     11498     11502     11496     11489     11498
     11503     11498     11489     11500     11504     11498     11489     11500
     11517     11512     11505     11514     11518     11512     11505     11514
     11519     11514     11505     11516     11520     11514     11505     11516
     11533     11528     11521     11530     11534     11528     11521     11530
     11535     11530     11521     11532     11536     11530     11521     11532
     11549     11544     11537     11546     11550     11544     11537     11546
     11551     11546     11537     11548     11552     11546     11537     11548
     11565     11560     11553     11562     11566     11560     11553     11562
     11567     11562     11553     11564     11568     11562     11553     11564
     11581     11576     11569     11578     11582     11576     11569     11578
     11583     11578     11569     11580     11584     11578     11569     11580
     11597     11592     11585     11594     11598     11592     11585     11594
     11599     11594     11585     11596     11600     11594     11585     11596
     11613     11608     11601     11610     11614     11608     11601     11610
     11615     11610     11601     11612     11616     11610     11601     11612
     11629     11624     11617     11626     11630     11624     11617     11626
     11631     11626     11617     11628     11632     11626     11617     11628
     11645     11640     11633     11642     11646     11640     11633     11642
     11647     11642     11633     11644     11648     11642     11633     11644
     11661     11656     11649     11658     11662     11656     11649     11658
     11663     11658     11649     11660     11664     11658     11649     11660
     11677     11672     11665     11674     11678     11672     11665     11674
     11679     11674     11665     11676     11680     11674     11665     11676
     11693     11688     11681     11690     11694     11688     11681     11690
     11695     11690     11681     11692     11696     11690     11681     11692
     11709     11704     11697     11706     11710     11704     11697     11706
     11711     11706     11697     11708     11712     11706     11697     11708
     11725     11720     11713     11722     11726     11720     11713     11722
     11727     11722     11713     11724     11728     11722     11713     11724
     11741     11736     11729     11738     11742     11736     11729     11738
     11743     11738     11729     11740     11744     11738     11729     11740
     11757     11752     11745     11754     11758     11752     11745     11754
     11759     11754     11745     11756     11760     11754     11745     11756
     11773     11768     11761     11770     11774     11768     11761     11770
     11775     11770     11761     11772     11776     11770     11761     11772
     11789     11784     11777     11786     11790     11784     11777     11786
     11791     11786     11777     11788     11792     11786     11777     11788
     11805     11800     11793     11802     11806     11800     11793     11802
     11807     11802     11793     11804     11808     11802     11793     11804
     11821     11816     11809     11818     11822     11816     11809     11818
     11823     11818     11809     11820     11824     11818     11809     11820
     11837     11832     11825     11834     11838     11832     11825     11834
     11839     11834     11825     11836     11840     11834     11825     11836
     11853     11848     11841     11850     11854     11848     11841     11850
     11855     11850     11841     11852     11856     11850     11841     11852
     11869     11864     11857     11866     11870     11864     11857     11866
     11871     11866     11857     11868     11872     11866     11857     11868
     11885     11880     11873     11882     11886     11880     11873     11882
     11887     11882     11873     11884     11888     11882     11873     11884
     11901     11896     11889     11898     11902     11896     11889     11898
     11903     11898     11889     11900     11904     11898     11889     11900
     11917     11912     11905     11914     11918     11912     11905     11914
     11919     11914     11905     11916     11920     11914     11905     11916
     11933     11928     11921     11930     11934     11928     11921     11930
     11935     11930     11921     11932     11936     11930     11921     11932
     11949     11944     11937     11946     11950     11944     11937     11946
     11951     11946     11937     11948     11952     11946     11937     11948
     11965     11960     11953     11962     11966     11960     11953     11962
     11967     11962     11953     11964     11968     11962     11953     11964
     11981     11976     11969     11978     11982     11976     11969     11978
     11983     11978     11969     11980     11984     11978     11969     11980
     11997     11992     11985     11994     11998     11992     11985     11994
     11999     11994     11985     11996     12000     11994     11985     11996
     12013     12008     12001     12010     12014     12008     12001     12010
     12015     12010     12001     12012     12016     12010     12001     12012
     12029     12024     12017     12026     12030     12024     12017     12026
     12031     12026     12017     12028     12032     12026     12017     12028
     12045     12040     12033     12042     12046     12040     12033     12042
     12047     12042     12033     12044     12048     12042     12033     12044
     12061     12056     12049     12058     12062     12056     12049     12058
     12063     12058     12049     12060     12064     12058     12049     12060
     12077     12072     12065     12074     12078     12072     12065     12074
     12079     12074     12065     12076     12080     12074     12065     12076
     12093     12088     12081     12090     12094     12088     12081     12090
     12095     12090     12081     12092     12096     12090     12081     12092
     12109     12104     12097     12106     12110     12104     12097     12106
     12111     12106     12097     12108     12112     12106     12097     12108
     12125     12120     12113     12122     12126     12120     12113     12122
     12127     12122     12113     12124     12128     12122     12113     12124
     12141     12136     12129     12138     12142     12136     12129     12138
     12143     12138     12129     12140     12144     12138     12129     12140
     12157     12152     12145     12154     12158     12152     12145     12154
     12159     12154     12145     12156     12160     12154     12145     12156
     12173     12168     12161     12170     12174     12168     12161     12170
     12175     12170     12161     12172     12176     12170     12161     12172
     12189     12184     12177     12186     12190     12184     12177     12186
     12191     12186     12177     12188     12192     12186     12177     12188
     12205     12200     12193     12202     12206     12200     12193     12202
     12207     12202     12193     12204     12208     12202     12193     12204
     12221     12216     12209     12218     12222     12216     12209     12218
     12223     12218     12209     12220     12224     12218     12209     12220
     12237     12232     12225     12234     12238     12232     12225     12234
     12239     12234     12225     12236     12240     12234     12225     12236
     12306     12259     12257     12255     12307     12259     12257     12255
     12308     12261     12257     12255     12309     12261     12257     12255
     12310     12263     12257     12255     12311     12263     12257     12255
     12312     12267     12265     12251     12313     12267     12265     12251
     12314     12269     12265     12251     12315     12269     12265     12251
     12316     12271     12265     12251     12317     12271     12265     12251
     12318     12289     12283     12305     12319     12289     12283     12305
     12320     12293     12291     12279     12321     12293     12291     12279
     12322     12295     12291     12279     12323     12295     12291     12279
     12324     12297     12291     12279     12325     12297     12291     12279
     12391     12344     12342     12340     12392     12344     12342     12340
     12393     12346     12342     12340     12394     12346     12342     12340
     12395     12348     12342     12340     12396     12348     12342     12340
     12397     12352     12350     12336     12398     12352     12350     12336
     12399     12354     12350     12336     12400     12354     12350     12336
     12401     12356     12350     12336     12402     12356     12350     12336
     12403     12374     12368     12390     12404     12374     12368     12390
     12405     12378     12376     12364     12406     12378     12376     12364
     12407     12380     12376     12364     12408     12380     12376     12364
     12409     12382     12376     12364     12410     12382     12376     12364
     12476     12429     12427     12425     12477     12429     12427     12425
     12478     12431     12427     12425     12479     12431     12427     12425
     12480     12433     12427     12425     12481     12433     12427     12425
     12482     12437     12435     12421     12483     12437     12435     12421
     12484     12439     12435     12421     12485     12439     12435     12421
     12486     12441     12435     12421     12487     12441     12435     12421
     12488     12459     12453     12475     12489     12459     12453     12475
     12490     12463     12461     12449     12491     12463     12461     12449
     12492     12465     12461     12449     12493     12465     12461     12449
     12494     12467     12461     12449     12495     12467     12461     12449
     12561     12514     12512     12510     12562     12514     12512     12510
     12563     12516     12512     12510     12564     12516     12512     12510
     12565     12518     12512     12510     12566     12518     12512     12510
     12567     12522     12520     12506     12568     12522     12520     12506
     12569     12524     12520     12506     12570     12524     12520     12506
     12571     12526     12520     12506     12572     12526     12520     12506
     12573     12544     12538     12560     12574     12544     12538     12560
     12575     12548     12546     12534     12576     12548     12546     12534
     12577     12550     12546     12534     12578     12550     12546     12534
     12579     12552     12546     12534     12580     12552     12546     12534
     12646     12599     12597     12595     12647     12599     12597     12595
     12648     12601     12597     12595     12649     12601     12597     12595
     12650     12603     12597     12595     12651     12603     12597     12595
     12652     12607     12605     12591     12653     12607     12605     12591
     12654     12609     12605     12591     12655     12609     12605     12591
     12656     12611     12605     12591     12657     12611     12605     12591
     12658     12629     12623     12645     12659     12629     12623     12645
     12660     12633     12631     12619     12661     12633     12631     12619
     12662     12635     12631     12619     12663     12635     12631     12619
     12664     12637     12631     12619     12665     12637     12631     12619
     12731     12684     12682     12680     12732     12684     12682     12680
     12733     12686     12682     12680     12734     12686     12682     12680
     12735     12688     12682     12680     12736     12688     12682     12680
     12737     12692     12690     12676     12738     12692     12690     12676
     12739     12694     12690     12676     12740     12694     12690     12676
     12741     12696     12690     12676     12742     12696     12690     12676
     12743     12714     12708     12730     12744     12714     12708     12730
     12745     12718     12716     12704     12746     12718     12716     12704
     12747     12720     12716     12704     12748     12720     12716     12704
     12749     12722     12716     12704     12750     12722     12716     12704
     12816     12769     12767     12765     12817     12769     12767     12765
     12818     12771     12767     12765     12819     12771     12767     12765
     12820     12773     12767     12765     12821     12773     12767     12765
     12822     12777     12775     12761     12823     12777     12775     12761
     12824     12779     12775     12761     12825     12779     12775     12761
     12826     12781     12775     12761     12827     12781     12775     12761
     12828     12799     12793     12815     12829     12799     12793     12815
     12830     12803     12801     12789     12831     12803     12801     12789
     12832     12805     12801     12789     12833     12805     12801     12789
     12834     12807     12801     12789     12835     12807     12801     12789
     12901     12854     12852     12850     12902     12854     12852     12850
     12903     12856     12852     12850     12904     12856     12852     12850
     12905     12858     12852     12850     12906     12858     12852     12850
     12907     12862     12860     12846     12908     12862     12860     12846
     12909     12864     12860     12846     12910     12864     12860     12846
     12911     12866     12860     12846     12912     12866     12860     12846
     12913     12884     12878     12900     12914     12884     12878     12900
     12915     12888     12886     12874     12916     12888     12886     12874
     12917     12890     12886     12874     12918     12890     12886     12874
     12919     12892     12886     12874     12920     12892     12886     12874
     12986     12939     12937     12935     12987     12939     12937     12935
     12988     12941     12937     12935     12989     12941     12937     12935
     12990     12943     12937     12935     12991     12943     12937     12935
     12992     12947     12945     12931     12993     12947     12945     12931
     12994     12949     12945     12931     12995     12949     12945     12931
     12996     12951     12945     12931     12997     12951     12945     12931
     12998     12969     12963     12985     12999     12969     12963     12985
     13000     12973     12971     12959     13001     12973     12971     12959
     13002     12975     12971     12959     13003     12975     12971     12959
     13004     12977     12971     12959     13005     12977     12971     12959
     13071     13024     13022     13020     13072     13024     13022     13020
     13073     13026     13022     13020     13074     13026     13022     13020
     13075     13028     13022     13020     13076     13028     13022     13020
     13077     13032     13030     13016     13078     13032     13030     13016
     13079     13034     13030     13016     13080     13034     13030     13016
     13081     13036     13030     13016     13082     13036     13030     13016
     13083     13054     13048     13070     13084     13054     13048     13070
     13085     13058     13056     13044     13086     13058     13056     13044
     13087     13060     13056     13044     13088     13060     13056     13044
     13089     13062     13056     13044     13090     13062     13056     13044
     13156     13109     13107     13105     13157     13109     13107     13105
     13158     13111     13107     13105     13159     13111     13107     13105
     13160     13113     13107     13105     13161     13113     13107     13105
     13162     13117     13115     13101     13163     13117     13115     13101
     13164     13119     13115     13101     13165     13119     13115     13101
     13166     13121     13115     13101     13167     13121     13115     13101
     13168     13139     13133     13155     13169     13139     13133     13155
     13170     13143     13141     13129     13171     13143     13141     13129
     13172     13145     13141     13129     13173     13145     13141     13129
     13174     13147     13141     13129     13175     13147     13141     13129
     13241     13194     13192     13190     13242     13194     13192     13190
     13243     13196     13192     13190     13244     13196     13192     13190
     13245     13198     13192     13190     13246     13198     13192     13190
     13247     13202     13200     13186     13248     13202     13200     13186
     13249     13204     13200     13186     13250     13204     13200     13186
     13251     13206     13200     13186     13252     13206     13200     13186
     13253     13224     13218     13240     13254     13224     13218     13240
     13255     13228     13226     13214     13256     13228     13226     13214
     13257     13230     13226     13214     13258     13230     13226     13214
     13259     13232     13226     13214     13260     13232     13226     13214
     13326     13279     13277     13275     13327     13279     13277     13275
     13328     13281     13277     13275     13329     13281     13277     13275
     13330     13283     13277     13275     13331     13283     13277     13275
     13332     13287     13285     13271     13333     13287     13285     13271
     13334     13289     13285     13271     13335     13289     13285     13271
     13336     13291     13285     13271     13337     13291     13285     13271
     13338     13309     13303     13325     13339     13309     13303     13325
     13340     13313     13311     13299     13341     13313     13311     13299
     13342     13315     13311     13299     13343     13315     13311     13299
     13344     13317     13311     13299     13345     13317     13311     13299
     13411     13364     13362     13360     13412     13364     13362     13360
     13413     13366     13362     13360     13414     13366     13362     13360
     13415     13368     13362     13360     13416     13368     13362     13360
     13417     13372     13370     13356     13418     13372     13370     13356
     13419     13374     13370     13356     13420     13374     13370     13356
     13421     13376     13370     13356     13422     13376     13370     13356
     13423     13394     13388     13410     13424     13394     13388     13410
     13425     13398     13396     13384     13426     13398     13396     13384
     13427     13400     13396     13384     13428     13400     13396     13384
     13429     13402     13396     13384     13430     13402     13396     13384
     13496     13449     13447     13445     13497     13449     13447     13445
     13498     13451     13447     13445     13499     13451     13447     13445
     13500     13453     13447     13445     13501     13453     13447     13445
     13502     13457     13455     13441     13503     13457     13455     13441
     13504     13459     13455     13441     13505     13459     13455     13441
     13506     13461     13455     13441     13507     13461     13455     13441
     13508     13479     13473     13495     13509     13479     13473     13495
     13510     13483     13481     13469     13511     13483     13481     13469
     13512     13485     13481     13469     13513     13485     13481     13469
     13514     13487     13481     13469     13515     13487     13481     13469
     13581     13534     13532     13530     13582     13534     13532     13530
     13583     13536     13532     13530     13584     13536     13532     13530
     13585     13538     13532     13530     13586     13538     13532     13530
     13587     13542     13540     13526     13588     13542     13540     13526
     13589     13544     13540     13526     13590     13544     13540     13526
     13591     13546     13540     13526     13592     13546     13540     13526
     13593     13564     13558     13580     13594     13564     13558     13580
     13595     13568     13566     13554     13596     13568     13566     13554
     13597     13570     13566     13554     13598     13570     13566     13554
     13599     13572     13566     13554     13600     13572     13566     13554
     13666     13619     13617     13615     13667     13619     13617     13615
     13668     13621     13617     13615     13669     13621     13617     13615
     13670     13623     13617     13615     13671     13623     13617     13615
     13672     13627     13625     13611     13673     13627     13625     13611
     13674     13629     13625     13611     13675     13629     13625     13611
     13676     13631     13625     13611     13677     13631     13625     13611
     13678     13649     13643     13665     13679     13649     13643     13665
     13680     13653     13651     13639     13681     13653     13651     13639
     13682     13655     13651     13639     13683     13655     13651     13639
     13684     13657     13651     13639     13685     13657     13651     13639
     13751     13704     13702     13700     13752     13704     13702     13700
     13753     13706     13702     13700     13754     13706     13702     13700
     13755     13708     13702     13700     13756     13708     13702     13700
     13757     13712     13710     13696     13758     13712     13710     13696
     13759     13714     13710     13696     13760     13714     13710     13696
     13761     13716     13710     13696     13762     13716     13710     13696
     13763     13734     13728     13750     13764     13734     13728     13750
     13765     13738     13736     13724     13766     13738     13736     13724
     13767     13740     13736     13724     13768     13740     13736     13724
     13769     13742     13736     13724     13770     13742     13736     13724
     13780     13773     13771     13775     13781     13773     13771     13775
     13791     13784     13782     13786     13792     13784     13782     13786
     13802     13795     13793     13797     13803     13795     13793     13797
     13813     13806     13804     13808     13814     13806     13804     13808
     13824     13817     13815     13819     13825     13817     13815     13819
     13835     13828     13826     13830     13836     13828     13826     13830
     13846     13839     13837     13841     13847     13839     13837     13841
     13857     13850     13848     13852     13858     13850     13848     13852
     13868     13861     13859     13863     13869     13861     13859     13863
     13879     13872     13870     13874     13880     13872     13870     13874
     13890     13883     13881     13885     13891     13883     13881     13885
     13901     13894     13892     13896     13902     13894     13892     13896
     13912     13905     13903     13907     13913     13905     13903     13907
     13923     13916     13914     13918     13924     13916     13914     13918
     13934     13927     13925     13929     13935     13927     13925     13929
     13945     13938     13936     13940     13946     13938     13936     13940
     13956     13949     13947     13951     13957     13949     13947     13951
     13967     13960     13958     13962     13968     13960     13958     13962
     13978     13971     13969     13973     13979     13971     13969     13973
     13989     13982     13980     13984     13990     13982     13980     13984
     14000     13993     13991     13995     14001     13993     13991     13995
     14011     14004     14002     14006     14012     14004     14002     14006
     14022     14015     14013     14017     14023     14015     14013     14017
     14033     14026     14024     14028     14034     14026     14024     14028
     14044     14037     14035     14039     14045     14037     14035     14039
     14055     14048     14046     14050     14056     14048     14046     14050
     14066     14059     14057     14061     14067     14059     14057     14061
     14077     14070     14068     14072     14078     14070     14068     14072
     14088     14081     14079     14083     14089     14081     14079     14083
     14099     14092     14090     14094     14100     14092     14090     14094
     14110     14103     14101     14105     14111     14103     14101     14105
     14121     14114     14112     14116     14122     14114     14112     14116
     14132     14125     14123     14127     14133     14125     14123     14127
     14143     14136     14134     14138     14144     14136     14134     14138
     14154     14147     14145     14149     14155     14147     14145     14149
     14165     14158     14156     14160     14166     14158     14156     14160
     14176     14169     14167     14171     14177     14169     14167     14171
     14187     14180     14178     14182     14188     14180     14178     14182
     14198     14191     14189     14193     14199     14191     14189     14193
     14209     14202     14200     14204     14210     14202     14200     14204
     14220     14213     14211     14215     14221     14213     14211     14215
     14231     14224     14222     14226     14232     14224     14222     14226
     14242     14235     14233     14237     14243     14235     14233     14237
     14253     14246     14244     14248     14254     14246     14244     14248
     14264     14257     14255     14259     14265     14257     14255     14259
     14275     14268     14266     14270     14276     14268     14266     14270
     14286     14279     14277     14281     14287     14279     14277     14281
     14297     14290     14288     14292     14298     14290     14288     14292
     14308     14301     14299     14303     14309     14301     14299     14303
     14319     14312     14310     14314     14320     14312     14310     14314
     14330     14323     14321     14325     14331     14323     14321     14325
     14341     14334     14332     14336     14342     14334     14332     14336
     14352     14345     14343     14347     14353     14345     14343     14347
     14363     14356     14354     14358     14364     14356     14354     14358
     14374     14367     14365     14369     14375     14367     14365     14369
     14385     14378     14376     14380     14386     14378     14376     14380
     14396     14389     14387     14391     14397     14389     14387     14391
     14407     14400     14398     14402     14408     14400     14398     14402
     14418     14411     14409     14413     14419     14411     14409     14413
     14429     14422     14420     14424     14430     14422     14420     14424
     14440     14433     14431     14435     14441     14433     14431     14435
     14451     14444     14442     14446     14452     14444     14442     14446
     14462     14455     14453     14457     14463     14455     14453     14457
     14473     14466     14464     14468     14474     14466     14464     14468
     14484     14477     14475     14479     14485     14477     14475     14479
     14495     14488     14486     14490     14496     14488     14486     14490
     14506     14499     14497     14501     14507     14499     14497     14501
     14517     14510     14508     14512     14518     14510     14508     14512
     14528     14521     14519     14523     14529     14521     14519     14523
     14539     14532     14530     14534     14540     14532     14530     14534
     14550     14543     14541     14545     14551     14543     14541     14545
     14561     14554     14552     14556     14562     14554     14552     14556
     14572     14565     14563     14567     14573     14565     14563     14567
     14583     14576     14574     14578     14584     14576     14574     14578
     14594     14587     14585     14589     14595     14587     14585     14589
     14605     14598     14596     14600     14606     14598     14596     14600
     14616     14609     14607     14611     14617     14609     14607     14611
     14627     14620     14618     14622     14628     14620     14618     14622
     14638     14631     14629     14633     14639     14631     14629     14633
     14649     14642     14640     14644     14650     14642     14640     14644
     14660     14653     14651     14655     14661     14653     14651     14655
     14671     14664     14662     14666     14672     14664     14662     14666
     14682     14675     14673     14677     14683     14675     14673     14677
     14693     14686     14684     14688     14694     14686     14684     14688
     14704     14697     14695     14699     14705     14697     14695     14699
     14715     14708     14706     14710     14716     14708     14706     14710
     14726     14719     14717     14721     14727     14719     14717     14721
     14737     14730     14728     14732     14738     14730     14728     14732
     14748     14741     14739     14743     14749     14741     14739     14743
     14759     14752     14750     14754     14760     14752     14750     14754
     14770     14763     14761     14765     14771     14763     14761     14765
     14781     14774     14772     14776     14782     14774     14772     14776
     14792     14785     14783     14787     14793     14785     14783     14787
     14803     14796     14794     14798     14804     14796     14794     14798
     14814     14807     14805     14809     14815     14807     14805     14809
     14825     14818     14816     14820     14826     14818     14816     14820
     14836     14829     14827     14831     14837     14829     14827     14831
     14847     14840     14838     14842     14848     14840     14838     14842
     14858     14851     14849     14853     14859     14851     14849     14853
     14869     14862     14860     14864     14870     14862     14860     14864
     14880     14873     14871     14875     14881     14873     14871     14875
     14891     14884     14882     14886     14892     14884     14882     14886
     14902     14895     14893     14897     14903     14895     14893     14897
     14913     14906     14904     14908     14914     14906     14904     14908
     14924     14917     14915     14919     14925     14917     14915     14919
     14935     14928     14926     14930     14936     14928     14926     14930
     14946     14939     14937     14941     14947     14939     14937     14941
     14957     14950     14948     14952     14958     14950     14948     14952
     14968     14961     14959     14963     14969     14961     14959     14963
     14979     14972     14970     14974     14980     14972     14970     14974
     14990     14983     14981     14985     14991     14983     14981     14985
     15001     14994     14992     14996     15002     14994     14992     14996
     15012     15005     15003     15007     15013     15005     15003     15007
     15023     15016     15014     15018     15024     15016     15014     15018
     15034     15027     15025     15029     15035     15027     15025     15029
     15045     15038     15036     15040     15046     15038     15036     15040
     15056     15049     15047     15051     15057     15049     15047     15051
     15067     15060     15058     15062     15068     15060     15058     15062
     15078     15071     15069     15073     15079     15071     15069     15073
     15089     15082     15080     15084     15090     15082     15080     15084
     15100     15093     15091     15095     15101     15093     15091     15095
     15111     15104     15102     15106     15112     15104     15102     15106
     15122     15115     15113     15117     15123     15115     15113     15117
     15133     15126     15124     15128     15134     15126     15124     15128
     15144     15137     15135     15139     15145     15137     15135     15139
     15155     15148     15146     15150     15156     15148     15146     15150
     15166     15159     15157     15161     15167     15159     15157     15161
     15177     15170     15168     15172     15178     15170     15168     15172
     15188     15181     15179     15183     15189     15181     15179     15183
     15199     15192     15190     15194     15200     15192     15190     15194
     15210     15203     15201     15205     15211     15203     15201     15205
     15221     15214     15212     15216     15222     15214     15212     15216
     15232     15225     15223     15227     15233     15225     15223     15227
     15243     15236     15234     15238     15244     15236     15234     15238
     15254     15247     15245     15249     15255     15247     15245     15249
     15265     15258     15256     15260     15266     15258     15256     15260
     15276     15269     15267     15271     15277     15269     15267     15271
     15287     15280     15278     15282     15288     15280     15278     15282
     15298     15291     15289     15293     15299     15291     15289     15293
     15309     15302     15300     15304     15310     15302     15300     15304
     15320     15313     15311     15315     15321     15313     15311     15315
     15331     15324     15322     15326     15332     15324     15322     15326
     15342     15335     15333     15337     15343     15335     15333     15337
     15353     15346     15344     15348     15354     15346     15344     15348
     15364     15357     15355     15359     15365     15357     15355     15359
     15375     15368     15366     15370     15376     15368     15366     15370
     15386     15379     15377     15381     15387     15379     15377     15381
     15397     15390     15388     15392     15398     15390     15388     15392
     15408     15401     15399     15403     15409     15401     15399     15403
     15419     15412     15410     15414     15420     15412     15410     15414
     15430     15423     15421     15425     15431     15423     15421     15425
     15441     15434     15432     15436     15442     15434     15432     15436
     15452     15445     15443     15447     15453     15445     15443     15447
     15463     15456     15454     15458     15464     15456     15454     15458
     15474     15467     15465     15469     15475     15467     15465     15469
     15485     15478     15476     15480     15486     15478     15476     15480
     15496     15489     15487     15491     15497     15489     15487     15491
     15507     15500     15498     15502     15508     15500     15498     15502
     15518     15511     15509     15513     15519     15511     15509     15513
     15529     15522     15520     15524     15530     15522     15520     15524
     15540     15533     15531     15535     15541     15533     15531     15535
     15551     15544     15542     15546     15552     15544     15542     15546
     15562     15555     15553     15557     15563     15555     15553     15557
     15573     15566     15564     15568     15574     15566     15564     15568
     15584     15577     15575     15579     15585     15577     15575     15579
     15595     15588     15586     15590     15596     15588     15586     15590
     15606     15599     15597     15601     15607     15599     15597     15601
     15617     15610     15608     15612     15618     15610     15608     15612
     15628     15621     15619     15623     15629     15621     15619     15623
     15639     15632     15630     15634     15640     15632     15630     15634
     15650     15643     15641     15645     15651     15643     15641     15645
     15661     15654     15652     15656     15662     15654     15652     15656
     15672     15665     15663     15667     15673     15665     15663     15667
     15683     15676     15674     15678     15684     15676     15674     15678
     15694     15687     15685     15689     15695     15687     15685     15689
     15705     15698     15696     15700     15706     15698     15696     15700
     15716     15709     15707     15711     15717     15709     15707     15711
     15727     15720     15718     15722     15728     15720     15718     15722
     15738     15731     15729     15733     15739     15731     15729     15733
     15749     15742     15740     15744     15750     15742     15740     15744
     15760     15753     15751     15755     15761     15753     15751     15755
     15771     15764     15762     15766     15772     15764     15762     15766
     15782     15775     15773     15777     15783     15775     15773     15777
     15793     15786     15784     15788     15794     15786     15784     15788
     15804     15797     15795     15799     15805     15797     15795     15799
     15815     15808     15806     15810     15816     15808     15806     15810
     15826     15819     15817     15821     15827     15819     15817     15821
     15837     15830     15828     15832     15838     15830     15828     15832
     15848     15841     15839     15843     15849     15841     15839     15843
     15859     15852     15850     15854     15860     15852     15850     15854
     15870     15863     15861     15865     15871     15863     15861     15865
     15881     15874     15872     15876     15882     15874     15872     15876
     15892     15885     15883     15887     15893     15885     15883     15887
     15903     15896     15894     15898     15904     15896     15894     15898
     15914     15907     15905     15909     15915     15907     15905     15909
     15925     15918     15916     15920     15926     15918     15916     15920
     15936     15929     15927     15931     15937     15929     15927     15931
     15947     15940     15938     15942     15948     15940     15938     15942
     15958     15951     15949     15953     15959     15951     15949     15953
     15969     15962     15960     15964     15970     15962     15960     15964
     15980     15973     15971     15975     15981     15973     15971     15975
     15991     15984     15982     15986     15992     15984     15982     15986
     16002     15995     15993     15997     16003     15995     15993     15997
     16013     16006     16004     16008     16014     16006     16004     16008
     16024     16017     16015     16019     16025     16017     16015     16019
     16035     16028     16026     16030     16036     16028     16026     16030
     16046     16039     16037     16041     16047     16039     16037     16041
     16057     16050     16048     16052     16058     16050     16048     16052
     16068     16061     16059     16063     16069     16061     16059     16063
     16079     16072     16070     16074     16080     16072     16070     16074
     16090     16083     16081     16085     16091     16083     16081     16085
     16101     16094     16092     16096     16102     16094     16092     16096
     16112     16105     16103     16107     16113     16105     16103     16107
     16123     16116     16114     16118     16124     16116     16114     16118
     16134     16127     16125     16129     16135     16127     16125     16129
     16145     16138     16136     16140     16146     16138     16136     16140
     16156     16149     16147     16151     16157     16149     16147     16151
     16167     16160     16158     16162     16168     16160     16158     16162
     16178     16171     16169     16173     16179     16171     16169     16173
     16189     16182     16180     16184     16190     16182     16180     16184
     16200     16193     16191     16195     16201     16193     16191     16195
     16211     16204     16202     16206     16212     16204     16202     16206
     16222     16215     16213     16217     16223     16215     16213     16217
     16233     16226     16224     16228     16234     16226     16224     16228
     16244     16237     16235     16239     16245     16237     16235     16239
     16255     16248     16246     16250     16256     16248     16246     16250
     16266     16259     16257     16261     16267     16259     16257     16261
     16277     16270     16268     16272     16278     16270     16268     16272
     16288     16281     16279     16283     16289     16281     16279     16283
     16299     16292     16290     16294     16300     16292     16290     16294
     16310     16303     16301     16305     16311     16303     16301     16305
     16321     16314     16312     16316     16322     16314     16312     16316
     16332     16325     16323     16327     16333     16325     16323     16327
     16343     16336     16334     16338     16344     16336     16334     16338
     16354     16347     16345     16349     16355     16347     16345     16349
     16365     16358     16356     16360     16366     16358     16356     16360
     16376     16369     16367     16371     16377     16369     16367     16371
     16387     16380     16378     16382     16388     16380     16378     16382
     16398     16391     16389     16393     16399     16391     16389     16393
     16409     16402     16400     16404     16410     16402     16400     16404
     16420     16413     16411     16415     16421     16413     16411     16415
     16431     16424     16422     16426     16432     16424     16422     16426
     16442     16435     16433     16437     16443     16435     16433     16437
     16453     16446     16444     16448     16454     16446     16444     16448
     16464     16457     16455     16459     16465     16457     16455     16459
     16475     16468     16466     16470     16476     16468     16466     16470
     16486     16479     16477     16481     16487     16479     16477     16481
     16497     16490     16488     16492     16498     16490     16488     16492
     16508     16501     16499     16503     16509     16501     16499     16503
     16519     16512     16510     16514     16520     16512     16510     16514
     16530     16523     16521     16525     16531     16523     16521     16525
     16541     16534     16532     16536     16542     16534     16532     16536
     16552     16545     16543     16547     16553     16545     16543     16547
     16563     16556     16554     16558     16564     16556     16554     16558
     16574     16567     16565     16569     16575     16567     16565     16569
     16585     16578     16576     16580     16586     16578     16576     16580
     16596     16589     16587     16591     16597     16589     16587     16591
     16607     16600     16598     16602     16608     16600     16598     16602
     16618     16611     16609     16613     16619     16611     16609     16613
     16629     16622     16620     16624     16630     16622     16620     16624
     16640     16633     16631     16635     16641     16633     16631     16635
     16651     16644     16642     16646     16652     16644     16642     16646
     16662     16655     16653     16657     16663     16655     16653     16657
     16673     16666     16664     16668     16674     16666     16664     16668
     16684     16677     16675     16679     16685     16677     16675     16679
     16695     16688     16686     16690     16696     16688     16686     16690
     16706     16699     16697     16701     16707     16699     16697     16701
     16717     16710     16708     16712     16718     16710     16708     16712
     16728     16721     16719     16723     16729     16721     16719     16723
     16739     16732     16730     16734     16740     16732     16730     16734
     16750     16743     16741     16745     16751     16743     16741     16745
     16761     16754     16752     16756     16762     16754     16752     16756
     16772     16765     16763     16767     16773     16765     16763     16767
     16783     16776     16774     16778     16784     16776     16774     16778
     16794     16787     16785     16789     16795     16787     16785     16789
     16805     16798     16796     16800     16806     16798     16796     16800
     16816     16809     16807     16811     16817     16809     16807     16811
     16827     16820     16818     16822     16828     16820     16818     16822
     16838     16831     16829     16833     16839     16831     16829     16833
     16849     16842     16840     16844     16850     16842     16840     16844
     16860     16853     16851     16855     16861     16853     16851     16855
     16871     16864     16862     16866     16872     16864     16862     16866
     16882     16875     16873     16877     16883     16875     16873     16877
     16893     16886     16884     16888     16894     16886     16884     16888
     16904     16897     16895     16899     16905     16897     16895     16899
     16915     16908     16906     16910     16916     16908     16906     16910
     16926     16919     16917     16921     16927     16919     16917     16921
     16937     16930     16928     16932     16938     16930     16928     16932
     16948     16941     16939     16943     16949     16941     16939     16943
     16959     16952     16950     16954     16960     16952     16950     16954
     16970     16963     16961     16965     16971     16963     16961     16965
     16981     16974     16972     16976     16982     16974     16972     16976
     16992     16985     16983     16987     16993     16985     16983     16987
     17003     16996     16994     16998     17004     16996     16994     16998
     17014     17007     17005     17009     17015     17007     17005     17009
     17025     17018     17016     17020     17026     17018     17016     17020
     17036     17029     17027     17031     17037     17029     17027     17031
     17047     17040     17038     17042     17048     17040     17038     17042
     17058     17051     17049     17053     17059     17051     17049     17053
     17069     17062     17060     17064     17070     17062     17060     17064
     17080     17073     17071     17075     17081     17073     17071     17075
     17091     17084     17082     17086     17092     17084     17082     17086
     17102     17095     17093     17097     17103     17095     17093     17097
     17113     17106     17104     17108     17114     17106     17104     17108
     17124     17117     17115     17119     17125     17117     17115     17119
     17135     17128     17126     17130     17136     17128     17126     17130
     17146     17139     17137     17141     17147     17139     17137     17141
     17157     17150     17148     17152     17158     17150     17148     17152
     17168     17161     17159     17163     17169     17161     17159     17163
     17179     17172     17170     17174     17180     17172     17170     17174
     17190     17183     17181     17185     17191     17183     17181     17185
     17201     17194     17192     17196     17202     17194     17192     17196
     17212     17205     17203     17207     17213     17205     17203     17207
     17223     17216     17214     17218     17224     17216     17214     17218
     17234     17227     17225     17229     17235     17227     17225     17229
     17245     17238     17236     17240     17246     17238     17236     17240
     17256     17249     17247     17251     17257     17249     17247     17251
     17267     17260     17258     17262     17268     17260     17258     17262
     17278     17271     17269     17273     17279     17271     17269     17273
     17289     17282     17280     17284     17290     17282     17280     17284
     17300     17293     17291     17295     17301     17293     17291     17295
     17311     17304     17302     17306     17312     17304     17302     17306
     17322     17315     17313     17317     17323     17315     17313     17317
     17333     17326     17324     17328     17334     17326     17324     17328
     17344     17337     17335     17339     17345     17337     17335     17339
     17355     17348     17346     17350     17356     17348     17346     17350
     17366     17359     17357     17361     17367     17359     17357     17361
     17377     17370     17368     17372     17378     17370     17368     17372
     17388     17381     17379     17383     17389     17381     17379     17383
     17399     17392     17390     17394     17400     17392     17390     17394
     17410     17403     17401     17405     17411     17403     17401     17405
     17421     17414     17412     17416     17422     17414     17412     17416
     17432     17425     17423     17427     17433     17425     17423     17427
     17443     17436     17434     17438     17444     17436     17434     17438
     17454     17447     17445     17449     17455     17447     17445     17449
     17465     17458     17456     17460     17466     17458     17456     17460
     17476     17469     17467     17471     17477     17469     17467     17471
     17487     17480     17478     17482     17488     17480     17478     17482
     17498     17491     17489     17493     17499     17491     17489     17493
     17509     17502     17500     17504     17510     17502     17500     17504
     17520     17513     17511     17515     17521     17513     17511     17515
     17531     17524     17522     17526     17532     17524     17522     17526
     17542     17535     17533     17537     17543     17535     17533     17537
     17553     17546     17544     17548     17554     17546     17544     17548
     17564     17557     17555     17559     17565     17557     17555     17559
     17575     17568     17566     17570     17576     17568     17566     17570
     17586     17579     17577     17581     17587     17579     17577     17581
     17597     17590     17588     17592     17598     17590     17588     17592
     17608     17601     17599     17603     17609     17601     17599     17603
     17619     17612     17610     17614     17620     17612     17610     17614
     17630     17623     17621     17625     17631     17623     17621     17625
     17641     17634     17632     17636     17642     17634     17632     17636
     17652     17645     17643     17647     17653     17645     17643     17647
     17663     17656     17654     17658     17664     17656     17654     17658
     17674     17667     17665     17669     17675     17667     17665     17669
     17685     17678     17676     17680     17686     17678     17676     17680
     17696     17689     17687     17691     17697     17689     17687     17691
     17707     17700     17698     17702     17708     17700     17698     17702
     17718     17711     17709     17713     17719     17711     17709     17713
     17729     17722     17720     17724     17730     17722     17720     17724
     17740     17733     17731     17735     17741     17733     17731     17735
     17751     17744     17742     17746     17752     17744     17742     17746
     17762     17755     17753     17757     17763     17755     17753     17757
     17773     17766     17764     17768     17774     17766     17764     17768
     17784     17777     17775     17779     17785     17777     17775     17779
     17795     17788     17786     17790     17796     17788     17786     17790
     17806     17799     17797     17801     17807     17799     17797     17801
     17817     17810     17808     17812     17818     17810     17808     17812
     17828     17821     17819     17823     17829     17821     17819     17823
     17839     17832     17830     17834     17840     17832     17830     17834
     17850     17843     17841     17845     17851     17843     17841     17845
     17861     17854     17852     17856     17862     17854     17852     17856
     17872     17865     17863     17867     17873     17865     17863     17867
     17883     17876     17874     17878     17884     17876     17874     17878
     17894     17887     17885     17889     17895     17887     17885     17889
     17905     17898     17896     17900     17906     17898     17896     17900
     17916     17909     17907     17911     17917     17909     17907     17911
     17927     17920     17918     17922     17928     17920     17918     17922
     17938     17931     17929     17933     17939     17931     17929     17933
     17949     17942     17940     17944     17950     17942     17940     17944
     17960     17953     17951     17955     17961     17953     17951     17955
     17971     17964     17962     17966     17972     17964     17962     17966
     17982     17975     17973     17977     17983     17975     17973     17977
     17993     17986     17984     17988     17994     17986     17984     17988
     18004     17997     17995     17999     18005     17997     17995     17999
     18015     18008     18006     18010     18016     18008     18006     18010
     18026     18019     18017     18021     18027     18019     18017     18021
     18037     18030     18028     18032     18038     18030     18028     18032
     18048     18041     18039     18043     18049     18041     18039     18043
     18059     18052     18050     18054     18060     18052     18050     18054
     18070     18063     18061     18065     18071     18063     18061     18065
     18081     18074     18072     18076     18082     18074     18072     18076
     18092     18085     18083     18087     18093     18085     18083     18087
     18103     18096     18094     18098     18104     18096     18094     18098
     18114     18107     18105     18109     18115     18107     18105     18109
     18125     18118     18116     18120     18126     18118     18116     18120
     18136     18129     18127     18131     18137     18129     18127     18131
     18147     18140     18138     18142     18148     18140     18138     18142
     18158     18151     18149     18153     18159     18151     18149     18153
     18169     18162     18160     18164     18170     18162     18160     18164
     18180     18173     18171     18175     18181     18173     18171     18175
     18191     18184     18182     18186     18192     18184     18182     18186
     18202     18195     18193     18197     18203     18195     18193     18197
     18213     18206     18204     18208     18214     18206     18204     18208
     18224     18217     18215     18219     18225     18217     18215     18219
     18235     18228     18226     18230     18236     18228     18226     18230
     18246     18239     18237     18241     18247     18239     18237     18241
     18257     18250     18248     18252     18258     18250     18248     18252
     18268     18261     18259     18263     18269     18261     18259     18263
     18279     18272     18270     18274     18280     18272     18270     18274
     18290     18283     18281     18285     18291     18283     18281     18285
     18301     18294     18292     18296     18302     18294     18292     18296
     18312     18305     18303     18307     18313     18305     18303     18307
     18323     18316     18314     18318     18324     18316     18314     18318
     18334     18327     18325     18329     18335     18327     18325     18329
     18345     18338     18336     18340     18346     18338     18336     18340
     18356     18349     18347     18351     18357     18349     18347     18351
     18367     18360     18358     18362     18368     18360     18358     18362
     18378     18371     18369     18373     18379     18371     18369     18373
     18389     18382     18380     18384     18390     18382     18380     18384
     18400     18393     18391     18395     18401     18393     18391     18395
     18411     18404     18402     18406     18412     18404     18402     18406
     18422     18415     18413     18417     18423     18415     18413     18417
     18433     18426     18424     18428     18434     18426     18424     18428
     18444     18437     18435     18439     18445     18437     18435     18439
     18455     18448     18446     18450     18456     18448     18446     18450
     18466     18459     18457     18461     18467     18459     18457     18461
     18477     18470     18468     18472     18478     18470     18468     18472
     18488     18481     18479     18483     18489     18481     18479     18483
     18499     18492     18490     18494     18500     18492     18490     18494
     18510     18503     18501     18505     18511     18503     18501     18505
     18521     18514     18512     18516     18522     18514     18512     18516
     18532     18525     18523     18527     18533     18525     18523     18527
     18543     18536     18534     18538     18544     18536     18534     18538
     18554     18547     18545     18549     18555     18547     18545     18549
     18565     18558     18556     18560     18566     18558     18556     18560
     18576     18569     18567     18571     18577     18569     18567     18571
     18587     18580     18578     18582     18588     18580     18578     18582
     18598     18591     18589     18593     18599     18591     18589     18593
     18609     18602     18600     18604     18610     18602     18600     18604
     18620     18613     18611     18615     18621     18613     18611     18615
     18631     18624     18622     18626     18632     18624     18622     18626
     18642     18635     18633     18637     18643     18635     18633     18637
     18653     18646     18644     18648     18654     18646     18644     18648
     18664     18657     18655     18659     18665     18657     18655     18659
     18675     18668     18666     18670     18676     18668     18666     18670
     18686     18679     18677     18681     18687     18679     18677     18681
     18697     18690     18688     18692     18698     18690     18688     18692
     18708     18701     18699     18703     18709     18701     18699     18703
     18719     18712     18710     18714     18720     18712     18710     18714
     18730     18723     18721     18725     18731     18723     18721     18725
     18741     18734     18732     18736     18742     18734     18732     18736
     18752     18745     18743     18747     18753     18745     18743     18747
     18763     18756     18754     18758     18764     18756     18754     18758
     18774     18767     18765     18769     18775     18767     18765     18769
     18785     18778     18776     18780     18786     18778     18776     18780
     18796     18789     18787     18791     18797     18789     18787     18791
     18807     18800     18798     18802     18808     18800     18798     18802
     18818     18811     18809     18813     18819     18811     18809     18813
     18829     18822     18820     18824     18830     18822     18820     18824
     18840     18833     18831     18835     18841     18833     18831     18835
     18851     18844     18842     18846     18852     18844     18842     18846
     18862     18855     18853     18857     18863     18855     18853     18857
     18873     18866     18864     18868     18874     18866     18864     18868
     18884     18877     18875     18879     18885     18877     18875     18879
     18895     18888     18886     18890     18896     18888     18886     18890
     18906     18899     18897     18901     18907     18899     18897     18901
     18917     18910     18908     18912     18918     18910     18908     18912
     18928     18921     18919     18923     18929     18921     18919     18923
     18939     18932     18930     18934     18940     18932     18930     18934
     18950     18943     18941     18945     18951     18943     18941     18945
     18961     18954     18952     18956     18962     18954     18952     18956
     18972     18965     18963     18967     18973     18965     18963     18967
     18983     18976     18974     18978     18984     18976     18974     18978
     18994     18987     18985     18989     18995     18987     18985     18989
     19005     18998     18996     19000     19006     18998     18996     19000
     19016     19009     19007     19011     19017     19009     19007     19011
     19027     19020     19018     19022     19028     19020     19018     19022
     19038     19031     19029     19033     19039     19031     19029     19033
     19049     19042     19040     19044     19050     19042     19040     19044
     19060     19053     19051     19055     19061     19053     19051     19055
     19071     19064     19062     19066     19072     19064     19062     19066
     19082     19075     19073     19077     19083     19075     19073     19077
     19093     19086     19084     19088     19094     19086     19084     19088
     19104     19097     19095     19099     19105     19097     19095     19099
     19115     19108     19106     19110     19116     19108     19106     19110
     19126     19119     19117     19121     19127     19119     19117     19121
     19137     19130     19128     19132     19138     19130     19128     19132
     19148     19141     19139     19143     19149     19141     19139     19143
     19159     19152     19150     19154     19160     19152     19150     19154
     19170     19163     19161     19165     19171     19163     19161     19165
     19181     19174     19172     19176     19182     19174     19172     19176
     19192     19185     19183     19187     19193     19185     19183     19187
     19203     19196     19194     19198     19204     19196     19194     19198
     19214     19207     19205     19209     19215     19207     19205     19209
     19225     19218     19216     19220     19226     19218     19216     19220
     19236     19229     19227     19231     19237     19229     19227     19231
     19247     19240     19238     19242     19248     19240     19238     19242
     19258     19251     19249     19253     19259     19251     19249     19253
     19269     19262     19260     19264     19270     19262     19260     19264
     19280     19273     19271     19275     19281     19273     19271     19275
     19291     19284     19282     19286     19292     19284     19282     19286
     19302     19295     19293     19297     19303     19295     19293     19297
     19313     19306     19304     19308     19314     19306     19304     19308
     19324     19317     19315     19319     19325     19317     19315     19319
     19335     19328     19326     19330     19336     19328     19326     19330
     19346     19339     19337     19341     19347     19339     19337     19341
     19357     19350     19348     19352     19358     19350     19348     19352
     19368     19361     19359     19363     19369     19361     19359     19363
     19379     19372     19370     19374     19380     19372     19370     19374
     19390     19383     19381     19385     19391     19383     19381     19385
     19401     19394     19392     19396     19402     19394     19392     19396
     19412     19405     19403     19407     19413     19405     19403     19407
     19423     19416     19414     19418     19424     19416     19414     19418
     19434     19427     19425     19429     19435     19427     19425     19429
     19445     19438     19436     19440     19446     19438     19436     19440
     19456     19449     19447     19451     19457     19449     19447     19451
     19467     19460     19458     19462     19468     19460     19458     19462
     19478     19471     19469     19473     19479     19471     19469     19473
     19489     19482     19480     19484     19490     19482     19480     19484
     19500     19493     19491     19495     19501     19493     19491     19495
     19511     19504     19502     19506     19512     19504     19502     19506
     19522     19515     19513     19517     19523     19515     19513     19517
     19533     19526     19524     19528     19534     19526     19524     19528
     19544     19537     19535     19539     19545     19537     19535     19539
     19555     19548     19546     19550     19556     19548     19546     19550
     19566     19559     19557     19561     19567     19559     19557     19561
     19577     19570     19568     19572     19578     19570     19568     19572
     19588     19581     19579     19583     19589     19581     19579     19583
     19599     19592     19590     19594     19600     19592     19590     19594
     19610     19603     19601     19605     19611     19603     19601     19605
     19621     19614     19612     19616     19622     19614     19612     19616
     19632     19625     19623     19627     19633     19625     19623     19627
     19643     19636     19634     19638     19644     19636     19634     19638
     19654     19647     19645     19649     19655     19647     19645     19649
     19665     19658     19656     19660     19666     19658     19656     19660
     19676     19669     19667     19671     19677     19669     19667     19671
     19687     19680     19678     19682     19688     19680     19678     19682
     19698     19691     19689     19693     19699     19691     19689     19693
     19709     19702     19700     19704     19710     19702     19700     19704
     19720     19713     19711     19715     19721     19713     19711     19715
     19731     19724     19722     19726     19732     19724     19722     19726
     19742     19735     19733     19737     19743     19735     19733     19737
     19753     19746     19744     19748     19754     19746     19744     19748
     19764     19757     19755     19759     19765     19757     19755     19759
     19775     19768     19766     19770     19776     19768     19766     19770
     19786     19779     19777     19781     19787     19779     19777     19781
     19797     19790     19788     19792     19798     19790     19788     19792
     19808     19801     19799     19803     19809     19801     19799     19803
     19819     19812     19810     19814     19820     19812     19810     19814
     19830     19823     19821     19825     19831     19823     19821     19825
     19841     19834     19832     19836     19842     19834     19832     19836
     19852     19845     19843     19847     19853     19845     19843     19847
     19863     19856     19854     19858     19864     19856     19854     19858
     19874     19867     19865     19869     19875     19867     19865     19869
     19885     19878     19876     19880     19886     19878     19876     19880
     19896     19889     19887     19891     19897     19889     19887     19891
     19907     19900     19898     19902     19908     19900     19898     19902
     19918     19911     19909     19913     19919     19911     19909     19913
     19929     19922     19920     19924     19930     19922     19920     19924
     19940     19933     19931     19935     19941     19933     19931     19935
     19951     19944     19942     19946     19952     19944     19942     19946
     19962     19955     19953     19957     19963     19955     19953     19957
     19973     19966     19964     19968     19974     19966     19964     19968
     19984     19977     19975     19979     19985     19977     19975     19979
     19995     19988     19986     19990     19996     19988     19986     19990
     20006     19999     19997     20001     20007     19999     19997     20001
     20017     20010     20008     20012     20018     20010     20008     20012
     20028     20021     20019     20023     20029     20021     20019     20023
     20039     20032     20030     20034     20040     20032     20030     20034
     20050     20043     20041     20045     20051     20043     20041     20045
     20061     20054     20052     20056     20062     20054     20052     20056
     20072     20065     20063     20067     20073     20065     20063     20067
     20083     20076     20074     20078     20084     20076     20074     20078
     20094     20087     20085     20089     20095     20087     20085     20089
     20105     20098     20096     20100     20106     20098     20096     20100
     20116     20109     20107     20111     20117     20109     20107     20111
     20127     20120     20118     20122     20128     20120     20118     20122
     20138     20131     20129     20133     20139     20131     20129     20133
     20149     20142     20140     20144     20150     20142     20140     20144
     20160     20153     20151     20155     20161     20153     20151     20155
     20171     20164     20162     20166     20172     20164     20162     20166
     20182     20175     20173     20177     20183     20175     20173     20177
     20193     20186     20184     20188     20194     20186     20184     20188
     20204     20197     20195     20199     20205     20197     20195     20199
     20215     20208     20206     20210     20216     20208     20206     20210
     20226     20219     20217     20221     20227     20219     20217     20221
     20237     20230     20228     20232     20238     20230     20228     20232
     20248     20241     20239     20243     20249     20241     20239     20243
     20259     20252     20250     20254     20260     20252     20250     20254
     20270     20263     20261     20265     20271     20263     20261     20265
     20281     20274     20272     20276     20282     20274     20272     20276
     20292     20285     20283     20287     20293     20285     20283     20287
     20303     20296     20294     20298     20304     20296     20294     20298
     20314     20307     20305     20309     20315     20307     20305     20309
     20325     20318     20316     20320     20326     20318     20316     20320
     20336     20329     20327     20331     20337     20329     20327     20331
     20347     20340     20338     20342     20348     20340     20338     20342
     20358     20351     20349     20353     20359     20351     20349     20353
     20369     20362     20360     20364     20370     20362     20360     20364
     20380     20373     20371     20375     20381     20373     20371     20375
     20391     20384     20382     20386     20392     20384     20382     20386
     20402     20395     20393     20397     20403     20395     20393     20397
     20413     20406     20404     20408     20414     20406     20404     20408
     20424     20417     20415     20419     20425     20417     20415     20419
     20435     20428     20426     20430     20436     20428     20426     20430
     20446     20439     20437     20441     20447     20439     20437     20441
     20457     20450     20448     20452     20458     20450     20448     20452
     20468     20461     20459     20463     20469     20461     20459     20463
     20479     20472     20470     20474     20480     20472     20470     20474
     20490     20483     20481     20485     20491     20483     20481     20485
     20501     20494     20492     20496     20502     20494     20492     20496
     20512     20505     20503     20507     20513     20505     20503     20507
     20523     20516     20514     20518     20524     20516     20514     20518
     20534     20527     20525     20529     20535     20527     20525     20529
     20545     20538     20536     20540     20546     20538     20536     20540
     20556     20549     20547     20551     20557     20549     20547     20551
     20567     20560     20558     20562     20568     20560     20558     20562
     20578     20571     20569     20573     20579     20571     20569     20573
     20589     20582     20580     20584     20590     20582     20580     20584
     20600     20593     20591     20595     20601     20593     20591     20595
     20611     20604     20602     20606     20612     20604     20602     20606
     20622     20615     20613     20617     20623     20615     20613     20617
     20633     20626     20624     20628     20634     20626     20624     20628
     20644     20637     20635     20639     20645     20637     20635     20639
     20655     20648     20646     20650     20656     20648     20646     20650
     20666     20659     20657     20661     20667     20659     20657     20661
     20677     20670     20668     20672     20678     20670     20668     20672
     20688     20681     20679     20683     20689     20681     20679     20683
     20699     20692     20690     20694     20700     20692     20690     20694
     20710     20703     20701     20705     20711     20703     20701     20705
     20721     20714     20712     20716     20722     20714     20712     20716
     20732     20725     20723     20727     20733     20725     20723     20727
     20743     20736     20734     20738     20744     20736     20734     20738
     20754     20747     20745     20749     20755     20747     20745     20749
     20765     20758     20756     20760     20766     20758     20756     20760
     20776     20769     20767     20771     20777     20769     20767     20771
     20787     20780     20778     20782     20788     20780     20778     20782
     20798     20791     20789     20793     20799     20791     20789     20793
     20809     20802     20800     20804     20810     20802     20800     20804
     20820     20813     20811     20815     20821     20813     20811     20815
     20831     20824     20822     20826     20832     20824     20822     20826
     20842     20835     20833     20837     20843     20835     20833     20837
     20853     20846     20844     20848     20854     20846     20844     20848
     20864     20857     20855     20859     20865     20857     20855     20859
     20875     20868     20866     20870     20876     20868     20866     20870
     20886     20879     20877     20881     20887     20879     20877     20881
     20897     20890     20888     20892     20898     20890     20888     20892
     20908     20901     20899     20903     20909     20901     20899     20903
     20919     20912     20910     20914     20920     20912     20910     20914
     20930     20923     20921     20925     20931     20923     20921     20925
     20941     20934     20932     20936     20942     20934     20932     20936
     20952     20945     20943     20947     20953     20945     20943     20947
     20963     20956     20954     20958     20964     20956     20954     20958
     20974     20967     20965     20969     20975     20967     20965     20969
     20985     20978     20976     20980     20986     20978     20976     20980
     20996     20989     20987     20991     20997     20989     20987     20991
     21007     21000     20998     21002     21008     21000     20998     21002
     21018     21011     21009     21013     21019     21011     21009     21013
     21029     21022     21020     21024     21030     21022     21020     21024
     21040     21033     21031     21035     21041     21033     21031     21035
     21051     21044     21042     21046     21052     21044     21042     21046
     21062     21055     21053     21057     21063     21055     21053     21057
     21073     21066     21064     21068     21074     21066     21064     21068
     21084     21077     21075     21079     21085     21077     21075     21079
     21095     21088     21086     21090     21096     21088     21086     21090
     21106     21099     21097     21101     21107     21099     21097     21101
     21117     21110     21108     21112     21118     21110     21108     21112
     21128     21121     21119     21123     21129     21121     21119     21123
     21139     21132     21130     21134     21140     21132     21130     21134
     21150     21143     21141     21145     21151     21143     21141     21145
     21161     21154     21152     21156     21162     21154     21152     21156
     21172     21165     21163     21167     21173     21165     21163     21167
     21183     21176     21174     21178     21184     21176     21174     21178
     21194     21187     21185     21189     21195     21187     21185     21189
     21205     21198     21196     21200     21206     21198     21196     21200
     21216     21209     21207     21211     21217     21209     21207     21211
     21227     21220     21218     21222     21228     21220     21218     21222
     21238     21231     21229     21233     21239     21231     21229     21233
     21249     21242     21240     21244     21250     21242     21240     21244
     21260     21253     21251     21255     21261     21253     21251     21255
     21271     21264     21262     21266     21272     21264     21262     21266
     21282     21275     21273     21277     21283     21275     21273     21277
     21293     21286     21284     21288     21294     21286     21284     21288
     21304     21297     21295     21299     21305     21297     21295     21299
     21315     21308     21306     21310     21316     21308     21306     21310
     21326     21319     21317     21321     21327     21319     21317     21321
     21337     21330     21328     21332     21338     21330     21328     21332
     21348     21341     21339     21343     21349     21341     21339     21343
     21359     21352     21350     21354     21360     21352     21350     21354
     21370     21363     21361     21365     21371     21363     21361     21365
     21381     21374     21372     21376     21382     21374     21372     21376
     21392     21385     21383     21387     21393     21385     21383     21387
     21403     21396     21394     21398     21404     21396     21394     21398
     21414     21407     21405     21409     21415     21407     21405     21409
     21425     21418     21416     21420     21426     21418     21416     21420
     21436     21429     21427     21431     21437     21429     21427     21431
     21447     21440     21438     21442     21448     21440     21438     21442
     21458     21451     21449     21453     21459     21451     21449     21453
     21469     21462     21460     21464     21470     21462     21460     21464
     21480     21473     21471     21475     21481     21473     21471     21475
     21491     21484     21482     21486     21492     21484     21482     21486
     21502     21495     21493     21497     21503     21495     21493     21497
     21513     21506     21504     21508     21514     21506     21504     21508
     21524     21517     21515     21519     21525     21517     21515     21519
     21535     21528     21526     21530     21536     21528     21526     21530
     21546     21539     21537     21541     21547     21539     21537     21541
     21557     21550     21548     21552     21558     21550     21548     21552
     21568     21561     21559     21563     21569     21561     21559     21563
     21579     21572     21570     21574     21580     21572     21570     21574
     21590     21583     21581     21585     21591     21583     21581     21585
     21601     21594     21592     21596     21602     21594     21592     21596
     21612     21605     21603     21607     21613     21605     21603     21607
     21623     21616     21614     21618     21624     21616     21614     21618
     21634     21627     21625     21629     21635     21627     21625     21629
     21645     21638     21636     21640     21646     21638     21636     21640
     21656     21649     21647     21651     21657     21649     21647     21651
     21667     21660     21658     21662     21668     21660     21658     21662
     21678     21671     21669     21673     21679     21671     21669     21673
     21689     21682     21680     21684     21690     21682     21680     21684
     21700     21693     21691     21695     21701     21693     21691     21695
     21711     21704     21702     21706     21712     21704     21702     21706
     21722     21715     21713     21717     21723     21715     21713     21717
     21733     21726     21724     21728     21734     21726     21724     21728
     21744     21737     21735     21739     21745     21737     21735     21739
     21755     21748     21746     21750     21756     21748     21746     21750
     21766     21759     21757     21761     21767     21759     21757     21761
     21777     21770     21768     21772     21778     21770     21768     21772
     21788     21781     21779     21783     21789     21781     21779     21783
     21799     21792     21790     21794     21800     21792     21790     21794
     21810     21803     21801     21805     21811     21803     21801     21805
     21821     21814     21812     21816     21822     21814     21812     21816
     21832     21825     21823     21827     21833     21825     21823     21827
     21843     21836     21834     21838     21844     21836     21834     21838
     21854     21847     21845     21849     21855     21847     21845     21849
     21865     21858     21856     21860     21866     21858     21856     21860
     21876     21869     21867     21871     21877     21869     21867     21871
     21887     21880     21878     21882     21888     21880     21878     21882
     21898     21891     21889     21893     21899     21891     21889     21893
     21909     21902     21900     21904     21910     21902     21900     21904
     21920     21913     21911     21915     21921     21913     21911     21915
     21931     21924     21922     21926     21932     21924     21922     21926
     21942     21935     21933     21937     21943     21935     21933     21937
     21953     21946     21944     21948     21954     21946     21944     21948
     21964     21957     21955     21959     21965     21957     21955     21959
     21975     21968     21966     21970     21976     21968     21966     21970
     21986     21979     21977     21981     21987     21979     21977     21981
     21997     21990     21988     21992     21998     21990     21988     21992
     22008     22001     21999     22003     22009     22001     21999     22003
     22019     22012     22010     22014     22020     22012     22010     22014
     22030     22023     22021     22025     22031     22023     22021     22025
     22041     22034     22032     22036     22042     22034     22032     22036
     22052     22045     22043     22047     22053     22045     22043     22047
     22063     22056     22054     22058     22064     22056     22054     22058
     22074     22067     22065     22069     22075     22067     22065     22069
     22085     22078     22076     22080     22086     22078     22076     22080
     22096     22089     22087     22091     22097     22089     22087     22091
     22107     22100     22098     22102     22108     22100     22098     22102
     22118     22111     22109     22113     22119     22111     22109     22113
     22129     22122     22120     22124     22130     22122     22120     22124
     22140     22133     22131     22135     22141     22133     22131     22135
     22151     22144     22142     22146     22152     22144     22142     22146
     22162     22155     22153     22157     22163     22155     22153     22157
     22173     22166     22164     22168     22174     22166     22164     22168
     22184     22177     22175     22179     22185     22177     22175     22179
     22195     22188     22186     22190     22196     22188     22186     22190
     22206     22199     22197     22201     22207     22199     22197     22201
     22217     22210     22208     22212     22218     22210     22208     22212
     22228     22221     22219     22223     22229     22221     22219     22223
     22239     22232     22230     22234     22240     22232     22230     22234
     22250     22243     22241     22245     22251     22243     22241     22245
     22261     22254     22252     22256     22262     22254     22252     22256
     22272     22265     22263     22267     22273     22265     22263     22267
     22283     22276     22274     22278     22284     22276     22274     22278
     22294     22287     22285     22289     22295     22287     22285     22289
     22305     22298     22296     22300     22306     22298     22296     22300
     22316     22309     22307     22311     22317     22309     22307     22311
     22327     22320     22318     22322     22328     22320     22318     22322
     22338     22331     22329     22333     22339     22331     22329     22333
     22349     22342     22340     22344     22350     22342     22340     22344
     22360     22353     22351     22355     22361     22353     22351     22355
     22371     22364     22362     22366     22372     22364     22362     22366
     22382     22375     22373     22377     22383     22375     22373     22377
     22393     22386     22384     22388     22394     22386     22384     22388
     22404     22397     22395     22399     22405     22397     22395     22399
     22415     22408     22406     22410     22416     22408     22406     22410
     22426     22419     22417     22421     22427     22419     22417     22421
     22437     22430     22428     22432     22438     22430     22428     22432
     22448     22441     22439     22443     22449     22441     22439     22443
     22459     22452     22450     22454     22460     22452     22450     22454
     22470     22463     22461     22465     22471     22463     22461     22465
     22481     22474     22472     22476     22482     22474     22472     22476
     22492     22485     22483     22487     22493     22485     22483     22487
     22503     22496     22494     22498     22504     22496     22494     22498
     22514     22507     22505     22509     22515     22507     22505     22509
     22525     22518     22516     22520     22526     22518     22516     22520
     22536     22529     22527     22531     22537     22529     22527     22531
     22547     22540     22538     22542     22548     22540     22538     22542
     22558     22551     22549     22553     22559     22551     22549     22553
     22569     22562     22560     22564     22570     22562     22560     22564
     22580     22573     22571     22575     22581     22573     22571     22575
     22591     22584     22582     22586     22592     22584     22582     22586
     22602     22595     22593     22597     22603     22595     22593     22597
     22613     22606     22604     22608     22614     22606     22604     22608
     22624     22617     22615     22619     22625     22617     22615     22619
     22635     22628     22626     22630     22636     22628     22626     22630
     22646     22639     22637     22641     22647     22639     22637     22641
     22657     22650     22648     22652     22658     22650     22648     22652
     22668     22661     22659     22663     22669     22661     22659     22663
     22679     22672     22670     22674     22680     22672     22670     22674
     22690     22683     22681     22685     22691     22683     22681     22685
     22701     22694     22692     22696     22702     22694     22692     22696
     22712     22705     22703     22707     22713     22705     22703     22707
     22723     22716     22714     22718     22724     22716     22714     22718
     22734     22727     22725     22729     22735     22727     22725     22729
     22745     22738     22736     22740     22746     22738     22736     22740
     22756     22749     22747     22751     22757     22749     22747     22751
     22767     22760     22758     22762     22768     22760     22758     22762
     22778     22771     22769     22773     22779     22771     22769     22773
     22789     22782     22780     22784     22790     22782     22780     22784
     22800     22793     22791     22795     22801     22793     22791     22795
     22811     22804     22802     22806     22812     22804     22802     22806
     22822     22815     22813     22817     22823     22815     22813     22817
     22833     22826     22824     22828     22834     22826     22824     22828
     22844     22837     22835     22839     22845     22837     22835     22839
     22855     22848     22846     22850     22856     22848     22846     22850
     22866     22859     22857     22861     22867     22859     22857     22861
     22877     22870     22868     22872     22878     22870     22868     22872
     22888     22881     22879     22883     22889     22881     22879     22883
     22899     22892     22890     22894     22900     22892     22890     22894
     22910     22903     22901     22905     22911     22903     22901     22905
     22921     22914     22912     22916     22922     22914     22912     22916
     22932     22925     22923     22927     22933     22925     22923     22927
     22943     22936     22934     22938     22944     22936     22934     22938
     22954     22947     22945     22949     22955     22947     22945     22949
     22965     22958     22956     22960     22966     22958     22956     22960
     22976     22969     22967     22971     22977     22969     22967     22971
     22987     22980     22978     22982     22988     22980     22978     22982
     22998     22991     22989     22993     22999     22991     22989     22993
     23009     23002     23000     23004     23010     23002     23000     23004
     23020     23013     23011     23015     23021     23013     23011     23015
     23031     23024     23022     23026     23032     23024     23022     23026
     23042     23035     23033     23037     23043     23035     23033     23037
     23053     23046     23044     23048     23054     23046     23044     23048
     23064     23057     23055     23059     23065     23057     23055     23059
     23075     23068     23066     23070     23076     23068     23066     23070
     23086     23079     23077     23081     23087     23079     23077     23081
     23097     23090     23088     23092     23098     23090     23088     23092
     23108     23101     23099     23103     23109     23101     23099     23103
     23119     23112     23110     23114     23120     23112     23110     23114
     23130     23123     23121     23125     23131     23123     23121     23125
     23141     23134     23132     23136     23142     23134     23132     23136
     23152     23145     23143     23147     23153     23145     23143     23147
     23163     23156     23154     23158     23164     23156     23154     23158
     23174     23167     23165     23169     23175     23167     23165     23169
     23185     23178     23176     23180     23186     23178     23176     23180
     23196     23189     23187     23191     23197     23189     23187     23191
     23207     23200     23198     23202     23208     23200     23198     23202
     23218     23211     23209     23213     23219     23211     23209     23213
     23229     23222     23220     23224     23230     23222     23220     23224
     23240     23233     23231     23235     23241     23233     23231     23235
     23251     23244     23242     23246     23252     23244     23242     23246
     23262     23255     23253     23257     23263     23255     23253     23257
     23273     23266     23264     23268     23274     23266     23264     23268
     23284     23277     23275     23279     23285     23277     23275     23279
     23295     23288     23286     23290     23296     23288     23286     23290
     23306     23299     23297     23301     23307     23299     23297     23301
     23317     23310     23308     23312     23318     23310     23308     23312
     23328     23321     23319     23323     23329     23321     23319     23323
     23339     23332     23330     23334     23340     23332     23330     23334
     23350     23343     23341     23345     23351     23343     23341     23345
     23361     23354     23352     23356     23362     23354     23352     23356
     23372     23365     23363     23367     23373     23365     23363     23367
     23383     23376     23374     23378     23384     23376     23374     23378
     23394     23387     23385     23389     23395     23387     23385     23389
     23405     23398     23396     23400     23406     23398     23396     23400
     23416     23409     23407     23411     23417     23409     23407     23411
     23427     23420     23418     23422     23428     23420     23418     23422
     23438     23431     23429     23433     23439     23431     23429     23433
     23449     23442     23440     23444     23450     23442     23440     23444
     23460     23453     23451     23455     23461     23453     23451     23455
     23471     23464     23462     23466     23472     23464     23462     23466
     23482     23475     23473     23477     23483     23475     23473     23477
     23493     23486     23484     23488     23494     23486     23484     23488
     23504     23497     23495     23499     23505     23497     23495     23499
     23515     23508     23506     23510     23516     23508     23506     23510
     23526     23519     23517     23521     23527     23519     23517     23521
     23537     23530     23528     23532     23538     23530     23528     23532
     23548     23541     23539     23543     23549     23541     23539     23543
     23559     23552     23550     23554     23560     23552     23550     23554
     23570     23563     23561     23565     23571     23563     23561     23565
     23581     23574     23572     23576     23582     23574     23572     23576
     23592     23585     23583     23587     23593     23585     23583     23587
     23603     23596     23594     23598     23604     23596     23594     23598
     23614     23607     23605     23609     23615     23607     23605     23609
     23625     23618     23616     23620     23626     23618     23616     23620
     23636     23629     23627     23631     23637     23629     23627     23631
     23647     23640     23638     23642     23648     23640     23638     23642
     23658     23651     23649     23653     23659     23651     23649     23653
     23669     23662     23660     23664     23670     23662     23660     23664
     23680     23673     23671     23675     23681     23673     23671     23675
     23691     23684     23682     23686     23692     23684     23682     23686
     23702     23695     23693     23697     23703     23695     23693     23697
     23713     23706     23704     23708     23714     23706     23704     23708
     23724     23717     23715     23719     23725     23717     23715     23719
     23735     23728     23726     23730     23736     23728     23726     23730
     23746     23739     23737     23741     23747     23739     23737     23741
     23757     23750     23748     23752     23758     23750     23748     23752
     23768     23761     23759     23763     23769     23761     23759     23763
     23779     23772     23770     23774     23780     23772     23770     23774
     23790     23783     23781     23785     23791     23783     23781     23785
     23801     23794     23792     23796     23802     23794     23792     23796
     23812     23805     23803     23807     23813     23805     23803     23807
     23823     23816     23814     23818     23824     23816     23814     23818
     23834     23827     23825     23829     23835     23827     23825     23829
     23845     23838     23836     23840     23846     23838     23836     23840
     23856     23849     23847     23851     23857     23849     23847     23851
     23867     23860     23858     23862     23868     23860     23858     23862
     23878     23871     23869     23873     23879     23871     23869     23873
     23889     23882     23880     23884     23890     23882     23880     23884
     23900     23893     23891     23895     23901     23893     23891     23895
     23911     23904     23902     23906     23912     23904     23902     23906
     23922     23915     23913     23917     23923     23915     23913     23917
     23933     23926     23924     23928     23934     23926     23924     23928
     23944     23937     23935     23939     23945     23937     23935     23939
     23955     23948     23946     23950     23956     23948     23946     23950
     23966     23959     23957     23961     23967     23959     23957     23961
     23977     23970     23968     23972     23978     23970     23968     23972
     23988     23981     23979     23983     23989     23981     23979     23983
     23999     23992     23990     23994     24000     23992     23990     23994
     24010     24003     24001     24005     24011     24003     24001     24005
     24021     24014     24012     24016     24022     24014     24012     24016
     24032     24025     24023     24027     24033     24025     24023     24027
     24043     24036     24034     24038     24044     24036     24034     24038
     24054     24047     24045     24049     24055     24047     24045     24049
     24065     24058     24056     24060     24066     24058     24056     24060
     24076     24069     24067     24071     24077     24069     24067     24071
     24087     24080     24078     24082     24088     24080     24078     24082
     24098     24091     24089     24093     24099     24091     24089     24093
     24109     24102     24100     24104     24110     24102     24100     24104
     24120     24113     24111     24115     24121     24113     24111     24115
     24131     24124     24122     24126     24132     24124     24122     24126
     24142     24135     24133     24137     24143     24135     24133     24137
     24153     24146     24144     24148     24154     24146     24144     24148
     24164     24157     24155     24159     24165     24157     24155     24159
     24175     24168     24166     24170     24176     24168     24166     24170
     24186     24179     24177     24181     24187     24179     24177     24181
     24197     24190     24188     24192     24198     24190     24188     24192
     24208     24201     24199     24203     24209     24201     24199     24203
     24219     24212     24210     24214     24220     24212     24210     24214
     24230     24223     24221     24225     24231     24223     24221     24225
     24241     24234     24232     24236     24242     24234     24232     24236
     24252     24245     24243     24247     24253     24245     24243     24247
     24263     24256     24254     24258     24264     24256     24254     24258
     24274     24267     24265     24269     24275     24267     24265     24269
     24285     24278     24276     24280     24286     24278     24276     24280
     24296     24289     24287     24291     24297     24289     24287     24291
     24307     24300     24298     24302     24308     24300     24298     24302
     24318     24311     24309     24313     24319     24311     24309     24313
     24329     24322     24320     24324     24330     24322     24320     24324
     24340     24333     24331     24335     24341     24333     24331     24335
     24351     24344     24342     24346     24352     24344     24342     24346
     24362     24355     24353     24357     24363     24355     24353     24357
     24373     24366     24364     24368     24374     24366     24364     24368
     24384     24377     24375     24379     24385     24377     24375     24379
     24395     24388     24386     24390     24396     24388     24386     24390
     24406     24399     24397     24401     24407     24399     24397     24401
     24417     24410     24408     24412     24418     24410     24408     24412
     24428     24421     24419     24423     24429     24421     24419     24423
     24439     24432     24430     24434     24440     24432     24430     24434
     24450     24443     24441     24445     24451     24443     24441     24445
     24461     24454     24452     24456     24462     24454     24452     24456
     24472     24465     24463     24467     24473     24465     24463     24467
     24483     24476     24474     24478     24484     24476     24474     24478
     24494     24487     24485     24489     24495     24487     24485     24489
     24505     24498     24496     24500     24506     24498     24496     24500
     24516     24509     24507     24511     24517     24509     24507     24511
     24527     24520     24518     24522     24528     24520     24518     24522
     24538     24531     24529     24533     24539     24531     24529     24533
     24549     24542     24540     24544     24550     24542     24540     24544
     24560     24553     24551     24555     24561     24553     24551     24555
     24571     24564     24562     24566     24572     24564     24562     24566
     24582     24575     24573     24577     24583     24575     24573     24577
     24593     24586     24584     24588     24594     24586     24584     24588
     24604     24597     24595     24599     24605     24597     24595     24599
     24615     24608     24606     24610     24616     24608     24606     24610
     24626     24619     24617     24621     24627     24619     24617     24621
     24637     24630     24628     24632     24638     24630     24628     24632
     24648     24641     24639     24643     24649     24641     24639     24643
     24659     24652     24650     24654     24660     24652     24650     24654
     24670     24663     24661     24665     24671     24663     24661     24665
     24681     24674     24672     24676     24682     24674     24672     24676
     24692     24685     24683     24687     24693     24685     24683     24687
     24703     24696     24694     24698     24704     24696     24694     24698
     24714     24707     24705     24709     24715     24707     24705     24709
     24725     24718     24716     24720     24726     24718     24716     24720
     24736     24729     24727     24731     24737     24729     24727     24731
     24747     24740     24738     24742     24748     24740     24738     24742
     24758     24751     24749     24753     24759     24751     24749     24753
     24769     24762     24760     24764     24770     24762     24760     24764
     24780     24773     24771     24775     24781     24773     24771     24775
     24791     24784     24782     24786     24792     24784     24782     24786
     24802     24795     24793     24797     24803     24795     24793     24797
     24813     24806     24804     24808     24814     24806     24804     24808
     24824     24817     24815     24819     24825     24817     24815     24819
     24835     24828     24826     24830     24836     24828     24826     24830
     24846     24839     24837     24841     24847     24839     24837     24841
     24857     24850     24848     24852     24858     24850     24848     24852
     24868     24861     24859     24863     24869     24861     24859     24863
     24879     24872     24870     24874     24880     24872     24870     24874
     24890     24883     24881     24885     24891     24883     24881     24885
     24901     24894     24892     24896     24902     24894     24892     24896
     24912     24905     24903     24907     24913     24905     24903     24907
     24923     24916     24914     24918     24924     24916     24914     24918
     24934     24927     24925     24929     24935     24927     24925     24929
     24945     24938     24936     24940     24946     24938     24936     24940
     24956     24949     24947     24951     24957     24949     24947     24951
     24967     24960     24958     24962     24968     24960     24958     24962
     24978     24971     24969     24973     24979     24971     24969     24973
     24989     24982     24980     24984     24990     24982     24980     24984
     25000     24993     24991     24995     25001     24993     24991     24995
     25011     25004     25002     25006     25012     25004     25002     25006
     25022     25015     25013     25017     25023     25015     25013     25017
     25033     25026     25024     25028     25034     25026     25024     25028
     25044     25037     25035     25039     25045     25037     25035     25039
     25055     25048     25046     25050     25056     25048     25046     25050
     25066     25059     25057     25061     25067     25059     25057     25061
     25077     25070     25068     25072     25078     25070     25068     25072
     25088     25081     25079     25083     25089     25081     25079     25083
     25099     25092     25090     25094     25100     25092     25090     25094
     25110     25103     25101     25105     25111     25103     25101     25105
     25121     25114     25112     25116     25122     25114     25112     25116
     25132     25125     25123     25127     25133     25125     25123     25127
     25143     25136     25134     25138     25144     25136     25134     25138
     25154     25147     25145     25149     25155     25147     25145     25149
     25165     25158     25156     25160     25166     25158     25156     25160
     25176     25169     25167     25171     25177     25169     25167     25171
     25187     25180     25178     25182     25188     25180     25178     25182
     25198     25191     25189     25193     25199     25191     25189     25193
     25209     25202     25200     25204     25210     25202     25200     25204
     25220     25213     25211     25215     25221     25213     25211     25215
     25231     25224     25222     25226     25232     25224     25222     25226
     25242     25235     25233     25237     25243     25235     25233     25237
     25253     25246     25244     25248     25254     25246     25244     25248
     25264     25257     25255     25259     25265     25257     25255     25259
     25275     25268     25266     25270     25276     25268     25266     25270
     25286     25279     25277     25281     25287     25279     25277     25281
     25297     25290     25288     25292     25298     25290     25288     25292
     25308     25301     25299     25303     25309     25301     25299     25303
     25319     25312     25310     25314     25320     25312     25310     25314
     25330     25323     25321     25325     25331     25323     25321     25325
     25341     25334     25332     25336     25342     25334     25332     25336
     25352     25345     25343     25347     25353     25345     25343     25347
     25363     25356     25354     25358     25364     25356     25354     25358
     25374     25367     25365     25369     25375     25367     25365     25369
     25385     25378     25376     25380     25386     25378     25376     25380
     25396     25389     25387     25391     25397     25389     25387     25391
     25407     25400     25398     25402     25408     25400     25398     25402
     25418     25411     25409     25413     25419     25411     25409     25413
     25429     25422     25420     25424     25430     25422     25420     25424
     25440     25433     25431     25435     25441     25433     25431     25435
     25451     25444     25442     25446     25452     25444     25442     25446
     25462     25455     25453     25457     25463     25455     25453     25457
     25473     25466     25464     25468     25474     25466     25464     25468
     25484     25477     25475     25479     25485     25477     25475     25479
     25495     25488     25486     25490     25496     25488     25486     25490
     25506     25499     25497     25501     25507     25499     25497     25501
     25517     25510     25508     25512     25518     25510     25508     25512
     25528     25521     25519     25523     25529     25521     25519     25523
     25539     25532     25530     25534     25540     25532     25530     25534
     25550     25543     25541     25545     25551     25543     25541     25545
     25561     25554     25552     25556     25562     25554     25552     25556
     25572     25565     25563     25567     25573     25565     25563     25567
     25583     25576     25574     25578     25584     25576     25574     25578
     25594     25587     25585     25589     25595     25587     25585     25589
     25605     25598     25596     25600     25606     25598     25596     25600
     25616     25609     25607     25611     25617     25609     25607     25611
     25627     25620     25618     25622     25628     25620     25618     25622
     25638     25631     25629     25633     25639     25631     25629     25633
     25649     25642     25640     25644     25650     25642     25640     25644
     25660     25653     25651     25655     25661     25653     25651     25655
     25671     25664     25662     25666     25672     25664     25662     25666
     25682     25675     25673     25677     25683     25675     25673     25677
     25693     25686     25684     25688     25694     25686     25684     25688
     25704     25697     25695     25699     25705     25697     25695     25699
     25715     25708     25706     25710     25716     25708     25706     25710
     25726     25719     25717     25721     25727     25719     25717     25721
     25737     25730     25728     25732     25738     25730     25728     25732
     25748     25741     25739     25743     25749     25741     25739     25743
     25759     25752     25750     25754     25760     25752     25750     25754
     25770     25763     25761     25765     25771     25763     25761     25765
     25781     25774     25772     25776     25782     25774     25772     25776
     25792     25785     25783     25787     25793     25785     25783     25787
     25803     25796     25794     25798     25804     25796     25794     25798
     25814     25807     25805     25809     25815     25807     25805     25809
     25825     25818     25816     25820     25826     25818     25816     25820
     25836     25829     25827     25831     25837     25829     25827     25831
     25847     25840     25838     25842     25848     25840     25838     25842
     25858     25851     25849     25853     25859     25851     25849     25853
     25869     25862     25860     25864     25870     25862     25860     25864
     25880     25873     25871     25875     25881     25873     25871     25875
     25891     25884     25882     25886     25892     25884     25882     25886
     25902     25895     25893     25897     25903     25895     25893     25897
     25913     25906     25904     25908     25914     25906     25904     25908
     25924     25917     25915     25919     25925     25917     25915     25919
     25935     25928     25926     25930     25936     25928     25926     25930
     25946     25939     25937     25941     25947     25939     25937     25941
     25957     25950     25948     25952     25958     25950     25948     25952
     25968     25961     25959     25963     25969     25961     25959     25963
     25979     25972     25970     25974     25980     25972     25970     25974
     25990     25983     25981     25985     25991     25983     25981     25985
     26001     25994     25992     25996     26002     25994     25992     25996
     26012     26005     26003     26007     26013     26005     26003     26007
     26023     26016     26014     26018     26024     26016     26014     26018
     26034     26027     26025     26029     26035     26027     26025     26029
     26045     26038     26036     26040     26046     26038     26036     26040
     26056     26049     26047     26051     26057     26049     26047     26051
     26067     26060     26058     26062     26068     26060     26058     26062
     26078     26071     26069     26073     26079     26071     26069     26073
     26089     26082     26080     26084     26090     26082     26080     26084
     26100     26093     26091     26095     26101     26093     26091     26095
     26111     26104     26102     26106     26112     26104     26102     26106
     26122     26115     26113     26117     26123     26115     26113     26117
     26133     26126     26124     26128     26134     26126     26124     26128
     26144     26137     26135     26139     26145     26137     26135     26139
     26155     26148     26146     26150     26156     26148     26146     26150
     26166     26159     26157     26161     26167     26159     26157     26161
     26177     26170     26168     26172     26178     26170     26168     26172
     26188     26181     26179     26183     26189     26181     26179     26183
     26199     26192     26190     26194     26200     26192     26190     26194
     26210     26203     26201     26205     26211     26203     26201     26205
     26221     26214     26212     26216     26222     26214     26212     26216
     26232     26225     26223     26227     26233     26225     26223     26227
     26243     26236     26234     26238     26244     26236     26234     26238
     26254     26247     26245     26249     26255     26247     26245     26249
     26265     26258     26256     26260     26266     26258     26256     26260
     26276     26269     26267     26271     26277     26269     26267     26271
     26287     26280     26278     26282     26288     26280     26278     26282
     26298     26291     26289     26293     26299     26291     26289     26293
     26309     26302     26300     26304     26310     26302     26300     26304
     26320     26313     26311     26315     26321     26313     26311     26315
     26331     26324     26322     26326     26332     26324     26322     26326
     26342     26335     26333     26337     26343     26335     26333     26337
     26353     26346     26344     26348     26354     26346     26344     26348
     26364     26357     26355     26359     26365     26357     26355     26359
     26375     26368     26366     26370     26376     26368     26366     26370
     26386     26379     26377     26381     26387     26379     26377     26381
     26397     26390     26388     26392     26398     26390     26388     26392
     26408     26401     26399     26403     26409     26401     26399     26403
     26419     26412     26410     26414     26420     26412     26410     26414
     26430     26423     26421     26425     26431     26423     26421     26425
     26441     26434     26432     26436     26442     26434     26432     26436
     26452     26445     26443     26447     26453     26445     26443     26447
     26463     26456     26454     26458     26464     26456     26454     26458
     26474     26467     26465     26469     26475     26467     26465     26469
     26485     26478     26476     26480     26486     26478     26476     26480
     26496     26489     26487     26491     26497     26489     26487     26491
     26507     26500     26498     26502     26508     26500     26498     26502
     26518     26511     26509     26513     26519     26511     26509     26513
     26529     26522     26520     26524     26530     26522     26520     26524
     26540     26533     26531     26535     26541     26533     26531     26535
     26551     26544     26542     26546     26552     26544     26542     26546
     26562     26555     26553     26557     26563     26555     26553     26557
     26573     26566     26564     26568     26574     26566     26564     26568
     26584     26577     26575     26579     26585     26577     26575     26579
     26595     26588     26586     26590     26596     26588     26586     26590
     26606     26599     26597     26601     26607     26599     26597     26601
     26617     26610     26608     26612     26618     26610     26608     26612
     26628     26621     26619     26623     26629     26621     26619     26623
     26639     26632     26630     26634     26640     26632     26630     26634
     26650     26643     26641     26645     26651     26643     26641     26645
     26661     26654     26652     26656     26662     26654     26652     26656
     26672     26665     26663     26667     26673     26665     26663     26667
     26683     26676     26674     26678     26684     26676     26674     26678
     26694     26687     26685     26689     26695     26687     26685     26689
     26705     26698     26696     26700     26706     26698     26696     26700
     26716     26709     26707     26711     26717     26709     26707     26711
     26727     26720     26718     26722     26728     26720     26718     26722
     26738     26731     26729     26733     26739     26731     26729     26733
     26749     26742     26740     26744     26750     26742     26740     26744
     26760     26753     26751     26755     26761     26753     26751     26755
     26771     26764     26762     26766     26772     26764     26762     26766
     26782     26775     26773     26777     26783     26775     26773     26777
     26793     26786     26784     26788     26794     26786     26784     26788
     26804     26797     26795     26799     26805     26797     26795     26799
     26815     26808     26806     26810     26816     26808     26806     26810
     26826     26819     26817     26821     26827     26819     26817     26821
     26837     26830     26828     26832     26838     26830     26828     26832
     26848     26841     26839     26843     26849     26841     26839     26843
     26859     26852     26850     26854     26860     26852     26850     26854
     26870     26863     26861     26865     26871     26863     26861     26865
     26881     26874     26872     26876     26882     26874     26872     26876
     26892     26885     26883     26887     26893     26885     26883     26887
     26903     26896     26894     26898     26904     26896     26894     26898
     26914     26907     26905     26909     26915     26907     26905     26909
     26925     26918     26916     26920     26926     26918     26916     26920
     26936     26929     26927     26931     26937     26929     26927     26931
     26947     26940     26938     26942     26948     26940     26938     26942
     26958     26951     26949     26953     26959     26951     26949     26953
     26969     26962     26960     26964     26970     26962     26960     26964
     26980     26973     26971     26975     26981     26973     26971     26975
     26991     26984     26982     26986     26992     26984     26982     26986
     27002     26995     26993     26997     27003     26995     26993     26997
     27013     27006     27004     27008     27014     27006     27004     27008
     27024     27017     27015     27019     27025     27017     27015     27019
     27035     27028     27026     27030     27036     27028     27026     27030
     27046     27039     27037     27041     27047     27039     27037     27041
     27057     27050     27048     27052     27058     27050     27048     27052
     27068     27061     27059     27063     27069     27061     27059     27063
     27079     27072     27070     27074     27080     27072     27070     27074
     27090     27083     27081     27085     27091     27083     27081     27085
     27101     27094     27092     27096     27102     27094     27092     27096
     27112     27105     27103     27107     27113     27105     27103     27107
     27123     27116     27114     27118     27124     27116     27114     27118
     27134     27127     27125     27129     27135     27127     27125     27129
     27145     27138     27136     27140     27146     27138     27136     27140
     27156     27149     27147     27151     27157     27149     27147     27151
     27167     27160     27158     27162     27168     27160     27158     27162
     27178     27171     27169     27173     27179     27171     27169     27173
     27189     27182     27180     27184     27190     27182     27180     27184
     27200     27193     27191     27195     27201     27193     27191     27195
     27211     27204     27202     27206     27212     27204     27202     27206
     27222     27215     27213     27217     27223     27215     27213     27217
     27233     27226     27224     27228     27234     27226     27224     27228
     27244     27237     27235     27239     27245     27237     27235     27239
     27255     27248     27246     27250     27256     27248     27246     27250
     27266     27259     27257     27261     27267     27259     27257     27261
     27277     27270     27268     27272     27278     27270     27268     27272
     27288     27281     27279     27283     27289     27281     27279     27283
     27299     27292     27290     27294     27300     27292     27290     27294
     27310     27303     27301     27305     27311     27303     27301     27305
     27321     27314     27312     27316     27322     27314     27312     27316
     27332     27325     27323     27327     27333     27325     27323     27327
     27343     27336     27334     27338     27344     27336     27334     27338
     27354     27347     27345     27349     27355     27347     27345     27349
     27365     27358     27356     27360     27366     27358     27356     27360
     27376     27369     27367     27371     27377     27369     27367     27371
     27387     27380     27378     27382     27388     27380     27378     27382
     27398     27391     27389     27393     27399     27391     27389     27393
     27409     27402     27400     27404     27410     27402     27400     27404
     27420     27413     27411     27415     27421     27413     27411     27415
     27431     27424     27422     27426     27432     27424     27422     27426
     27442     27435     27433     27437     27443     27435     27433     27437
     27453     27446     27444     27448     27454     27446     27444     27448
     27464     27457     27455     27459     27465     27457     27455     27459
     27475     27468     27466     27470     27476     27468     27466     27470
     27486     27479     27477     27481     27487     27479     27477     27481
     27497     27490     27488     27492     27498     27490     27488     27492
     27508     27501     27499     27503     27509     27501     27499     27503
     27519     27512     27510     27514     27520     27512     27510     27514
     27530     27523     27521     27525     27531     27523     27521     27525
     27541     27534     27532     27536     27542     27534     27532     27536
     27552     27545     27543     27547     27553     27545     27543     27547
     27563     27556     27554     27558     27564     27556     27554     27558
     27574     27567     27565     27569     27575     27567     27565     27569
     27585     27578     27576     27580     27586     27578     27576     27580
     27596     27589     27587     27591     27597     27589     27587     27591
     27607     27600     27598     27602     27608     27600     27598     27602
     27618     27611     27609     27613     27619     27611     27609     27613
     27629     27622     27620     27624     27630     27622     27620     27624
     27640     27633     27631     27635     27641     27633     27631     27635
     27651     27644     27642     27646     27652     27644     27642     27646
     27662     27655     27653     27657     27663     27655     27653     27657
     27673     27666     27664     27668     27674     27666     27664     27668
     27684     27677     27675     27679     27685     27677     27675     27679
     27695     27688     27686     27690     27696     27688     27686     27690
     27706     27699     27697     27701     27707     27699     27697     27701
     27717     27710     27708     27712     27718     27710     27708     27712
     27728     27721     27719     27723     27729     27721     27719     27723
     27739     27732     27730     27734     27740     27732     27730     27734
     27750     27743     27741     27745     27751     27743     27741     27745
     27761     27754     27752     27756     27762     27754     27752     27756
     27772     27765     27763     27767     27773     27765     27763     27767
     27783     27776     27774     27778     27784     27776     27774     27778
     27794     27787     27785     27789     27795     27787     27785     27789
     27805     27798     27796     27800     27806     27798     27796     27800
     27816     27809     27807     27811     27817     27809     27807     27811
     27827     27820     27818     27822     27828     27820     27818     27822
     27838     27831     27829     27833     27839     27831     27829     27833
     27849     27842     27840     27844     27850     27842     27840     27844
     27860     27853     27851     27855     27861     27853     27851     27855
     27871     27864     27862     27866     27872     27864     27862     27866
     27882     27875     27873     27877     27883     27875     27873     27877
     27893     27886     27884     27888     27894     27886     27884     27888
     27904     27897     27895     27899     27905     27897     27895     27899
     27915     27908     27906     27910     27916     27908     27906     27910
     27926     27919     27917     27921     27927     27919     27917     27921
     27937     27930     27928     27932     27938     27930     27928     27932
     27948     27941     27939     27943     27949     27941     27939     27943
     27959     27952     27950     27954     27960     27952     27950     27954
     27970     27963     27961     27965     27971     27963     27961     27965
     27981     27974     27972     27976     27982     27974     27972     27976
     27992     27985     27983     27987     27993     27985     27983     27987
     28003     27996     27994     27998     28004     27996     27994     27998
     28014     28007     28005     28009     28015     28007     28005     28009
     28025     28018     28016     28020     28026     28018     28016     28020
     28036     28029     28027     28031     28037     28029     28027     28031
     28047     28040     28038     28042     28048     28040     28038     28042
     28058     28051     28049     28053     28059     28051     28049     28053
     28069     28062     28060     28064     28070     28062     28060     28064
     28080     28073     28071     28075     28081     28073     28071     28075
     28091     28084     28082     28086     28092     28084     28082     28086
     28102     28095     28093     28097     28103     28095     28093     28097
     28113     28106     28104     28108     28114     28106     28104     28108
     28124     28117     28115     28119     28125     28117     28115     28119
     28135     28128     28126     28130     28136     28128     28126     28130
     28146     28139     28137     28141     28147     28139     28137     28141
     28157     28150     28148     28152     28158     28150     28148     28152
     28168     28161     28159     28163     28169     28161     28159     28163
     28179     28172     28170     28174     28180     28172     28170     28174
     28190     28183     28181     28185     28191     28183     28181     28185
     28201     28194     28192     28196     28202     28194     28192     28196
     28212     28205     28203     28207     28213     28205     28203     28207
     28223     28216     28214     28218     28224     28216     28214     28218
     28234     28227     28225     28229     28235     28227     28225     28229
     28245     28238     28236     28240     28246     28238     28236     28240
     28256     28249     28247     28251     28257     28249     28247     28251
     28267     28260     28258     28262     28268     28260     28258     28262
     28278     28271     28269     28273     28279     28271     28269     28273
     28289     28282     28280     28284     28290     28282     28280     28284
     28300     28293     28291     28295     28301     28293     28291     28295
     28311     28304     28302     28306     28312     28304     28302     28306
     28322     28315     28313     28317     28323     28315     28313     28317
     28333     28326     28324     28328     28334     28326     28324     28328
     28344     28337     28335     28339     28345     28337     28335     28339
     28355     28348     28346     28350     28356     28348     28346     28350
     28366     28359     28357     28361     28367     28359     28357     28361
     28377     28370     28368     28372     28378     28370     28368     28372
     28388     28381     28379     28383     28389     28381     28379     28383
     28399     28392     28390     28394     28400     28392     28390     28394
     28410     28403     28401     28405     28411     28403     28401     28405
     28421     28414     28412     28416     28422     28414     28412     28416
     28432     28425     28423     28427     28433     28425     28423     28427
     28443     28436     28434     28438     28444     28436     28434     28438
     28454     28447     28445     28449     28455     28447     28445     28449
     28465     28458     28456     28460     28466     28458     28456     28460
     28476     28469     28467     28471     28477     28469     28467     28471
     28487     28480     28478     28482     28488     28480     28478     28482
     28498     28491     28489     28493     28499     28491     28489     28493
     28509     28502     28500     28504     28510     28502     28500     28504
     28520     28513     28511     28515     28521     28513     28511     28515
     28531     28524     28522     28526     28532     28524     28522     28526
     28542     28535     28533     28537     28543     28535     28533     28537
     28553     28546     28544     28548     28554     28546     28544     28548
     28564     28557     28555     28559     28565     28557     28555     28559
     28575     28568     28566     28570     28576     28568     28566     28570
     28586     28579     28577     28581     28587     28579     28577     28581
     28597     28590     28588     28592     28598     28590     28588     28592
     28608     28601     28599     28603     28609     28601     28599     28603
     28619     28612     28610     28614     28620     28612     28610     28614
     28630     28623     28621     28625     28631     28623     28621     28625
     28641     28634     28632     28636     28642     28634     28632     28636
     28652     28645     28643     28647     28653     28645     28643     28647
     28663     28656     28654     28658     28664     28656     28654     28658
     28674     28667     28665     28669     28675     28667     28665     28669
     28685     28678     28676     28680     28686     28678     28676     28680
     28696     28689     28687     28691     28697     28689     28687     28691
     28707     28700     28698     28702     28708     28700     28698     28702
     28718     28711     28709     28713     28719     28711     28709     28713
     28729     28722     28720     28724     28730     28722     28720     28724
     28740     28733     28731     28735     28741     28733     28731     28735
     28751     28744     28742     28746     28752     28744     28742     28746
     28762     28755     28753     28757     28763     28755     28753     28757
     28773     28766     28764     28768     28774     28766     28764     28768
     28784     28777     28775     28779     28785     28777     28775     28779
     28795     28788     28786     28790     28796     28788     28786     28790
     28806     28799     28797     28801     28807     28799     28797     28801
     28817     28810     28808     28812     28818     28810     28808     28812
     28828     28821     28819     28823     28829     28821     28819     28823
     28839     28832     28830     28834     28840     28832     28830     28834
     28850     28843     28841     28845     28851     28843     28841     28845
     28861     28854     28852     28856     28862     28854     28852     28856
     28872     28865     28863     28867     28873     28865     28863     28867
     28883     28876     28874     28878     28884     28876     28874     28878
     28894     28887     28885     28889     28895     28887     28885     28889
     28905     28898     28896     28900     28906     28898     28896     28900
     28916     28909     28907     28911     28917     28909     28907     28911
     28927     28920     28918     28922     28928     28920     28918     28922
     28938     28931     28929     28933     28939     28931     28929     28933
     28949     28942     28940     28944     28950     28942     28940     28944
     28960     28953     28951     28955     28961     28953     28951     28955
     28971     28964     28962     28966     28972     28964     28962     28966
     28982     28975     28973     28977     28983     28975     28973     28977
     28993     28986     28984     28988     28994     28986     28984     28988
     29004     28997     28995     28999     29005     28997     28995     28999
     29015     29008     29006     29010     29016     29008     29006     29010
     29026     29019     29017     29021     29027     29019     29017     29021
     29037     29030     29028     29032     29038     29030     29028     29032
     29048     29041     29039     29043     29049     29041     29039     29043
     29059     29052     29050     29054     29060     29052     29050     29054
     29070     29063     29061     29065     29071     29063     29061     29065
     29081     29074     29072     29076     29082     29074     29072     29076
     29092     29085     29083     29087     29093     29085     29083     29087
     29103     29096     29094     29098     29104     29096     29094     29098
     29114     29107     29105     29109     29115     29107     29105     29109
     29125     29118     29116     29120     29126     29118     29116     29120
     29136     29129     29127     29131     29137     29129     29127     29131
     29147     29140     29138     29142     29148     29140     29138     29142
     29158     29151     29149     29153     29159     29151     29149     29153
     29169     29162     29160     29164     29170     29162     29160     29164
     29180     29173     29171     29175     29181     29173     29171     29175
     29191     29184     29182     29186     29192     29184     29182     29186
     29202     29195     29193     29197     29203     29195     29193     29197
     29213     29206     29204     29208     29214     29206     29204     29208
     29224     29217     29215     29219     29225     29217     29215     29219
     29235     29228     29226     29230     29236     29228     29226     29230
     29246     29239     29237     29241     29247     29239     29237     29241
     29257     29250     29248     29252     29258     29250     29248     29252
     29268     29261     29259     29263     29269     29261     29259     29263
     29279     29272     29270     29274     29280     29272     29270     29274
     29290     29283     29281     29285     29291     29283     29281     29285
     29301     29294     29292     29296     29302     29294     29292     29296
     29312     29305     29303     29307     29313     29305     29303     29307
     29323     29316     29314     29318     29324     29316     29314     29318
     29334     29327     29325     29329     29335     29327     29325     29329
     29345     29338     29336     29340     29346     29338     29336     29340
     29356     29349     29347     29351     29357     29349     29347     29351
     29367     29360     29358     29362     29368     29360     29358     29362
     29378     29371     29369     29373     29379     29371     29369     29373
     29389     29382     29380     29384     29390     29382     29380     29384
     29400     29393     29391     29395     29401     29393     29391     29395
     29411     29404     29402     29406     29412     29404     29402     29406
     29422     29415     29413     29417     29423     29415     29413     29417
     29433     29426     29424     29428     29434     29426     29424     29428
     29444     29437     29435     29439     29445     29437     29435     29439
     29455     29448     29446     29450     29456     29448     29446     29450
     29466     29459     29457     29461     29467     29459     29457     29461
     29477     29470     29468     29472     29478     29470     29468     29472
     29488     29481     29479     29483     29489     29481     29479     29483
     29499     29492     29490     29494     29500     29492     29490     29494
     29510     29503     29501     29505     29511     29503     29501     29505
     29521     29514     29512     29516     29522     29514     29512     29516
     29532     29525     29523     29527     29533     29525     29523     29527
     29543     29536     29534     29538     29544     29536     29534     29538
     29554     29547     29545     29549     29555     29547     29545     29549
     29565     29558     29556     29560     29566     29558     29556     29560
     29576     29569     29567     29571     29577     29569     29567     29571
     29587     29580     29578     29582     29588     29580     29578     29582
     29598     29591     29589     29593     29599     29591     29589     29593
     29609     29602     29600     29604     29610     29602     29600     29604
     29620     29613     29611     29615     29621     29613     29611     29615
     29631     29624     29622     29626     29632     29624     29622     29626
     29642     29635     29633     29637     29643     29635     29633     29637
     29653     29646     29644     29648     29654     29646     29644     29648
     29664     29657     29655     29659     29665     29657     29655     29659
     29675     29668     29666     29670     29676     29668     29666     29670
     29686     29679     29677     29681     29687     29679     29677     29681
     29697     29690     29688     29692     29698     29690     29688     29692
     29708     29701     29699     29703     29709     29701     29699     29703
     29719     29712     29710     29714     29720     29712     29710     29714
     29730     29723     29721     29725     29731     29723     29721     29725
     29741     29734     29732     29736     29742     29734     29732     29736
     29752     29745     29743     29747     29753     29745     29743     29747
     29763     29756     29754     29758     29764     29756     29754     29758
     29774     29767     29765     29769     29775     29767     29765     29769
     29785     29778     29776     29780     29786     29778     29776     29780
     29796     29789     29787     29791     29797     29789     29787     29791
     29807     29800     29798     29802     29808     29800     29798     29802
     29818     29811     29809     29813     29819     29811     29809     29813
     29829     29822     29820     29824     29830     29822     29820     29824
     29840     29833     29831     29835     29841     29833     29831     29835
     29851     29844     29842     29846     29852     29844     29842     29846
     29862     29855     29853     29857     29863     29855     29853     29857
     29873     29866     29864     29868     29874     29866     29864     29868
     29884     29877     29875     29879     29885     29877     29875     29879
     29895     29888     29886     29890     29896     29888     29886     29890
     29906     29899     29897     29901     29907     29899     29897     29901
     29917     29910     29908     29912     29918     29910     29908     29912
     29928     29921     29919     29923     29929     29921     29919     29923
     29939     29932     29930     29934     29940     29932     29930     29934
     29950     29943     29941     29945     29951     29943     29941     29945
     29961     29954     29952     29956     29962     29954     29952     29956
     29972     29965     29963     29967     29973     29965     29963     29967
     29983     29976     29974     29978     29984     29976     29974     29978
     29994     29987     29985     29989     29995     29987     29985     29989
     30005     29998     29996     30000     30006     29998     29996     30000
     30016     30009     30007     30011     30017     30009     30007     30011
     30027     30020     30018     30022     30028     30020     30018     30022
     30038     30031     30029     30033     30039     30031     30029     30033
     30049     30042     30040     30044     30050     30042     30040     30044
     30060     30053     30051     30055     30061     30053     30051     30055
     30071     30064     30062     30066     30072     30064     30062     30066
     30082     30075     30073     30077     30083     30075     30073     30077
     30093     30086     30084     30088     30094     30086     30084     30088
     30104     30097     30095     30099     30105     30097     30095     30099
     30115     30108     30106     30110     30116     30108     30106     30110
     30126     30119     30117     30121     30127     30119     30117     30121
     30137     30130     30128     30132     30138     30130     30128     30132
     30148     30141     30139     30143     30149     30141     30139     30143
     30159     30152     30150     30154     30160     30152     30150     30154
     30170     30163     30161     30165     30171     30163     30161     30165
     30181     30174     30172     30176     30182     30174     30172     30176
     30192     30185     30183     30187     30193     30185     30183     30187
     30203     30196     30194     30198     30204     30196     30194     30198
     30214     30207     30205     30209     30215     30207     30205     30209
     30225     30218     30216     30220     30226     30218     30216     30220
     30236     30229     30227     30231     30237     30229     30227     30231
     30247     30240     30238     30242     30248     30240     30238     30242
     30258     30251     30249     30253     30259     30251     30249     30253
     30269     30262     30260     30264     30270     30262     30260     30264
     30280     30273     30271     30275     30281     30273     30271     30275
     30291     30284     30282     30286     30292     30284     30282     30286
     30302     30295     30293     30297     30303     30295     30293     30297
     30313     30306     30304     30308     30314     30306     30304     30308
     30324     30317     30315     30319     30325     30317     30315     30319
     30335     30328     30326     30330     30336     30328     30326     30330
     30346     30339     30337     30341     30347     30339     30337     30341
     30357     30350     30348     30352     30358     30350     30348     30352
     30368     30361     30359     30363     30369     30361     30359     30363
     30379     30372     30370     30374     30380     30372     30370     30374
     30390     30383     30381     30385     30391     30383     30381     30385
     30401     30394     30392     30396     30402     30394     30392     30396
     30412     30405     30403     30407     30413     30405     30403     30407
     30423     30416     30414     30418     30424     30416     30414     30418
     30434     30427     30425     30429     30435     30427     30425     30429
     30445     30438     30436     30440     30446     30438     30436     30440
     30456     30449     30447     30451     30457     30449     30447     30451
     30467     30460     30458     30462     30468     30460     30458     30462
     30478     30471     30469     30473     30479     30471     30469     30473
     30489     30482     30480     30484     30490     30482     30480     30484
     30500     30493     30491     30495     30501     30493     30491     30495
     30511     30504     30502     30506     30512     30504     30502     30506
     30522     30515     30513     30517     30523     30515     30513     30517
     30533     30526     30524     30528     30534     30526     30524     30528
     30544     30537     30535     30539     30545     30537     30535     30539
     30555     30548     30546     30550     30556     30548     30546     30550
     30566     30559     30557     30561     30567     30559     30557     30561
     30577     30570     30568     30572     30578     30570     30568     30572
     30588     30581     30579     30583     30589     30581     30579     30583
     30599     30592     30590     30594     30600     30592     30590     30594
     30610     30603     30601     30605     30611     30603     30601     30605
     30621     30614     30612     30616     30622     30614     30612     30616
     30632     30625     30623     30627     30633     30625     30623     30627
     30643     30636     30634     30638     30644     30636     30634     30638
     30654     30647     30645     30649     30655     30647     30645     30649
     30665     30658     30656     30660     30666     30658     30656     30660
     30676     30669     30667     30671     30677     30669     30667     30671
     30687     30680     30678     30682     30688     30680     30678     30682
     30698     30691     30689     30693     30699     30691     30689     30693
     30709     30702     30700     30704     30710     30702     30700     30704
     30720     30713     30711     30715     30721     30713     30711     30715
     30731     30724     30722     30726     30732     30724     30722     30726
     30742     30735     30733     30737     30743     30735     30733     30737
     30753     30746     30744     30748     30754     30746     30744     30748
     30764     30757     30755     30759     30765     30757     30755     30759
     30775     30768     30766     30770     30776     30768     30766     30770
     30786     30779     30777     30781     30787     30779     30777     30781
     30797     30790     30788     30792     30798     30790     30788     30792
     30808     30801     30799     30803     30809     30801     30799     30803
     30819     30812     30810     30814     30820     30812     30810     30814
     30830     30823     30821     30825     30831     30823     30821     30825
     30841     30834     30832     30836     30842     30834     30832     30836
     30852     30845     30843     30847     30853     30845     30843     30847
     30863     30856     30854     30858     30864     30856     30854     30858
     30874     30867     30865     30869     30875     30867     30865     30869
     30885     30878     30876     30880     30886     30878     30876     30880
     30896     30889     30887     30891     30897     30889     30887     30891
     30907     30900     30898     30902     30908     30900     30898     30902
     30918     30911     30909     30913     30919     30911     30909     30913
     30929     30922     30920     30924     30930     30922     30920     30924
     30940     30933     30931     30935     30941     30933     30931     30935
     30951     30944     30942     30946     30952     30944     30942     30946
     30962     30955     30953     30957     30963     30955     30953     30957
     30973     30966     30964     30968     30974     30966     30964     30968
     30984     30977     30975     30979     30985     30977     30975     30979
     30995     30988     30986     30990     30996     30988     30986     30990
     31006     30999     30997     31001     31007     30999     30997     31001
     31017     31010     31008     31012     31018     31010     31008     31012
     31028     31021     31019     31023     31029     31021     31019     31023
     31039     31032     31030     31034     31040     31032     31030     31034
     31050     31043     31041     31045     31051     31043     31041     31045
     31061     31054     31052     31056     31062     31054     31052     31056
     31072     31065     31063     31067     31073     31065     31063     31067
     31083     31076     31074     31078     31084     31076     31074     31078
     31094     31087     31085     31089     31095     31087     31085     31089
     31105     31098     31096     31100     31106     31098     31096     31100
     31116     31109     31107     31111     31117     31109     31107     31111
     31127     31120     31118     31122     31128     31120     31118     31122
     31138     31131     31129     31133     31139     31131     31129     31133
     31149     31142     31140     31144     31150     31142     31140     31144
     31160     31153     31151     31155     31161     31153     31151     31155
     31171     31164     31162     31166     31172     31164     31162     31166
     31182     31175     31173     31177     31183     31175     31173     31177
     31193     31186     31184     31188     31194     31186     31184     31188
     31204     31197     31195     31199     31205     31197     31195     31199
     31215     31208     31206     31210     31216     31208     31206     31210
     31226     31219     31217     31221     31227     31219     31217     31221
     31237     31230     31228     31232     31238     31230     31228     31232
     31248     31241     31239     31243     31249     31241     31239     31243
     31259     31252     31250     31254     31260     31252     31250     31254
     31270     31263     31261     31265     31271     31263     31261     31265
     31281     31274     31272     31276     31282     31274     31272     31276
     31292     31285     31283     31287     31293     31285     31283     31287
     31303     31296     31294     31298     31304     31296     31294     31298
     31314     31307     31305     31309     31315     31307     31305     31309
     31325     31318     31316     31320     31326     31318     31316     31320
     31336     31329     31327     31331     31337     31329     31327     31331
     31347     31340     31338     31342     31348     31340     31338     31342
     31358     31351     31349     31353     31359     31351     31349     31353
     31369     31362     31360     31364     31370     31362     31360     31364
     31380     31373     31371     31375     31381     31373     31371     31375
     31391     31384     31382     31386     31392     31384     31382     31386
     31402     31395     31393     31397     31403     31395     31393     31397
     31413     31406     31404     31408     31414     31406     31404     31408
     31424     31417     31415     31419     31425     31417     31415     31419
     31435     31428     31426     31430     31436     31428     31426     31430
     31446     31439     31437     31441     31447     31439     31437     31441
     31457     31450     31448     31452     31458     31450     31448     31452
     31468     31461     31459     31463     31469     31461     31459     31463
     31479     31472     31470     31474     31480     31472     31470     31474
     31490     31483     31481     31485     31491     31483     31481     31485
     31501     31494     31492     31496     31502     31494     31492     31496
     31512     31505     31503     31507     31513     31505     31503     31507
     31523     31516     31514     31518     31524     31516     31514     31518
     31534     31527     31525     31529     31535     31527     31525     31529
     31545     31538     31536     31540     31546     31538     31536     31540
     31556     31549     31547     31551     31557     31549     31547     31551
     31567     31560     31558     31562     31568     31560     31558     31562
     31578     31571     31569     31573     31579     31571     31569     31573
     31589     31582     31580     31584     31590     31582     31580     31584
     31600     31593     31591     31595     31601     31593     31591     31595
     31611     31604     31602     31606     31612     31604     31602     31606
     31622     31615     31613     31617     31623     31615     31613     31617
     31633     31626     31624     31628     31634     31626     31624     31628
     31644     31637     31635     31639     31645     31637     31635     31639
     31655     31648     31646     31650     31656     31648     31646     31650
     31666     31659     31657     31661     31667     31659     31657     31661
     31677     31670     31668     31672     31678     31670     31668     31672
     31688     31681     31679     31683     31689     31681     31679     31683
     31699     31692     31690     31694     31700     31692     31690     31694
     31710     31703     31701     31705     31711     31703     31701     31705
     31721     31714     31712     31716     31722     31714     31712     31716
     31732     31725     31723     31727     31733     31725     31723     31727
     31743     31736     31734     31738     31744     31736     31734     31738
     31754     31747     31745     31749     31755     31747     31745     31749
     31765     31758     31756     31760     31766     31758     31756     31760
     31776     31769     31767     31771     31777     31769     31767     31771
     31787     31780     31778     31782     31788     31780     31778     31782
     31798     31791     31789     31793     31799     31791     31789     31793
     31809     31802     31800     31804     31810     31802     31800     31804
     31820     31813     31811     31815     31821     31813     31811     31815
     31831     31824     31822     31826     31832     31824     31822     31826
     31842     31835     31833     31837     31843     31835     31833     31837
     31853     31846     31844     31848     31854     31846     31844     31848
     31864     31857     31855     31859     31865     31857     31855     31859
     31875     31868     31866     31870     31876     31868     31866     31870
     31886     31879     31877     31881     31887     31879     31877     31881
     31897     31890     31888     31892     31898     31890     31888     31892
     31908     31901     31899     31903     31909     31901     31899     31903
     31919     31912     31910     31914     31920     31912     31910     31914
     31930     31923     31921     31925     31931     31923     31921     31925
     31941     31934     31932     31936     31942     31934     31932     31936
     31952     31945     31943     31947     31953     31945     31943     31947
     31963     31956     31954     31958     31964     31956     31954     31958
     31974     31967     31965     31969     31975     31967     31965     31969
     31985     31978     31976     31980     31986     31978     31976     31980
     31996     31989     31987     31991     31997     31989     31987     31991
     32007     32000     31998     32002     32008     32000     31998     32002
     32018     32011     32009     32013     32019     32011     32009     32013
     32029     32022     32020     32024     32030     32022     32020     32024
     32040     32033     32031     32035     32041     32033     32031     32035
     32051     32044     32042     32046     32052     32044     32042     32046
     32062     32055     32053     32057     32063     32055     32053     32057
     32073     32066     32064     32068     32074     32066     32064     32068
     32084     32077     32075     32079     32085     32077     32075     32079
     32095     32088     32086     32090     32096     32088     32086     32090
     32106     32099     32097     32101     32107     32099     32097     32101
     32117     32110     32108     32112     32118     32110     32108     32112
     32128     32121     32119     32123     32129     32121     32119     32123
     32139     32132     32130     32134     32140     32132     32130     32134
     32150     32143     32141     32145     32151     32143     32141     32145
     32161     32154     32152     32156     32162     32154     32152     32156
     32172     32165     32163     32167     32173     32165     32163     32167
     32183     32176     32174     32178     32184     32176     32174     32178
     32194     32187     32185     32189     32195     32187     32185     32189
     32205     32198     32196     32200     32206     32198     32196     32200
     32216     32209     32207     32211     32217     32209     32207     32211
     32227     32220     32218     32222     32228     32220     32218     32222
     32238     32231     32229     32233     32239     32231     32229     32233
     32249     32242     32240     32244     32250     32242     32240     32244
     32260     32253     32251     32255     32261     32253     32251     32255
     32271     32264     32262     32266     32272     32264     32262     32266
     32282     32275     32273     32277     32283     32275     32273     32277
     32293     32286     32284     32288     32294     32286     32284     32288
     32304     32297     32295     32299     32305     32297     32295     32299
     32315     32308     32306     32310     32316     32308     32306     32310
     32326     32319     32317     32321     32327     32319     32317     32321
     32337     32330     32328     32332     32338     32330     32328     32332
     32348     32341     32339     32343     32349     32341     32339     32343
     32359     32352     32350     32354     32360     32352     32350     32354
     32370     32363     32361     32365     32371     32363     32361     32365
     32381     32374     32372     32376     32382     32374     32372     32376
     32392     32385     32383     32387     32393     32385     32383     32387
     32403     32396     32394     32398     32404     32396     32394     32398
     32414     32407     32405     32409     32415     32407     32405     32409
     32425     32418     32416     32420     32426     32418     32416     32420
     32436     32429     32427     32431     32437     32429     32427     32431
     32447     32440     32438     32442     32448     32440     32438     32442
     32458     32451     32449     32453     32459     32451     32449     32453
     32469     32462     32460     32464     32470     32462     32460     32464
     32480     32473     32471     32475     32481     32473     32471     32475
     32491     32484     32482     32486     32492     32484     32482     32486
     32502     32495     32493     32497     32503     32495     32493     32497
     32513     32506     32504     32508     32514     32506     32504     32508
     32524     32517     32515     32519     32525     32517     32515     32519
     32535     32528     32526     32530     32536     32528     32526     32530
     32546     32539     32537     32541     32547     32539     32537     32541
     32557     32550     32548     32552     32558     32550     32548     32552
     32568     32561     32559     32563     32569     32561     32559     32563
     32579     32572     32570     32574     32580     32572     32570     32574
     32590     32583     32581     32585     32591     32583     32581     32585
     32601     32594     32592     32596     32602     32594     32592     32596
     32612     32605     32603     32607     32613     32605     32603     32607
     32623     32616     32614     32618     32624     32616     32614     32618
     32634     32627     32625     32629     32635     32627     32625     32629
     32645     32638     32636     32640     32646     32638     32636     32640
     32656     32649     32647     32651     32657     32649     32647     32651
     32667     32660     32658     32662     32668     32660     32658     32662
     32678     32671     32669     32673     32679     32671     32669     32673
     32689     32682     32680     32684     32690     32682     32680     32684
     32700     32693     32691     32695     32701     32693     32691     32695
     32711     32704     32702     32706     32712     32704     32702     32706
     32722     32715     32713     32717     32723     32715     32713     32717
     32733     32726     32724     32728     32734     32726     32724     32728
     32744     32737     32735     32739     32745     32737     32735     32739
     32755     32748     32746     32750     32756     32748     32746     32750
     32766     32759     32757     32761     32767     32759     32757     32761
     32777     32770     32768     32772     32778     32770     32768     32772
     32788     32781     32779     32783     32789     32781     32779     32783
     32799     32792     32790     32794     32800     32792     32790     32794
     32810     32803     32801     32805     32811     32803     32801     32805
     32821     32814     32812     32816     32822     32814     32812     32816
     32832     32825     32823     32827     32833     32825     32823     32827
     32843     32836     32834     32838     32844     32836     32834     32838
     32854     32847     32845     32849     32855     32847     32845     32849
     32865     32858     32856     32860     32866     32858     32856     32860
     32876     32869     32867     32871     32877     32869     32867     32871
     32887     32880     32878     32882     32888     32880     32878     32882
     32898     32891     32889     32893     32899     32891     32889     32893
     32909     32902     32900     32904     32910     32902     32900     32904
     32920     32913     32911     32915     32921     32913     32911     32915
     32931     32924     32922     32926     32932     32924     32922     32926
     32942     32935     32933     32937     32943     32935     32933     32937
     32953     32946     32944     32948     32954     32946     32944     32948
     32964     32957     32955     32959     32965     32957     32955     32959
     32975     32968     32966     32970     32976     32968     32966     32970
     32986     32979     32977     32981     32987     32979     32977     32981
     32997     32990     32988     32992     32998     32990     32988     32992
     33008     33001     32999     33003     33009     33001     32999     33003
     33019     33012     33010     33014     33020     33012     33010     33014
     33030     33023     33021     33025     33031     33023     33021     33025
     33041     33034     33032     33036     33042     33034     33032     33036
     33052     33045     33043     33047     33053     33045     33043     33047
     33063     33056     33054     33058     33064     33056     33054     33058
     33074     33067     33065     33069     33075     33067     33065     33069
     33085     33078     33076     33080     33086     33078     33076     33080
     33096     33089     33087     33091     33097     33089     33087     33091
     33107     33100     33098     33102     33108     33100     33098     33102
     33118     33111     33109     33113     33119     33111     33109     33113
     33129     33122     33120     33124     33130     33122     33120     33124
     33140     33133     33131     33135     33141     33133     33131     33135
     33151     33144     33142     33146     33152     33144     33142     33146
     33162     33155     33153     33157     33163     33155     33153     33157
     33173     33166     33164     33168     33174     33166     33164     33168
     33184     33177     33175     33179     33185     33177     33175     33179
     33195     33188     33186     33190     33196     33188     33186     33190
     33206     33199     33197     33201     33207     33199     33197     33201
     33217     33210     33208     33212     33218     33210     33208     33212
     33228     33221     33219     33223     33229     33221     33219     33223
     33239     33232     33230     33234     33240     33232     33230     33234
     33250     33243     33241     33245     33251     33243     33241     33245
     33261     33254     33252     33256     33262     33254     33252     33256
     33272     33265     33263     33267     33273     33265     33263     33267
     33283     33276     33274     33278     33284     33276     33274     33278
     33294     33287     33285     33289     33295     33287     33285     33289
     33305     33298     33296     33300     33306     33298     33296     33300
     33316     33309     33307     33311     33317     33309     33307     33311
     33327     33320     33318     33322     33328     33320     33318     33322
     33338     33331     33329     33333     33339     33331     33329     33333
     33349     33342     33340     33344     33350     33342     33340     33344
     33360     33353     33351     33355     33361     33353     33351     33355
     33371     33364     33362     33366     33372     33364     33362     33366
     33382     33375     33373     33377     33383     33375     33373     33377
     33393     33386     33384     33388     33394     33386     33384     33388
     33404     33397     33395     33399     33405     33397     33395     33399
     33415     33408     33406     33410     33416     33408     33406     33410
     33426     33419     33417     33421     33427     33419     33417     33421
     33437     33430     33428     33432     33438     33430     33428     33432
     33448     33441     33439     33443     33449     33441     33439     33443
     33459     33452     33450     33454     33460     33452     33450     33454
     33470     33463     33461     33465     33471     33463     33461     33465
     33481     33474     33472     33476     33482     33474     33472     33476
     33492     33485     33483     33487     33493     33485     33483     33487
     33503     33496     33494     33498     33504     33496     33494     33498
     33514     33507     33505     33509     33515     33507     33505     33509
     33525     33518     33516     33520     33526     33518     33516     33520
     33536     33529     33527     33531     33537     33529     33527     33531
     33547     33540     33538     33542     33548     33540     33538     33542
     33558     33551     33549     33553     33559     33551     33549     33553
     33569     33562     33560     33564     33570     33562     33560     33564
     33580     33573     33571     33575     33581     33573     33571     33575
     33591     33584     33582     33586     33592     33584     33582     33586
     33602     33595     33593     33597     33603     33595     33593     33597
     33613     33606     33604     33608     33614     33606     33604     33608
     33624     33617     33615     33619     33625     33617     33615     33619
     33635     33628     33626     33630     33636     33628     33626     33630
     33646     33639     33637     33641     33647     33639     33637     33641
     33657     33650     33648     33652     33658     33650     33648     33652
     33668     33661     33659     33663     33669     33661     33659     33663
     33679     33672     33670     33674     33680     33672     33670     33674
     33690     33683     33681     33685     33691     33683     33681     33685
     33701     33694     33692     33696     33702     33694     33692     33696
     33712     33705     33703     33707     33713     33705     33703     33707
     33723     33716     33714     33718     33724     33716     33714     33718
     33734     33727     33725     33729     33735     33727     33725     33729
     33745     33738     33736     33740     33746     33738     33736     33740
     33756     33749     33747     33751     33757     33749     33747     33751
     33767     33760     33758     33762     33768     33760     33758     33762
     33778     33771     33769     33773     33779     33771     33769     33773
     33789     33782     33780     33784     33790     33782     33780     33784
     33800     33793     33791     33795     33801     33793     33791     33795
     33811     33804     33802     33806     33812     33804     33802     33806
     33822     33815     33813     33817     33823     33815     33813     33817
     33833     33826     33824     33828     33834     33826     33824     33828
     33844     33837     33835     33839     33845     33837     33835     33839
     33855     33848     33846     33850     33856     33848     33846     33850
     33866     33859     33857     33861     33867     33859     33857     33861
     33877     33870     33868     33872     33878     33870     33868     33872
     33888     33881     33879     33883     33889     33881     33879     33883
     33899     33892     33890     33894     33900     33892     33890     33894
     33910     33903     33901     33905     33911     33903     33901     33905
     33921     33914     33912     33916     33922     33914     33912     33916
     33932     33925     33923     33927     33933     33925     33923     33927
     33943     33936     33934     33938     33944     33936     33934     33938
     33954     33947     33945     33949     33955     33947     33945     33949
     33965     33958     33956     33960     33966     33958     33956     33960
     33976     33969     33967     33971     33977     33969     33967     33971
     33987     33980     33978     33982     33988     33980     33978     33982
     33998     33991     33989     33993     33999     33991     33989     33993
     34009     34002     34000     34004     34010     34002     34000     34004
     34020     34013     34011     34015     34021     34013     34011     34015
     34031     34024     34022     34026     34032     34024     34022     34026
     34042     34035     34033     34037     34043     34035     34033     34037
     34053     34046     34044     34048     34054     34046     34044     34048
     34064     34057     34055     34059     34065     34057     34055     34059
     34075     34068     34066     34070     34076     34068     34066     34070
     34086     34079     34077     34081     34087     34079     34077     34081
     34097     34090     34088     34092     34098     34090     34088     34092
     34108     34101     34099     34103     34109     34101     34099     34103
     34119     34112     34110     34114     34120     34112     34110     34114
     34130     34123     34121     34125     34131     34123     34121     34125
     34141     34134     34132     34136     34142     34134     34132     34136
     34152     34145     34143     34147     34153     34145     34143     34147
     34163     34156     34154     34158     34164     34156     34154     34158
     34174     34167     34165     34169     34175     34167     34165     34169
     34185     34178     34176     34180     34186     34178     34176     34180
     34196     34189     34187     34191     34197     34189     34187     34191
     34207     34200     34198     34202     34208     34200     34198     34202
     34218     34211     34209     34213     34219     34211     34209     34213
     34229     34222     34220     34224     34230     34222     34220     34224
     34240     34233     34231     34235     34241     34233     34231     34235
     34251     34244     34242     34246     34252     34244     34242     34246
     34262     34255     34253     34257     34263     34255     34253     34257
     34273     34266     34264     34268     34274     34266     34264     34268
     34284     34277     34275     34279     34285     34277     34275     34279
     34295     34288     34286     34290     34296     34288     34286     34290
     34306     34299     34297     34301     34307     34299     34297     34301
     34317     34310     34308     34312     34318     34310     34308     34312
     34328     34321     34319     34323     34329     34321     34319     34323
     34339     34332     34330     34334     34340     34332     34330     34334
     34350     34343     34341     34345     34351     34343     34341     34345
     34361     34354     34352     34356     34362     34354     34352     34356
     34372     34365     34363     34367     34373     34365     34363     34367
     34383     34376     34374     34378     34384     34376     34374     34378
     34394     34387     34385     34389     34395     34387     34385     34389
     34405     34398     34396     34400     34406     34398     34396     34400
     34416     34409     34407     34411     34417     34409     34407     34411
     34427     34420     34418     34422     34428     34420     34418     34422
     34438     34431     34429     34433     34439     34431     34429     34433
     34449     34442     34440     34444     34450     34442     34440     34444
     34460     34453     34451     34455     34461     34453     34451     34455
     34471     34464     34462     34466     34472     34464     34462     34466
     34482     34475     34473     34477     34483     34475     34473     34477
     34493     34486     34484     34488     34494     34486     34484     34488
     34504     34497     34495     34499     34505     34497     34495     34499
     34515     34508     34506     34510     34516     34508     34506     34510
     34526     34519     34517     34521     34527     34519     34517     34521
     34537     34530     34528     34532     34538     34530     34528     34532
     34548     34541     34539     34543     34549     34541     34539     34543
     34559     34552     34550     34554     34560     34552     34550     34554
     34570     34563     34561     34565     34571     34563     34561     34565
     34581     34574     34572     34576     34582     34574     34572     34576
     34592     34585     34583     34587     34593     34585     34583     34587
     34603     34596     34594     34598     34604     34596     34594     34598
     34614     34607     34605     34609     34615     34607     34605     34609
     34625     34618     34616     34620     34626     34618     34616     34620
     34636     34629     34627     34631     34637     34629     34627     34631
     34647     34640     34638     34642     34648     34640     34638     34642
     34658     34651     34649     34653     34659     34651     34649     34653
     34669     34662     34660     34664     34670     34662     34660     34664
     34680     34673     34671     34675     34681     34673     34671     34675
     34691     34684     34682     34686     34692     34684     34682     34686
     34702     34695     34693     34697     34703     34695     34693     34697
     34713     34706     34704     34708     34714     34706     34704     34708
     34724     34717     34715     34719     34725     34717     34715     34719
     34735     34728     34726     34730     34736     34728     34726     34730
     34746     34739     34737     34741     34747     34739     34737     34741
     34757     34750     34748     34752     34758     34750     34748     34752
     34768     34761     34759     34763     34769     34761     34759     34763
     34779     34772     34770     34774     34780     34772     34770     34774
     34790     34783     34781     34785     34791     34783     34781     34785
     34801     34794     34792     34796     34802     34794     34792     34796
     34812     34805     34803     34807     34813     34805     34803     34807
     34823     34816     34814     34818     34824     34816     34814     34818
     34834     34827     34825     34829     34835     34827     34825     34829
     34845     34838     34836     34840     34846     34838     34836     34840
     34856     34849     34847     34851     34857     34849     34847     34851
     34867     34860     34858     34862     34868     34860     34858     34862
     34878     34871     34869     34873     34879     34871     34869     34873
     34889     34882     34880     34884     34890     34882     34880     34884
     34900     34893     34891     34895     34901     34893     34891     34895
     34911     34904     34902     34906     34912     34904     34902     34906
     34922     34915     34913     34917     34923     34915     34913     34917
     34933     34926     34924     34928     34934     34926     34924     34928
     34944     34937     34935     34939     34945     34937     34935     34939
     34955     34948     34946     34950     34956     34948     34946     34950
     34966     34959     34957     34961     34967     34959     34957     34961
     34977     34970     34968     34972     34978     34970     34968     34972
     34988     34981     34979     34983     34989     34981     34979     34983
     34999     34992     34990     34994     35000     34992     34990     34994
     35010     35003     35001     35005     35011     35003     35001     35005
     35021     35014     35012     35016     35022     35014     35012     35016
     35032     35025     35023     35027     35033     35025     35023     35027
     35043     35036     35034     35038     35044     35036     35034     35038
     35054     35047     35045     35049     35055     35047     35045     35049
     35065     35058     35056     35060     35066     35058     35056     35060
     35076     35069     35067     35071     35077     35069     35067     35071
     35087     35080     35078     35082     35088     35080     35078     35082
     35098     35091     35089     35093     35099     35091     35089     35093
     35109     35102     35100     35104     35110     35102     35100     35104
     35120     35113     35111     35115     35121     35113     35111     35115
     35131     35124     35122     35126     35132     35124     35122     35126
     35142     35135     35133     35137     35143     35135     35133     35137
     35153     35146     35144     35148     35154     35146     35144     35148
     35164     35157     35155     35159     35165     35157     35155     35159
     35175     35168     35166     35170     35176     35168     35166     35170
     35186     35179     35177     35181     35187     35179     35177     35181
     35197     35190     35188     35192     35198     35190     35188     35192
     35208     35201     35199     35203     35209     35201     35199     35203
     35219     35212     35210     35214     35220     35212     35210     35214
     35230     35223     35221     35225     35231     35223     35221     35225
     35241     35234     35232     35236     35242     35234     35232     35236
     35252     35245     35243     35247     35253     35245     35243     35247
     35263     35256     35254     35258     35264     35256     35254     35258
     35274     35267     35265     35269     35275     35267     35265     35269
     35285     35278     35276     35280     35286     35278     35276     35280
     35296     35289     35287     35291     35297     35289     35287     35291
     35307     35300     35298     35302     35308     35300     35298     35302
     35318     35311     35309     35313     35319     35311     35309     35313
     35329     35322     35320     35324     35330     35322     35320     35324
     35340     35333     35331     35335     35341     35333     35331     35335
     35351     35344     35342     35346     35352     35344     35342     35346
     35362     35355     35353     35357     35363     35355     35353     35357
     35373     35366     35364     35368     35374     35366     35364     35368
     35384     35377     35375     35379     35385     35377     35375     35379
     35395     35388     35386     35390     35396     35388     35386     35390
     35406     35399     35397     35401     35407     35399     35397     35401
     35417     35410     35408     35412     35418     35410     35408     35412
     35428     35421     35419     35423     35429     35421     35419     35423
     35439     35432     35430     35434     35440     35432     35430     35434
     35450     35443     35441     35445     35451     35443     35441     35445
     35461     35454     35452     35456     35462     35454     35452     35456
     35472     35465     35463     35467     35473     35465     35463     35467
     35483     35476     35474     35478     35484     35476     35474     35478
     35494     35487     35485     35489     35495     35487     35485     35489
     35505     35498     35496     35500     35506     35498     35496     35500
     35516     35509     35507     35511     35517     35509     35507     35511
     35527     35520     35518     35522     35528     35520     35518     35522
     35538     35531     35529     35533     35539     35531     35529     35533
     35549     35542     35540     35544     35550     35542     35540     35544
     35560     35553     35551     35555     35561     35553     35551     35555
     35571     35564     35562     35566     35572     35564     35562     35566
     35582     35575     35573     35577     35583     35575     35573     35577
     35593     35586     35584     35588     35594     35586     35584     35588
     35604     35597     35595     35599     35605     35597     35595     35599
     35615     35608     35606     35610     35616     35608     35606     35610
     35626     35619     35617     35621     35627     35619     35617     35621
     35637     35630     35628     35632     35638     35630     35628     35632
     35648     35641     35639     35643     35649     35641     35639     35643
     35659     35652     35650     35654     35660     35652     35650     35654
     35670     35663     35661     35665     35671     35663     35661     35665
     35681     35674     35672     35676     35682     35674     35672     35676
     35692     35685     35683     35687     35693     35685     35683     35687
     35703     35696     35694     35698     35704     35696     35694     35698
     35714     35707     35705     35709     35715     35707     35705     35709
     35725     35718     35716     35720     35726     35718     35716     35720
     35736     35729     35727     35731     35737     35729     35727     35731
     35747     35740     35738     35742     35748     35740     35738     35742
     35758     35751     35749     35753     35759     35751     35749     35753
     35769     35762     35760     35764     35770     35762     35760     35764
     35780     35773     35771     35775     35781     35773     35771     35775
     35791     35784     35782     35786     35792     35784     35782     35786
     35802     35795     35793     35797     35803     35795     35793     35797
     35813     35806     35804     35808     35814     35806     35804     35808
     35824     35817     35815     35819     35825     35817     35815     35819
     35835     35828     35826     35830     35836     35828     35826     35830
     35846     35839     35837     35841     35847     35839     35837     35841
     35857     35850     35848     35852     35858     35850     35848     35852
     35868     35861     35859     35863     35869     35861     35859     35863
     35879     35872     35870     35874     35880     35872     35870     35874
     35890     35883     35881     35885     35891     35883     35881     35885
     35901     35894     35892     35896     35902     35894     35892     35896
     35912     35905     35903     35907     35913     35905     35903     35907
     35923     35916     35914     35918     35924     35916     35914     35918
     35934     35927     35925     35929     35935     35927     35925     35929
     35945     35938     35936     35940     35946     35938     35936     35940
     35956     35949     35947     35951     35957     35949     35947     35951
     35967     35960     35958     35962     35968     35960     35958     35962
     35978     35971     35969     35973     35979     35971     35969     35973
     35989     35982     35980     35984     35990     35982     35980     35984
     36000     35993     35991     35995     36001     35993     35991     35995
     36011     36004     36002     36006     36012     36004     36002     36006
     36022     36015     36013     36017     36023     36015     36013     36017
     36033     36026     36024     36028     36034     36026     36024     36028
     36044     36037     36035     36039     36045     36037     36035     36039
     36055     36048     36046     36050     36056     36048     36046     36050
     36066     36059     36057     36061     36067     36059     36057     36061
     36077     36070     36068     36072     36078     36070     36068     36072
     36088     36081     36079     36083     36089     36081     36079     36083
     36099     36092     36090     36094     36100     36092     36090     36094
     36110     36103     36101     36105     36111     36103     36101     36105
     36121     36114     36112     36116     36122     36114     36112     36116
     36132     36125     36123     36127     36133     36125     36123     36127
     36143     36136     36134     36138     36144     36136     36134     36138
     36154     36147     36145     36149     36155     36147     36145     36149
     36165     36158     36156     36160     36166     36158     36156     36160
     36176     36169     36167     36171     36177     36169     36167     36171
     36187     36180     36178     36182     36188     36180     36178     36182
     36198     36191     36189     36193     36199     36191     36189     36193
     36209     36202     36200     36204     36210     36202     36200     36204
     36220     36213     36211     36215     36221     36213     36211     36215
     36231     36224     36222     36226     36232     36224     36222     36226
     36242     36235     36233     36237     36243     36235     36233     36237
     36253     36246     36244     36248     36254     36246     36244     36248
     36264     36257     36255     36259     36265     36257     36255     36259
     36275     36268     36266     36270     36276     36268     36266     36270
     36286     36279     36277     36281     36287     36279     36277     36281
     36297     36290     36288     36292     36298     36290     36288     36292
     36308     36301     36299     36303     36309     36301     36299     36303
     36319     36312     36310     36314     36320     36312     36310     36314
     36330     36323     36321     36325     36331     36323     36321     36325
     36341     36334     36332     36336     36342     36334     36332     36336
     36352     36345     36343     36347     36353     36345     36343     36347
     36363     36356     36354     36358     36364     36356     36354     36358
     36374     36367     36365     36369     36375     36367     36365     36369
     36385     36378     36376     36380     36386     36378     36376     36380
     36396     36389     36387     36391     36397     36389     36387     36391
     36407     36400     36398     36402     36408     36400     36398     36402
     36418     36411     36409     36413     36419     36411     36409     36413
     36429     36422     36420     36424     36430     36422     36420     36424
     36440     36433     36431     36435     36441     36433     36431     36435
     36451     36444     36442     36446     36452     36444     36442     36446
     36462     36455     36453     36457     36463     36455     36453     36457
     36473     36466     36464     36468     36474     36466     36464     36468
     36484     36477     36475     36479     36485     36477     36475     36479
     36495     36488     36486     36490     36496     36488     36486     36490
     36506     36499     36497     36501     36507     36499     36497     36501
     36517     36510     36508     36512     36518     36510     36508     36512
     36528     36521     36519     36523     36529     36521     36519     36523
     36539     36532     36530     36534     36540     36532     36530     36534
     36550     36543     36541     36545     36551     36543     36541     36545
     36561     36554     36552     36556     36562     36554     36552     36556
     36572     36565     36563     36567     36573     36565     36563     36567
     36583     36576     36574     36578     36584     36576     36574     36578
     36594     36587     36585     36589     36595     36587     36585     36589
     36605     36598     36596     36600     36606     36598     36596     36600
     36616     36609     36607     36611     36617     36609     36607     36611
     36627     36620     36618     36622     36628     36620     36618     36622
     36638     36631     36629     36633     36639     36631     36629     36633
     36649     36642     36640     36644     36650     36642     36640     36644
     36660     36653     36651     36655     36661     36653     36651     36655
     36671     36664     36662     36666     36672     36664     36662     36666
     36682     36675     36673     36677     36683     36675     36673     36677
     36693     36686     36684     36688     36694     36686     36684     36688
     36704     36697     36695     36699     36705     36697     36695     36699
     36715     36708     36706     36710     36716     36708     36706     36710
     36726     36719     36717     36721     36727     36719     36717     36721
     36737     36730     36728     36732     36738     36730     36728     36732
     36748     36741     36739     36743     36749     36741     36739     36743
     36759     36752     36750     36754     36760     36752     36750     36754
     36770     36763     36761     36765     36771     36763     36761     36765
     36781     36774     36772     36776     36782     36774     36772     36776
     36792     36785     36783     36787     36793     36785     36783     36787
     36803     36796     36794     36798     36804     36796     36794     36798
     36814     36807     36805     36809     36815     36807     36805     36809
     36825     36818     36816     36820     36826     36818     36816     36820
     36836     36829     36827     36831     36837     36829     36827     36831
     36847     36840     36838     36842     36848     36840     36838     36842
     36858     36851     36849     36853     36859     36851     36849     36853
     36869     36862     36860     36864     36870     36862     36860     36864
     36880     36873     36871     36875     36881     36873     36871     36875
     36891     36884     36882     36886     36892     36884     36882     36886
     36902     36895     36893     36897     36903     36895     36893     36897
     36913     36906     36904     36908     36914     36906     36904     36908
     36924     36917     36915     36919     36925     36917     36915     36919
     36935     36928     36926     36930     36936     36928     36926     36930
     36946     36939     36937     36941     36947     36939     36937     36941
     36957     36950     36948     36952     36958     36950     36948     36952
     36968     36961     36959     36963     36969     36961     36959     36963
     36979     36972     36970     36974     36980     36972     36970     36974
     36990     36983     36981     36985     36991     36983     36981     36985
     37001     36994     36992     36996     37002     36994     36992     36996
     37012     37005     37003     37007     37013     37005     37003     37007
     37023     37016     37014     37018     37024     37016     37014     37018
     37034     37027     37025     37029     37035     37027     37025     37029
     37045     37038     37036     37040     37046     37038     37036     37040
     37056     37049     37047     37051     37057     37049     37047     37051
     37067     37060     37058     37062     37068     37060     37058     37062
     37078     37071     37069     37073     37079     37071     37069     37073
     37089     37082     37080     37084     37090     37082     37080     37084
     37100     37093     37091     37095     37101     37093     37091     37095
     37111     37104     37102     37106     37112     37104     37102     37106
     37122     37115     37113     37117     37123     37115     37113     37117
     37133     37126     37124     37128     37134     37126     37124     37128
     37144     37137     37135     37139     37145     37137     37135     37139
     37155     37148     37146     37150     37156     37148     37146     37150
     37166     37159     37157     37161     37167     37159     37157     37161
     37177     37170     37168     37172     37178     37170     37168     37172
     37188     37181     37179     37183     37189     37181     37179     37183
     37199     37192     37190     37194     37200     37192     37190     37194
     37210     37203     37201     37205     37211     37203     37201     37205
     37221     37214     37212     37216     37222     37214     37212     37216
     37232     37225     37223     37227     37233     37225     37223     37227
     37243     37236     37234     37238     37244     37236     37234     37238
     37254     37247     37245     37249     37255     37247     37245     37249
     37265     37258     37256     37260     37266     37258     37256     37260
     37276     37269     37267     37271     37277     37269     37267     37271
     37287     37280     37278     37282     37288     37280     37278     37282
     37298     37291     37289     37293     37299     37291     37289     37293
     37309     37302     37300     37304     37310     37302     37300     37304
     37320     37313     37311     37315     37321     37313     37311     37315
     37331     37324     37322     37326     37332     37324     37322     37326
     37342     37335     37333     37337     37343     37335     37333     37337
     37353     37346     37344     37348     37354     37346     37344     37348
     37364     37357     37355     37359     37365     37357     37355     37359
     37375     37368     37366     37370     37376     37368     37366     37370
     37386     37379     37377     37381     37387     37379     37377     37381
     37397     37390     37388     37392     37398     37390     37388     37392
     37408     37401     37399     37403     37409     37401     37399     37403
     37419     37412     37410     37414     37420     37412     37410     37414
     37430     37423     37421     37425     37431     37423     37421     37425
     37441     37434     37432     37436     37442     37434     37432     37436
     37452     37445     37443     37447     37453     37445     37443     37447
     37463     37456     37454     37458     37464     37456     37454     37458
     37474     37467     37465     37469     37475     37467     37465     37469
     37485     37478     37476     37480     37486     37478     37476     37480
     37496     37489     37487     37491     37497     37489     37487     37491
     37507     37500     37498     37502     37508     37500     37498     37502
     37518     37511     37509     37513     37519     37511     37509     37513
     37529     37522     37520     37524     37530     37522     37520     37524
     37540     37533     37531     37535     37541     37533     37531     37535
     37551     37544     37542     37546     37552     37544     37542     37546
     37562     37555     37553     37557     37563     37555     37553     37557
     37573     37566     37564     37568     37574     37566     37564     37568
     37584     37577     37575     37579     37585     37577     37575     37579
     37595     37588     37586     37590     37596     37588     37586     37590
     37606     37599     37597     37601     37607     37599     37597     37601
     37617     37610     37608     37612     37618     37610     37608     37612
     37628     37621     37619     37623     37629     37621     37619     37623
     37639     37632     37630     37634     37640     37632     37630     37634
     37650     37643     37641     37645     37651     37643     37641     37645
     37661     37654     37652     37656     37662     37654     37652     37656
     37672     37665     37663     37667     37673     37665     37663     37667
     37683     37676     37674     37678     37684     37676     37674     37678
     37694     37687     37685     37689     37695     37687     37685     37689
     37705     37698     37696     37700     37706     37698     37696     37700
     37716     37709     37707     37711     37717     37709     37707     37711
     37727     37720     37718     37722     37728     37720     37718     37722
     37738     37731     37729     37733     37739     37731     37729     37733
     37749     37742     37740     37744     37750     37742     37740     37744
     37760     37753     37751     37755     37761     37753     37751     37755
     37771     37764     37762     37766     37772     37764     37762     37766
     37782     37775     37773     37777     37783     37775     37773     37777
     37793     37786     37784     37788     37794     37786     37784     37788
     37804     37797     37795     37799     37805     37797     37795     37799
     37815     37808     37806     37810     37816     37808     37806     37810
     37826     37819     37817     37821     37827     37819     37817     37821
     37837     37830     37828     37832     37838     37830     37828     37832
     37848     37841     37839     37843     37849     37841     37839     37843
     37859     37852     37850     37854     37860     37852     37850     37854
     37870     37863     37861     37865     37871     37863     37861     37865
     37881     37874     37872     37876     37882     37874     37872     37876
     37892     37885     37883     37887     37893     37885     37883     37887
     37903     37896     37894     37898     37904     37896     37894     37898
     37914     37907     37905     37909     37915     37907     37905     37909
     37925     37918     37916     37920     37926     37918     37916     37920
     37936     37929     37927     37931     37937     37929     37927     37931
     37947     37940     37938     37942     37948     37940     37938     37942
     37958     37951     37949     37953     37959     37951     37949     37953
     37969     37962     37960     37964     37970     37962     37960     37964
     37980     37973     37971     37975     37981     37973     37971     37975
     37991     37984     37982     37986     37992     37984     37982     37986
     38002     37995     37993     37997     38003     37995     37993     37997
     38013     38006     38004     38008     38014     38006     38004     38008
     38024     38017     38015     38019     38025     38017     38015     38019
     38035     38028     38026     38030     38036     38028     38026     38030
     38046     38039     38037     38041     38047     38039     38037     38041
     38057     38050     38048     38052     38058     38050     38048     38052
     38068     38061     38059     38063     38069     38061     38059     38063
     38079     38072     38070     38074     38080     38072     38070     38074
     38090     38083     38081     38085     38091     38083     38081     38085
     38101     38094     38092     38096     38102     38094     38092     38096
     38112     38105     38103     38107     38113     38105     38103     38107
     38123     38116     38114     38118     38124     38116     38114     38118
     38134     38127     38125     38129     38135     38127     38125     38129
     38145     38138     38136     38140     38146     38138     38136     38140
     38156     38149     38147     38151     38157     38149     38147     38151
     38167     38160     38158     38162     38168     38160     38158     38162
     38178     38171     38169     38173     38179     38171     38169     38173
     38189     38182     38180     38184     38190     38182     38180     38184
     38200     38193     38191     38195     38201     38193     38191     38195
     38211     38204     38202     38206     38212     38204     38202     38206
     38222     38215     38213     38217     38223     38215     38213     38217
     38233     38226     38224     38228     38234     38226     38224     38228
     38244     38237     38235     38239     38245     38237     38235     38239
     38255     38248     38246     38250     38256     38248     38246     38250
     38266     38259     38257     38261     38267     38259     38257     38261
     38277     38270     38268     38272     38278     38270     38268     38272
     38288     38281     38279     38283     38289     38281     38279     38283
     38299     38292     38290     38294     38300     38292     38290     38294
     38310     38303     38301     38305     38311     38303     38301     38305
     38321     38314     38312     38316     38322     38314     38312     38316
     38332     38325     38323     38327     38333     38325     38323     38327
     38343     38336     38334     38338     38344     38336     38334     38338
     38354     38347     38345     38349     38355     38347     38345     38349
     38365     38358     38356     38360     38366     38358     38356     38360
     38376     38369     38367     38371     38377     38369     38367     38371
     38387     38380     38378     38382     38388     38380     38378     38382
     38398     38391     38389     38393     38399     38391     38389     38393
     38409     38402     38400     38404     38410     38402     38400     38404
     38420     38413     38411     38415     38421     38413     38411     38415
     38431     38424     38422     38426     38432     38424     38422     38426
     38442     38435     38433     38437     38443     38435     38433     38437
     38453     38446     38444     38448     38454     38446     38444     38448
     38464     38457     38455     38459     38465     38457     38455     38459
     38475     38468     38466     38470     38476     38468     38466     38470
     38486     38479     38477     38481     38487     38479     38477     38481
     38497     38490     38488     38492     38498     38490     38488     38492
     38508     38501     38499     38503     38509     38501     38499     38503
     38519     38512     38510     38514     38520     38512     38510     38514
     38530     38523     38521     38525     38531     38523     38521     38525
     38541     38534     38532     38536     38542     38534     38532     38536
     38552     38545     38543     38547     38553     38545     38543     38547
     38563     38556     38554     38558     38564     38556     38554     38558
     38574     38567     38565     38569     38575     38567     38565     38569
     38585     38578     38576     38580     38586     38578     38576     38580
     38596     38589     38587     38591     38597     38589     38587     38591
     38607     38600     38598     38602     38608     38600     38598     38602
     38618     38611     38609     38613     38619     38611     38609     38613
     38629     38622     38620     38624     38630     38622     38620     38624
     38640     38633     38631     38635     38641     38633     38631     38635
     38651     38644     38642     38646     38652     38644     38642     38646
     38662     38655     38653     38657     38663     38655     38653     38657
     38673     38666     38664     38668     38674     38666     38664     38668
     38684     38677     38675     38679     38685     38677     38675     38679
     38695     38688     38686     38690     38696     38688     38686     38690
     38706     38699     38697     38701     38707     38699     38697     38701
     38717     38710     38708     38712     38718     38710     38708     38712
     38728     38721     38719     38723     38729     38721     38719     38723
     38739     38732     38730     38734     38740     38732     38730     38734
     38750     38743     38741     38745     38751     38743     38741     38745
     38761     38754     38752     38756     38762     38754     38752     38756
     38772     38765     38763     38767     38773     38765     38763     38767
     38783     38776     38774     38778     38784     38776     38774     38778
     38794     38787     38785     38789     38795     38787     38785     38789
     38805     38798     38796     38800     38806     38798     38796     38800
     38816     38809     38807     38811     38817     38809     38807     38811
     38827     38820     38818     38822     38828     38820     38818     38822
     38838     38831     38829     38833     38839     38831     38829     38833
     38849     38842     38840     38844     38850     38842     38840     38844
     38860     38853     38851     38855     38861     38853     38851     38855
     38871     38864     38862     38866     38872     38864     38862     38866
     38882     38875     38873     38877     38883     38875     38873     38877
     38893     38886     38884     38888     38894     38886     38884     38888
     38904     38897     38895     38899     38905     38897     38895     38899
     38915     38908     38906     38910     38916     38908     38906     38910
     38926     38919     38917     38921     38927     38919     38917     38921
     38937     38930     38928     38932     38938     38930     38928     38932
     38948     38941     38939     38943     38949     38941     38939     38943
     38959     38952     38950     38954     38960     38952     38950     38954
     38970     38963     38961     38965     38971     38963     38961     38965
     38981     38974     38972     38976     38982     38974     38972     38976
     38992     38985     38983     38987     38993     38985     38983     38987
     39003     38996     38994     38998     39004     38996     38994     38998
     39014     39007     39005     39009     39015     39007     39005     39009
     39025     39018     39016     39020     39026     39018     39016     39020
     39036     39029     39027     39031     39037     39029     39027     39031
     39047     39040     39038     39042     39048     39040     39038     39042
     39058     39051     39049     39053     39059     39051     39049     39053
     39069     39062     39060     39064     39070     39062     39060     39064
     39080     39073     39071     39075     39081     39073     39071     39075
     39091     39084     39082     39086     39092     39084     39082     39086
     39102     39095     39093     39097     39103     39095     39093     39097
     39113     39106     39104     39108     39114     39106     39104     39108
     39124     39117     39115     39119     39125     39117     39115     39119
     39135     39128     39126     39130     39136     39128     39126     39130
     39146     39139     39137     39141     39147     39139     39137     39141
     39157     39150     39148     39152     39158     39150     39148     39152
     39168     39161     39159     39163     39169     39161     39159     39163
     39179     39172     39170     39174     39180     39172     39170     39174
     39190     39183     39181     39185     39191     39183     39181     39185
     39201     39194     39192     39196     39202     39194     39192     39196
     39212     39205     39203     39207     39213     39205     39203     39207
     39223     39216     39214     39218     39224     39216     39214     39218
     39234     39227     39225     39229     39235     39227     39225     39229
     39245     39238     39236     39240     39246     39238     39236     39240
     39256     39249     39247     39251     39257     39249     39247     39251
     39267     39260     39258     39262     39268     39260     39258     39262
     39278     39271     39269     39273     39279     39271     39269     39273
     39289     39282     39280     39284     39290     39282     39280     39284
     39300     39293     39291     39295     39301     39293     39291     39295
     39311     39304     39302     39306     39312     39304     39302     39306
     39322     39315     39313     39317     39323     39315     39313     39317
     39333     39326     39324     39328     39334     39326     39324     39328
     39344     39337     39335     39339     39345     39337     39335     39339
     39355     39348     39346     39350     39356     39348     39346     39350
     39366     39359     39357     39361     39367     39359     39357     39361
     39377     39370     39368     39372     39378     39370     39368     39372
     39388     39381     39379     39383     39389     39381     39379     39383
     39399     39392     39390     39394     39400     39392     39390     39394
     39410     39403     39401     39405     39411     39403     39401     39405
     39421     39414     39412     39416     39422     39414     39412     39416
     39432     39425     39423     39427     39433     39425     39423     39427
     39443     39436     39434     39438     39444     39436     39434     39438
     39454     39447     39445     39449     39455     39447     39445     39449
     39465     39458     39456     39460     39466     39458     39456     39460
     39476     39469     39467     39471     39477     39469     39467     39471
     39487     39480     39478     39482     39488     39480     39478     39482
     39498     39491     39489     39493     39499     39491     39489     39493
     39509     39502     39500     39504     39510     39502     39500     39504
     39520     39513     39511     39515     39521     39513     39511     39515
     39531     39524     39522     39526     39532     39524     39522     39526
     39542     39535     39533     39537     39543     39535     39533     39537
     39553     39546     39544     39548     39554     39546     39544     39548
     39564     39557     39555     39559     39565     39557     39555     39559
     39575     39568     39566     39570     39576     39568     39566     39570
     39586     39579     39577     39581     39587     39579     39577     39581
     39597     39590     39588     39592     39598     39590     39588     39592
     39608     39601     39599     39603     39609     39601     39599     39603
     39619     39612     39610     39614     39620     39612     39610     39614
     39630     39623     39621     39625     39631     39623     39621     39625
     39641     39634     39632     39636     39642     39634     39632     39636
     39652     39645     39643     39647     39653     39645     39643     39647
     39663     39656     39654     39658     39664     39656     39654     39658
     39674     39667     39665     39669     39675     39667     39665     39669
     39685     39678     39676     39680     39686     39678     39676     39680
     39696     39689     39687     39691     39697     39689     39687     39691
     39707     39700     39698     39702     39708     39700     39698     39702
     39718     39711     39709     39713     39719     39711     39709     39713
     39729     39722     39720     39724     39730     39722     39720     39724
     39740     39733     39731     39735     39741     39733     39731     39735
     39751     39744     39742     39746     39752     39744     39742     39746
     39762     39755     39753     39757     39763     39755     39753     39757
     39773     39766     39764     39768     39774     39766     39764     39768
     39784     39777     39775     39779     39785     39777     39775     39779
     39795     39788     39786     39790     39796     39788     39786     39790
     39806     39799     39797     39801     39807     39799     39797     39801
     39817     39810     39808     39812     39818     39810     39808     39812
     39828     39821     39819     39823     39829     39821     39819     39823
     39839     39832     39830     39834     39840     39832     39830     39834
     39850     39843     39841     39845     39851     39843     39841     39845
     39861     39854     39852     39856     39862     39854     39852     39856
     39872     39865     39863     39867     39873     39865     39863     39867
     39883     39876     39874     39878     39884     39876     39874     39878
     39894     39887     39885     39889     39895     39887     39885     39889
     39905     39898     39896     39900     39906     39898     39896     39900
     39916     39909     39907     39911     39917     39909     39907     39911
     39927     39920     39918     39922     39928     39920     39918     39922
     39938     39931     39929     39933     39939     39931     39929     39933
     39949     39942     39940     39944     39950     39942     39940     39944
     39960     39953     39951     39955     39961     39953     39951     39955
     39971     39964     39962     39966     39972     39964     39962     39966
     39982     39975     39973     39977     39983     39975     39973     39977
     39993     39986     39984     39988     39994     39986     39984     39988
     40004     39997     39995     39999     40005     39997     39995     39999
     40015     40008     40006     40010     40016     40008     40006     40010
     40026     40019     40017     40021     40027     40019     40017     40021
     40037     40030     40028     40032     40038     40030     40028     40032
     40048     40041     40039     40043     40049     40041     40039     40043
     40059     40052     40050     40054     40060     40052     40050     40054
     40070     40063     40061     40065     40071     40063     40061     40065
     40081     40074     40072     40076     40082     40074     40072     40076
     40092     40085     40083     40087     40093     40085     40083     40087
     40103     40096     40094     40098     40104     40096     40094     40098
     40114     40107     40105     40109     40115     40107     40105     40109
     40125     40118     40116     40120     40126     40118     40116     40120
     40136     40129     40127     40131     40137     40129     40127     40131
     40147     40140     40138     40142     40148     40140     40138     40142
     40158     40151     40149     40153     40159     40151     40149     40153
     40169     40162     40160     40164     40170     40162     40160     40164
     40180     40173     40171     40175     40181     40173     40171     40175
     40191     40184     40182     40186     40192     40184     40182     40186
     40202     40195     40193     40197     40203     40195     40193     40197
     40213     40206     40204     40208     40214     40206     40204     40208
     40224     40217     40215     40219     40225     40217     40215     40219
     40235     40228     40226     40230     40236     40228     40226     40230
     40246     40239     40237     40241     40247     40239     40237     40241
     40257     40250     40248     40252     40258     40250     40248     40252
     40268     40261     40259     40263     40269     40261     40259     40263
     40279     40272     40270     40274     40280     40272     40270     40274
     40290     40283     40281     40285     40291     40283     40281     40285
     40301     40294     40292     40296     40302     40294     40292     40296
     40312     40305     40303     40307     40313     40305     40303     40307
     40323     40316     40314     40318     40324     40316     40314     40318
     40334     40327     40325     40329     40335     40327     40325     40329
     40345     40338     40336     40340     40346     40338     40336     40340
     40356     40349     40347     40351     40357     40349     40347     40351
     40367     40360     40358     40362     40368     40360     40358     40362
     40378     40371     40369     40373     40379     40371     40369     40373
     40389     40382     40380     40384     40390     40382     40380     40384
     40400     40393     40391     40395     40401     40393     40391     40395
     40411     40404     40402     40406     40412     40404     40402     40406
     40422     40415     40413     40417     40423     40415     40413     40417
     40433     40426     40424     40428     40434     40426     40424     40428
     40444     40437     40435     40439     40445     40437     40435     40439
     40455     40448     40446     40450     40456     40448     40446     40450
     40466     40459     40457     40461     40467     40459     40457     40461
     40477     40470     40468     40472     40478     40470     40468     40472
     40488     40481     40479     40483     40489     40481     40479     40483
     40499     40492     40490     40494     40500     40492     40490     40494
     40510     40503     40501     40505     40511     40503     40501     40505
     40521     40514     40512     40516     40522     40514     40512     40516
     40532     40525     40523     40527     40533     40525     40523     40527
     40543     40536     40534     40538     40544     40536     40534     40538
     40554     40547     40545     40549     40555     40547     40545     40549
     40565     40558     40556     40560     40566     40558     40556     40560
     40576     40569     40567     40571     40577     40569     40567     40571
     40587     40580     40578     40582     40588     40580     40578     40582
     40598     40591     40589     40593     40599     40591     40589     40593
     40609     40602     40600     40604     40610     40602     40600     40604
     40620     40613     40611     40615     40621     40613     40611     40615
     40631     40624     40622     40626     40632     40624     40622     40626
     40642     40635     40633     40637     40643     40635     40633     40637
     40653     40646     40644     40648     40654     40646     40644     40648
     40664     40657     40655     40659     40665     40657     40655     40659
     40675     40668     40666     40670     40676     40668     40666     40670
     40686     40679     40677     40681     40687     40679     40677     40681
     40697     40690     40688     40692     40698     40690     40688     40692
     40708     40701     40699     40703     40709     40701     40699     40703
     40719     40712     40710     40714     40720     40712     40710     40714
     40730     40723     40721     40725     40731     40723     40721     40725
     40741     40734     40732     40736     40742     40734     40732     40736
     40752     40745     40743     40747     40753     40745     40743     40747
     40763     40756     40754     40758     40764     40756     40754     40758
     40774     40767     40765     40769     40775     40767     40765     40769
     40785     40778     40776     40780     40786     40778     40776     40780
     40796     40789     40787     40791     40797     40789     40787     40791
     40807     40800     40798     40802     40808     40800     40798     40802
     40818     40811     40809     40813     40819     40811     40809     40813
     40829     40822     40820     40824     40830     40822     40820     40824
     40840     40833     40831     40835     40841     40833     40831     40835
     40851     40844     40842     40846     40852     40844     40842     40846
     40862     40855     40853     40857     40863     40855     40853     40857
     40873     40866     40864     40868     40874     40866     40864     40868
     40884     40877     40875     40879     40885     40877     40875     40879
     40895     40888     40886     40890     40896     40888     40886     40890
     40906     40899     40897     40901     40907     40899     40897     40901
     40917     40910     40908     40912     40918     40910     40908     40912
     40928     40921     40919     40923     40929     40921     40919     40923
     40939     40932     40930     40934     40940     40932     40930     40934
     40950     40943     40941     40945     40951     40943     40941     40945
     40961     40954     40952     40956     40962     40954     40952     40956
     40972     40965     40963     40967     40973     40965     40963     40967
     40983     40976     40974     40978     40984     40976     40974     40978
     40994     40987     40985     40989     40995     40987     40985     40989
     41005     40998     40996     41000     41006     40998     40996     41000
     41016     41009     41007     41011     41017     41009     41007     41011
     41027     41020     41018     41022     41028     41020     41018     41022
     41038     41031     41029     41033     41039     41031     41029     41033
     41049     41042     41040     41044     41050     41042     41040     41044
     41060     41053     41051     41055     41061     41053     41051     41055
     41071     41064     41062     41066     41072     41064     41062     41066
     41082     41075     41073     41077     41083     41075     41073     41077
     41093     41086     41084     41088     41094     41086     41084     41088
     41104     41097     41095     41099     41105     41097     41095     41099
     41115     41108     41106     41110     41116     41108     41106     41110
     41126     41119     41117     41121     41127     41119     41117     41121
     41137     41130     41128     41132     41138     41130     41128     41132
     41148     41141     41139     41143     41149     41141     41139     41143
     41159     41152     41150     41154     41160     41152     41150     41154
     41170     41163     41161     41165     41171     41163     41161     41165
     41181     41174     41172     41176     41182     41174     41172     41176
     41192     41185     41183     41187     41193     41185     41183     41187
     41203     41196     41194     41198     41204     41196     41194     41198
     41214     41207     41205     41209     41215     41207     41205     41209
     41225     41218     41216     41220     41226     41218     41216     41220
     41236     41229     41227     41231     41237     41229     41227     41231
     41247     41240     41238     41242     41248     41240     41238     41242
     41258     41251     41249     41253     41259     41251     41249     41253
     41269     41262     41260     41264     41270     41262     41260     41264
     41280     41273     41271     41275     41281     41273     41271     41275
     41291     41284     41282     41286     41292     41284     41282     41286
     41302     41295     41293     41297     41303     41295     41293     41297
     41313     41306     41304     41308     41314     41306     41304     41308
     41324     41317     41315     41319     41325     41317     41315     41319
     41335     41328     41326     41330     41336     41328     41326     41330
     41346     41339     41337     41341     41347     41339     41337     41341
     41357     41350     41348     41352     41358     41350     41348     41352
     41368     41361     41359     41363     41369     41361     41359     41363
     41379     41372     41370     41374     41380     41372     41370     41374
     41390     41383     41381     41385     41391     41383     41381     41385
     41401     41394     41392     41396     41402     41394     41392     41396
     41412     41405     41403     41407     41413     41405     41403     41407
     41423     41416     41414     41418     41424     41416     41414     41418
     41434     41427     41425     41429     41435     41427     41425     41429
     41445     41438     41436     41440     41446     41438     41436     41440
     41456     41449     41447     41451     41457     41449     41447     41451
     41467     41460     41458     41462     41468     41460     41458     41462
     41478     41471     41469     41473     41479     41471     41469     41473
     41489     41482     41480     41484     41490     41482     41480     41484
     41500     41493     41491     41495     41501     41493     41491     41495
     41511     41504     41502     41506     41512     41504     41502     41506
     41522     41515     41513     41517     41523     41515     41513     41517
     41533     41526     41524     41528     41534     41526     41524     41528
     41544     41537     41535     41539     41545     41537     41535     41539
     41555     41548     41546     41550     41556     41548     41546     41550
     41566     41559     41557     41561     41567     41559     41557     41561
     41577     41570     41568     41572     41578     41570     41568     41572
     41588     41581     41579     41583     41589     41581     41579     41583
     41599     41592     41590     41594     41600     41592     41590     41594
     41610     41603     41601     41605     41611     41603     41601     41605
     41621     41614     41612     41616     41622     41614     41612     41616
     41632     41625     41623     41627     41633     41625     41623     41627
     41643     41636     41634     41638     41644     41636     41634     41638
     41654     41647     41645     41649     41655     41647     41645     41649
     41665     41658     41656     41660     41666     41658     41656     41660
     41676     41669     41667     41671     41677     41669     41667     41671
     41687     41680     41678     41682     41688     41680     41678     41682
     41698     41691     41689     41693     41699     41691     41689     41693
     41709     41702     41700     41704     41710     41702     41700     41704
     41720     41713     41711     41715     41721     41713     41711     41715
     41731     41724     41722     41726     41732     41724     41722     41726
     41742     41735     41733     41737     41743     41735     41733     41737
     41753     41746     41744     41748     41754     41746     41744     41748
     41764     41757     41755     41759     41765     41757     41755     41759
     41775     41768     41766     41770     41776     41768     41766     41770
     41786     41779     41777     41781     41787     41779     41777     41781
     41797     41790     41788     41792     41798     41790     41788     41792
     41808     41801     41799     41803     41809     41801     41799     41803
     41819     41812     41810     41814     41820     41812     41810     41814
     41830     41823     41821     41825     41831     41823     41821     41825
     41841     41834     41832     41836     41842     41834     41832     41836
     41852     41845     41843     41847     41853     41845     41843     41847
     41863     41856     41854     41858     41864     41856     41854     41858
     41874     41867     41865     41869     41875     41867     41865     41869
     41885     41878     41876     41880     41886     41878     41876     41880
     41896     41889     41887     41891     41897     41889     41887     41891
     41907     41900     41898     41902     41908     41900     41898     41902
     41918     41911     41909     41913     41919     41911     41909     41913
     41929     41922     41920     41924     41930     41922     41920     41924
     41940     41933     41931     41935     41941     41933     41931     41935
     41951     41944     41942     41946     41952     41944     41942     41946
     41962     41955     41953     41957     41963     41955     41953     41957
     41973     41966     41964     41968     41974     41966     41964     41968
     41984     41977     41975     41979     41985     41977     41975     41979
     41995     41988     41986     41990     41996     41988     41986     41990
     42006     41999     41997     42001     42007     41999     41997     42001
     42017     42010     42008     42012     42018     42010     42008     42012
     42028     42021     42019     42023     42029     42021     42019     42023
     42039     42032     42030     42034     42040     42032     42030     42034
     42050     42043     42041     42045     42051     42043     42041     42045
     42061     42054     42052     42056     42062     42054     42052     42056
     42072     42065     42063     42067     42073     42065     42063     42067
     42083     42076     42074     42078     42084     42076     42074     42078
     42094     42087     42085     42089     42095     42087     42085     42089
     42105     42098     42096     42100     42106     42098     42096     42100
     42116     42109     42107     42111     42117     42109     42107     42111
     42127     42120     42118     42122     42128     42120     42118     42122
     42138     42131     42129     42133     42139     42131     42129     42133
     42149     42142     42140     42144     42150     42142     42140     42144
     42160     42153     42151     42155     42161     42153     42151     42155
     42171     42164     42162     42166     42172     42164     42162     42166
     42182     42175     42173     42177     42183     42175     42173     42177
     42193     42186     42184     42188     42194     42186     42184     42188
     42204     42197     42195     42199     42205     42197     42195     42199
     42215     42208     42206     42210     42216     42208     42206     42210
     42226     42219     42217     42221     42227     42219     42217     42221
     42237     42230     42228     42232     42238     42230     42228     42232
     42248     42241     42239     42243     42249     42241     42239     42243
     42259     42252     42250     42254     42260     42252     42250     42254
     42270     42263     42261     42265     42271     42263     42261     42265
     42281     42274     42272     42276     42282     42274     42272     42276
     42292     42285     42283     42287     42293     42285     42283     42287
     42303     42296     42294     42298     42304     42296     42294     42298
     42314     42307     42305     42309     42315     42307     42305     42309
     42325     42318     42316     42320     42326     42318     42316     42320
     42336     42329     42327     42331     42337     42329     42327     42331
     42347     42340     42338     42342     42348     42340     42338     42342
     42358     42351     42349     42353     42359     42351     42349     42353
     42369     42362     42360     42364     42370     42362     42360     42364
     42380     42373     42371     42375     42381     42373     42371     42375
     42391     42384     42382     42386     42392     42384     42382     42386
     42402     42395     42393     42397     42403     42395     42393     42397
     42413     42406     42404     42408     42414     42406     42404     42408
     42424     42417     42415     42419     42425     42417     42415     42419
     42435     42428     42426     42430     42436     42428     42426     42430
     42446     42439     42437     42441     42447     42439     42437     42441
     42457     42450     42448     42452     42458     42450     42448     42452
     42468     42461     42459     42463     42469     42461     42459     42463
     42479     42472     42470     42474     42480     42472     42470     42474
     42490     42483     42481     42485     42491     42483     42481     42485
     42501     42494     42492     42496     42502     42494     42492     42496
     42512     42505     42503     42507     42513     42505     42503     42507
     42523     42516     42514     42518     42524     42516     42514     42518
     42534     42527     42525     42529     42535     42527     42525     42529
     42545     42538     42536     42540     42546     42538     42536     42540
     42556     42549     42547     42551     42557     42549     42547     42551
     42567     42560     42558     42562     42568     42560     42558     42562
     42578     42571     42569     42573     42579     42571     42569     42573
     42589     42582     42580     42584     42590     42582     42580     42584
     42600     42593     42591     42595     42601     42593     42591     42595
     42611     42604     42602     42606     42612     42604     42602     42606
     42622     42615     42613     42617     42623     42615     42613     42617
     42633     42626     42624     42628     42634     42626     42624     42628
     42644     42637     42635     42639     42645     42637     42635     42639
     42655     42648     42646     42650     42656     42648     42646     42650
     42666     42659     42657     42661     42667     42659     42657     42661
     42677     42670     42668     42672     42678     42670     42668     42672
     42688     42681     42679     42683     42689     42681     42679     42683
     42699     42692     42690     42694     42700     42692     42690     42694
     42710     42703     42701     42705     42711     42703     42701     42705
     42721     42714     42712     42716     42722     42714     42712     42716
     42732     42725     42723     42727     42733     42725     42723     42727
     42743     42736     42734     42738     42744     42736     42734     42738
     42754     42747     42745     42749     42755     42747     42745     42749
     42765     42758     42756     42760     42766     42758     42756     42760
     42776     42769     42767     42771     42777     42769     42767     42771
     42787     42780     42778     42782     42788     42780     42778     42782
     42798     42791     42789     42793     42799     42791     42789     42793
     42809     42802     42800     42804     42810     42802     42800     42804
     42820     42813     42811     42815     42821     42813     42811     42815
     42831     42824     42822     42826     42832     42824     42822     42826
     42842     42835     42833     42837     42843     42835     42833     42837
     42853     42846     42844     42848     42854     42846     42844     42848
     42864     42857     42855     42859     42865     42857     42855     42859
     42875     42868     42866     42870     42876     42868     42866     42870
     42886     42879     42877     42881     42887     42879     42877     42881
     42897     42890     42888     42892     42898     42890     42888     42892
     42908     42901     42899     42903     42909     42901     42899     42903
     42919     42912     42910     42914     42920     42912     42910     42914
     42930     42923     42921     42925     42931     42923     42921     42925
     42941     42934     42932     42936     42942     42934     42932     42936
     42952     42945     42943     42947     42953     42945     42943     42947
     42963     42956     42954     42958     42964     42956     42954     42958
     42974     42967     42965     42969     42975     42967     42965     42969
     42985     42978     42976     42980     42986     42978     42976     42980
     42996     42989     42987     42991     42997     42989     42987     42991
     43007     43000     42998     43002     43008     43000     42998     43002
     43018     43011     43009     43013     43019     43011     43009     43013
     43029     43022     43020     43024     43030     43022     43020     43024
     43040     43033     43031     43035     43041     43033     43031     43035
     43051     43044     43042     43046     43052     43044     43042     43046
     43062     43055     43053     43057     43063     43055     43053     43057
     43073     43066     43064     43068     43074     43066     43064     43068
     43084     43077     43075     43079     43085     43077     43075     43079
     43095     43088     43086     43090     43096     43088     43086     43090
     43106     43099     43097     43101     43107     43099     43097     43101
     43117     43110     43108     43112     43118     43110     43108     43112
     43128     43121     43119     43123     43129     43121     43119     43123
     43139     43132     43130     43134     43140     43132     43130     43134
     43150     43143     43141     43145     43151     43143     43141     43145
     43161     43154     43152     43156     43162     43154     43152     43156
     43172     43165     43163     43167     43173     43165     43163     43167
     43183     43176     43174     43178     43184     43176     43174     43178
     43194     43187     43185     43189     43195     43187     43185     43189
     43205     43198     43196     43200     43206     43198     43196     43200
     43216     43209     43207     43211     43217     43209     43207     43211
     43227     43220     43218     43222     43228     43220     43218     43222
     43238     43231     43229     43233     43239     43231     43229     43233
     43249     43242     43240     43244     43250     43242     43240     43244
     43260     43253     43251     43255     43261     43253     43251     43255
     43271     43264     43262     43266     43272     43264     43262     43266
     43282     43275     43273     43277     43283     43275     43273     43277
     43293     43286     43284     43288     43294     43286     43284     43288
     43304     43297     43295     43299     43305     43297     43295     43299
     43315     43308     43306     43310     43316     43308     43306     43310
     43326     43319     43317     43321     43327     43319     43317     43321
     43337     43330     43328     43332     43338     43330     43328     43332
     43348     43341     43339     43343     43349     43341     43339     43343
     43359     43352     43350     43354     43360     43352     43350     43354
     43370     43363     43361     43365     43371     43363     43361     43365
     43381     43374     43372     43376     43382     43374     43372     43376
     43392     43385     43383     43387     43393     43385     43383     43387
     43403     43396     43394     43398     43404     43396     43394     43398
     43414     43407     43405     43409     43415     43407     43405     43409
     43425     43418     43416     43420     43426     43418     43416     43420
     43436     43429     43427     43431     43437     43429     43427     43431
     43447     43440     43438     43442     43448     43440     43438     43442
     43458     43451     43449     43453     43459     43451     43449     43453
     43469     43462     43460     43464     43470     43462     43460     43464
     43480     43473     43471     43475     43481     43473     43471     43475
     43491     43484     43482     43486     43492     43484     43482     43486
     43502     43495     43493     43497     43503     43495     43493     43497
     43513     43506     43504     43508     43514     43506     43504     43508
     43524     43517     43515     43519     43525     43517     43515     43519
     43535     43528     43526     43530     43536     43528     43526     43530
     43546     43539     43537     43541     43547     43539     43537     43541
     43557     43550     43548     43552     43558     43550     43548     43552
     43568     43561     43559     43563     43569     43561     43559     43563
     43579     43572     43570     43574     43580     43572     43570     43574
     43590     43583     43581     43585     43591     43583     43581     43585
     43601     43594     43592     43596     43602     43594     43592     43596
     43612     43605     43603     43607     43613     43605     43603     43607
     43623     43616     43614     43618     43624     43616     43614     43618
     43634     43627     43625     43629     43635     43627     43625     43629
     43645     43638     43636     43640     43646     43638     43636     43640
     43656     43649     43647     43651     43657     43649     43647     43651
     43667     43660     43658     43662     43668     43660     43658     43662
     43678     43671     43669     43673     43679     43671     43669     43673
     43689     43682     43680     43684     43690     43682     43680     43684
     43700     43693     43691     43695     43701     43693     43691     43695
     43711     43704     43702     43706     43712     43704     43702     43706
     43722     43715     43713     43717     43723     43715     43713     43717
     43733     43726     43724     43728     43734     43726     43724     43728
     43744     43737     43735     43739     43745     43737     43735     43739
     43755     43748     43746     43750     43756     43748     43746     43750
     43766     43759     43757     43761     43767     43759     43757     43761
     43777     43770     43768     43772     43778     43770     43768     43772
     43788     43781     43779     43783     43789     43781     43779     43783
     43799     43792     43790     43794     43800     43792     43790     43794
     43810     43803     43801     43805     43811     43803     43801     43805
     43821     43814     43812     43816     43822     43814     43812     43816
     43832     43825     43823     43827     43833     43825     43823     43827
     43843     43836     43834     43838     43844     43836     43834     43838
     43854     43847     43845     43849     43855     43847     43845     43849
     43865     43858     43856     43860     43866     43858     43856     43860
     43876     43869     43867     43871     43877     43869     43867     43871
     43887     43880     43878     43882     43888     43880     43878     43882
     43898     43891     43889     43893     43899     43891     43889     43893
     43909     43902     43900     43904     43910     43902     43900     43904
     43920     43913     43911     43915     43921     43913     43911     43915
     43931     43924     43922     43926     43932     43924     43922     43926
     43942     43935     43933     43937     43943     43935     43933     43937
     43953     43946     43944     43948     43954     43946     43944     43948
     43964     43957     43955     43959     43965     43957     43955     43959
     43975     43968     43966     43970     43976     43968     43966     43970
     43986     43979     43977     43981     43987     43979     43977     43981
     43997     43990     43988     43992     43998     43990     43988     43992
     44008     44001     43999     44003     44009     44001     43999     44003
     44019     44012     44010     44014     44020     44012     44010     44014
     44030     44023     44021     44025     44031     44023     44021     44025
     44041     44034     44032     44036     44042     44034     44032     44036
     44052     44045     44043     44047     44053     44045     44043     44047
     44063     44056     44054     44058     44064     44056     44054     44058
     44074     44067     44065     44069     44075     44067     44065     44069
     44085     44078     44076     44080     44086     44078     44076     44080
     44096     44089     44087     44091     44097     44089     44087     44091
     44107     44100     44098     44102     44108     44100     44098     44102
     44118     44111     44109     44113     44119     44111     44109     44113
     44129     44122     44120     44124     44130     44122     44120     44124
     44140     44133     44131     44135     44141     44133     44131     44135
     44151     44144     44142     44146     44152     44144     44142     44146
     44162     44155     44153     44157     44163     44155     44153     44157
     44173     44166     44164     44168     44174     44166     44164     44168
     44184     44177     44175     44179     44185     44177     44175     44179
     44195     44188     44186     44190     44196     44188     44186     44190
     44206     44199     44197     44201     44207     44199     44197     44201
     44217     44210     44208     44212     44218     44210     44208     44212
     44228     44221     44219     44223     44229     44221     44219     44223
     44239     44232     44230     44234     44240     44232     44230     44234
     44250     44243     44241     44245     44251     44243     44241     44245
     44261     44254     44252     44256     44262     44254     44252     44256
     44272     44265     44263     44267     44273     44265     44263     44267
     44283     44276     44274     44278     44284     44276     44274     44278
     44294     44287     44285     44289     44295     44287     44285     44289
     44305     44298     44296     44300     44306     44298     44296     44300
     44316     44309     44307     44311     44317     44309     44307     44311
     44327     44320     44318     44322     44328     44320     44318     44322
     44338     44331     44329     44333     44339     44331     44329     44333
     44349     44342     44340     44344     44350     44342     44340     44344
     44360     44353     44351     44355     44361     44353     44351     44355
     44371     44364     44362     44366     44372     44364     44362     44366
     44382     44375     44373     44377     44383     44375     44373     44377
     44393     44386     44384     44388     44394     44386     44384     44388
     44404     44397     44395     44399     44405     44397     44395     44399
     44415     44408     44406     44410     44416     44408     44406     44410
     44426     44419     44417     44421     44427     44419     44417     44421
     44437     44430     44428     44432     44438     44430     44428     44432
     44448     44441     44439     44443     44449     44441     44439     44443
     44459     44452     44450     44454     44460     44452     44450     44454
     44470     44463     44461     44465     44471     44463     44461     44465
     44481     44474     44472     44476     44482     44474     44472     44476
     44492     44485     44483     44487     44493     44485     44483     44487
     44503     44496     44494     44498     44504     44496     44494     44498
     44514     44507     44505     44509     44515     44507     44505     44509
     44525     44518     44516     44520     44526     44518     44516     44520
     44536     44529     44527     44531     44537     44529     44527     44531
     44547     44540     44538     44542     44548     44540     44538     44542
     44558     44551     44549     44553     44559     44551     44549     44553
     44569     44562     44560     44564     44570     44562     44560     44564
     44580     44573     44571     44575     44581     44573     44571     44575
     44591     44584     44582     44586     44592     44584     44582     44586
     44602     44595     44593     44597     44603     44595     44593     44597
     44613     44606     44604     44608     44614     44606     44604     44608
     44624     44617     44615     44619     44625     44617     44615     44619
     44635     44628     44626     44630     44636     44628     44626     44630
     44646     44639     44637     44641     44647     44639     44637     44641
     44657     44650     44648     44652     44658     44650     44648     44652
     44668     44661     44659     44663     44669     44661     44659     44663
     44679     44672     44670     44674     44680     44672     44670     44674
     44690     44683     44681     44685     44691     44683     44681     44685
     44701     44694     44692     44696     44702     44694     44692     44696
     44712     44705     44703     44707     44713     44705     44703     44707
     44723     44716     44714     44718     44724     44716     44714     44718
     44734     44727     44725     44729     44735     44727     44725     44729
     44745     44738     44736     44740     44746     44738     44736     44740
     44756     44749     44747     44751     44757     44749     44747     44751
     44767     44760     44758     44762     44768     44760     44758     44762
     44778     44771     44769     44773     44779     44771     44769     44773
     44789     44782     44780     44784     44790     44782     44780     44784
     44800     44793     44791     44795     44801     44793     44791     44795
     44811     44804     44802     44806     44812     44804     44802     44806
     44822     44815     44813     44817     44823     44815     44813     44817
     44833     44826     44824     44828     44834     44826     44824     44828
     44844     44837     44835     44839     44845     44837     44835     44839
     44855     44848     44846     44850     44856     44848     44846     44850
     44866     44859     44857     44861     44867     44859     44857     44861
     44877     44870     44868     44872     44878     44870     44868     44872
     44888     44881     44879     44883     44889     44881     44879     44883
     44899     44892     44890     44894     44900     44892     44890     44894
     44910     44903     44901     44905     44911     44903     44901     44905
     44921     44914     44912     44916     44922     44914     44912     44916
     44932     44925     44923     44927     44933     44925     44923     44927
     44943     44936     44934     44938     44944     44936     44934     44938
     44954     44947     44945     44949     44955     44947     44945     44949
     44965     44958     44956     44960     44966     44958     44956     44960
     44976     44969     44967     44971     44977     44969     44967     44971
     44987     44980     44978     44982     44988     44980     44978     44982
     44998     44991     44989     44993     44999     44991     44989     44993
     45009     45002     45000     45004     45010     45002     45000     45004
     45020     45013     45011     45015     45021     45013     45011     45015
     45031     45024     45022     45026     45032     45024     45022     45026
     45042     45035     45033     45037     45043     45035     45033     45037
     45053     45046     45044     45048     45054     45046     45044     45048
     45064     45057     45055     45059     45065     45057     45055     45059
     45075     45068     45066     45070     45076     45068     45066     45070
     45086     45079     45077     45081     45087     45079     45077     45081
     45097     45090     45088     45092     45098     45090     45088     45092
     45108     45101     45099     45103     45109     45101     45099     45103
     45119     45112     45110     45114     45120     45112     45110     45114
     45130     45123     45121     45125     45131     45123     45121     45125
     45141     45134     45132     45136     45142     45134     45132     45136
     45152     45145     45143     45147     45153     45145     45143     45147
     45163     45156     45154     45158     45164     45156     45154     45158
     45174     45167     45165     45169     45175     45167     45165     45169
     45185     45178     45176     45180     45186     45178     45176     45180
     45196     45189     45187     45191     45197     45189     45187     45191
     45207     45200     45198     45202     45208     45200     45198     45202
     45218     45211     45209     45213     45219     45211     45209     45213
     45229     45222     45220     45224     45230     45222     45220     45224
     45240     45233     45231     45235     45241     45233     45231     45235
     45251     45244     45242     45246     45252     45244     45242     45246
     45262     45255     45253     45257     45263     45255     45253     45257
     45273     45266     45264     45268     45274     45266     45264     45268
     45284     45277     45275     45279     45285     45277     45275     45279
     45295     45288     45286     45290     45296     45288     45286     45290
     45306     45299     45297     45301     45307     45299     45297     45301
     45317     45310     45308     45312     45318     45310     45308     45312
     45328     45321     45319     45323     45329     45321     45319     45323
     45339     45332     45330     45334     45340     45332     45330     45334
     45350     45343     45341     45345     45351     45343     45341     45345
     45361     45354     45352     45356     45362     45354     45352     45356
     45372     45365     45363     45367     45373     45365     45363     45367
     45383     45376     45374     45378     45384     45376     45374     45378
     45394     45387     45385     45389     45395     45387     45385     45389
     45405     45398     45396     45400     45406     45398     45396     45400
     45416     45409     45407     45411     45417     45409     45407     45411
     45427     45420     45418     45422     45428     45420     45418     45422
     45438     45431     45429     45433     45439     45431     45429     45433
     45449     45442     45440     45444     45450     45442     45440     45444
     45460     45453     45451     45455     45461     45453     45451     45455
     45471     45464     45462     45466     45472     45464     45462     45466
     45482     45475     45473     45477     45483     45475     45473     45477
     45493     45486     45484     45488     45494     45486     45484     45488
     45504     45497     45495     45499     45505     45497     45495     45499
     45515     45508     45506     45510     45516     45508     45506     45510
     45526     45519     45517     45521     45527     45519     45517     45521
     45537     45530     45528     45532     45538     45530     45528     45532
     45548     45541     45539     45543     45549     45541     45539     45543
     45559     45552     45550     45554     45560     45552     45550     45554
     45570     45563     45561     45565     45571     45563     45561     45565
     45581     45574     45572     45576     45582     45574     45572     45576
     45592     45585     45583     45587     45593     45585     45583     45587
     45603     45596     45594     45598     45604     45596     45594     45598
     45614     45607     45605     45609     45615     45607     45605     45609
     45625     45618     45616     45620     45626     45618     45616     45620
     45636     45629     45627     45631     45637     45629     45627     45631
     45647     45640     45638     45642     45648     45640     45638     45642
     45658     45651     45649     45653     45659     45651     45649     45653
     45669     45662     45660     45664     45670     45662     45660     45664
     45680     45673     45671     45675     45681     45673     45671     45675
     45691     45684     45682     45686     45692     45684     45682     45686
     45702     45695     45693     45697     45703     45695     45693     45697
     45713     45706     45704     45708     45714     45706     45704     45708
     45724     45717     45715     45719     45725     45717     45715     45719
     45735     45728     45726     45730     45736     45728     45726     45730
     45746     45739     45737     45741     45747     45739     45737     45741
     45757     45750     45748     45752     45758     45750     45748     45752
     45768     45761     45759     45763     45769     45761     45759     45763
     45779     45772     45770     45774     45780     45772     45770     45774
     45790     45783     45781     45785     45791     45783     45781     45785
     45801     45794     45792     45796     45802     45794     45792     45796
     45812     45805     45803     45807     45813     45805     45803     45807
     45823     45816     45814     45818     45824     45816     45814     45818
     45834     45827     45825     45829     45835     45827     45825     45829
     45845     45838     45836     45840     45846     45838     45836     45840
     45856     45849     45847     45851     45857     45849     45847     45851
     45867     45860     45858     45862     45868     45860     45858     45862
     45878     45871     45869     45873     45879     45871     45869     45873
     45889     45882     45880     45884     45890     45882     45880     45884
     45900     45893     45891     45895     45901     45893     45891     45895
     45911     45904     45902     45906     45912     45904     45902     45906
     45922     45915     45913     45917     45923     45915     45913     45917
     45933     45926     45924     45928     45934     45926     45924     45928
     45944     45937     45935     45939     45945     45937     45935     45939
     45955     45948     45946     45950     45956     45948     45946     45950
     45966     45959     45957     45961     45967     45959     45957     45961
     45977     45970     45968     45972     45978     45970     45968     45972
     45988     45981     45979     45983     45989     45981     45979     45983
     45999     45992     45990     45994     46000     45992     45990     45994
     46010     46003     46001     46005     46011     46003     46001     46005
     46021     46014     46012     46016     46022     46014     46012     46016
     46032     46025     46023     46027     46033     46025     46023     46027
     46043     46036     46034     46038     46044     46036     46034     46038
     46054     46047     46045     46049     46055     46047     46045     46049
     46065     46058     46056     46060     46066     46058     46056     46060
     46076     46069     46067     46071     46077     46069     46067     46071
     46087     46080     46078     46082     46088     46080     46078     46082
     46098     46091     46089     46093     46099     46091     46089     46093
     46109     46102     46100     46104     46110     46102     46100     46104
     46120     46113     46111     46115     46121     46113     46111     46115
     46131     46124     46122     46126     46132     46124     46122     46126
     46142     46135     46133     46137     46143     46135     46133     46137
     46153     46146     46144     46148     46154     46146     46144     46148
     46164     46157     46155     46159     46165     46157     46155     46159
     46175     46168     46166     46170     46176     46168     46166     46170
     46186     46179     46177     46181     46187     46179     46177     46181
     46197     46190     46188     46192     46198     46190     46188     46192
     46208     46201     46199     46203     46209     46201     46199     46203
     46219     46212     46210     46214     46220     46212     46210     46214
     46230     46223     46221     46225     46231     46223     46221     46225
     46241     46234     46232     46236     46242     46234     46232     46236
     46252     46245     46243     46247     46253     46245     46243     46247
     46263     46256     46254     46258     46264     46256     46254     46258
     46274     46267     46265     46269     46275     46267     46265     46269
     46285     46278     46276     46280     46286     46278     46276     46280
     46296     46289     46287     46291     46297     46289     46287     46291
     46307     46300     46298     46302     46308     46300     46298     46302
     46318     46311     46309     46313     46319     46311     46309     46313
     46329     46322     46320     46324     46330     46322     46320     46324
     46340     46333     46331     46335     46341     46333     46331     46335
     46351     46344     46342     46346     46352     46344     46342     46346
     46362     46355     46353     46357     46363     46355     46353     46357
     46373     46366     46364     46368     46374     46366     46364     46368
     46384     46377     46375     46379     46385     46377     46375     46379
     46395     46388     46386     46390     46396     46388     46386     46390
     46406     46399     46397     46401     46407     46399     46397     46401
     46417     46410     46408     46412     46418     46410     46408     46412
     46428     46421     46419     46423     46429     46421     46419     46423
     46439     46432     46430     46434     46440     46432     46430     46434
     46450     46443     46441     46445     46451     46443     46441     46445
     46461     46454     46452     46456     46462     46454     46452     46456
     46472     46465     46463     46467     46473     46465     46463     46467
     46483     46476     46474     46478     46484     46476     46474     46478
     46494     46487     46485     46489     46495     46487     46485     46489
     46505     46498     46496     46500     46506     46498     46496     46500
     46516     46509     46507     46511     46517     46509     46507     46511
     46527     46520     46518     46522     46528     46520     46518     46522
     46538     46531     46529     46533     46539     46531     46529     46533
     46549     46542     46540     46544     46550     46542     46540     46544
     46560     46553     46551     46555     46561     46553     46551     46555
     46571     46564     46562     46566     46572     46564     46562     46566
     46582     46575     46573     46577     46583     46575     46573     46577
     46593     46586     46584     46588     46594     46586     46584     46588
     46604     46597     46595     46599     46605     46597     46595     46599
     46615     46608     46606     46610     46616     46608     46606     46610
     46626     46619     46617     46621     46627     46619     46617     46621
     46637     46630     46628     46632     46638     46630     46628     46632
     46648     46641     46639     46643     46649     46641     46639     46643
     46659     46652     46650     46654     46660     46652     46650     46654
     46670     46663     46661     46665     46671     46663     46661     46665
     46681     46674     46672     46676     46682     46674     46672     46676
     46692     46685     46683     46687     46693     46685     46683     46687
     46703     46696     46694     46698     46704     46696     46694     46698
     46714     46707     46705     46709     46715     46707     46705     46709
     46725     46718     46716     46720     46726     46718     46716     46720
     46736     46729     46727     46731     46737     46729     46727     46731
     46747     46740     46738     46742     46748     46740     46738     46742
     46758     46751     46749     46753     46759     46751     46749     46753
     46769     46762     46760     46764     46770     46762     46760     46764
     46780     46773     46771     46775     46781     46773     46771     46775
     46791     46784     46782     46786     46792     46784     46782     46786
     46802     46795     46793     46797     46803     46795     46793     46797
     46813     46806     46804     46808     46814     46806     46804     46808
     46824     46817     46815     46819     46825     46817     46815     46819
     46835     46828     46826     46830     46836     46828     46826     46830
     46846     46839     46837     46841     46847     46839     46837     46841
     46857     46850     46848     46852     46858     46850     46848     46852
     46868     46861     46859     46863     46869     46861     46859     46863
     46879     46872     46870     46874     46880     46872     46870     46874
     46890     46883     46881     46885     46891     46883     46881     46885
     46901     46894     46892     46896     46902     46894     46892     46896
     46912     46905     46903     46907     46913     46905     46903     46907
     46923     46916     46914     46918     46924     46916     46914     46918
     46934     46927     46925     46929     46935     46927     46925     46929
     46945     46938     46936     46940     46946     46938     46936     46940
     46956     46949     46947     46951     46957     46949     46947     46951
     46967     46960     46958     46962     46968     46960     46958     46962
     46978     46971     46969     46973     46979     46971     46969     46973
     46989     46982     46980     46984     46990     46982     46980     46984
     47000     46993     46991     46995     47001     46993     46991     46995
     47011     47004     47002     47006     47012     47004     47002     47006
     47022     47015     47013     47017     47023     47015     47013     47017
     47033     47026     47024     47028     47034     47026     47024     47028
     47044     47037     47035     47039     47045     47037     47035     47039
     47055     47048     47046     47050     47056     47048     47046     47050
     47066     47059     47057     47061     47067     47059     47057     47061
     47077     47070     47068     47072     47078     47070     47068     47072
     47088     47081     47079     47083     47089     47081     47079     47083
     47099     47092     47090     47094     47100     47092     47090     47094
     47110     47103     47101     47105     47111     47103     47101     47105
     47121     47114     47112     47116     47122     47114     47112     47116
     47132     47125     47123     47127     47133     47125     47123     47127
     47143     47136     47134     47138     47144     47136     47134     47138
     47154     47147     47145     47149     47155     47147     47145     47149
     47165     47158     47156     47160     47166     47158     47156     47160
     47176     47169     47167     47171     47177     47169     47167     47171
     47187     47180     47178     47182     47188     47180     47178     47182
     47198     47191     47189     47193     47199     47191     47189     47193
     47209     47202     47200     47204     47210     47202     47200     47204
     47220     47213     47211     47215     47221     47213     47211     47215
     47231     47224     47222     47226     47232     47224     47222     47226
     47242     47235     47233     47237     47243     47235     47233     47237
     47253     47246     47244     47248     47254     47246     47244     47248
     47264     47257     47255     47259     47265     47257     47255     47259
     47275     47268     47266     47270     47276     47268     47266     47270
     47286     47279     47277     47281     47287     47279     47277     47281
     47297     47290     47288     47292     47298     47290     47288     47292
     47308     47301     47299     47303     47309     47301     47299     47303
     47319     47312     47310     47314     47320     47312     47310     47314
     47330     47323     47321     47325     47331     47323     47321     47325
     47341     47334     47332     47336     47342     47334     47332     47336
     47352     47345     47343     47347     47353     47345     47343     47347
     47363     47356     47354     47358     47364     47356     47354     47358
     47374     47367     47365     47369     47375     47367     47365     47369
     47385     47378     47376     47380     47386     47378     47376     47380
     47396     47389     47387     47391     47397     47389     47387     47391
     47407     47400     47398     47402     47408     47400     47398     47402
     47418     47411     47409     47413     47419     47411     47409     47413
     47429     47422     47420     47424     47430     47422     47420     47424
     47440     47433     47431     47435     47441     47433     47431     47435
     47451     47444     47442     47446     47452     47444     47442     47446
     47462     47455     47453     47457     47463     47455     47453     47457
     47473     47466     47464     47468     47474     47466     47464     47468
     47484     47477     47475     47479     47485     47477     47475     47479
     47495     47488     47486     47490     47496     47488     47486     47490
     47506     47499     47497     47501     47507     47499     47497     47501
     47517     47510     47508     47512     47518     47510     47508     47512
     47528     47521     47519     47523     47529     47521     47519     47523
     47539     47532     47530     47534     47540     47532     47530     47534
     47550     47543     47541     47545     47551     47543     47541     47545
     47561     47554     47552     47556     47562     47554     47552     47556
     47572     47565     47563     47567     47573     47565     47563     47567
     47583     47576     47574     47578     47584     47576     47574     47578
     47594     47587     47585     47589     47595     47587     47585     47589
     47605     47598     47596     47600     47606     47598     47596     47600
     47616     47609     47607     47611     47617     47609     47607     47611
     47627     47620     47618     47622     47628     47620     47618     47622
     47638     47631     47629     47633     47639     47631     47629     47633
     47649     47642     47640     47644     47650     47642     47640     47644
     47660     47653     47651     47655     47661     47653     47651     47655
     47671     47664     47662     47666     47672     47664     47662     47666
     47682     47675     47673     47677     47683     47675     47673     47677
     47693     47686     47684     47688     47694     47686     47684     47688
     47704     47697     47695     47699     47705     47697     47695     47699
     47715     47708     47706     47710     47716     47708     47706     47710
     47726     47719     47717     47721     47727     47719     47717     47721
     47737     47730     47728     47732     47738     47730     47728     47732
     47748     47741     47739     47743     47749     47741     47739     47743
     47759     47752     47750     47754     47760     47752     47750     47754
     47770     47763     47761     47765     47771     47763     47761     47765
     47781     47774     47772     47776     47782     47774     47772     47776
     47792     47785     47783     47787     47793     47785     47783     47787
     47803     47796     47794     47798     47804     47796     47794     47798
     47814     47807     47805     47809     47815     47807     47805     47809
     47825     47818     47816     47820     47826     47818     47816     47820
     47836     47829     47827     47831     47837     47829     47827     47831
     47847     47840     47838     47842     47848     47840     47838     47842
     47858     47851     47849     47853     47859     47851     47849     47853
     47869     47862     47860     47864     47870     47862     47860     47864
     47880     47873     47871     47875     47881     47873     47871     47875
     47891     47884     47882     47886     47892     47884     47882     47886
     47902     47895     47893     47897     47903     47895     47893     47897
     47913     47906     47904     47908     47914     47906     47904     47908
     47924     47917     47915     47919     47925     47917     47915     47919
     47935     47928     47926     47930     47936     47928     47926     47930
     47946     47939     47937     47941     47947     47939     47937     47941
     47957     47950     47948     47952     47958     47950     47948     47952
     47968     47961     47959     47963     47969     47961     47959     47963
     47979     47972     47970     47974     47980     47972     47970     47974
     47990     47983     47981     47985     47991     47983     47981     47985
     48001     47994     47992     47996     48002     47994     47992     47996
     48012     48005     48003     48007     48013     48005     48003     48007
     48023     48016     48014     48018     48024     48016     48014     48018
     48034     48027     48025     48029     48035     48027     48025     48029
     48045     48038     48036     48040     48046     48038     48036     48040
     48056     48049     48047     48051     48057     48049     48047     48051
     48067     48060     48058     48062     48068     48060     48058     48062
     48078     48071     48069     48073     48079     48071     48069     48073
     48089     48082     48080     48084     48090     48082     48080     48084
     48100     48093     48091     48095     48101     48093     48091     48095
     48111     48104     48102     48106     48112     48104     48102     48106
     48122     48115     48113     48117     48123     48115     48113     48117
     48133     48126     48124     48128     48134     48126     48124     48128
     48144     48137     48135     48139     48145     48137     48135     48139
     48155     48148     48146     48150     48156     48148     48146     48150
     48166     48159     48157     48161     48167     48159     48157     48161
     48177     48170     48168     48172     48178     48170     48168     48172
     48188     48181     48179     48183     48189     48181     48179     48183
     48199     48192     48190     48194     48200     48192     48190     48194
     48210     48203     48201     48205     48211     48203     48201     48205
     48221     48214     48212     48216     48222     48214     48212     48216
     48232     48225     48223     48227     48233     48225     48223     48227
     48243     48236     48234     48238     48244     48236     48234     48238
     48254     48247     48245     48249     48255     48247     48245     48249
     48265     48258     48256     48260     48266     48258     48256     48260
     48276     48269     48267     48271     48277     48269     48267     48271
     48287     48280     48278     48282     48288     48280     48278     48282
     48298     48291     48289     48293     48299     48291     48289     48293
     48309     48302     48300     48304     48310     48302     48300     48304
     48320     48313     48311     48315     48321     48313     48311     48315
     48331     48324     48322     48326     48332     48324     48322     48326
     48342     48335     48333     48337     48343     48335     48333     48337
     48353     48346     48344     48348     48354     48346     48344     48348
     48364     48357     48355     48359     48365     48357     48355     48359
     48375     48368     48366     48370     48376     48368     48366     48370
     48386     48379     48377     48381     48387     48379     48377     48381
     48397     48390     48388     48392     48398     48390     48388     48392
     48408     48401     48399     48403     48409     48401     48399     48403
     48419     48412     48410     48414     48420     48412     48410     48414
     48430     48423     48421     48425     48431     48423     48421     48425
     48441     48434     48432     48436     48442     48434     48432     48436
     48452     48445     48443     48447     48453     48445     48443     48447
     48463     48456     48454     48458     48464     48456     48454     48458
     48474     48467     48465     48469     48475     48467     48465     48469
     48485     48478     48476     48480     48486     48478     48476     48480
     48496     48489     48487     48491     48497     48489     48487     48491
     48507     48500     48498     48502     48508     48500     48498     48502
     48518     48511     48509     48513     48519     48511     48509     48513
     48529     48522     48520     48524     48530     48522     48520     48524
     48540     48533     48531     48535     48541     48533     48531     48535
     48551     48544     48542     48546     48552     48544     48542     48546
     48562     48555     48553     48557     48563     48555     48553     48557
     48573     48566     48564     48568     48574     48566     48564     48568
     48584     48577     48575     48579     48585     48577     48575     48579
     48595     48588     48586     48590     48596     48588     48586     48590
     48606     48599     48597     48601     48607     48599     48597     48601
     48617     48610     48608     48612     48618     48610     48608     48612
     48628     48621     48619     48623     48629     48621     48619     48623
     48639     48632     48630     48634     48640     48632     48630     48634
     48650     48643     48641     48645     48651     48643     48641     48645
     48661     48654     48652     48656     48662     48654     48652     48656
     48672     48665     48663     48667     48673     48665     48663     48667
     48683     48676     48674     48678     48684     48676     48674     48678
     48694     48687     48685     48689     48695     48687     48685     48689
     48705     48698     48696     48700     48706     48698     48696     48700
     48716     48709     48707     48711     48717     48709     48707     48711
     48727     48720     48718     48722     48728     48720     48718     48722
     48738     48731     48729     48733     48739     48731     48729     48733
     48749     48742     48740     48744     48750     48742     48740     48744
     48760     48753     48751     48755     48761     48753     48751     48755
     48771     48764     48762     48766     48772     48764     48762     48766
     48782     48775     48773     48777     48783     48775     48773     48777
     48793     48786     48784     48788     48794     48786     48784     48788
     48804     48797     48795     48799     48805     48797     48795     48799
     48815     48808     48806     48810     48816     48808     48806     48810
     48826     48819     48817     48821     48827     48819     48817     48821
     48837     48830     48828     48832     48838     48830     48828     48832
     48848     48841     48839     48843     48849     48841     48839     48843
     48859     48852     48850     48854     48860     48852     48850     48854
     48870     48863     48861     48865     48871     48863     48861     48865
     48881     48874     48872     48876     48882     48874     48872     48876
     48892     48885     48883     48887     48893     48885     48883     48887
     48903     48896     48894     48898     48904     48896     48894     48898
     48914     48907     48905     48909     48915     48907     48905     48909
     48925     48918     48916     48920     48926     48918     48916     48920
     48936     48929     48927     48931     48937     48929     48927     48931
     48947     48940     48938     48942     48948     48940     48938     48942
     48958     48951     48949     48953     48959     48951     48949     48953
     48969     48962     48960     48964     48970     48962     48960     48964
     48980     48973     48971     48975     48981     48973     48971     48975
     48991     48984     48982     48986     48992     48984     48982     48986
     49002     48995     48993     48997     49003     48995     48993     48997
     49013     49006     49004     49008     49014     49006     49004     49008
     49024     49017     49015     49019     49025     49017     49015     49019
     49035     49028     49026     49030     49036     49028     49026     49030
     49046     49039     49037     49041     49047     49039     49037     49041
     49057     49050     49048     49052     49058     49050     49048     49052
     49068     49061     49059     49063     49069     49061     49059     49063
     49079     49072     49070     49074     49080     49072     49070     49074
     49090     49083     49081     49085     49091     49083     49081     49085
     49101     49094     49092     49096     49102     49094     49092     49096
     49112     49105     49103     49107     49113     49105     49103     49107
     49123     49116     49114     49118     49124     49116     49114     49118
     49134     49127     49125     49129     49135     49127     49125     49129
     49145     49138     49136     49140     49146     49138     49136     49140
     49156     49149     49147     49151     49157     49149     49147     49151
     49167     49160     49158     49162     49168     49160     49158     49162
     49178     49171     49169     49173     49179     49171     49169     49173
     49189     49182     49180     49184     49190     49182     49180     49184
     49200     49193     49191     49195     49201     49193     49191     49195
     49211     49204     49202     49206     49212     49204     49202     49206
     49222     49215     49213     49217     49223     49215     49213     49217
     49233     49226     49224     49228     49234     49226     49224     49228
     49244     49237     49235     49239     49245     49237     49235     49239
     49255     49248     49246     49250     49256     49248     49246     49250
     49266     49259     49257     49261     49267     49259     49257     49261
     49277     49270     49268     49272     49278     49270     49268     49272
     49288     49281     49279     49283     49289     49281     49279     49283
     49299     49292     49290     49294     49300     49292     49290     49294
     49310     49303     49301     49305     49311     49303     49301     49305
     49321     49314     49312     49316     49322     49314     49312     49316
     49332     49325     49323     49327     49333     49325     49323     49327
     49343     49336     49334     49338     49344     49336     49334     49338
     49354     49347     49345     49349     49355     49347     49345     49349
     49365     49358     49356     49360     49366     49358     49356     49360
     49376     49369     49367     49371     49377     49369     49367     49371
     49387     49380     49378     49382     49388     49380     49378     49382
     49398     49391     49389     49393     49399     49391     49389     49393
     49409     49402     49400     49404     49410     49402     49400     49404
     49420     49413     49411     49415     49421     49413     49411     49415
     49431     49424     49422     49426     49432     49424     49422     49426
     49442     49435     49433     49437     49443     49435     49433     49437
     49453     49446     49444     49448     49454     49446     49444     49448
     49464     49457     49455     49459     49465     49457     49455     49459
     49475     49468     49466     49470     49476     49468     49466     49470
     49486     49479     49477     49481     49487     49479     49477     49481
     49497     49490     49488     49492     49498     49490     49488     49492
     49508     49501     49499     49503     49509     49501     49499     49503
     49519     49512     49510     49514     49520     49512     49510     49514
     49530     49523     49521     49525     49531     49523     49521     49525
     49541     49534     49532     49536     49542     49534     49532     49536
     49552     49545     49543     49547     49553     49545     49543     49547
     49563     49556     49554     49558     49564     49556     49554     49558
     49574     49567     49565     49569     49575     49567     49565     49569
     49585     49578     49576     49580     49586     49578     49576     49580
     49596     49589     49587     49591     49597     49589     49587     49591
     49607     49600     49598     49602     49608     49600     49598     49602
     49618     49611     49609     49613     49619     49611     49609     49613
     49629     49622     49620     49624     49630     49622     49620     49624
     49640     49633     49631     49635     49641     49633     49631     49635
     49651     49644     49642     49646     49652     49644     49642     49646
     49662     49655     49653     49657     49663     49655     49653     49657
     49673     49666     49664     49668     49674     49666     49664     49668
     49684     49677     49675     49679     49685     49677     49675     49679
     49695     49688     49686     49690     49696     49688     49686     49690
     49706     49699     49697     49701     49707     49699     49697     49701
     49717     49710     49708     49712     49718     49710     49708     49712
     49728     49721     49719     49723     49729     49721     49719     49723
     49739     49732     49730     49734     49740     49732     49730     49734
     49750     49743     49741     49745     49751     49743     49741     49745
     49761     49754     49752     49756     49762     49754     49752     49756
     49772     49765     49763     49767     49773     49765     49763     49767
     49783     49776     49774     49778     49784     49776     49774     49778
     49794     49787     49785     49789     49795     49787     49785     49789
     49805     49798     49796     49800     49806     49798     49796     49800
     49816     49809     49807     49811     49817     49809     49807     49811
     49827     49820     49818     49822     49828     49820     49818     49822
     49838     49831     49829     49833     49839     49831     49829     49833
     49849     49842     49840     49844     49850     49842     49840     49844
     49860     49853     49851     49855     49861     49853     49851     49855
     49871     49864     49862     49866     49872     49864     49862     49866
     49882     49875     49873     49877     49883     49875     49873     49877
     49893     49886     49884     49888     49894     49886     49884     49888
     49904     49897     49895     49899     49905     49897     49895     49899
     49915     49908     49906     49910     49916     49908     49906     49910
     49926     49919     49917     49921     49927     49919     49917     49921
     49937     49930     49928     49932     49938     49930     49928     49932
     49948     49941     49939     49943     49949     49941     49939     49943
     49959     49952     49950     49954     49960     49952     49950     49954
     49970     49963     49961     49965     49971     49963     49961     49965
     49981     49974     49972     49976     49982     49974     49972     49976
     49992     49985     49983     49987     49993     49985     49983     49987
     50003     49996     49994     49998     50004     49996     49994     49998
     50014     50007     50005     50009     50015     50007     50005     50009
     50025     50018     50016     50020     50026     50018     50016     50020
     50036     50029     50027     50031     50037     50029     50027     50031
     50047     50040     50038     50042     50048     50040     50038     50042
     50058     50051     50049     50053     50059     50051     50049     50053
     50069     50062     50060     50064     50070     50062     50060     50064
     50080     50073     50071     50075     50081     50073     50071     50075
     50091     50084     50082     50086     50092     50084     50082     50086
     50102     50095     50093     50097     50103     50095     50093     50097
     50113     50106     50104     50108     50114     50106     50104     50108
     50124     50117     50115     50119     50125     50117     50115     50119
     50135     50128     50126     50130     50136     50128     50126     50130
     50146     50139     50137     50141     50147     50139     50137     50141
     50157     50150     50148     50152     50158     50150     50148     50152
     50168     50161     50159     50163     50169     50161     50159     50163
     50179     50172     50170     50174     50180     50172     50170     50174
     50190     50183     50181     50185     50191     50183     50181     50185
     50201     50194     50192     50196     50202     50194     50192     50196
     50212     50205     50203     50207     50213     50205     50203     50207
     50223     50216     50214     50218     50224     50216     50214     50218
     50234     50227     50225     50229     50235     50227     50225     50229
     50245     50238     50236     50240     50246     50238     50236     50240
     50256     50249     50247     50251     50257     50249     50247     50251
     50267     50260     50258     50262     50268     50260     50258     50262
     50278     50271     50269     50273     50279     50271     50269     50273
     50289     50282     50280     50284     50290     50282     50280     50284
     50300     50293     50291     50295     50301     50293     50291     50295
     50311     50304     50302     50306     50312     50304     50302     50306
     50322     50315     50313     50317     50323     50315     50313     50317
     50333     50326     50324     50328     50334     50326     50324     50328
     50344     50337     50335     50339     50345     50337     50335     50339
     50355     50348     50346     50350     50356     50348     50346     50350
     50366     50359     50357     50361     50367     50359     50357     50361
     50377     50370     50368     50372     50378     50370     50368     50372
     50388     50381     50379     50383     50389     50381     50379     50383
     50399     50392     50390     50394     50400     50392     50390     50394
     50410     50403     50401     50405     50411     50403     50401     50405
     50421     50414     50412     50416     50422     50414     50412     50416
     50432     50425     50423     50427     50433     50425     50423     50427
     50443     50436     50434     50438     50444     50436     50434     50438
     50454     50447     50445     50449     50455     50447     50445     50449
     50465     50458     50456     50460     50466     50458     50456     50460
     50476     50469     50467     50471     50477     50469     50467     50471
     50487     50480     50478     50482     50488     50480     50478     50482
     50498     50491     50489     50493     50499     50491     50489     50493
     50509     50502     50500     50504     50510     50502     50500     50504
     50520     50513     50511     50515     50521     50513     50511     50515
     50531     50524     50522     50526     50532     50524     50522     50526
     50542     50535     50533     50537     50543     50535     50533     50537
     50553     50546     50544     50548     50554     50546     50544     50548
     50564     50557     50555     50559     50565     50557     50555     50559
     50575     50568     50566     50570     50576     50568     50566     50570
     50586     50579     50577     50581     50587     50579     50577     50581
     50597     50590     50588     50592     50598     50590     50588     50592
     50608     50601     50599     50603     50609     50601     50599     50603
     50619     50612     50610     50614     50620     50612     50610     50614
     50630     50623     50621     50625     50631     50623     50621     50625
     50641     50634     50632     50636     50642     50634     50632     50636
     50652     50645     50643     50647     50653     50645     50643     50647
     50663     50656     50654     50658     50664     50656     50654     50658
     50674     50667     50665     50669     50675     50667     50665     50669
     50685     50678     50676     50680     50686     50678     50676     50680
     50696     50689     50687     50691     50697     50689     50687     50691
     50707     50700     50698     50702     50708     50700     50698     50702
     50718     50711     50709     50713     50719     50711     50709     50713
     50729     50722     50720     50724     50730     50722     50720     50724
     50740     50733     50731     50735     50741     50733     50731     50735
     50751     50744     50742     50746     50752     50744     50742     50746
     50762     50755     50753     50757     50763     50755     50753     50757
     50773     50766     50764     50768     50774     50766     50764     50768
     50784     50777     50775     50779     50785     50777     50775     50779
     50795     50788     50786     50790     50796     50788     50786     50790
     50806     50799     50797     50801     50807     50799     50797     50801
     50817     50810     50808     50812     50818     50810     50808     50812
     50828     50821     50819     50823     50829     50821     50819     50823
     50839     50832     50830     50834     50840     50832     50830     50834
     50850     50843     50841     50845     50851     50843     50841     50845
     50861     50854     50852     50856     50862     50854     50852     50856
     50872     50865     50863     50867     50873     50865     50863     50867
     50883     50876     50874     50878     50884     50876     50874     50878
     50894     50887     50885     50889     50895     50887     50885     50889
     50905     50898     50896     50900     50906     50898     50896     50900
     50916     50909     50907     50911     50917     50909     50907     50911
     50927     50920     50918     50922     50928     50920     50918     50922
     50938     50931     50929     50933     50939     50931     50929     50933
     50949     50942     50940     50944     50950     50942     50940     50944
     50960     50953     50951     50955     50961     50953     50951     50955
     50971     50964     50962     50966     50972     50964     50962     50966
     50982     50975     50973     50977     50983     50975     50973     50977
     50993     50986     50984     50988     50994     50986     50984     50988
     51004     50997     50995     50999     51005     50997     50995     50999
     51015     51008     51006     51010     51016     51008     51006     51010
     51026     51019     51017     51021     51027     51019     51017     51021
     51037     51030     51028     51032     51038     51030     51028     51032
     51048     51041     51039     51043     51049     51041     51039     51043
     51059     51052     51050     51054     51060     51052     51050     51054
     51070     51063     51061     51065     51071     51063     51061     51065
     51081     51074     51072     51076     51082     51074     51072     51076
     51092     51085     51083     51087     51093     51085     51083     51087
     51103     51096     51094     51098     51104     51096     51094     51098
     51114     51107     51105     51109     51115     51107     51105     51109
     51125     51118     51116     51120     51126     51118     51116     51120
     51136     51129     51127     51131     51137     51129     51127     51131
     51147     51140     51138     51142     51148     51140     51138     51142
     51158     51151     51149     51153     51159     51151     51149     51153
     51169     51162     51160     51164     51170     51162     51160     51164
     51180     51173     51171     51175     51181     51173     51171     51175
     51191     51184     51182     51186     51192     51184     51182     51186
     51202     51195     51193     51197     51203     51195     51193     51197
     51213     51206     51204     51208     51214     51206     51204     51208
     51224     51217     51215     51219     51225     51217     51215     51219
     51235     51228     51226     51230     51236     51228     51226     51230
     51246     51239     51237     51241     51247     51239     51237     51241
     51257     51250     51248     51252     51258     51250     51248     51252
     51268     51261     51259     51263     51269     51261     51259     51263
     51279     51272     51270     51274     51280     51272     51270     51274
     51290     51283     51281     51285     51291     51283     51281     51285
     51301     51294     51292     51296     51302     51294     51292     51296
     51312     51305     51303     51307     51313     51305     51303     51307
     51323     51316     51314     51318     51324     51316     51314     51318
     51334     51327     51325     51329     51335     51327     51325     51329
     51345     51338     51336     51340     51346     51338     51336     51340
     51356     51349     51347     51351     51357     51349     51347     51351
     51367     51360     51358     51362     51368     51360     51358     51362
     51378     51371     51369     51373     51379     51371     51369     51373
     51389     51382     51380     51384     51390     51382     51380     51384
     51400     51393     51391     51395     51401     51393     51391     51395
     51411     51404     51402     51406     51412     51404     51402     51406
     51422     51415     51413     51417     51423     51415     51413     51417
     51433     51426     51424     51428     51434     51426     51424     51428
     51444     51437     51435     51439     51445     51437     51435     51439
     51455     51448     51446     51450     51456     51448     51446     51450
     51466     51459     51457     51461     51467     51459     51457     51461
     51477     51470     51468     51472     51478     51470     51468     51472
     51488     51481     51479     51483     51489     51481     51479     51483
     51499     51492     51490     51494     51500     51492     51490     51494
     51510     51503     51501     51505     51511     51503     51501     51505
     51521     51514     51512     51516     51522     51514     51512     51516
     51532     51525     51523     51527     51533     51525     51523     51527
     51543     51536     51534     51538     51544     51536     51534     51538
     51554     51547     51545     51549     51555     51547     51545     51549
     51565     51558     51556     51560     51566     51558     51556     51560
     51576     51569     51567     51571     51577     51569     51567     51571
     51587     51580     51578     51582     51588     51580     51578     51582
     51598     51591     51589     51593     51599     51591     51589     51593
     51609     51602     51600     51604     51610     51602     51600     51604
     51620     51613     51611     51615     51621     51613     51611     51615
     51631     51624     51622     51626     51632     51624     51622     51626
     51642     51635     51633     51637     51643     51635     51633     51637
     51653     51646     51644     51648     51654     51646     51644     51648
     51664     51657     51655     51659     51665     51657     51655     51659
     51675     51668     51666     51670     51676     51668     51666     51670
     51686     51679     51677     51681     51687     51679     51677     51681
     51697     51690     51688     51692     51698     51690     51688     51692
     51708     51701     51699     51703     51709     51701     51699     51703
     51719     51712     51710     51714     51720     51712     51710     51714
     51730     51723     51721     51725     51731     51723     51721     51725
     51741     51734     51732     51736     51742     51734     51732     51736
     51752     51745     51743     51747     51753     51745     51743     51747
     51763     51756     51754     51758     51764     51756     51754     51758
     51774     51767     51765     51769     51775     51767     51765     51769
     51785     51778     51776     51780     51786     51778     51776     51780
     51796     51789     51787     51791     51797     51789     51787     51791
     51807     51800     51798     51802     51808     51800     51798     51802
     51818     51811     51809     51813     51819     51811     51809     51813
     51829     51822     51820     51824     51830     51822     51820     51824
     51840     51833     51831     51835     51841     51833     51831     51835
     51851     51844     51842     51846     51852     51844     51842     51846
     51862     51855     51853     51857     51863     51855     51853     51857
     51873     51866     51864     51868     51874     51866     51864     51868
     51884     51877     51875     51879     51885     51877     51875     51879
     51895     51888     51886     51890     51896     51888     51886     51890
     51906     51899     51897     51901     51907     51899     51897     51901
     51917     51910     51908     51912     51918     51910     51908     51912
     51928     51921     51919     51923     51929     51921     51919     51923
     51939     51932     51930     51934     51940     51932     51930     51934
     51950     51943     51941     51945     51951     51943     51941     51945
     51961     51954     51952     51956     51962     51954     51952     51956
     51972     51965     51963     51967     51973     51965     51963     51967
     51983     51976     51974     51978     51984     51976     51974     51978
     51994     51987     51985     51989     51995     51987     51985     51989
     52005     51998     51996     52000     52006     51998     51996     52000
     52016     52009     52007     52011     52017     52009     52007     52011
     52027     52020     52018     52022     52028     52020     52018     52022
     52038     52031     52029     52033     52039     52031     52029     52033
     52049     52042     52040     52044     52050     52042     52040     52044
     52060     52053     52051     52055     52061     52053     52051     52055
     52071     52064     52062     52066     52072     52064     52062     52066
     52082     52075     52073     52077     52083     52075     52073     52077
     52093     52086     52084     52088     52094     52086     52084     52088
     52104     52097     52095     52099     52105     52097     52095     52099
     52115     52108     52106     52110     52116     52108     52106     52110
     52126     52119     52117     52121     52127     52119     52117     52121
     52137     52130     52128     52132     52138     52130     52128     52132
     52148     52141     52139     52143     52149     52141     52139     52143
     52159     52152     52150     52154     52160     52152     52150     52154
     52170     52163     52161     52165     52171     52163     52161     52165
     52181     52174     52172     52176     52182     52174     52172     52176
     52192     52185     52183     52187     52193     52185     52183     52187
     52203     52196     52194     52198     52204     52196     52194     52198
     52214     52207     52205     52209     52215     52207     52205     52209
     52225     52218     52216     52220     52226     52218     52216     52220
     52236     52229     52227     52231     52237     52229     52227     52231
     52247     52240     52238     52242     52248     52240     52238     52242
     52258     52251     52249     52253     52259     52251     52249     52253
     52269     52262     52260     52264     52270     52262     52260     52264
     52280     52273     52271     52275     52281     52273     52271     52275
     52291     52284     52282     52286     52292     52284     52282     52286
     52302     52295     52293     52297     52303     52295     52293     52297
     52313     52306     52304     52308     52314     52306     52304     52308
     52324     52317     52315     52319     52325     52317     52315     52319
     52335     52328     52326     52330     52336     52328     52326     52330
     52346     52339     52337     52341     52347     52339     52337     52341
     52357     52350     52348     52352     52358     52350     52348     52352
     52368     52361     52359     52363     52369     52361     52359     52363
     52379     52372     52370     52374     52380     52372     52370     52374
     52390     52383     52381     52385     52391     52383     52381     52385
     52401     52394     52392     52396     52402     52394     52392     52396
     52412     52405     52403     52407     52413     52405     52403     52407
     52423     52416     52414     52418     52424     52416     52414     52418
     52434     52427     52425     52429     52435     52427     52425     52429
     52445     52438     52436     52440     52446     52438     52436     52440
     52456     52449     52447     52451     52457     52449     52447     52451
     52467     52460     52458     52462     52468     52460     52458     52462
     52478     52471     52469     52473     52479     52471     52469     52473
     52489     52482     52480     52484     52490     52482     52480     52484
     52500     52493     52491     52495     52501     52493     52491     52495
     52511     52504     52502     52506     52512     52504     52502     52506
     52522     52515     52513     52517     52523     52515     52513     52517
     52533     52526     52524     52528     52534     52526     52524     52528
     52544     52537     52535     52539     52545     52537     52535     52539
     52555     52548     52546     52550     52556     52548     52546     52550
     52566     52559     52557     52561     52567     52559     52557     52561
     52577     52570     52568     52572     52578     52570     52568     52572
     52588     52581     52579     52583     52589     52581     52579     52583
     52599     52592     52590     52594     52600     52592     52590     52594
     52610     52603     52601     52605     52611     52603     52601     52605
     52621     52614     52612     52616     52622     52614     52612     52616
     52632     52625     52623     52627     52633     52625     52623     52627
     52643     52636     52634     52638     52644     52636     52634     52638
     52654     52647     52645     52649     52655     52647     52645     52649
     52665     52658     52656     52660     52666     52658     52656     52660
     52676     52669     52667     52671     52677     52669     52667     52671
     52687     52680     52678     52682     52688     52680     52678     52682
     52698     52691     52689     52693     52699     52691     52689     52693
     52709     52702     52700     52704     52710     52702     52700     52704
     52720     52713     52711     52715     52721     52713     52711     52715
     52731     52724     52722     52726     52732     52724     52722     52726
     52742     52735     52733     52737     52743     52735     52733     52737
     52753     52746     52744     52748     52754     52746     52744     52748
     52764     52757     52755     52759     52765     52757     52755     52759
     52775     52768     52766     52770     52776     52768     52766     52770
     52786     52779     52777     52781     52787     52779     52777     52781
     52797     52790     52788     52792     52798     52790     52788     52792
     52808     52801     52799     52803     52809     52801     52799     52803
     52819     52812     52810     52814     52820     52812     52810     52814
     52830     52823     52821     52825     52831     52823     52821     52825
     52841     52834     52832     52836     52842     52834     52832     52836
     52852     52845     52843     52847     52853     52845     52843     52847
     52863     52856     52854     52858     52864     52856     52854     52858
     52874     52867     52865     52869     52875     52867     52865     52869
     52885     52878     52876     52880     52886     52878     52876     52880
     52896     52889     52887     52891     52897     52889     52887     52891
     52907     52900     52898     52902     52908     52900     52898     52902
     52918     52911     52909     52913     52919     52911     52909     52913
     52929     52922     52920     52924     52930     52922     52920     52924
     52940     52933     52931     52935     52941     52933     52931     52935
     52951     52944     52942     52946     52952     52944     52942     52946
     52962     52955     52953     52957     52963     52955     52953     52957
     52973     52966     52964     52968     52974     52966     52964     52968
     52984     52977     52975     52979     52985     52977     52975     52979
     52995     52988     52986     52990     52996     52988     52986     52990
     53006     52999     52997     53001     53007     52999     52997     53001
     53017     53010     53008     53012     53018     53010     53008     53012
     53028     53021     53019     53023     53029     53021     53019     53023
     53039     53032     53030     53034     53040     53032     53030     53034
     53050     53043     53041     53045     53051     53043     53041     53045
     53061     53054     53052     53056     53062     53054     53052     53056
     53072     53065     53063     53067     53073     53065     53063     53067
     53083     53076     53074     53078     53084     53076     53074     53078
     53094     53087     53085     53089     53095     53087     53085     53089
     53105     53098     53096     53100     53106     53098     53096     53100
     53116     53109     53107     53111     53117     53109     53107     53111
     53127     53120     53118     53122     53128     53120     53118     53122
     53138     53131     53129     53133     53139     53131     53129     53133
     53149     53142     53140     53144     53150     53142     53140     53144
     53160     53153     53151     53155     53161     53153     53151     53155
     53171     53164     53162     53166     53172     53164     53162     53166
     53182     53175     53173     53177     53183     53175     53173     53177
     53193     53186     53184     53188     53194     53186     53184     53188
     53204     53197     53195     53199     53205     53197     53195     53199
     53215     53208     53206     53210     53216     53208     53206     53210
     53226     53219     53217     53221     53227     53219     53217     53221
     53237     53230     53228     53232     53238     53230     53228     53232
     53248     53241     53239     53243     53249     53241     53239     53243
     53259     53252     53250     53254     53260     53252     53250     53254
     53270     53263     53261     53265     53271     53263     53261     53265
     53281     53274     53272     53276     53282     53274     53272     53276
     53292     53285     53283     53287     53293     53285     53283     53287
     53303     53296     53294     53298     53304     53296     53294     53298
     53314     53307     53305     53309     53315     53307     53305     53309
     53325     53318     53316     53320     53326     53318     53316     53320
     53336     53329     53327     53331     53337     53329     53327     53331
     53347     53340     53338     53342     53348     53340     53338     53342
     53358     53351     53349     53353     53359     53351     53349     53353
     53369     53362     53360     53364     53370     53362     53360     53364
     53380     53373     53371     53375     53381     53373     53371     53375
     53391     53384     53382     53386     53392     53384     53382     53386
     53402     53395     53393     53397     53403     53395     53393     53397
     53413     53406     53404     53408     53414     53406     53404     53408
     53424     53417     53415     53419     53425     53417     53415     53419
     53435     53428     53426     53430     53436     53428     53426     53430
     53446     53439     53437     53441     53447     53439     53437     53441
     53457     53450     53448     53452     53458     53450     53448     53452
     53468     53461     53459     53463     53469     53461     53459     53463
     53479     53472     53470     53474     53480     53472     53470     53474
     53490     53483     53481     53485     53491     53483     53481     53485
     53501     53494     53492     53496     53502     53494     53492     53496
     53512     53505     53503     53507     53513     53505     53503     53507
     53523     53516     53514     53518     53524     53516     53514     53518
     53534     53527     53525     53529     53535     53527     53525     53529
     53545     53538     53536     53540     53546     53538     53536     53540
     53556     53549     53547     53551     53557     53549     53547     53551
     53567     53560     53558     53562     53568     53560     53558     53562
     53578     53571     53569     53573     53579     53571     53569     53573
     53589     53582     53580     53584     53590     53582     53580     53584
     53600     53593     53591     53595     53601     53593     53591     53595
     53611     53604     53602     53606     53612     53604     53602     53606
     53622     53615     53613     53617     53623     53615     53613     53617
     53633     53626     53624     53628     53634     53626     53624     53628
     53644     53637     53635     53639     53645     53637     53635     53639
     53655     53648     53646     53650     53656     53648     53646     53650
     53666     53659     53657     53661     53667     53659     53657     53661
     53677     53670     53668     53672     53678     53670     53668     53672
     53688     53681     53679     53683     53689     53681     53679     53683
     53699     53692     53690     53694     53700     53692     53690     53694
     53710     53703     53701     53705     53711     53703     53701     53705
     53721     53714     53712     53716     53722     53714     53712     53716
     53732     53725     53723     53727     53733     53725     53723     53727
     53743     53736     53734     53738     53744     53736     53734     53738
     53754     53747     53745     53749     53755     53747     53745     53749
     53765     53758     53756     53760     53766     53758     53756     53760
     53776     53769     53767     53771     53777     53769     53767     53771
     53787     53780     53778     53782     53788     53780     53778     53782
     53798     53791     53789     53793     53799     53791     53789     53793
     53809     53802     53800     53804     53810     53802     53800     53804
     53820     53813     53811     53815     53821     53813     53811     53815
     53831     53824     53822     53826     53832     53824     53822     53826
     53842     53835     53833     53837     53843     53835     53833     53837
     53853     53846     53844     53848     53854     53846     53844     53848
     53864     53857     53855     53859     53865     53857     53855     53859
     53875     53868     53866     53870     53876     53868     53866     53870
     53886     53879     53877     53881     53887     53879     53877     53881
     53897     53890     53888     53892     53898     53890     53888     53892
     53908     53901     53899     53903     53909     53901     53899     53903
     53919     53912     53910     53914     53920     53912     53910     53914
     53930     53923     53921     53925     53931     53923     53921     53925
     53941     53934     53932     53936     53942     53934     53932     53936
     53952     53945     53943     53947     53953     53945     53943     53947
     53963     53956     53954     53958     53964     53956     53954     53958
     53974     53967     53965     53969     53975     53967     53965     53969
     53985     53978     53976     53980     53986     53978     53976     53980
     53996     53989     53987     53991     53997     53989     53987     53991
     54007     54000     53998     54002     54008     54000     53998     54002
     54018     54011     54009     54013     54019     54011     54009     54013
     54029     54022     54020     54024     54030     54022     54020     54024
     54040     54033     54031     54035     54041     54033     54031     54035
     54051     54044     54042     54046     54052     54044     54042     54046
     54062     54055     54053     54057     54063     54055     54053     54057
     54073     54066     54064     54068     54074     54066     54064     54068
     54084     54077     54075     54079     54085     54077     54075     54079
     54095     54088     54086     54090     54096     54088     54086     54090
     54106     54099     54097     54101     54107     54099     54097     54101
     54117     54110     54108     54112     54118     54110     54108     54112
     54128     54121     54119     54123     54129     54121     54119     54123
     54139     54132     54130     54134     54140     54132     54130     54134
     54150     54143     54141     54145     54151     54143     54141     54145
     54161     54154     54152     54156     54162     54154     54152     54156
     54172     54165     54163     54167     54173     54165     54163     54167
     54183     54176     54174     54178     54184     54176     54174     54178
     54194     54187     54185     54189     54195     54187     54185     54189
     54205     54198     54196     54200     54206     54198     54196     54200
     54216     54209     54207     54211     54217     54209     54207     54211
     54227     54220     54218     54222     54228     54220     54218     54222
     54238     54231     54229     54233     54239     54231     54229     54233
     54249     54242     54240     54244     54250     54242     54240     54244
     54260     54253     54251     54255     54261     54253     54251     54255
     54271     54264     54262     54266     54272     54264     54262     54266
     54282     54275     54273     54277     54283     54275     54273     54277
     54293     54286     54284     54288     54294     54286     54284     54288
     54304     54297     54295     54299     54305     54297     54295     54299
     54315     54308     54306     54310     54316     54308     54306     54310
     54326     54319     54317     54321     54327     54319     54317     54321
     54337     54330     54328     54332     54338     54330     54328     54332
     54348     54341     54339     54343     54349     54341     54339     54343
     54359     54352     54350     54354     54360     54352     54350     54354
     54370     54363     54361     54365     54371     54363     54361     54365
     54381     54374     54372     54376     54382     54374     54372     54376
     54392     54385     54383     54387     54393     54385     54383     54387
     54403     54396     54394     54398     54404     54396     54394     54398
     54414     54407     54405     54409     54415     54407     54405     54409
     54425     54418     54416     54420     54426     54418     54416     54420
     54436     54429     54427     54431     54437     54429     54427     54431
     54447     54440     54438     54442     54448     54440     54438     54442
     54458     54451     54449     54453     54459     54451     54449     54453
     54469     54462     54460     54464     54470     54462     54460     54464
     54480     54473     54471     54475     54481     54473     54471     54475
     54491     54484     54482     54486     54492     54484     54482     54486
     54502     54495     54493     54497     54503     54495     54493     54497
     54513     54506     54504     54508     54514     54506     54504     54508
     54524     54517     54515     54519     54525     54517     54515     54519
     54535     54528     54526     54530     54536     54528     54526     54530
     54546     54539     54537     54541     54547     54539     54537     54541
     54557     54550     54548     54552     54558     54550     54548     54552
     54568     54561     54559     54563     54569     54561     54559     54563
     54579     54572     54570     54574     54580     54572     54570     54574
     54590     54583     54581     54585     54591     54583     54581     54585
     54601     54594     54592     54596     54602     54594     54592     54596
     54612     54605     54603     54607     54613     54605     54603     54607
     54623     54616     54614     54618     54624     54616     54614     54618
     54634     54627     54625     54629     54635     54627     54625     54629
     54645     54638     54636     54640     54646     54638     54636     54640
     54656     54649     54647     54651     54657     54649     54647     54651
     54667     54660     54658     54662     54668     54660     54658     54662
     54678     54671     54669     54673     54679     54671     54669     54673
     54689     54682     54680     54684     54690     54682     54680     54684
     54700     54693     54691     54695     54701     54693     54691     54695
     54711     54704     54702     54706     54712     54704     54702     54706
     54722     54715     54713     54717     54723     54715     54713     54717
     54733     54726     54724     54728     54734     54726     54724     54728
     54744     54737     54735     54739     54745     54737     54735     54739
     54755     54748     54746     54750     54756     54748     54746     54750
     54766     54759     54757     54761     54767     54759     54757     54761
     54777     54770     54768     54772     54778     54770     54768     54772
     54788     54781     54779     54783     54789     54781     54779     54783
     54799     54792     54790     54794     54800     54792     54790     54794
     54810     54803     54801     54805     54811     54803     54801     54805
     54821     54814     54812     54816     54822     54814     54812     54816
     54832     54825     54823     54827     54833     54825     54823     54827
     54843     54836     54834     54838     54844     54836     54834     54838
     54854     54847     54845     54849     54855     54847     54845     54849
     54865     54858     54856     54860     54866     54858     54856     54860
     54876     54869     54867     54871     54877     54869     54867     54871
     54887     54880     54878     54882     54888     54880     54878     54882
     54898     54891     54889     54893     54899     54891     54889     54893
     54909     54902     54900     54904     54910     54902     54900     54904
     54920     54913     54911     54915     54921     54913     54911     54915
     54931     54924     54922     54926     54932     54924     54922     54926
     54942     54935     54933     54937     54943     54935     54933     54937
     54953     54946     54944     54948     54954     54946     54944     54948
     54964     54957     54955     54959     54965     54957     54955     54959
     54975     54968     54966     54970     54976     54968     54966     54970
     54986     54979     54977     54981     54987     54979     54977     54981
     54997     54990     54988     54992     54998     54990     54988     54992
     55008     55001     54999     55003     55009     55001     54999     55003
     55019     55012     55010     55014     55020     55012     55010     55014
     55030     55023     55021     55025     55031     55023     55021     55025
     55041     55034     55032     55036     55042     55034     55032     55036
     55052     55045     55043     55047     55053     55045     55043     55047
     55063     55056     55054     55058     55064     55056     55054     55058
     55074     55067     55065     55069     55075     55067     55065     55069
     55085     55078     55076     55080     55086     55078     55076     55080
     55096     55089     55087     55091     55097     55089     55087     55091
     55107     55100     55098     55102     55108     55100     55098     55102
     55118     55111     55109     55113     55119     55111     55109     55113
     55129     55122     55120     55124     55130     55122     55120     55124
     55140     55133     55131     55135     55141     55133     55131     55135
     55151     55144     55142     55146     55152     55144     55142     55146
     55162     55155     55153     55157     55163     55155     55153     55157
     55173     55166     55164     55168     55174     55166     55164     55168
     55184     55177     55175     55179     55185     55177     55175     55179

      4385 !NUMANISO
             395.27300    -197.53100     -11.95530
             395.27300    -197.53100     -11.95530
             395.27300    -197.53100     -11.95530
             395.27300    -197.53100     -11.95530
             395.27300    -197.53100     -11.95530
             395.27300    -197.53100     -11.95530
             395.27300    -197.53100     -11.95530
             395.27300    -197.53100     -11.95530
             395.27300    -197.53100     -11.95530
             395.27300    -197.53100     -11.95530
             395.27300    -197.53100     -11.95530
             395.27300    -197.53100     -11.95530
             395.27300    -197.53100     -11.95530
             395.27300    -197.53100     -11.95530
             395.27300    -197.53100     -11.95530
             395.27300    -197.53100     -11.95530
             395.27300    -197.53100     -11.95530
             395.27300    -197.53100     -11.95530
             395.27300    -197.53100     -11.95530
             395.27300    -197.53100     -11.95530
             395.27300    -197.53100     -11.95530
             395.27300    -197.53100     -11.95530
             395.27300    -197.53100     -11.95530
             395.27300    -197.53100     -11.95530
             395.27300    -197.53100     -11.95530
             395.27300    -197.53100     -11.95530
             395.27300    -197.53100     -11.95530
             395.27300    -197.53100     -11.95530
             395.27300    -197.53100     -11.95530
             395.27300    -197.53100     -11.95530
             395.27300    -197.53100     -11.95530
             395.27300    -197.53100     -11.95530
             395.27300    -197.53100     -11.95530
             395.27300    -197.53100     -11.95530
             395.27300    -197.53100     -11.95530
             395.27300    -197.53100     -11.95530
             395.27300    -197.53100     -11.95530
             395.27300    -197.53100     -11.95530
             395.27300    -197.53100     -11.95530
             395.27300    -197.53100     -11.95530
             395.27300    -197.53100     -11.95530
             395.27300    -197.53100     -11.95530
             395.27300    -197.53100     -11.95530
             395.27300    -197.53100     -11.95530
             395.27300    -197.53100     -11.95530
             395.27300    -197.53100     -11.95530
             395.27300    -197.53100     -11.95530
             395.27300    -197.53100     -11.95530
             395.27300    -197.53100     -11.95530
             395.27300    -197.53100     -11.95530
             395.27300    -197.53100     -11.95530
             395.27300    -197.53100     -11.95530
             395.27300    -197.53100     -11.95530
             395.27300    -197.53100     -11.95530
             395.27300    -197.53100     -11.95530
             395.27300    -197.53100     -11.95530
             395.27300    -197.53100     -11.95530
             395.27300    -197.53100     -11.95530
             395.27300    -197.53100     -11.95530
             395.27300    -197.53100     -11.95530
             395.27300    -197.53100     -11.95530
             395.27300    -197.53100     -11.95530
             395.27300    -197.53100     -11.95530
             395.27300    -197.53100     -11.95530
             395.27300    -197.53100     -11.95530
             395.27300    -197.53100     -11.95530
             395.27300    -197.53100     -11.95530
             395.27300    -197.53100     -11.95530
             395.27300    -197.53100     -11.95530
             395.27300    -197.53100     -11.95530
             395.27300    -197.53100     -11.95530
             395.27300    -197.53100     -11.95530
             395.27300    -197.53100     -11.95530
             395.27300    -197.53100     -11.95530
             395.27300    -197.53100     -11.95530
             395.27300    -197.53100     -11.95530
             395.27300    -197.53100     -11.95530
             395.27300    -197.53100     -11.95530
             395.27300    -197.53100     -11.95530
             395.27300    -197.53100     -11.95530
             395.27300    -197.53100     -11.95530
             395.27300    -197.53100     -11.95530
             395.27300    -197.53100     -11.95530
             395.27300    -197.53100     -11.95530
             395.27300    -197.53100     -11.95530
             395.27300    -197.53100     -11.95530
             395.27300    -197.53100     -11.95530
             395.27300    -197.53100     -11.95530
             395.27300    -197.53100     -11.95530
             395.27300    -197.53100     -11.95530
             395.27300    -197.53100     -11.95530
             395.27300    -197.53100     -11.95530
             395.27300    -197.53100     -11.95530
             395.27300    -197.53100     -11.95530
             395.27300    -197.53100     -11.95530
             395.27300    -197.53100     -11.95530
             395.27300    -197.53100     -11.95530
             395.27300    -197.53100     -11.95530
             395.27300    -197.53100     -11.95530
             395.27300    -197.53100     -11.95530
             395.27300    -197.53100     -11.95530
             395.27300    -197.53100     -11.95530
             395.27300    -197.53100     -11.95530
             395.27300    -197.53100     -11.95530
             395.27300    -197.53100     -11.95530
             395.27300    -197.53100     -11.95530
             395.27300    -197.53100     -11.95530
             395.27300    -197.53100     -11.95530
             395.27300    -197.53100     -11.95530
             395.27300    -197.53100     -11.95530
             395.27300    -197.53100     -11.95530
             395.27300    -197.53100     -11.95530
             395.27300    -197.53100     -11.95530
             395.27300    -197.53100     -11.95530
             395.27300    -197.53100     -11.95530
             395.27300    -197.53100     -11.95530
             395.27300    -197.53100     -11.95530
             395.27300    -197.53100     -11.95530
             395.27300    -197.53100     -11.95530
             395.27300    -197.53100     -11.95530
             395.27300    -197.53100     -11.95530
             395.27300    -197.53100     -11.95530
             395.27300    -197.53100     -11.95530
             395.27300    -197.53100     -11.95530
             395.27300    -197.53100     -11.95530
             395.27300    -197.53100     -11.95530
             395.27300    -197.53100     -11.95530
             395.27300    -197.53100     -11.95530
             395.27300    -197.53100     -11.95530
             395.27300    -197.53100     -11.95530
             395.27300    -197.53100     -11.95530
             395.27300    -197.53100     -11.95530
             395.27300    -197.53100     -11.95530
             395.27300    -197.53100     -11.95530
             395.27300    -197.53100     -11.95530
             395.27300    -197.53100     -11.95530
             395.27300    -197.53100     -11.95530
             395.27300    -197.53100     -11.95530
             395.27300    -197.53100     -11.95530
             395.27300    -197.53100     -11.95530
             395.27300    -197.53100     -11.95530
             395.27300    -197.53100     -11.95530
             395.27300    -197.53100     -11.95530
             395.27300    -197.53100     -11.95530
             395.27300    -197.53100     -11.95530
             395.27300    -197.53100     -11.95530
             395.27300    -197.53100     -11.95530
             395.27300    -197.53100     -11.95530
             395.27300    -197.53100     -11.95530
             395.27300    -197.53100     -11.95530
             395.27300    -197.53100     -11.95530
             395.27300    -197.53100     -11.95530
             395.27300    -197.53100     -11.95530
             395.27300    -197.53100     -11.95530
             395.27300    -197.53100     -11.95530
             395.27300    -197.53100     -11.95530
             395.27300    -197.53100     -11.95530
             395.27300    -197.53100     -11.95530
             395.27300    -197.53100     -11.95530
             395.27300    -197.53100     -11.95530
             395.27300    -197.53100     -11.95530
             395.27300    -197.53100     -11.95530
             395.27300    -197.53100     -11.95530
             395.27300    -197.53100     -11.95530
             395.27300    -197.53100     -11.95530
             395.27300    -197.53100     -11.95530
             395.27300    -197.53100     -11.95530
             395.27300    -197.53100     -11.95530
             395.27300    -197.53100     -11.95530
             395.27300    -197.53100     -11.95530
             395.27300    -197.53100     -11.95530
             395.27300    -197.53100     -11.95530
             395.27300    -197.53100     -11.95530
             395.27300    -197.53100     -11.95530
             395.27300    -197.53100     -11.95530
             395.27300    -197.53100     -11.95530
             395.27300    -197.53100     -11.95530
             395.27300    -197.53100     -11.95530
             395.27300    -197.53100     -11.95530
             395.27300    -197.53100     -11.95530
             395.27300    -197.53100     -11.95530
             395.27300    -197.53100     -11.95530
             395.27300    -197.53100     -11.95530
             395.27300    -197.53100     -11.95530
             395.27300    -197.53100     -11.95530
             395.27300    -197.53100     -11.95530
             512.45300    -102.60400     -77.32050
             205.60100    -205.51600      27.74920
             512.45300    -102.60400     -77.32050
             205.60100    -205.51600      27.74920
             512.45300    -102.60400     -77.32050
             205.60100    -205.51600      27.74920
             512.45300    -102.60400     -77.32050
             205.60100    -205.51600      27.74920
             512.45300    -102.60400     -77.32050
             205.60100    -205.51600      27.74920
             512.45300    -102.60400     -77.32050
             205.60100    -205.51600      27.74920
             512.45300    -102.60400     -77.32050
             205.60100    -205.51600      27.74920
             512.45300    -102.60400     -77.32050
             205.60100    -205.51600      27.74920
             512.45300    -102.60400     -77.32050
             205.60100    -205.51600      27.74920
             512.45300    -102.60400     -77.32050
             205.60100    -205.51600      27.74920
             512.45300    -102.60400     -77.32050
             205.60100    -205.51600      27.74920
             512.45300    -102.60400     -77.32050
             205.60100    -205.51600      27.74920
             512.45300    -102.60400     -77.32050
             205.60100    -205.51600      27.74920
             512.45300    -102.60400     -77.32050
             205.60100    -205.51600      27.74920
             512.45300    -102.60400     -77.32050
             205.60100    -205.51600      27.74920
             512.45300    -102.60400     -77.32050
             205.60100    -205.51600      27.74920
             512.45300    -102.60400     -77.32050
             205.60100    -205.51600      27.74920
             512.45300    -102.60400     -77.32050
             205.60100    -205.51600      27.74920
             512.45300    -102.60400     -77.32050
             205.60100    -205.51600      27.74920
             512.45300    -102.60400     -77.32050
             205.60100    -205.51600      27.74920
             512.45300    -102.60400     -77.32050
             205.60100    -205.51600      27.74920
             512.45300    -102.60400     -77.32050
             205.60100    -205.51600      27.74920
             512.45300    -102.60400     -77.32050
             205.60100    -205.51600      27.74920
             512.45300    -102.60400     -77.32050
             205.60100    -205.51600      27.74920
             512.45300    -102.60400     -77.32050
             205.60100    -205.51600      27.74920
             512.45300    -102.60400     -77.32050
             205.60100    -205.51600      27.74920
             512.45300    -102.60400     -77.32050
             205.60100    -205.51600      27.74920
             512.45300    -102.60400     -77.32050
             205.60100    -205.51600      27.74920
             512.45300    -102.60400     -77.32050
             205.60100    -205.51600      27.74920
             512.45300    -102.60400     -77.32050
             205.60100    -205.51600      27.74920
             512.45300    -102.60400     -77.32050
             205.60100    -205.51600      27.74920
             512.45300    -102.60400     -77.32050
             205.60100    -205.51600      27.74920
             512.45300    -102.60400     -77.32050
             205.60100    -205.51600      27.74920
             512.45300    -102.60400     -77.32050
             205.60100    -205.51600      27.74920
             512.45300    -102.60400     -77.32050
             205.60100    -205.51600      27.74920
             512.45300    -102.60400     -77.32050
             205.60100    -205.51600      27.74920
             512.45300    -102.60400     -77.32050
             205.60100    -205.51600      27.74920
             512.45300    -102.60400     -77.32050
             205.60100    -205.51600      27.74920
             512.45300    -102.60400     -77.32050
             205.60100    -205.51600      27.74920
             512.45300    -102.60400     -77.32050
             205.60100    -205.51600      27.74920
             512.45300    -102.60400     -77.32050
             205.60100    -205.51600      27.74920
             512.45300    -102.60400     -77.32050
             205.60100    -205.51600      27.74920
             512.45300    -102.60400     -77.32050
             205.60100    -205.51600      27.74920
             512.45300    -102.60400     -77.32050
             205.60100    -205.51600      27.74920
             512.45300    -102.60400     -77.32050
             205.60100    -205.51600      27.74920
             512.45300    -102.60400     -77.32050
             205.60100    -205.51600      27.74920
             512.45300    -102.60400     -77.32050
             205.60100    -205.51600      27.74920
             512.45300    -102.60400     -77.32050
             205.60100    -205.51600      27.74920
             512.45300    -102.60400     -77.32050
             205.60100    -205.51600      27.74920
             512.45300    -102.60400     -77.32050
             205.60100    -205.51600      27.74920
             512.45300    -102.60400     -77.32050
             205.60100    -205.51600      27.74920
             512.45300    -102.60400     -77.32050
             205.60100    -205.51600      27.74920
             512.45300    -102.60400     -77.32050
             205.60100    -205.51600      27.74920
             512.45300    -102.60400     -77.32050
             205.60100    -205.51600      27.74920
             512.45300    -102.60400     -77.32050
             205.60100    -205.51600      27.74920
             512.45300    -102.60400     -77.32050
             205.60100    -205.51600      27.74920
             512.45300    -102.60400     -77.32050
             205.60100    -205.51600      27.74920
             512.45300    -102.60400     -77.32050
             205.60100    -205.51600      27.74920
             512.45300    -102.60400     -77.32050
             205.60100    -205.51600      27.74920
             512.45300    -102.60400     -77.32050
             205.60100    -205.51600      27.74920
             512.45300    -102.60400     -77.32050
             205.60100    -205.51600      27.74920
             512.45300    -102.60400     -77.32050
             205.60100    -205.51600      27.74920
             512.45300    -102.60400     -77.32050
             205.60100    -205.51600      27.74920
             512.45300    -102.60400     -77.32050
             205.60100    -205.51600      27.74920
             512.45300    -102.60400     -77.32050
             205.60100    -205.51600      27.74920
             512.45300    -102.60400     -77.32050
             205.60100    -205.51600      27.74920
             512.45300    -102.60400     -77.32050
             205.60100    -205.51600      27.74920
             512.45300    -102.60400     -77.32050
             205.60100    -205.51600      27.74920
             512.45300    -102.60400     -77.32050
             205.60100    -205.51600      27.74920
             512.45300    -102.60400     -77.32050
             205.60100    -205.51600      27.74920
             512.45300    -102.60400     -77.32050
             205.60100    -205.51600      27.74920
             512.45300    -102.60400     -77.32050
             205.60100    -205.51600      27.74920
             512.45300    -102.60400     -77.32050
             205.60100    -205.51600      27.74920
             512.45300    -102.60400     -77.32050
             205.60100    -205.51600      27.74920
             512.45300    -102.60400     -77.32050
             205.60100    -205.51600      27.74920
             512.45300    -102.60400     -77.32050
             205.60100    -205.51600      27.74920
             512.45300    -102.60400     -77.32050
             205.60100    -205.51600      27.74920
             512.45300    -102.60400     -77.32050
             205.60100    -205.51600      27.74920
             512.45300    -102.60400     -77.32050
             205.60100    -205.51600      27.74920
             512.45300    -102.60400     -77.32050
             205.60100    -205.51600      27.74920
             512.45300    -102.60400     -77.32050
             205.60100    -205.51600      27.74920
             512.45300    -102.60400     -77.32050
             205.60100    -205.51600      27.74920
             512.45300    -102.60400     -77.32050
             205.60100    -205.51600      27.74920
             512.45300    -102.60400     -77.32050
             205.60100    -205.51600      27.74920
             512.45300    -102.60400     -77.32050
             205.60100    -205.51600      27.74920
             512.45300    -102.60400     -77.32050
             205.60100    -205.51600      27.74920
             512.45300    -102.60400     -77.32050
             205.60100    -205.51600      27.74920
             512.45300    -102.60400     -77.32050
             205.60100    -205.51600      27.74920
             512.45300    -102.60400     -77.32050
             205.60100    -205.51600      27.74920
             512.45300    -102.60400     -77.32050
             205.60100    -205.51600      27.74920
             512.45300    -102.60400     -77.32050
             205.60100    -205.51600      27.74920
             512.45300    -102.60400     -77.32050
             205.60100    -205.51600      27.74920
             512.45300    -102.60400     -77.32050
             205.60100    -205.51600      27.74920
             512.45300    -102.60400     -77.32050
             205.60100    -205.51600      27.74920
             512.45300    -102.60400     -77.32050
             205.60100    -205.51600      27.74920
             512.45300    -102.60400     -77.32050
             205.60100    -205.51600      27.74920
             512.45300    -102.60400     -77.32050
             205.60100    -205.51600      27.74920
             512.45300    -102.60400     -77.32050
             205.60100    -205.51600      27.74920
             512.45300    -102.60400     -77.32050
             205.60100    -205.51600      27.74920
             512.45300    -102.60400     -77.32050
             205.60100    -205.51600      27.74920
             512.45300    -102.60400     -77.32050
             205.60100    -205.51600      27.74920
             512.45300    -102.60400     -77.32050
             205.60100    -205.51600      27.74920
             512.45300    -102.60400     -77.32050
             205.60100    -205.51600      27.74920
             512.45300    -102.60400     -77.32050
             205.60100    -205.51600      27.74920
             512.45300    -102.60400     -77.32050
             205.60100    -205.51600      27.74920
             512.45300    -102.60400     -77.32050
             205.60100    -205.51600      27.74920
             512.45300    -102.60400     -77.32050
             205.60100    -205.51600      27.74920
             512.45300    -102.60400     -77.32050
             205.60100    -205.51600      27.74920
             512.45300    -102.60400     -77.32050
             205.60100    -205.51600      27.74920
             512.45300    -102.60400     -77.32050
             205.60100    -205.51600      27.74920
             512.45300    -102.60400     -77.32050
             205.60100    -205.51600      27.74920
             512.45300    -102.60400     -77.32050
             205.60100    -205.51600      27.74920
             512.45300    -102.60400     -77.32050
             205.60100    -205.51600      27.74920
             512.45300    -102.60400     -77.32050
             205.60100    -205.51600      27.74920
             512.45300    -102.60400     -77.32050
             205.60100    -205.51600      27.74920
             512.45300    -102.60400     -77.32050
             205.60100    -205.51600      27.74920
             512.45300    -102.60400     -77.32050
             205.60100    -205.51600      27.74920
             512.45300    -102.60400     -77.32050
             205.60100    -205.51600      27.74920
             512.45300    -102.60400     -77.32050
             205.60100    -205.51600      27.74920
             512.45300    -102.60400     -77.32050
             205.60100    -205.51600      27.74920
             512.45300    -102.60400     -77.32050
             205.60100    -205.51600      27.74920
             512.45300    -102.60400     -77.32050
             205.60100    -205.51600      27.74920
             512.45300    -102.60400     -77.32050
             205.60100    -205.51600      27.74920
             512.45300    -102.60400     -77.32050
             205.60100    -205.51600      27.74920
             512.45300    -102.60400     -77.32050
             205.60100    -205.51600      27.74920
             512.45300    -102.60400     -77.32050
             205.60100    -205.51600      27.74920
             512.45300    -102.60400     -77.32050
             205.60100    -205.51600      27.74920
             512.45300    -102.60400     -77.32050
             205.60100    -205.51600      27.74920
             512.45300    -102.60400     -77.32050
             205.60100    -205.51600      27.74920
             512.45300    -102.60400     -77.32050
             205.60100    -205.51600      27.74920
             512.45300    -102.60400     -77.32050
             205.60100    -205.51600      27.74920
             512.45300    -102.60400     -77.32050
             205.60100    -205.51600      27.74920
             512.45300    -102.60400     -77.32050
             205.60100    -205.51600      27.74920
             512.45300    -102.60400     -77.32050
             205.60100    -205.51600      27.74920
             512.45300    -102.60400     -77.32050
             205.60100    -205.51600      27.74920
             512.45300    -102.60400     -77.32050
             205.60100    -205.51600      27.74920
             512.45300    -102.60400     -77.32050
             205.60100    -205.51600      27.74920
             512.45300    -102.60400     -77.32050
             205.60100    -205.51600      27.74920
             512.45300    -102.60400     -77.32050
             205.60100    -205.51600      27.74920
             512.45300    -102.60400     -77.32050
             205.60100    -205.51600      27.74920
             512.45300    -102.60400     -77.32050
             205.60100    -205.51600      27.74920
             512.45300    -102.60400     -77.32050
             205.60100    -205.51600      27.74920
             512.45300    -102.60400     -77.32050
             205.60100    -205.51600      27.74920
             512.45300    -102.60400     -77.32050
             205.60100    -205.51600      27.74920
             512.45300    -102.60400     -77.32050
             205.60100    -205.51600      27.74920
             512.45300    -102.60400     -77.32050
             205.60100    -205.51600      27.74920
             512.45300    -102.60400     -77.32050
             205.60100    -205.51600      27.74920
             512.45300    -102.60400     -77.32050
             205.60100    -205.51600      27.74920
             512.45300    -102.60400     -77.32050
             205.60100    -205.51600      27.74920
             512.45300    -102.60400     -77.32050
             205.60100    -205.51600      27.74920
             512.45300    -102.60400     -77.32050
             205.60100    -205.51600      27.74920
             512.45300    -102.60400     -77.32050
             205.60100    -205.51600      27.74920
             512.45300    -102.60400     -77.32050
             205.60100    -205.51600      27.74920
             512.45300    -102.60400     -77.32050
             205.60100    -205.51600      27.74920
             512.45300    -102.60400     -77.32050
             205.60100    -205.51600      27.74920
             512.45300    -102.60400     -77.32050
             205.60100    -205.51600      27.74920
             512.45300    -102.60400     -77.32050
             205.60100    -205.51600      27.74920
             512.45300    -102.60400     -77.32050
             205.60100    -205.51600      27.74920
             512.45300    -102.60400     -77.32050
             205.60100    -205.51600      27.74920
             512.45300    -102.60400     -77.32050
             205.60100    -205.51600      27.74920
             512.45300    -102.60400     -77.32050
             205.60100    -205.51600      27.74920
             512.45300    -102.60400     -77.32050
             205.60100    -205.51600      27.74920
             512.45300    -102.60400     -77.32050
             205.60100    -205.51600      27.74920
             512.45300    -102.60400     -77.32050
             205.60100    -205.51600      27.74920
             512.45300    -102.60400     -77.32050
             205.60100    -205.51600      27.74920
             512.45300    -102.60400     -77.32050
             205.60100    -205.51600      27.74920
             512.45300    -102.60400     -77.32050
             205.60100    -205.51600      27.74920
             512.45300    -102.60400     -77.32050
             205.60100    -205.51600      27.74920
             512.45300    -102.60400     -77.32050
             205.60100    -205.51600      27.74920
             512.45300    -102.60400     -77.32050
             205.60100    -205.51600      27.74920
             512.45300    -102.60400     -77.32050
             205.60100    -205.51600      27.74920
             512.45300    -102.60400     -77.32050
             205.60100    -205.51600      27.74920
             512.45300    -102.60400     -77.32050
             205.60100    -205.51600      27.74920
             512.45300    -102.60400     -77.32050
             205.60100    -205.51600      27.74920
             512.45300    -102.60400     -77.32050
             205.60100    -205.51600      27.74920
             512.45300    -102.60400     -77.32050
             205.60100    -205.51600      27.74920
             512.45300    -102.60400     -77.32050
             205.60100    -205.51600      27.74920
             512.45300    -102.60400     -77.32050
             205.60100    -205.51600      27.74920
             512.45300    -102.60400     -77.32050
             205.60100    -205.51600      27.74920
             512.45300    -102.60400     -77.32050
             205.60100    -205.51600      27.74920
             512.45300    -102.60400     -77.32050
             205.60100    -205.51600      27.74920
             512.45300    -102.60400     -77.32050
             205.60100    -205.51600      27.74920
             512.45300    -102.60400     -77.32050
             205.60100    -205.51600      27.74920
             512.45300    -102.60400     -77.32050
             205.60100    -205.51600      27.74920
             512.45300    -102.60400     -77.32050
             205.60100    -205.51600      27.74920
             512.45300    -102.60400     -77.32050
             205.60100    -205.51600      27.74920
             512.45300    -102.60400     -77.32050
             205.60100    -205.51600      27.74920
             512.45300    -102.60400     -77.32050
             205.60100    -205.51600      27.74920
             512.45300    -102.60400     -77.32050
             205.60100    -205.51600      27.74920
             512.45300    -102.60400     -77.32050
             205.60100    -205.51600      27.74920
             512.45300    -102.60400     -77.32050
             205.60100    -205.51600      27.74920
             512.45300    -102.60400     -77.32050
             205.60100    -205.51600      27.74920
             512.45300    -102.60400     -77.32050
             205.60100    -205.51600      27.74920
             512.45300    -102.60400     -77.32050
             205.60100    -205.51600      27.74920
             512.45300    -102.60400     -77.32050
             205.60100    -205.51600      27.74920
             512.45300    -102.60400     -77.32050
             205.60100    -205.51600      27.74920
             512.45300    -102.60400     -77.32050
             205.60100    -205.51600      27.74920
             512.45300    -102.60400     -77.32050
             205.60100    -205.51600      27.74920
             512.45300    -102.60400     -77.32050
             205.60100    -205.51600      27.74920
             512.45300    -102.60400     -77.32050
             205.60100    -205.51600      27.74920
             512.45300    -102.60400     -77.32050
             205.60100    -205.51600      27.74920
             512.45300    -102.60400     -77.32050
             205.60100    -205.51600      27.74920
             512.45300    -102.60400     -77.32050
             205.60100    -205.51600      27.74920
             512.45300    -102.60400     -77.32050
             205.60100    -205.51600      27.74920
             512.45300    -102.60400     -77.32050
             205.60100    -205.51600      27.74920
             512.45300    -102.60400     -77.32050
             205.60100    -205.51600      27.74920
             512.45300    -102.60400     -77.32050
             205.60100    -205.51600      27.74920
             512.45300    -102.60400     -77.32050
             205.60100    -205.51600      27.74920
             512.45300    -102.60400     -77.32050
             205.60100    -205.51600      27.74920
             512.45300    -102.60400     -77.32050
             205.60100    -205.51600      27.74920
             512.45300    -102.60400     -77.32050
             205.60100    -205.51600      27.74920
             512.45300    -102.60400     -77.32050
             205.60100    -205.51600      27.74920
             512.45300    -102.60400     -77.32050
             205.60100    -205.51600      27.74920
             512.45300    -102.60400     -77.32050
             205.60100    -205.51600      27.74920
             512.45300    -102.60400     -77.32050
             205.60100    -205.51600      27.74920
             512.45300    -102.60400     -77.32050
             205.60100    -205.51600      27.74920
             512.45300    -102.60400     -77.32050
             205.60100    -205.51600      27.74920
             205.60100    -205.51600      27.74920
             205.60100    -205.51600      27.74920
             205.60100    -205.51600      27.74920
             205.60100    -205.51600      27.74920
             205.60100    -205.51600      27.74920
             205.60100    -205.51600      27.74920
             205.60100    -205.51600      27.74920
             205.60100    -205.51600      27.74920
             205.60100    -205.51600      27.74920
             205.60100    -205.51600      27.74920
             205.60100    -205.51600      27.74920
             205.60100    -205.51600      27.74920
             205.60100    -205.51600      27.74920
             205.60100    -205.51600      27.74920
             205.60100    -205.51600      27.74920
             205.60100    -205.51600      27.74920
             205.60100    -205.51600      27.74920
             205.60100    -205.51600      27.74920
             205.60100    -205.51600      27.74920
             205.60100    -205.51600      27.74920
             205.60100    -205.51600      27.74920
             205.60100    -205.51600      27.74920
             205.60100    -205.51600      27.74920
             205.60100    -205.51600      27.74920
             205.60100    -205.51600      27.74920
             205.60100    -205.51600      27.74920
             205.60100    -205.51600      27.74920
             205.60100    -205.51600      27.74920
             205.60100    -205.51600      27.74920
             205.60100    -205.51600      27.74920
             205.60100    -205.51600      27.74920
             205.60100    -205.51600      27.74920
             205.60100    -205.51600      27.74920
             205.60100    -205.51600      27.74920
             205.60100    -205.51600      27.74920
             205.60100    -205.51600      27.74920
             205.60100    -205.51600      27.74920
             205.60100    -205.51600      27.74920
             205.60100    -205.51600      27.74920
             205.60100    -205.51600      27.74920
             205.60100    -205.51600      27.74920
             205.60100    -205.51600      27.74920
             205.60100    -205.51600      27.74920
             205.60100    -205.51600      27.74920
             205.60100    -205.51600      27.74920
             205.60100    -205.51600      27.74920
             205.60100    -205.51600      27.74920
             205.60100    -205.51600      27.74920
             205.60100    -205.51600      27.74920
             205.60100    -205.51600      27.74920
             205.60100    -205.51600      27.74920
             205.60100    -205.51600      27.74920
             205.60100    -205.51600      27.74920
             205.60100    -205.51600      27.74920
             205.60100    -205.51600      27.74920
             205.60100    -205.51600      27.74920
             205.60100    -205.51600      27.74920
             205.60100    -205.51600      27.74920
             205.60100    -205.51600      27.74920
             205.60100    -205.51600      27.74920
             205.60100    -205.51600      27.74920
             205.60100    -205.51600      27.74920
             205.60100    -205.51600      27.74920
             205.60100    -205.51600      27.74920
             205.60100    -205.51600      27.74920
             205.60100    -205.51600      27.74920
             205.60100    -205.51600      27.74920
             205.60100    -205.51600      27.74920
             205.60100    -205.51600      27.74920
             205.60100    -205.51600      27.74920
             205.60100    -205.51600      27.74920
             205.60100    -205.51600      27.74920
             205.60100    -205.51600      27.74920
             205.60100    -205.51600      27.74920
             205.60100    -205.51600      27.74920
             205.60100    -205.51600      27.74920
             205.60100    -205.51600      27.74920
             205.60100    -205.51600      27.74920
             205.60100    -205.51600      27.74920
             205.60100    -205.51600      27.74920
             205.60100    -205.51600      27.74920
             205.60100    -205.51600      27.74920
             205.60100    -205.51600      27.74920
             205.60100    -205.51600      27.74920
             205.60100    -205.51600      27.74920
             205.60100    -205.51600      27.74920
             205.60100    -205.51600      27.74920
             205.60100    -205.51600      27.74920
             205.60100    -205.51600      27.74920
             205.60100    -205.51600      27.74920
             205.60100    -205.51600      27.74920
             205.60100    -205.51600      27.74920
             205.60100    -205.51600      27.74920
             205.60100    -205.51600      27.74920
             205.60100    -205.51600      27.74920
             205.60100    -205.51600      27.74920
             205.60100    -205.51600      27.74920
             205.60100    -205.51600      27.74920
             205.60100    -205.51600      27.74920
             205.60100    -205.51600      27.74920
             205.60100    -205.51600      27.74920
             205.60100    -205.51600      27.74920
             205.60100    -205.51600      27.74920
             205.60100    -205.51600      27.74920
             205.60100    -205.51600      27.74920
             205.60100    -205.51600      27.74920
             205.60100    -205.51600      27.74920
             205.60100    -205.51600      27.74920
             205.60100    -205.51600      27.74920
             205.60100    -205.51600      27.74920
             205.60100    -205.51600      27.74920
             205.60100    -205.51600      27.74920
             205.60100    -205.51600      27.74920
             205.60100    -205.51600      27.74920
             205.60100    -205.51600      27.74920
             205.60100    -205.51600      27.74920
             205.60100    -205.51600      27.74920
             205.60100    -205.51600      27.74920
             205.60100    -205.51600      27.74920
             205.60100    -205.51600      27.74920
             205.60100    -205.51600      27.74920
             205.60100    -205.51600      27.74920
             205.60100    -205.51600      27.74920
             205.60100    -205.51600      27.74920
             205.60100    -205.51600      27.74920
             205.60100    -205.51600      27.74920
             205.60100    -205.51600      27.74920
             205.60100    -205.51600      27.74920
             205.60100    -205.51600      27.74920
             205.60100    -205.51600      27.74920
             205.60100    -205.51600      27.74920
             205.60100    -205.51600      27.74920
             205.60100    -205.51600      27.74920
             205.60100    -205.51600      27.74920
             205.60100    -205.51600      27.74920
             205.60100    -205.51600      27.74920
             205.60100    -205.51600      27.74920
             205.60100    -205.51600      27.74920
             205.60100    -205.51600      27.74920
             205.60100    -205.51600      27.74920
             205.60100    -205.51600      27.74920
             205.60100    -205.51600      27.74920
             205.60100    -205.51600      27.74920
             205.60100    -205.51600      27.74920
             205.60100    -205.51600      27.74920
             205.60100    -205.51600      27.74920
             205.60100    -205.51600      27.74920
             205.60100    -205.51600      27.74920
             205.60100    -205.51600      27.74920
             205.60100    -205.51600      27.74920
             205.60100    -205.51600      27.74920
             205.60100    -205.51600      27.74920
             205.60100    -205.51600      27.74920
             205.60100    -205.51600      27.74920
             205.60100    -205.51600      27.74920
             205.60100    -205.51600      27.74920
             205.60100    -205.51600      27.74920
             205.60100    -205.51600      27.74920
             205.60100    -205.51600      27.74920
             205.60100    -205.51600      27.74920
             205.60100    -205.51600      27.74920
             205.60100    -205.51600      27.74920
             205.60100    -205.51600      27.74920
             205.60100    -205.51600      27.74920
             205.60100    -205.51600      27.74920
             205.60100    -205.51600      27.74920
             205.60100    -205.51600      27.74920
             205.60100    -205.51600      27.74920
             205.60100    -205.51600      27.74920
             205.60100    -205.51600      27.74920
             205.60100    -205.51600      27.74920
             205.60100    -205.51600      27.74920
             205.60100    -205.51600      27.74920
             205.60100    -205.51600      27.74920
             205.60100    -205.51600      27.74920
             205.60100    -205.51600      27.74920
             205.60100    -205.51600      27.74920
             205.60100    -205.51600      27.74920
             205.60100    -205.51600      27.74920
             205.60100    -205.51600      27.74920
             205.60100    -205.51600      27.74920
             205.60100    -205.51600      27.74920
             205.60100    -205.51600      27.74920
             205.60100    -205.51600      27.74920
             205.60100    -205.51600      27.74920
             205.60100    -205.51600      27.74920
             205.60100    -205.51600      27.74920
             205.60100    -205.51600      27.74920
             205.60100    -205.51600      27.74920
             205.60100    -205.51600      27.74920
             205.60100    -205.51600      27.74920
             205.60100    -205.51600      27.74920
             205.60100    -205.51600      27.74920
             205.60100    -205.51600      27.74920
             205.60100    -205.51600      27.74920
             205.60100    -205.51600      27.74920
             205.60100    -205.51600      27.74920
             205.60100    -205.51600      27.74920
             205.60100    -205.51600      27.74920
             205.60100    -205.51600      27.74920
             205.60100    -205.51600      27.74920
             205.60100    -205.51600      27.74920
             205.60100    -205.51600      27.74920
             205.60100    -205.51600      27.74920
             205.60100    -205.51600      27.74920
             205.60100    -205.51600      27.74920
             205.60100    -205.51600      27.74920
             205.60100    -205.51600      27.74920
             205.60100    -205.51600      27.74920
             205.60100    -205.51600      27.74920
             205.60100    -205.51600      27.74920
             205.60100    -205.51600      27.74920
             205.60100    -205.51600      27.74920
             205.60100    -205.51600      27.74920
             205.60100    -205.51600      27.74920
             205.60100    -205.51600      27.74920
             205.60100    -205.51600      27.74920
             205.60100    -205.51600      27.74920
             205.60100    -205.51600      27.74920
             205.60100    -205.51600      27.74920
             205.60100    -205.51600      27.74920
             205.60100    -205.51600      27.74920
             205.60100    -205.51600      27.74920
             205.60100    -205.51600      27.74920
             205.60100    -205.51600      27.74920
             205.60100    -205.51600      27.74920
             205.60100    -205.51600      27.74920
             205.60100    -205.51600      27.74920
             205.60100    -205.51600      27.74920
             205.60100    -205.51600      27.74920
             205.60100    -205.51600      27.74920
             205.60100    -205.51600      27.74920
             205.60100    -205.51600      27.74920
             205.60100    -205.51600      27.74920
             205.60100    -205.51600      27.74920
             205.60100    -205.51600      27.74920
             205.60100    -205.51600      27.74920
             205.60100    -205.51600      27.74920
             205.60100    -205.51600      27.74920
             205.60100    -205.51600      27.74920
             205.60100    -205.51600      27.74920
             205.60100    -205.51600      27.74920
             205.60100    -205.51600      27.74920
             205.60100    -205.51600      27.74920
             205.60100    -205.51600      27.74920
             205.60100    -205.51600      27.74920
             205.60100    -205.51600      27.74920
             205.60100    -205.51600      27.74920
             205.60100    -205.51600      27.74920
             205.60100    -205.51600      27.74920
             205.60100    -205.51600      27.74920
             205.60100    -205.51600      27.74920
             205.60100    -205.51600      27.74920
             205.60100    -205.51600      27.74920
             205.60100    -205.51600      27.74920
             205.60100    -205.51600      27.74920
             205.60100    -205.51600      27.74920
             205.60100    -205.51600      27.74920
             205.60100    -205.51600      27.74920
             205.60100    -205.51600      27.74920
             205.60100    -205.51600      27.74920
             205.60100    -205.51600      27.74920
             205.60100    -205.51600      27.74920
             205.60100    -205.51600      27.74920
             205.60100    -205.51600      27.74920
             205.60100    -205.51600      27.74920
             205.60100    -205.51600      27.74920
             205.60100    -205.51600      27.74920
             205.60100    -205.51600      27.74920
             205.60100    -205.51600      27.74920
             205.60100    -205.51600      27.74920
             205.60100    -205.51600      27.74920
             205.60100    -205.51600      27.74920
             205.60100    -205.51600      27.74920
             205.60100    -205.51600      27.74920
             205.60100    -205.51600      27.74920
             205.60100    -205.51600      27.74920
             205.60100    -205.51600      27.74920
             205.60100    -205.51600      27.74920
             205.60100    -205.51600      27.74920
             205.60100    -205.51600      27.74920
             205.60100    -205.51600      27.74920
             205.60100    -205.51600      27.74920
             205.60100    -205.51600      27.74920
             205.60100    -205.51600      27.74920
             205.60100    -205.51600      27.74920
             205.60100    -205.51600      27.74920
             205.60100    -205.51600      27.74920
             205.60100    -205.51600      27.74920
             205.60100    -205.51600      27.74920
             205.60100    -205.51600      27.74920
             205.60100    -205.51600      27.74920
             205.60100    -205.51600      27.74920
             205.60100    -205.51600      27.74920
             205.60100    -205.51600      27.74920
             205.60100    -205.51600      27.74920
             205.60100    -205.51600      27.74920
             205.60100    -205.51600      27.74920
             205.60100    -205.51600      27.74920
             205.60100    -205.51600      27.74920
             205.60100    -205.51600      27.74920
             205.60100    -205.51600      27.74920
             205.60100    -205.51600      27.74920
             205.60100    -205.51600      27.74920
             205.60100    -205.51600      27.74920
             205.60100    -205.51600      27.74920
             205.60100    -205.51600      27.74920
             205.60100    -205.51600      27.74920
             205.60100    -205.51600      27.74920
             205.60100    -205.51600      27.74920
             205.60100    -205.51600      27.74920
             205.60100    -205.51600      27.74920
             205.60100    -205.51600      27.74920
             205.60100    -205.51600      27.74920
             205.60100    -205.51600      27.74920
             205.60100    -205.51600      27.74920
             205.60100    -205.51600      27.74920
             205.60100    -205.51600      27.74920
             205.60100    -205.51600      27.74920
             205.60100    -205.51600      27.74920
             205.60100    -205.51600      27.74920
             205.60100    -205.51600      27.74920
             205.60100    -205.51600      27.74920
             205.60100    -205.51600      27.74920
             205.60100    -205.51600      27.74920
             205.60100    -205.51600      27.74920
             205.60100    -205.51600      27.74920
             205.60100    -205.51600      27.74920
             205.60100    -205.51600      27.74920
             205.60100    -205.51600      27.74920
             205.60100    -205.51600      27.74920
             205.60100    -205.51600      27.74920
             205.60100    -205.51600      27.74920
             205.60100    -205.51600      27.74920
             205.60100    -205.51600      27.74920
             205.60100    -205.51600      27.74920
             205.60100    -205.51600      27.74920
             205.60100    -205.51600      27.74920
             205.60100    -205.51600      27.74920
             205.60100    -205.51600      27.74920
             205.60100    -205.51600      27.74920
             205.60100    -205.51600      27.74920
             205.60100    -205.51600      27.74920
             205.60100    -205.51600      27.74920
             205.60100    -205.51600      27.74920
             205.60100    -205.51600      27.74920
             205.60100    -205.51600      27.74920
             205.60100    -205.51600      27.74920
             205.60100    -205.51600      27.74920
             205.60100    -205.51600      27.74920
             205.60100    -205.51600      27.74920
             205.60100    -205.51600      27.74920
             205.60100    -205.51600      27.74920
             205.60100    -205.51600      27.74920
             205.60100    -205.51600      27.74920
             205.60100    -205.51600      27.74920
             205.60100    -205.51600      27.74920
             205.60100    -205.51600      27.74920
             205.60100    -205.51600      27.74920
             205.60100    -205.51600      27.74920
             205.60100    -205.51600      27.74920
             205.60100    -205.51600      27.74920
             205.60100    -205.51600      27.74920
             205.60100    -205.51600      27.74920
             205.60100    -205.51600      27.74920
             205.60100    -205.51600      27.74920
             205.60100    -205.51600      27.74920
             205.60100    -205.51600      27.74920
             205.60100    -205.51600      27.74920
             205.60100    -205.51600      27.74920
             205.60100    -205.51600      27.74920
             205.60100    -205.51600      27.74920
             205.60100    -205.51600      27.74920
             205.60100    -205.51600      27.74920
             205.60100    -205.51600      27.74920
             205.60100    -205.51600      27.74920
             205.60100    -205.51600      27.74920
             205.60100    -205.51600      27.74920
             205.60100    -205.51600      27.74920
             205.60100    -205.51600      27.74920
             205.60100    -205.51600      27.74920
             205.60100    -205.51600      27.74920
             205.60100    -205.51600      27.74920
             205.60100    -205.51600      27.74920
             205.60100    -205.51600      27.74920
             205.60100    -205.51600      27.74920
             205.60100    -205.51600      27.74920
             205.60100    -205.51600      27.74920
             205.60100    -205.51600      27.74920
             205.60100    -205.51600      27.74920
             205.60100    -205.51600      27.74920
             205.60100    -205.51600      27.74920
             205.60100    -205.51600      27.74920
             205.60100    -205.51600      27.74920
             205.60100    -205.51600      27.74920
             205.60100    -205.51600      27.74920
             205.60100    -205.51600      27.74920
             205.60100    -205.51600      27.74920
             205.60100    -205.51600      27.74920
             205.60100    -205.51600      27.74920
             205.60100    -205.51600      27.74920
             205.60100    -205.51600      27.74920
             205.60100    -205.51600      27.74920
             205.60100    -205.51600      27.74920
             205.60100    -205.51600      27.74920
             205.60100    -205.51600      27.74920
             205.60100    -205.51600      27.74920
             205.60100    -205.51600      27.74920
             205.60100    -205.51600      27.74920
             205.60100    -205.51600      27.74920
             205.60100    -205.51600      27.74920
             205.60100    -205.51600      27.74920
             205.60100    -205.51600      27.74920
             205.60100    -205.51600      27.74920
             205.60100    -205.51600      27.74920
             205.60100    -205.51600      27.74920
             205.60100    -205.51600      27.74920
             205.60100    -205.51600      27.74920
             205.60100    -205.51600      27.74920
             205.60100    -205.51600      27.74920
             205.60100    -205.51600      27.74920
             205.60100    -205.51600      27.74920
             205.60100    -205.51600      27.74920
             205.60100    -205.51600      27.74920
             205.60100    -205.51600      27.74920
             205.60100    -205.51600      27.74920
             205.60100    -205.51600      27.74920
             205.60100    -205.51600      27.74920
             205.60100    -205.51600      27.74920
             205.60100    -205.51600      27.74920
             205.60100    -205.51600      27.74920
             205.60100    -205.51600      27.74920
             205.60100    -205.51600      27.74920
             205.60100    -205.51600      27.74920
             205.60100    -205.51600      27.74920
             205.60100    -205.51600      27.74920
             205.60100    -205.51600      27.74920
             205.60100    -205.51600      27.74920
             205.60100    -205.51600      27.74920
             205.60100    -205.51600      27.74920
             205.60100    -205.51600      27.74920
             205.60100    -205.51600      27.74920
             205.60100    -205.51600      27.74920
             205.60100    -205.51600      27.74920
             205.60100    -205.51600      27.74920
             205.60100    -205.51600      27.74920
             205.60100    -205.51600      27.74920
             205.60100    -205.51600      27.74920
             205.60100    -205.51600      27.74920
             205.60100    -205.51600      27.74920
             205.60100    -205.51600      27.74920
             205.60100    -205.51600      27.74920
             205.60100    -205.51600      27.74920
             205.60100    -205.51600      27.74920
             205.60100    -205.51600      27.74920
             205.60100    -205.51600      27.74920
             205.60100    -205.51600      27.74920
             205.60100    -205.51600      27.74920
             205.60100    -205.51600      27.74920
             205.60100    -205.51600      27.74920
             205.60100    -205.51600      27.74920
             205.60100    -205.51600      27.74920
             205.60100    -205.51600      27.74920
             205.60100    -205.51600      27.74920
             205.60100    -205.51600      27.74920
             205.60100    -205.51600      27.74920
             205.60100    -205.51600      27.74920
             205.60100    -205.51600      27.74920
             205.60100    -205.51600      27.74920
             205.60100    -205.51600      27.74920
             205.60100    -205.51600      27.74920
             205.60100    -205.51600      27.74920
             205.60100    -205.51600      27.74920
             205.60100    -205.51600      27.74920
             205.60100    -205.51600      27.74920
             205.60100    -205.51600      27.74920
             205.60100    -205.51600      27.74920
             205.60100    -205.51600      27.74920
             205.60100    -205.51600      27.74920
             205.60100    -205.51600      27.74920
             205.60100    -205.51600      27.74920
             205.60100    -205.51600      27.74920
             205.60100    -205.51600      27.74920
             205.60100    -205.51600      27.74920
             205.60100    -205.51600      27.74920
             205.60100    -205.51600      27.74920
             205.60100    -205.51600      27.74920
             205.60100    -205.51600      27.74920
             205.60100    -205.51600      27.74920
             205.60100    -205.51600      27.74920
             205.60100    -205.51600      27.74920
             205.60100    -205.51600      27.74920
             205.60100    -205.51600      27.74920
             205.60100    -205.51600      27.74920
             205.60100    -205.51600      27.74920
             205.60100    -205.51600      27.74920
             205.60100    -205.51600      27.74920
             205.60100    -205.51600      27.74920
             205.60100    -205.51600      27.74920
             205.60100    -205.51600      27.74920
             205.60100    -205.51600      27.74920
             205.60100    -205.51600      27.74920
             205.60100    -205.51600      27.74920
             205.60100    -205.51600      27.74920
             205.60100    -205.51600      27.74920
             205.60100    -205.51600      27.74920
             205.60100    -205.51600      27.74920
             205.60100    -205.51600      27.74920
             205.60100    -205.51600      27.74920
             205.60100    -205.51600      27.74920
             205.60100    -205.51600      27.74920
             205.60100    -205.51600      27.74920
             205.60100    -205.51600      27.74920
             205.60100    -205.51600      27.74920
             205.60100    -205.51600      27.74920
             205.60100    -205.51600      27.74920
             205.60100    -205.51600      27.74920
             205.60100    -205.51600      27.74920
             205.60100    -205.51600      27.74920
             205.60100    -205.51600      27.74920
             205.60100    -205.51600      27.74920
             205.60100    -205.51600      27.74920
             205.60100    -205.51600      27.74920
             205.60100    -205.51600      27.74920
             205.60100    -205.51600      27.74920
             205.60100    -205.51600      27.74920
             205.60100    -205.51600      27.74920
             205.60100    -205.51600      27.74920
             205.60100    -205.51600      27.74920
             205.60100    -205.51600      27.74920
             205.60100    -205.51600      27.74920
             205.60100    -205.51600      27.74920
             205.60100    -205.51600      27.74920
             205.60100    -205.51600      27.74920
             205.60100    -205.51600      27.74920
             205.60100    -205.51600      27.74920
             205.60100    -205.51600      27.74920
             205.60100    -205.51600      27.74920
             205.60100    -205.51600      27.74920
             205.60100    -205.51600      27.74920
             205.60100    -205.51600      27.74920
             205.60100    -205.51600      27.74920
             205.60100    -205.51600      27.74920
             205.60100    -205.51600      27.74920
             205.60100    -205.51600      27.74920
             205.60100    -205.51600      27.74920
             205.60100    -205.51600      27.74920
             205.60100    -205.51600      27.74920
             205.60100    -205.51600      27.74920
             205.60100    -205.51600      27.74920
             205.60100    -205.51600      27.74920
             205.60100    -205.51600      27.74920
             205.60100    -205.51600      27.74920
             205.60100    -205.51600      27.74920
             205.60100    -205.51600      27.74920
             205.60100    -205.51600      27.74920
             205.60100    -205.51600      27.74920
             205.60100    -205.51600      27.74920
             205.60100    -205.51600      27.74920
             205.60100    -205.51600      27.74920
             205.60100    -205.51600      27.74920
             205.60100    -205.51600      27.74920
             205.60100    -205.51600      27.74920
             205.60100    -205.51600      27.74920
             205.60100    -205.51600      27.74920
             205.60100    -205.51600      27.74920
             205.60100    -205.51600      27.74920
             205.60100    -205.51600      27.74920
             205.60100    -205.51600      27.74920
             205.60100    -205.51600      27.74920
             205.60100    -205.51600      27.74920
             205.60100    -205.51600      27.74920
             205.60100    -205.51600      27.74920
             205.60100    -205.51600      27.74920
             205.60100    -205.51600      27.74920
             205.60100    -205.51600      27.74920
             205.60100    -205.51600      27.74920
             205.60100    -205.51600      27.74920
             205.60100    -205.51600      27.74920
             205.60100    -205.51600      27.74920
             205.60100    -205.51600      27.74920
             205.60100    -205.51600      27.74920
             205.60100    -205.51600      27.74920
             205.60100    -205.51600      27.74920
             205.60100    -205.51600      27.74920
             205.60100    -205.51600      27.74920
             205.60100    -205.51600      27.74920
             205.60100    -205.51600      27.74920
             205.60100    -205.51600      27.74920
             205.60100    -205.51600      27.74920
             205.60100    -205.51600      27.74920
             205.60100    -205.51600      27.74920
             205.60100    -205.51600      27.74920
             205.60100    -205.51600      27.74920
             205.60100    -205.51600      27.74920
             205.60100    -205.51600      27.74920
             205.60100    -205.51600      27.74920
             205.60100    -205.51600      27.74920
             205.60100    -205.51600      27.74920
             205.60100    -205.51600      27.74920
             205.60100    -205.51600      27.74920
             205.60100    -205.51600      27.74920
             205.60100    -205.51600      27.74920
             205.60100    -205.51600      27.74920
             205.60100    -205.51600      27.74920
             205.60100    -205.51600      27.74920
             205.60100    -205.51600      27.74920
             205.60100    -205.51600      27.74920
             205.60100    -205.51600      27.74920
             205.60100    -205.51600      27.74920
             205.60100    -205.51600      27.74920
             205.60100    -205.51600      27.74920
             205.60100    -205.51600      27.74920
             205.60100    -205.51600      27.74920
             205.60100    -205.51600      27.74920
             205.60100    -205.51600      27.74920
             205.60100    -205.51600      27.74920
             205.60100    -205.51600      27.74920
             205.60100    -205.51600      27.74920
             205.60100    -205.51600      27.74920
             205.60100    -205.51600      27.74920
             205.60100    -205.51600      27.74920
             205.60100    -205.51600      27.74920
             205.60100    -205.51600      27.74920
             205.60100    -205.51600      27.74920
             205.60100    -205.51600      27.74920
             205.60100    -205.51600      27.74920
             205.60100    -205.51600      27.74920
             205.60100    -205.51600      27.74920
             205.60100    -205.51600      27.74920
             205.60100    -205.51600      27.74920
             205.60100    -205.51600      27.74920
             205.60100    -205.51600      27.74920
             205.60100    -205.51600      27.74920
             205.60100    -205.51600      27.74920
             205.60100    -205.51600      27.74920
             205.60100    -205.51600      27.74920
             205.60100    -205.51600      27.74920
             205.60100    -205.51600      27.74920
             205.60100    -205.51600      27.74920
             205.60100    -205.51600      27.74920
             205.60100    -205.51600      27.74920
             205.60100    -205.51600      27.74920
             205.60100    -205.51600      27.74920
             205.60100    -205.51600      27.74920
             205.60100    -205.51600      27.74920
             205.60100    -205.51600      27.74920
             205.60100    -205.51600      27.74920
             205.60100    -205.51600      27.74920
             205.60100    -205.51600      27.74920
             205.60100    -205.51600      27.74920
             205.60100    -205.51600      27.74920
             205.60100    -205.51600      27.74920
             205.60100    -205.51600      27.74920
             205.60100    -205.51600      27.74920
             205.60100    -205.51600      27.74920
             205.60100    -205.51600      27.74920
             205.60100    -205.51600      27.74920
             205.60100    -205.51600      27.74920
             205.60100    -205.51600      27.74920
             205.60100    -205.51600      27.74920
             205.60100    -205.51600      27.74920
             205.60100    -205.51600      27.74920
             205.60100    -205.51600      27.74920
             205.60100    -205.51600      27.74920
             205.60100    -205.51600      27.74920
             205.60100    -205.51600      27.74920
             205.60100    -205.51600      27.74920
             205.60100    -205.51600      27.74920
             205.60100    -205.51600      27.74920
             205.60100    -205.51600      27.74920
             205.60100    -205.51600      27.74920
             205.60100    -205.51600      27.74920
             205.60100    -205.51600      27.74920
             205.60100    -205.51600      27.74920
             205.60100    -205.51600      27.74920
             205.60100    -205.51600      27.74920
             205.60100    -205.51600      27.74920
             205.60100    -205.51600      27.74920
             205.60100    -205.51600      27.74920
             205.60100    -205.51600      27.74920
             205.60100    -205.51600      27.74920
             205.60100    -205.51600      27.74920
             205.60100    -205.51600      27.74920
             205.60100    -205.51600      27.74920
             205.60100    -205.51600      27.74920
             205.60100    -205.51600      27.74920
             205.60100    -205.51600      27.74920
             205.60100    -205.51600      27.74920
             205.60100    -205.51600      27.74920
             205.60100    -205.51600      27.74920
             205.60100    -205.51600      27.74920
             205.60100    -205.51600      27.74920
             205.60100    -205.51600      27.74920
             205.60100    -205.51600      27.74920
             205.60100    -205.51600      27.74920
             205.60100    -205.51600      27.74920
             205.60100    -205.51600      27.74920
             205.60100    -205.51600      27.74920
             205.60100    -205.51600      27.74920
             205.60100    -205.51600      27.74920
             205.60100    -205.51600      27.74920
             205.60100    -205.51600      27.74920
             205.60100    -205.51600      27.74920
             205.60100    -205.51600      27.74920
             205.60100    -205.51600      27.74920
             205.60100    -205.51600      27.74920
             205.60100    -205.51600      27.74920
             205.60100    -205.51600      27.74920
             205.60100    -205.51600      27.74920
             205.60100    -205.51600      27.74920
             205.60100    -205.51600      27.74920
             205.60100    -205.51600      27.74920
             205.60100    -205.51600      27.74920
             205.60100    -205.51600      27.74920
             205.60100    -205.51600      27.74920
             205.60100    -205.51600      27.74920
             205.60100    -205.51600      27.74920
             205.60100    -205.51600      27.74920
             205.60100    -205.51600      27.74920
             205.60100    -205.51600      27.74920
             205.60100    -205.51600      27.74920
             205.60100    -205.51600      27.74920
             205.60100    -205.51600      27.74920
             205.60100    -205.51600      27.74920
             205.60100    -205.51600      27.74920
             205.60100    -205.51600      27.74920
             205.60100    -205.51600      27.74920
             205.60100    -205.51600      27.74920
             205.60100    -205.51600      27.74920
             205.60100    -205.51600      27.74920
             205.60100    -205.51600      27.74920
             205.60100    -205.51600      27.74920
             205.60100    -205.51600      27.74920
             205.60100    -205.51600      27.74920
             205.60100    -205.51600      27.74920
             205.60100    -205.51600      27.74920
             205.60100    -205.51600      27.74920
             205.60100    -205.51600      27.74920
             205.60100    -205.51600      27.74920
             205.60100    -205.51600      27.74920
             205.60100    -205.51600      27.74920
             205.60100    -205.51600      27.74920
             205.60100    -205.51600      27.74920
             205.60100    -205.51600      27.74920
             205.60100    -205.51600      27.74920
             205.60100    -205.51600      27.74920
             205.60100    -205.51600      27.74920
             205.60100    -205.51600      27.74920
             205.60100    -205.51600      27.74920
             205.60100    -205.51600      27.74920
             205.60100    -205.51600      27.74920
             205.60100    -205.51600      27.74920
             205.60100    -205.51600      27.74920
             205.60100    -205.51600      27.74920
             205.60100    -205.51600      27.74920
             205.60100    -205.51600      27.74920
             205.60100    -205.51600      27.74920
             205.60100    -205.51600      27.74920
             205.60100    -205.51600      27.74920
             205.60100    -205.51600      27.74920
             205.60100    -205.51600      27.74920
             205.60100    -205.51600      27.74920
             205.60100    -205.51600      27.74920
             205.60100    -205.51600      27.74920
             205.60100    -205.51600      27.74920
             205.60100    -205.51600      27.74920
             205.60100    -205.51600      27.74920
             205.60100    -205.51600      27.74920
             205.60100    -205.51600      27.74920
             205.60100    -205.51600      27.74920
             205.60100    -205.51600      27.74920
             205.60100    -205.51600      27.74920
             205.60100    -205.51600      27.74920
             205.60100    -205.51600      27.74920
             205.60100    -205.51600      27.74920
             205.60100    -205.51600      27.74920
             205.60100    -205.51600      27.74920
             205.60100    -205.51600      27.74920
             205.60100    -205.51600      27.74920
             205.60100    -205.51600      27.74920
             205.60100    -205.51600      27.74920
             205.60100    -205.51600      27.74920
             205.60100    -205.51600      27.74920
             205.60100    -205.51600      27.74920
             205.60100    -205.51600      27.74920
             205.60100    -205.51600      27.74920
             205.60100    -205.51600      27.74920
             205.60100    -205.51600      27.74920
             205.60100    -205.51600      27.74920
             205.60100    -205.51600      27.74920
             205.60100    -205.51600      27.74920
             205.60100    -205.51600      27.74920
             205.60100    -205.51600      27.74920
             205.60100    -205.51600      27.74920
             205.60100    -205.51600      27.74920
             205.60100    -205.51600      27.74920
             205.60100    -205.51600      27.74920
             205.60100    -205.51600      27.74920
             205.60100    -205.51600      27.74920
             205.60100    -205.51600      27.74920
             205.60100    -205.51600      27.74920
             205.60100    -205.51600      27.74920
             205.60100    -205.51600      27.74920
             205.60100    -205.51600      27.74920
             205.60100    -205.51600      27.74920
             205.60100    -205.51600      27.74920
             205.60100    -205.51600      27.74920
             205.60100    -205.51600      27.74920
             205.60100    -205.51600      27.74920
             205.60100    -205.51600      27.74920
             205.60100    -205.51600      27.74920
             205.60100    -205.51600      27.74920
             205.60100    -205.51600      27.74920
             205.60100    -205.51600      27.74920
             205.60100    -205.51600      27.74920
             205.60100    -205.51600      27.74920
             205.60100    -205.51600      27.74920
             205.60100    -205.51600      27.74920
             205.60100    -205.51600      27.74920
             205.60100    -205.51600      27.74920
             205.60100    -205.51600      27.74920
             205.60100    -205.51600      27.74920
             205.60100    -205.51600      27.74920
             205.60100    -205.51600      27.74920
             205.60100    -205.51600      27.74920
             205.60100    -205.51600      27.74920
             205.60100    -205.51600      27.74920
             205.60100    -205.51600      27.74920
             205.60100    -205.51600      27.74920
             205.60100    -205.51600      27.74920
             205.60100    -205.51600      27.74920
             205.60100    -205.51600      27.74920
             205.60100    -205.51600      27.74920
             205.60100    -205.51600      27.74920
             205.60100    -205.51600      27.74920
             205.60100    -205.51600      27.74920
             205.60100    -205.51600      27.74920
             205.60100    -205.51600      27.74920
             205.60100    -205.51600      27.74920
             205.60100    -205.51600      27.74920
             205.60100    -205.51600      27.74920
             205.60100    -205.51600      27.74920
             205.60100    -205.51600      27.74920
             205.60100    -205.51600      27.74920
             205.60100    -205.51600      27.74920
             205.60100    -205.51600      27.74920
             205.60100    -205.51600      27.74920
             205.60100    -205.51600      27.74920
             205.60100    -205.51600      27.74920
             205.60100    -205.51600      27.74920
             205.60100    -205.51600      27.74920
             205.60100    -205.51600      27.74920
             205.60100    -205.51600      27.74920
             205.60100    -205.51600      27.74920
             205.60100    -205.51600      27.74920
             205.60100    -205.51600      27.74920
             205.60100    -205.51600      27.74920
             205.60100    -205.51600      27.74920
             205.60100    -205.51600      27.74920
             205.60100    -205.51600      27.74920
             205.60100    -205.51600      27.74920
             205.60100    -205.51600      27.74920
             205.60100    -205.51600      27.74920
             205.60100    -205.51600      27.74920
             205.60100    -205.51600      27.74920
             205.60100    -205.51600      27.74920
             205.60100    -205.51600      27.74920
             205.60100    -205.51600      27.74920
             205.60100    -205.51600      27.74920
             205.60100    -205.51600      27.74920
             205.60100    -205.51600      27.74920
             205.60100    -205.51600      27.74920
             205.60100    -205.51600      27.74920
             205.60100    -205.51600      27.74920
             205.60100    -205.51600      27.74920
             205.60100    -205.51600      27.74920
             205.60100    -205.51600      27.74920
             205.60100    -205.51600      27.74920
             205.60100    -205.51600      27.74920
             205.60100    -205.51600      27.74920
             205.60100    -205.51600      27.74920
             205.60100    -205.51600      27.74920
             205.60100    -205.51600      27.74920
             205.60100    -205.51600      27.74920
             205.60100    -205.51600      27.74920
             205.60100    -205.51600      27.74920
             205.60100    -205.51600      27.74920
             205.60100    -205.51600      27.74920
             205.60100    -205.51600      27.74920
             205.60100    -205.51600      27.74920
             205.60100    -205.51600      27.74920
             205.60100    -205.51600      27.74920
             205.60100    -205.51600      27.74920
             205.60100    -205.51600      27.74920
             205.60100    -205.51600      27.74920
             205.60100    -205.51600      27.74920
             205.60100    -205.51600      27.74920
             205.60100    -205.51600      27.74920
             205.60100    -205.51600      27.74920
             205.60100    -205.51600      27.74920
             205.60100    -205.51600      27.74920
             205.60100    -205.51600      27.74920
             205.60100    -205.51600      27.74920
             205.60100    -205.51600      27.74920
             205.60100    -205.51600      27.74920
             205.60100    -205.51600      27.74920
             205.60100    -205.51600      27.74920
             205.60100    -205.51600      27.74920
             205.60100    -205.51600      27.74920
             205.60100    -205.51600      27.74920
             205.60100    -205.51600      27.74920
             205.60100    -205.51600      27.74920
             205.60100    -205.51600      27.74920
             205.60100    -205.51600      27.74920
             205.60100    -205.51600      27.74920
             205.60100    -205.51600      27.74920
             205.60100    -205.51600      27.74920
             205.60100    -205.51600      27.74920
             205.60100    -205.51600      27.74920
             205.60100    -205.51600      27.74920
             205.60100    -205.51600      27.74920
             205.60100    -205.51600      27.74920
             205.60100    -205.51600      27.74920
             205.60100    -205.51600      27.74920
             205.60100    -205.51600      27.74920
             205.60100    -205.51600      27.74920
             205.60100    -205.51600      27.74920
             205.60100    -205.51600      27.74920
             205.60100    -205.51600      27.74920
             205.60100    -205.51600      27.74920
             205.60100    -205.51600      27.74920
             205.60100    -205.51600      27.74920
             205.60100    -205.51600      27.74920
             205.60100    -205.51600      27.74920
             205.60100    -205.51600      27.74920
             205.60100    -205.51600      27.74920
             205.60100    -205.51600      27.74920
             205.60100    -205.51600      27.74920
             205.60100    -205.51600      27.74920
             205.60100    -205.51600      27.74920
             205.60100    -205.51600      27.74920
             205.60100    -205.51600      27.74920
             205.60100    -205.51600      27.74920
             205.60100    -205.51600      27.74920
             205.60100    -205.51600      27.74920
             205.60100    -205.51600      27.74920
             205.60100    -205.51600      27.74920
             205.60100    -205.51600      27.74920
             205.60100    -205.51600      27.74920
             205.60100    -205.51600      27.74920
             205.60100    -205.51600      27.74920
             205.60100    -205.51600      27.74920
             205.60100    -205.51600      27.74920
             205.60100    -205.51600      27.74920
             205.60100    -205.51600      27.74920
             205.60100    -205.51600      27.74920
             205.60100    -205.51600      27.74920
             205.60100    -205.51600      27.74920
             205.60100    -205.51600      27.74920
             205.60100    -205.51600      27.74920
             205.60100    -205.51600      27.74920
             205.60100    -205.51600      27.74920
             205.60100    -205.51600      27.74920
             205.60100    -205.51600      27.74920
             205.60100    -205.51600      27.74920
             205.60100    -205.51600      27.74920
             205.60100    -205.51600      27.74920
             205.60100    -205.51600      27.74920
             205.60100    -205.51600      27.74920
             205.60100    -205.51600      27.74920
             205.60100    -205.51600      27.74920
             205.60100    -205.51600      27.74920
             205.60100    -205.51600      27.74920
             205.60100    -205.51600      27.74920
             205.60100    -205.51600      27.74920
             205.60100    -205.51600      27.74920
             205.60100    -205.51600      27.74920
             205.60100    -205.51600      27.74920
             205.60100    -205.51600      27.74920
             205.60100    -205.51600      27.74920
             205.60100    -205.51600      27.74920
             205.60100    -205.51600      27.74920
             205.60100    -205.51600      27.74920
             205.60100    -205.51600      27.74920
             205.60100    -205.51600      27.74920
             205.60100    -205.51600      27.74920
             205.60100    -205.51600      27.74920
             205.60100    -205.51600      27.74920
             205.60100    -205.51600      27.74920
             205.60100    -205.51600      27.74920
             205.60100    -205.51600      27.74920
             205.60100    -205.51600      27.74920
             205.60100    -205.51600      27.74920
             205.60100    -205.51600      27.74920
             205.60100    -205.51600      27.74920
             205.60100    -205.51600      27.74920
             205.60100    -205.51600      27.74920
             205.60100    -205.51600      27.74920
             205.60100    -205.51600      27.74920
             205.60100    -205.51600      27.74920
             205.60100    -205.51600      27.74920
             205.60100    -205.51600      27.74920
             205.60100    -205.51600      27.74920
             205.60100    -205.51600      27.74920
             205.60100    -205.51600      27.74920
             205.60100    -205.51600      27.74920
             205.60100    -205.51600      27.74920
             205.60100    -205.51600      27.74920
             205.60100    -205.51600      27.74920
             205.60100    -205.51600      27.74920
             205.60100    -205.51600      27.74920
             205.60100    -205.51600      27.74920
             205.60100    -205.51600      27.74920
             205.60100    -205.51600      27.74920
             205.60100    -205.51600      27.74920
             205.60100    -205.51600      27.74920
             205.60100    -205.51600      27.74920
             205.60100    -205.51600      27.74920
             205.60100    -205.51600      27.74920
             205.60100    -205.51600      27.74920
             205.60100    -205.51600      27.74920
             205.60100    -205.51600      27.74920
             205.60100    -205.51600      27.74920
             205.60100    -205.51600      27.74920
             205.60100    -205.51600      27.74920
             205.60100    -205.51600      27.74920
             205.60100    -205.51600      27.74920
             205.60100    -205.51600      27.74920
             205.60100    -205.51600      27.74920
             205.60100    -205.51600      27.74920
             205.60100    -205.51600      27.74920
             205.60100    -205.51600      27.74920
             205.60100    -205.51600      27.74920
             205.60100    -205.51600      27.74920
             205.60100    -205.51600      27.74920
             205.60100    -205.51600      27.74920
             205.60100    -205.51600      27.74920
             205.60100    -205.51600      27.74920
             205.60100    -205.51600      27.74920
             205.60100    -205.51600      27.74920
             205.60100    -205.51600      27.74920
             205.60100    -205.51600      27.74920
             205.60100    -205.51600      27.74920
             205.60100    -205.51600      27.74920
             205.60100    -205.51600      27.74920
             205.60100    -205.51600      27.74920
             205.60100    -205.51600      27.74920
             205.60100    -205.51600      27.74920
             205.60100    -205.51600      27.74920
             205.60100    -205.51600      27.74920
             205.60100    -205.51600      27.74920
             205.60100    -205.51600      27.74920
             205.60100    -205.51600      27.74920
             205.60100    -205.51600      27.74920
             205.60100    -205.51600      27.74920
             205.60100    -205.51600      27.74920
             205.60100    -205.51600      27.74920
             205.60100    -205.51600      27.74920
             205.60100    -205.51600      27.74920
             205.60100    -205.51600      27.74920
             205.60100    -205.51600      27.74920
             205.60100    -205.51600      27.74920
             205.60100    -205.51600      27.74920
             205.60100    -205.51600      27.74920
             205.60100    -205.51600      27.74920
             205.60100    -205.51600      27.74920
             205.60100    -205.51600      27.74920
             205.60100    -205.51600      27.74920
             205.60100    -205.51600      27.74920
             205.60100    -205.51600      27.74920
             205.60100    -205.51600      27.74920
             205.60100    -205.51600      27.74920
             205.60100    -205.51600      27.74920
             205.60100    -205.51600      27.74920
             205.60100    -205.51600      27.74920
             205.60100    -205.51600      27.74920
             205.60100    -205.51600      27.74920
             205.60100    -205.51600      27.74920
             205.60100    -205.51600      27.74920
             205.60100    -205.51600      27.74920
             205.60100    -205.51600      27.74920
             205.60100    -205.51600      27.74920
             205.60100    -205.51600      27.74920
             205.60100    -205.51600      27.74920
             205.60100    -205.51600      27.74920
             205.60100    -205.51600      27.74920
             205.60100    -205.51600      27.74920
             205.60100    -205.51600      27.74920
             205.60100    -205.51600      27.74920
             205.60100    -205.51600      27.74920
             205.60100    -205.51600      27.74920
             205.60100    -205.51600      27.74920
             205.60100    -205.51600      27.74920
             205.60100    -205.51600      27.74920
             205.60100    -205.51600      27.74920
             205.60100    -205.51600      27.74920
             205.60100    -205.51600      27.74920
             205.60100    -205.51600      27.74920
             205.60100    -205.51600      27.74920
             205.60100    -205.51600      27.74920
             205.60100    -205.51600      27.74920
             205.60100    -205.51600      27.74920
             205.60100    -205.51600      27.74920
             205.60100    -205.51600      27.74920
             205.60100    -205.51600      27.74920
             205.60100    -205.51600      27.74920
             205.60100    -205.51600      27.74920
             205.60100    -205.51600      27.74920
             205.60100    -205.51600      27.74920
             205.60100    -205.51600      27.74920
             205.60100    -205.51600      27.74920
             205.60100    -205.51600      27.74920
             205.60100    -205.51600      27.74920
             205.60100    -205.51600      27.74920
             205.60100    -205.51600      27.74920
             205.60100    -205.51600      27.74920
             205.60100    -205.51600      27.74920
             205.60100    -205.51600      27.74920
             205.60100    -205.51600      27.74920
             205.60100    -205.51600      27.74920
             205.60100    -205.51600      27.74920
             205.60100    -205.51600      27.74920
             205.60100    -205.51600      27.74920
             205.60100    -205.51600      27.74920
             205.60100    -205.51600      27.74920
             205.60100    -205.51600      27.74920
             205.60100    -205.51600      27.74920
             205.60100    -205.51600      27.74920
             205.60100    -205.51600      27.74920
             205.60100    -205.51600      27.74920
             205.60100    -205.51600      27.74920
             205.60100    -205.51600      27.74920
             205.60100    -205.51600      27.74920
             205.60100    -205.51600      27.74920
             205.60100    -205.51600      27.74920
             205.60100    -205.51600      27.74920
             205.60100    -205.51600      27.74920
             205.60100    -205.51600      27.74920
             205.60100    -205.51600      27.74920
             205.60100    -205.51600      27.74920
             205.60100    -205.51600      27.74920
             205.60100    -205.51600      27.74920
             205.60100    -205.51600      27.74920
             205.60100    -205.51600      27.74920
             205.60100    -205.51600      27.74920
             205.60100    -205.51600      27.74920
             205.60100    -205.51600      27.74920
             205.60100    -205.51600      27.74920
             205.60100    -205.51600      27.74920
             205.60100    -205.51600      27.74920
             205.60100    -205.51600      27.74920
             205.60100    -205.51600      27.74920
             205.60100    -205.51600      27.74920
             205.60100    -205.51600      27.74920
             205.60100    -205.51600      27.74920
             205.60100    -205.51600      27.74920
             205.60100    -205.51600      27.74920
             205.60100    -205.51600      27.74920
             205.60100    -205.51600      27.74920
             205.60100    -205.51600      27.74920
             205.60100    -205.51600      27.74920
             205.60100    -205.51600      27.74920
             205.60100    -205.51600      27.74920
             205.60100    -205.51600      27.74920
             205.60100    -205.51600      27.74920
             205.60100    -205.51600      27.74920
             205.60100    -205.51600      27.74920
             205.60100    -205.51600      27.74920
             205.60100    -205.51600      27.74920
             205.60100    -205.51600      27.74920
             205.60100    -205.51600      27.74920
             205.60100    -205.51600      27.74920
             205.60100    -205.51600      27.74920
             205.60100    -205.51600      27.74920
             205.60100    -205.51600      27.74920
             205.60100    -205.51600      27.74920
             205.60100    -205.51600      27.74920
             205.60100    -205.51600      27.74920
             205.60100    -205.51600      27.74920
             205.60100    -205.51600      27.74920
             205.60100    -205.51600      27.74920
             205.60100    -205.51600      27.74920
             205.60100    -205.51600      27.74920
             205.60100    -205.51600      27.74920
             205.60100    -205.51600      27.74920
             205.60100    -205.51600      27.74920
             205.60100    -205.51600      27.74920
             205.60100    -205.51600      27.74920
             205.60100    -205.51600      27.74920
             205.60100    -205.51600      27.74920
             205.60100    -205.51600      27.74920
             205.60100    -205.51600      27.74920
             205.60100    -205.51600      27.74920
             205.60100    -205.51600      27.74920
             205.60100    -205.51600      27.74920
             205.60100    -205.51600      27.74920
             205.60100    -205.51600      27.74920
             205.60100    -205.51600      27.74920
             205.60100    -205.51600      27.74920
             205.60100    -205.51600      27.74920
             205.60100    -205.51600      27.74920
             205.60100    -205.51600      27.74920
             205.60100    -205.51600      27.74920
             205.60100    -205.51600      27.74920
             205.60100    -205.51600      27.74920
             205.60100    -205.51600      27.74920
             205.60100    -205.51600      27.74920
             205.60100    -205.51600      27.74920
             205.60100    -205.51600      27.74920
             205.60100    -205.51600      27.74920
             205.60100    -205.51600      27.74920
             205.60100    -205.51600      27.74920
             205.60100    -205.51600      27.74920
             205.60100    -205.51600      27.74920
             205.60100    -205.51600      27.74920
             205.60100    -205.51600      27.74920
             205.60100    -205.51600      27.74920
             205.60100    -205.51600      27.74920
             205.60100    -205.51600      27.74920
             205.60100    -205.51600      27.74920
             205.60100    -205.51600      27.74920
             205.60100    -205.51600      27.74920
             205.60100    -205.51600      27.74920
             205.60100    -205.51600      27.74920
             205.60100    -205.51600      27.74920
             205.60100    -205.51600      27.74920
             205.60100    -205.51600      27.74920
             205.60100    -205.51600      27.74920
             205.60100    -205.51600      27.74920
             205.60100    -205.51600      27.74920
             205.60100    -205.51600      27.74920
             205.60100    -205.51600      27.74920
             205.60100    -205.51600      27.74920
             205.60100    -205.51600      27.74920
             205.60100    -205.51600      27.74920
             205.60100    -205.51600      27.74920
             205.60100    -205.51600      27.74920
             205.60100    -205.51600      27.74920
             205.60100    -205.51600      27.74920
             205.60100    -205.51600      27.74920
             205.60100    -205.51600      27.74920
             205.60100    -205.51600      27.74920
             205.60100    -205.51600      27.74920
             205.60100    -205.51600      27.74920
             205.60100    -205.51600      27.74920
             205.60100    -205.51600      27.74920
             205.60100    -205.51600      27.74920
             205.60100    -205.51600      27.74920
             205.60100    -205.51600      27.74920
             205.60100    -205.51600      27.74920
             205.60100    -205.51600      27.74920
             205.60100    -205.51600      27.74920
             205.60100    -205.51600      27.74920
             205.60100    -205.51600      27.74920
             205.60100    -205.51600      27.74920
             205.60100    -205.51600      27.74920
             205.60100    -205.51600      27.74920
             205.60100    -205.51600      27.74920
             205.60100    -205.51600      27.74920
             205.60100    -205.51600      27.74920
             205.60100    -205.51600      27.74920
             205.60100    -205.51600      27.74920
             205.60100    -205.51600      27.74920
             205.60100    -205.51600      27.74920
             205.60100    -205.51600      27.74920
             205.60100    -205.51600      27.74920
             205.60100    -205.51600      27.74920
             205.60100    -205.51600      27.74920
             205.60100    -205.51600      27.74920
             205.60100    -205.51600      27.74920
             205.60100    -205.51600      27.74920
             205.60100    -205.51600      27.74920
             205.60100    -205.51600      27.74920
             205.60100    -205.51600      27.74920
             205.60100    -205.51600      27.74920
             205.60100    -205.51600      27.74920
             205.60100    -205.51600      27.74920
             205.60100    -205.51600      27.74920
             205.60100    -205.51600      27.74920
             205.60100    -205.51600      27.74920
             205.60100    -205.51600      27.74920
             205.60100    -205.51600      27.74920
             205.60100    -205.51600      27.74920
             205.60100    -205.51600      27.74920
             205.60100    -205.51600      27.74920
             205.60100    -205.51600      27.74920
             205.60100    -205.51600      27.74920
             205.60100    -205.51600      27.74920
             205.60100    -205.51600      27.74920
             205.60100    -205.51600      27.74920
             205.60100    -205.51600      27.74920
             205.60100    -205.51600      27.74920
             205.60100    -205.51600      27.74920
             205.60100    -205.51600      27.74920
             205.60100    -205.51600      27.74920
             205.60100    -205.51600      27.74920
             205.60100    -205.51600      27.74920
             205.60100    -205.51600      27.74920
             205.60100    -205.51600      27.74920
             205.60100    -205.51600      27.74920
             205.60100    -205.51600      27.74920
             205.60100    -205.51600      27.74920
             205.60100    -205.51600      27.74920
             205.60100    -205.51600      27.74920
             205.60100    -205.51600      27.74920
             205.60100    -205.51600      27.74920
             205.60100    -205.51600      27.74920
             205.60100    -205.51600      27.74920
             205.60100    -205.51600      27.74920
             205.60100    -205.51600      27.74920
             205.60100    -205.51600      27.74920
             205.60100    -205.51600      27.74920
             205.60100    -205.51600      27.74920
             205.60100    -205.51600      27.74920
             205.60100    -205.51600      27.74920
             205.60100    -205.51600      27.74920
             205.60100    -205.51600      27.74920
             205.60100    -205.51600      27.74920
             205.60100    -205.51600      27.74920
             205.60100    -205.51600      27.74920
             205.60100    -205.51600      27.74920
             205.60100    -205.51600      27.74920
             205.60100    -205.51600      27.74920
             205.60100    -205.51600      27.74920
             205.60100    -205.51600      27.74920
             205.60100    -205.51600      27.74920
             205.60100    -205.51600      27.74920
             205.60100    -205.51600      27.74920
             205.60100    -205.51600      27.74920
             205.60100    -205.51600      27.74920
             205.60100    -205.51600      27.74920
             205.60100    -205.51600      27.74920
             205.60100    -205.51600      27.74920
             205.60100    -205.51600      27.74920
             205.60100    -205.51600      27.74920
             205.60100    -205.51600      27.74920
             205.60100    -205.51600      27.74920
             205.60100    -205.51600      27.74920
             205.60100    -205.51600      27.74920
             205.60100    -205.51600      27.74920
             205.60100    -205.51600      27.74920
             205.60100    -205.51600      27.74920
             205.60100    -205.51600      27.74920
             205.60100    -205.51600      27.74920
             205.60100    -205.51600      27.74920
             205.60100    -205.51600      27.74920
             205.60100    -205.51600      27.74920
             205.60100    -205.51600      27.74920
             205.60100    -205.51600      27.74920
             205.60100    -205.51600      27.74920
             205.60100    -205.51600      27.74920
             205.60100    -205.51600      27.74920
             205.60100    -205.51600      27.74920
             205.60100    -205.51600      27.74920
             205.60100    -205.51600      27.74920
             205.60100    -205.51600      27.74920
             205.60100    -205.51600      27.74920
             205.60100    -205.51600      27.74920
             205.60100    -205.51600      27.74920
             205.60100    -205.51600      27.74920
             205.60100    -205.51600      27.74920
             205.60100    -205.51600      27.74920
             205.60100    -205.51600      27.74920
             205.60100    -205.51600      27.74920
             205.60100    -205.51600      27.74920
             205.60100    -205.51600      27.74920
             205.60100    -205.51600      27.74920
             205.60100    -205.51600      27.74920
             205.60100    -205.51600      27.74920
             205.60100    -205.51600      27.74920
             205.60100    -205.51600      27.74920
             205.60100    -205.51600      27.74920
             205.60100    -205.51600      27.74920
             205.60100    -205.51600      27.74920
             205.60100    -205.51600      27.74920
             205.60100    -205.51600      27.74920
             205.60100    -205.51600      27.74920
             205.60100    -205.51600      27.74920
             205.60100    -205.51600      27.74920
             205.60100    -205.51600      27.74920
             205.60100    -205.51600      27.74920
             205.60100    -205.51600      27.74920
             205.60100    -205.51600      27.74920
             205.60100    -205.51600      27.74920
             205.60100    -205.51600      27.74920
             205.60100    -205.51600      27.74920
             205.60100    -205.51600      27.74920
             205.60100    -205.51600      27.74920
             205.60100    -205.51600      27.74920
             205.60100    -205.51600      27.74920
             205.60100    -205.51600      27.74920
             205.60100    -205.51600      27.74920
             205.60100    -205.51600      27.74920
             205.60100    -205.51600      27.74920
             205.60100    -205.51600      27.74920
             205.60100    -205.51600      27.74920
             205.60100    -205.51600      27.74920
             205.60100    -205.51600      27.74920
             205.60100    -205.51600      27.74920
             205.60100    -205.51600      27.74920
             205.60100    -205.51600      27.74920
             205.60100    -205.51600      27.74920
             205.60100    -205.51600      27.74920
             205.60100    -205.51600      27.74920
             205.60100    -205.51600      27.74920
             205.60100    -205.51600      27.74920
             205.60100    -205.51600      27.74920
             205.60100    -205.51600      27.74920
             205.60100    -205.51600      27.74920
             205.60100    -205.51600      27.74920
             205.60100    -205.51600      27.74920
             205.60100    -205.51600      27.74920
             205.60100    -205.51600      27.74920
             205.60100    -205.51600      27.74920
             205.60100    -205.51600      27.74920
             205.60100    -205.51600      27.74920
             205.60100    -205.51600      27.74920
             205.60100    -205.51600      27.74920
             205.60100    -205.51600      27.74920
             205.60100    -205.51600      27.74920
             205.60100    -205.51600      27.74920
             205.60100    -205.51600      27.74920
             205.60100    -205.51600      27.74920
             205.60100    -205.51600      27.74920
             205.60100    -205.51600      27.74920
             205.60100    -205.51600      27.74920
             205.60100    -205.51600      27.74920
             205.60100    -205.51600      27.74920
             205.60100    -205.51600      27.74920
             205.60100    -205.51600      27.74920
             205.60100    -205.51600      27.74920
             205.60100    -205.51600      27.74920
             205.60100    -205.51600      27.74920
             205.60100    -205.51600      27.74920
             205.60100    -205.51600      27.74920
             205.60100    -205.51600      27.74920
             205.60100    -205.51600      27.74920
             205.60100    -205.51600      27.74920
             205.60100    -205.51600      27.74920
             205.60100    -205.51600      27.74920
             205.60100    -205.51600      27.74920
             205.60100    -205.51600      27.74920
             205.60100    -205.51600      27.74920
             205.60100    -205.51600      27.74920
             205.60100    -205.51600      27.74920
             205.60100    -205.51600      27.74920
             205.60100    -205.51600      27.74920
             205.60100    -205.51600      27.74920
             205.60100    -205.51600      27.74920
             205.60100    -205.51600      27.74920
             205.60100    -205.51600      27.74920
             205.60100    -205.51600      27.74920
             205.60100    -205.51600      27.74920
             205.60100    -205.51600      27.74920
             205.60100    -205.51600      27.74920
             205.60100    -205.51600      27.74920
             205.60100    -205.51600      27.74920
             205.60100    -205.51600      27.74920
             205.60100    -205.51600      27.74920
             205.60100    -205.51600      27.74920
             205.60100    -205.51600      27.74920
             205.60100    -205.51600      27.74920
             205.60100    -205.51600      27.74920
             205.60100    -205.51600      27.74920
             205.60100    -205.51600      27.74920
             205.60100    -205.51600      27.74920
             205.60100    -205.51600      27.74920
             205.60100    -205.51600      27.74920
             205.60100    -205.51600      27.74920
             205.60100    -205.51600      27.74920
             205.60100    -205.51600      27.74920
             205.60100    -205.51600      27.74920
             205.60100    -205.51600      27.74920
             205.60100    -205.51600      27.74920
             205.60100    -205.51600      27.74920
             205.60100    -205.51600      27.74920
             205.60100    -205.51600      27.74920
             205.60100    -205.51600      27.74920
             205.60100    -205.51600      27.74920
             205.60100    -205.51600      27.74920
             205.60100    -205.51600      27.74920
             205.60100    -205.51600      27.74920
             205.60100    -205.51600      27.74920
             205.60100    -205.51600      27.74920
             205.60100    -205.51600      27.74920
             205.60100    -205.51600      27.74920
             205.60100    -205.51600      27.74920
             205.60100    -205.51600      27.74920
             205.60100    -205.51600      27.74920
             205.60100    -205.51600      27.74920
             205.60100    -205.51600      27.74920
             205.60100    -205.51600      27.74920
             205.60100    -205.51600      27.74920
             205.60100    -205.51600      27.74920
             205.60100    -205.51600      27.74920
             205.60100    -205.51600      27.74920
             205.60100    -205.51600      27.74920
             205.60100    -205.51600      27.74920
             205.60100    -205.51600      27.74920
             205.60100    -205.51600      27.74920
             205.60100    -205.51600      27.74920
             205.60100    -205.51600      27.74920
             205.60100    -205.51600      27.74920
             205.60100    -205.51600      27.74920
             205.60100    -205.51600      27.74920
             205.60100    -205.51600      27.74920
             205.60100    -205.51600      27.74920
             205.60100    -205.51600      27.74920
             205.60100    -205.51600      27.74920
             205.60100    -205.51600      27.74920
             205.60100    -205.51600      27.74920
             205.60100    -205.51600      27.74920
             205.60100    -205.51600      27.74920
             205.60100    -205.51600      27.74920
             205.60100    -205.51600      27.74920
             205.60100    -205.51600      27.74920
             205.60100    -205.51600      27.74920
             205.60100    -205.51600      27.74920
             205.60100    -205.51600      27.74920
             205.60100    -205.51600      27.74920
             205.60100    -205.51600      27.74920
             205.60100    -205.51600      27.74920
             205.60100    -205.51600      27.74920
             205.60100    -205.51600      27.74920
             205.60100    -205.51600      27.74920
             205.60100    -205.51600      27.74920
             205.60100    -205.51600      27.74920
             205.60100    -205.51600      27.74920
             205.60100    -205.51600      27.74920
             205.60100    -205.51600      27.74920
             205.60100    -205.51600      27.74920
             205.60100    -205.51600      27.74920
             205.60100    -205.51600      27.74920
             205.60100    -205.51600      27.74920
             205.60100    -205.51600      27.74920
             205.60100    -205.51600      27.74920
             205.60100    -205.51600      27.74920
             205.60100    -205.51600      27.74920
             205.60100    -205.51600      27.74920
             205.60100    -205.51600      27.74920
             205.60100    -205.51600      27.74920
             205.60100    -205.51600      27.74920
             205.60100    -205.51600      27.74920
             205.60100    -205.51600      27.74920
             205.60100    -205.51600      27.74920
             205.60100    -205.51600      27.74920
             205.60100    -205.51600      27.74920
             205.60100    -205.51600      27.74920
             205.60100    -205.51600      27.74920
             205.60100    -205.51600      27.74920
             205.60100    -205.51600      27.74920
             205.60100    -205.51600      27.74920
             205.60100    -205.51600      27.74920
             205.60100    -205.51600      27.74920
             205.60100    -205.51600      27.74920
             205.60100    -205.51600      27.74920
             205.60100    -205.51600      27.74920
             205.60100    -205.51600      27.74920
             205.60100    -205.51600      27.74920
             205.60100    -205.51600      27.74920
             205.60100    -205.51600      27.74920
             205.60100    -205.51600      27.74920
             205.60100    -205.51600      27.74920
             205.60100    -205.51600      27.74920
             205.60100    -205.51600      27.74920
             205.60100    -205.51600      27.74920
             205.60100    -205.51600      27.74920
             205.60100    -205.51600      27.74920
             205.60100    -205.51600      27.74920
             205.60100    -205.51600      27.74920
             205.60100    -205.51600      27.74920
             205.60100    -205.51600      27.74920
             205.60100    -205.51600      27.74920
             205.60100    -205.51600      27.74920
             205.60100    -205.51600      27.74920
             205.60100    -205.51600      27.74920
             205.60100    -205.51600      27.74920
             205.60100    -205.51600      27.74920
             205.60100    -205.51600      27.74920
             205.60100    -205.51600      27.74920
             205.60100    -205.51600      27.74920
             205.60100    -205.51600      27.74920
             205.60100    -205.51600      27.74920
             205.60100    -205.51600      27.74920
             205.60100    -205.51600      27.74920
             205.60100    -205.51600      27.74920
             205.60100    -205.51600      27.74920
             205.60100    -205.51600      27.74920
             205.60100    -205.51600      27.74920
             205.60100    -205.51600      27.74920
             205.60100    -205.51600      27.74920
             205.60100    -205.51600      27.74920
             205.60100    -205.51600      27.74920
             205.60100    -205.51600      27.74920
             205.60100    -205.51600      27.74920
             205.60100    -205.51600      27.74920
             205.60100    -205.51600      27.74920
             205.60100    -205.51600      27.74920
             205.60100    -205.51600      27.74920
             205.60100    -205.51600      27.74920
             205.60100    -205.51600      27.74920
             205.60100    -205.51600      27.74920
             205.60100    -205.51600      27.74920
             205.60100    -205.51600      27.74920
             205.60100    -205.51600      27.74920
             205.60100    -205.51600      27.74920
             205.60100    -205.51600      27.74920
             205.60100    -205.51600      27.74920
             205.60100    -205.51600      27.74920
             205.60100    -205.51600      27.74920
             205.60100    -205.51600      27.74920
             205.60100    -205.51600      27.74920
             205.60100    -205.51600      27.74920
             205.60100    -205.51600      27.74920
             205.60100    -205.51600      27.74920
             205.60100    -205.51600      27.74920
             205.60100    -205.51600      27.74920
             205.60100    -205.51600      27.74920
             205.60100    -205.51600      27.74920
             205.60100    -205.51600      27.74920
             205.60100    -205.51600      27.74920
             205.60100    -205.51600      27.74920
             205.60100    -205.51600      27.74920
             205.60100    -205.51600      27.74920
             205.60100    -205.51600      27.74920
             205.60100    -205.51600      27.74920
             205.60100    -205.51600      27.74920
             205.60100    -205.51600      27.74920
             205.60100    -205.51600      27.74920
             205.60100    -205.51600      27.74920
             205.60100    -205.51600      27.74920
             205.60100    -205.51600      27.74920
             205.60100    -205.51600      27.74920
             205.60100    -205.51600      27.74920
             205.60100    -205.51600      27.74920
             205.60100    -205.51600      27.74920
             205.60100    -205.51600      27.74920
             205.60100    -205.51600      27.74920
             205.60100    -205.51600      27.74920
             205.60100    -205.51600      27.74920
             205.60100    -205.51600      27.74920
             205.60100    -205.51600      27.74920
             205.60100    -205.51600      27.74920
             205.60100    -205.51600      27.74920
             205.60100    -205.51600      27.74920
             205.60100    -205.51600      27.74920
             205.60100    -205.51600      27.74920
             205.60100    -205.51600      27.74920
             205.60100    -205.51600      27.74920
             205.60100    -205.51600      27.74920
             205.60100    -205.51600      27.74920
             205.60100    -205.51600      27.74920
             205.60100    -205.51600      27.74920
             205.60100    -205.51600      27.74920
             205.60100    -205.51600      27.74920
             205.60100    -205.51600      27.74920
             205.60100    -205.51600      27.74920
             205.60100    -205.51600      27.74920
             205.60100    -205.51600      27.74920
             205.60100    -205.51600      27.74920
             205.60100    -205.51600      27.74920
             205.60100    -205.51600      27.74920
             205.60100    -205.51600      27.74920
             205.60100    -205.51600      27.74920
             205.60100    -205.51600      27.74920
             205.60100    -205.51600      27.74920
             205.60100    -205.51600      27.74920
             205.60100    -205.51600      27.74920
             205.60100    -205.51600      27.74920
             205.60100    -205.51600      27.74920
             205.60100    -205.51600      27.74920
             205.60100    -205.51600      27.74920
             205.60100    -205.51600      27.74920
             205.60100    -205.51600      27.74920
             205.60100    -205.51600      27.74920
             205.60100    -205.51600      27.74920
             205.60100    -205.51600      27.74920
             205.60100    -205.51600      27.74920
             205.60100    -205.51600      27.74920
             205.60100    -205.51600      27.74920
             205.60100    -205.51600      27.74920
             205.60100    -205.51600      27.74920
             205.60100    -205.51600      27.74920
             205.60100    -205.51600      27.74920
             205.60100    -205.51600      27.74920
             205.60100    -205.51600      27.74920
             205.60100    -205.51600      27.74920
             205.60100    -205.51600      27.74920
             205.60100    -205.51600      27.74920
             205.60100    -205.51600      27.74920
             205.60100    -205.51600      27.74920
             205.60100    -205.51600      27.74920
             205.60100    -205.51600      27.74920
             205.60100    -205.51600      27.74920
             205.60100    -205.51600      27.74920
             205.60100    -205.51600      27.74920
             205.60100    -205.51600      27.74920
             205.60100    -205.51600      27.74920
             205.60100    -205.51600      27.74920
             205.60100    -205.51600      27.74920
             205.60100    -205.51600      27.74920
             205.60100    -205.51600      27.74920
             205.60100    -205.51600      27.74920
             205.60100    -205.51600      27.74920
             205.60100    -205.51600      27.74920
             205.60100    -205.51600      27.74920
             205.60100    -205.51600      27.74920
             205.60100    -205.51600      27.74920
             205.60100    -205.51600      27.74920
             205.60100    -205.51600      27.74920
             205.60100    -205.51600      27.74920
             205.60100    -205.51600      27.74920
             205.60100    -205.51600      27.74920
             205.60100    -205.51600      27.74920
             205.60100    -205.51600      27.74920
             205.60100    -205.51600      27.74920
             205.60100    -205.51600      27.74920
             205.60100    -205.51600      27.74920
             205.60100    -205.51600      27.74920
             205.60100    -205.51600      27.74920
             205.60100    -205.51600      27.74920
             205.60100    -205.51600      27.74920
             205.60100    -205.51600      27.74920
             205.60100    -205.51600      27.74920
             205.60100    -205.51600      27.74920
             205.60100    -205.51600      27.74920
             205.60100    -205.51600      27.74920
             205.60100    -205.51600      27.74920
             205.60100    -205.51600      27.74920
             205.60100    -205.51600      27.74920
             205.60100    -205.51600      27.74920
             205.60100    -205.51600      27.74920
             205.60100    -205.51600      27.74920
             205.60100    -205.51600      27.74920
             205.60100    -205.51600      27.74920
             205.60100    -205.51600      27.74920
             205.60100    -205.51600      27.74920
             205.60100    -205.51600      27.74920
             205.60100    -205.51600      27.74920
             205.60100    -205.51600      27.74920
             205.60100    -205.51600      27.74920
             205.60100    -205.51600      27.74920
             205.60100    -205.51600      27.74920
             205.60100    -205.51600      27.74920
             205.60100    -205.51600      27.74920
             205.60100    -205.51600      27.74920
             205.60100    -205.51600      27.74920
             205.60100    -205.51600      27.74920
             205.60100    -205.51600      27.74920
             205.60100    -205.51600      27.74920
             205.60100    -205.51600      27.74920
             205.60100    -205.51600      27.74920
             205.60100    -205.51600      27.74920
             205.60100    -205.51600      27.74920
             205.60100    -205.51600      27.74920
             205.60100    -205.51600      27.74920
             205.60100    -205.51600      27.74920
             205.60100    -205.51600      27.74920
             205.60100    -205.51600      27.74920
             205.60100    -205.51600      27.74920
             205.60100    -205.51600      27.74920
             205.60100    -205.51600      27.74920
             205.60100    -205.51600      27.74920
             205.60100    -205.51600      27.74920
             205.60100    -205.51600      27.74920
             205.60100    -205.51600      27.74920
             205.60100    -205.51600      27.74920
             205.60100    -205.51600      27.74920
             205.60100    -205.51600      27.74920
             205.60100    -205.51600      27.74920
             205.60100    -205.51600      27.74920
             205.60100    -205.51600      27.74920
             205.60100    -205.51600      27.74920
             205.60100    -205.51600      27.74920
             205.60100    -205.51600      27.74920
             205.60100    -205.51600      27.74920
             205.60100    -205.51600      27.74920
             205.60100    -205.51600      27.74920
             205.60100    -205.51600      27.74920
             205.60100    -205.51600      27.74920
             205.60100    -205.51600      27.74920
             205.60100    -205.51600      27.74920
             205.60100    -205.51600      27.74920
             205.60100    -205.51600      27.74920
             205.60100    -205.51600      27.74920
             205.60100    -205.51600      27.74920
             205.60100    -205.51600      27.74920
             205.60100    -205.51600      27.74920
             205.60100    -205.51600      27.74920
             205.60100    -205.51600      27.74920
             205.60100    -205.51600      27.74920
             205.60100    -205.51600      27.74920
             205.60100    -205.51600      27.74920
             205.60100    -205.51600      27.74920
             205.60100    -205.51600      27.74920
             205.60100    -205.51600      27.74920
             205.60100    -205.51600      27.74920
             205.60100    -205.51600      27.74920
             205.60100    -205.51600      27.74920
             205.60100    -205.51600      27.74920
             205.60100    -205.51600      27.74920
             205.60100    -205.51600      27.74920
             205.60100    -205.51600      27.74920
             205.60100    -205.51600      27.74920
             205.60100    -205.51600      27.74920
             205.60100    -205.51600      27.74920
             205.60100    -205.51600      27.74920
             205.60100    -205.51600      27.74920
             205.60100    -205.51600      27.74920
             205.60100    -205.51600      27.74920
             205.60100    -205.51600      27.74920
             205.60100    -205.51600      27.74920
             205.60100    -205.51600      27.74920
             205.60100    -205.51600      27.74920
             205.60100    -205.51600      27.74920
             205.60100    -205.51600      27.74920
             205.60100    -205.51600      27.74920
             205.60100    -205.51600      27.74920
             205.60100    -205.51600      27.74920
             205.60100    -205.51600      27.74920
             205.60100    -205.51600      27.74920
             205.60100    -205.51600      27.74920
             205.60100    -205.51600      27.74920
             205.60100    -205.51600      27.74920
             205.60100    -205.51600      27.74920
             205.60100    -205.51600      27.74920
             205.60100    -205.51600      27.74920
             205.60100    -205.51600      27.74920
             205.60100    -205.51600      27.74920
             205.60100    -205.51600      27.74920
             205.60100    -205.51600      27.74920
             205.60100    -205.51600      27.74920
             205.60100    -205.51600      27.74920
             205.60100    -205.51600      27.74920
             205.60100    -205.51600      27.74920
             205.60100    -205.51600      27.74920
             205.60100    -205.51600      27.74920
             205.60100    -205.51600      27.74920
             205.60100    -205.51600      27.74920
             205.60100    -205.51600      27.74920
             205.60100    -205.51600      27.74920
             205.60100    -205.51600      27.74920
             205.60100    -205.51600      27.74920
             205.60100    -205.51600      27.74920
             205.60100    -205.51600      27.74920
             205.60100    -205.51600      27.74920
             205.60100    -205.51600      27.74920
             205.60100    -205.51600      27.74920
             205.60100    -205.51600      27.74920
             205.60100    -205.51600      27.74920
             205.60100    -205.51600      27.74920
             205.60100    -205.51600      27.74920
             205.60100    -205.51600      27.74920
             205.60100    -205.51600      27.74920
             205.60100    -205.51600      27.74920
             205.60100    -205.51600      27.74920
             205.60100    -205.51600      27.74920
             205.60100    -205.51600      27.74920
             205.60100    -205.51600      27.74920
             205.60100    -205.51600      27.74920
             205.60100    -205.51600      27.74920
             205.60100    -205.51600      27.74920
             205.60100    -205.51600      27.74920
             205.60100    -205.51600      27.74920
             205.60100    -205.51600      27.74920
             205.60100    -205.51600      27.74920
             205.60100    -205.51600      27.74920
             205.60100    -205.51600      27.74920
             205.60100    -205.51600      27.74920
             205.60100    -205.51600      27.74920
             205.60100    -205.51600      27.74920
             205.60100    -205.51600      27.74920
             205.60100    -205.51600      27.74920
             205.60100    -205.51600      27.74920
             205.60100    -205.51600      27.74920
             205.60100    -205.51600      27.74920
             205.60100    -205.51600      27.74920
             205.60100    -205.51600      27.74920
             205.60100    -205.51600      27.74920
             205.60100    -205.51600      27.74920
             205.60100    -205.51600      27.74920
             205.60100    -205.51600      27.74920
             205.60100    -205.51600      27.74920
             205.60100    -205.51600      27.74920
             205.60100    -205.51600      27.74920
             205.60100    -205.51600      27.74920
             205.60100    -205.51600      27.74920
             205.60100    -205.51600      27.74920
             205.60100    -205.51600      27.74920
             205.60100    -205.51600      27.74920
             205.60100    -205.51600      27.74920
             205.60100    -205.51600      27.74920
             205.60100    -205.51600      27.74920
             205.60100    -205.51600      27.74920
             205.60100    -205.51600      27.74920
             205.60100    -205.51600      27.74920
             205.60100    -205.51600      27.74920
             205.60100    -205.51600      27.74920
             205.60100    -205.51600      27.74920
             205.60100    -205.51600      27.74920
             205.60100    -205.51600      27.74920
             205.60100    -205.51600      27.74920
             205.60100    -205.51600      27.74920
             205.60100    -205.51600      27.74920
             205.60100    -205.51600      27.74920
             205.60100    -205.51600      27.74920
             205.60100    -205.51600      27.74920
             205.60100    -205.51600      27.74920
             205.60100    -205.51600      27.74920
             205.60100    -205.51600      27.74920
             205.60100    -205.51600      27.74920
             205.60100    -205.51600      27.74920
             205.60100    -205.51600      27.74920
             205.60100    -205.51600      27.74920
             205.60100    -205.51600      27.74920
             205.60100    -205.51600      27.74920
             205.60100    -205.51600      27.74920
             205.60100    -205.51600      27.74920
             205.60100    -205.51600      27.74920
             205.60100    -205.51600      27.74920
             205.60100    -205.51600      27.74920
             205.60100    -205.51600      27.74920
             205.60100    -205.51600      27.74920
             205.60100    -205.51600      27.74920
             205.60100    -205.51600      27.74920
             205.60100    -205.51600      27.74920
             205.60100    -205.51600      27.74920
             205.60100    -205.51600      27.74920
             205.60100    -205.51600      27.74920
             205.60100    -205.51600      27.74920
             205.60100    -205.51600      27.74920
             205.60100    -205.51600      27.74920
             205.60100    -205.51600      27.74920
             205.60100    -205.51600      27.74920
             205.60100    -205.51600      27.74920
             205.60100    -205.51600      27.74920
             205.60100    -205.51600      27.74920
             205.60100    -205.51600      27.74920
             205.60100    -205.51600      27.74920
             205.60100    -205.51600      27.74920
             205.60100    -205.51600      27.74920
             205.60100    -205.51600      27.74920
             205.60100    -205.51600      27.74920
             205.60100    -205.51600      27.74920
             205.60100    -205.51600      27.74920
             205.60100    -205.51600      27.74920
             205.60100    -205.51600      27.74920
             205.60100    -205.51600      27.74920
             205.60100    -205.51600      27.74920
             205.60100    -205.51600      27.74920
             205.60100    -205.51600      27.74920
             205.60100    -205.51600      27.74920
             205.60100    -205.51600      27.74920
             205.60100    -205.51600      27.74920
             205.60100    -205.51600      27.74920
             205.60100    -205.51600      27.74920
             205.60100    -205.51600      27.74920
             205.60100    -205.51600      27.74920
             205.60100    -205.51600      27.74920
             205.60100    -205.51600      27.74920
             205.60100    -205.51600      27.74920
             205.60100    -205.51600      27.74920
             205.60100    -205.51600      27.74920
             205.60100    -205.51600      27.74920
             205.60100    -205.51600      27.74920
             205.60100    -205.51600      27.74920
             205.60100    -205.51600      27.74920
             205.60100    -205.51600      27.74920
             205.60100    -205.51600      27.74920
             205.60100    -205.51600      27.74920
             205.60100    -205.51600      27.74920
             205.60100    -205.51600      27.74920
             205.60100    -205.51600      27.74920
             205.60100    -205.51600      27.74920
             205.60100    -205.51600      27.74920
             205.60100    -205.51600      27.74920
             205.60100    -205.51600      27.74920
             205.60100    -205.51600      27.74920
             205.60100    -205.51600      27.74920
             205.60100    -205.51600      27.74920
             205.60100    -205.51600      27.74920
             205.60100    -205.51600      27.74920
             205.60100    -205.51600      27.74920
             205.60100    -205.51600      27.74920
             205.60100    -205.51600      27.74920
             205.60100    -205.51600      27.74920
             205.60100    -205.51600      27.74920
             205.60100    -205.51600      27.74920
             205.60100    -205.51600      27.74920
             205.60100    -205.51600      27.74920
             205.60100    -205.51600      27.74920
             205.60100    -205.51600      27.74920
             205.60100    -205.51600      27.74920
             205.60100    -205.51600      27.74920
             205.60100    -205.51600      27.74920
             205.60100    -205.51600      27.74920
             205.60100    -205.51600      27.74920
             205.60100    -205.51600      27.74920
             205.60100    -205.51600      27.74920
             205.60100    -205.51600      27.74920
             205.60100    -205.51600      27.74920
             205.60100    -205.51600      27.74920
             205.60100    -205.51600      27.74920
             205.60100    -205.51600      27.74920
             205.60100    -205.51600      27.74920
             205.60100    -205.51600      27.74920
             205.60100    -205.51600      27.74920
             205.60100    -205.51600      27.74920
             205.60100    -205.51600      27.74920
             205.60100    -205.51600      27.74920
             205.60100    -205.51600      27.74920
             205.60100    -205.51600      27.74920
             205.60100    -205.51600      27.74920
             205.60100    -205.51600      27.74920
             205.60100    -205.51600      27.74920
             205.60100    -205.51600      27.74920
             205.60100    -205.51600      27.74920
             205.60100    -205.51600      27.74920
             205.60100    -205.51600      27.74920
             205.60100    -205.51600      27.74920
             205.60100    -205.51600      27.74920
             205.60100    -205.51600      27.74920
             205.60100    -205.51600      27.74920
             205.60100    -205.51600      27.74920
             205.60100    -205.51600      27.74920
             205.60100    -205.51600      27.74920
             205.60100    -205.51600      27.74920
             205.60100    -205.51600      27.74920
             205.60100    -205.51600      27.74920
             205.60100    -205.51600      27.74920
             205.60100    -205.51600      27.74920
             205.60100    -205.51600      27.74920
             205.60100    -205.51600      27.74920
             205.60100    -205.51600      27.74920
             205.60100    -205.51600      27.74920
             205.60100    -205.51600      27.74920
             205.60100    -205.51600      27.74920
             205.60100    -205.51600      27.74920
             205.60100    -205.51600      27.74920
             205.60100    -205.51600      27.74920
             205.60100    -205.51600      27.74920
             205.60100    -205.51600      27.74920
             205.60100    -205.51600      27.74920
             205.60100    -205.51600      27.74920
             205.60100    -205.51600      27.74920
             205.60100    -205.51600      27.74920
             205.60100    -205.51600      27.74920
             205.60100    -205.51600      27.74920
             205.60100    -205.51600      27.74920
             205.60100    -205.51600      27.74920
             205.60100    -205.51600      27.74920
             205.60100    -205.51600      27.74920
             205.60100    -205.51600      27.74920
             205.60100    -205.51600      27.74920
             205.60100    -205.51600      27.74920
             205.60100    -205.51600      27.74920
             205.60100    -205.51600      27.74920
             205.60100    -205.51600      27.74920
             205.60100    -205.51600      27.74920
             205.60100    -205.51600      27.74920
             205.60100    -205.51600      27.74920
             205.60100    -205.51600      27.74920
             205.60100    -205.51600      27.74920
             205.60100    -205.51600      27.74920
             205.60100    -205.51600      27.74920
             205.60100    -205.51600      27.74920
             205.60100    -205.51600      27.74920
             205.60100    -205.51600      27.74920
             205.60100    -205.51600      27.74920
             205.60100    -205.51600      27.74920
             205.60100    -205.51600      27.74920
             205.60100    -205.51600      27.74920
             205.60100    -205.51600      27.74920
             205.60100    -205.51600      27.74920
             205.60100    -205.51600      27.74920
             205.60100    -205.51600      27.74920
             205.60100    -205.51600      27.74920
             205.60100    -205.51600      27.74920
             205.60100    -205.51600      27.74920
             205.60100    -205.51600      27.74920
             205.60100    -205.51600      27.74920
             205.60100    -205.51600      27.74920
             205.60100    -205.51600      27.74920
             205.60100    -205.51600      27.74920
             205.60100    -205.51600      27.74920
             205.60100    -205.51600      27.74920
             205.60100    -205.51600      27.74920
             205.60100    -205.51600      27.74920
             205.60100    -205.51600      27.74920
             205.60100    -205.51600      27.74920
             205.60100    -205.51600      27.74920
             205.60100    -205.51600      27.74920
             205.60100    -205.51600      27.74920
             205.60100    -205.51600      27.74920
             205.60100    -205.51600      27.74920
             205.60100    -205.51600      27.74920
             205.60100    -205.51600      27.74920
             205.60100    -205.51600      27.74920
             205.60100    -205.51600      27.74920
             205.60100    -205.51600      27.74920
             205.60100    -205.51600      27.74920
             205.60100    -205.51600      27.74920
             205.60100    -205.51600      27.74920
             205.60100    -205.51600      27.74920
             205.60100    -205.51600      27.74920
             205.60100    -205.51600      27.74920
             205.60100    -205.51600      27.74920
             205.60100    -205.51600      27.74920
             205.60100    -205.51600      27.74920
             205.60100    -205.51600      27.74920
             205.60100    -205.51600      27.74920
             205.60100    -205.51600      27.74920
             205.60100    -205.51600      27.74920
             205.60100    -205.51600      27.74920
             205.60100    -205.51600      27.74920
             205.60100    -205.51600      27.74920
             205.60100    -205.51600      27.74920
             205.60100    -205.51600      27.74920
             205.60100    -205.51600      27.74920
             205.60100    -205.51600      27.74920
             205.60100    -205.51600      27.74920
             205.60100    -205.51600      27.74920
             205.60100    -205.51600      27.74920
             205.60100    -205.51600      27.74920
             205.60100    -205.51600      27.74920
             205.60100    -205.51600      27.74920
             205.60100    -205.51600      27.74920
             205.60100    -205.51600      27.74920
             205.60100    -205.51600      27.74920
             205.60100    -205.51600      27.74920
             205.60100    -205.51600      27.74920
             205.60100    -205.51600      27.74920
             205.60100    -205.51600      27.74920
             205.60100    -205.51600      27.74920
             205.60100    -205.51600      27.74920
             205.60100    -205.51600      27.74920
             205.60100    -205.51600      27.74920
             205.60100    -205.51600      27.74920
             205.60100    -205.51600      27.74920
             205.60100    -205.51600      27.74920
             205.60100    -205.51600      27.74920
             205.60100    -205.51600      27.74920
             205.60100    -205.51600      27.74920
             205.60100    -205.51600      27.74920
             205.60100    -205.51600      27.74920
             205.60100    -205.51600      27.74920
             205.60100    -205.51600      27.74920
             205.60100    -205.51600      27.74920
             205.60100    -205.51600      27.74920
             205.60100    -205.51600      27.74920
             205.60100    -205.51600      27.74920
             205.60100    -205.51600      27.74920
             205.60100    -205.51600      27.74920
             205.60100    -205.51600      27.74920
             205.60100    -205.51600      27.74920
             205.60100    -205.51600      27.74920
             205.60100    -205.51600      27.74920
             205.60100    -205.51600      27.74920
             205.60100    -205.51600      27.74920
             205.60100    -205.51600      27.74920
             205.60100    -205.51600      27.74920
             205.60100    -205.51600      27.74920
             205.60100    -205.51600      27.74920
             205.60100    -205.51600      27.74920
             205.60100    -205.51600      27.74920
             205.60100    -205.51600      27.74920
             205.60100    -205.51600      27.74920
             205.60100    -205.51600      27.74920
             205.60100    -205.51600      27.74920
             205.60100    -205.51600      27.74920
             205.60100    -205.51600      27.74920
             205.60100    -205.51600      27.74920
             205.60100    -205.51600      27.74920
             205.60100    -205.51600      27.74920
             205.60100    -205.51600      27.74920
             205.60100    -205.51600      27.74920
             205.60100    -205.51600      27.74920
             205.60100    -205.51600      27.74920
             205.60100    -205.51600      27.74920
             205.60100    -205.51600      27.74920
             205.60100    -205.51600      27.74920
             205.60100    -205.51600      27.74920
             205.60100    -205.51600      27.74920
             205.60100    -205.51600      27.74920
             205.60100    -205.51600      27.74920
             205.60100    -205.51600      27.74920
             205.60100    -205.51600      27.74920
             205.60100    -205.51600      27.74920
             205.60100    -205.51600      27.74920
             205.60100    -205.51600      27.74920
             205.60100    -205.51600      27.74920
             205.60100    -205.51600      27.74920
             205.60100    -205.51600      27.74920
             205.60100    -205.51600      27.74920
             205.60100    -205.51600      27.74920
             205.60100    -205.51600      27.74920
             205.60100    -205.51600      27.74920
             205.60100    -205.51600      27.74920
             205.60100    -205.51600      27.74920
             205.60100    -205.51600      27.74920
             205.60100    -205.51600      27.74920
             205.60100    -205.51600      27.74920
             205.60100    -205.51600      27.74920
             205.60100    -205.51600      27.74920
             205.60100    -205.51600      27.74920
             205.60100    -205.51600      27.74920
             205.60100    -205.51600      27.74920
             205.60100    -205.51600      27.74920
             205.60100    -205.51600      27.74920
             205.60100    -205.51600      27.74920
             205.60100    -205.51600      27.74920
             205.60100    -205.51600      27.74920
             205.60100    -205.51600      27.74920
             205.60100    -205.51600      27.74920
             205.60100    -205.51600      27.74920
             205.60100    -205.51600      27.74920
             205.60100    -205.51600      27.74920
             205.60100    -205.51600      27.74920
             205.60100    -205.51600      27.74920
             205.60100    -205.51600      27.74920
             205.60100    -205.51600      27.74920
             205.60100    -205.51600      27.74920
             205.60100    -205.51600      27.74920
             205.60100    -205.51600      27.74920
             205.60100    -205.51600      27.74920
             205.60100    -205.51600      27.74920
             205.60100    -205.51600      27.74920
             205.60100    -205.51600      27.74920
             205.60100    -205.51600      27.74920
             205.60100    -205.51600      27.74920
             205.60100    -205.51600      27.74920
             205.60100    -205.51600      27.74920
             205.60100    -205.51600      27.74920
             205.60100    -205.51600      27.74920
             205.60100    -205.51600      27.74920
             205.60100    -205.51600      27.74920
             205.60100    -205.51600      27.74920
             205.60100    -205.51600      27.74920
             205.60100    -205.51600      27.74920
             205.60100    -205.51600      27.74920
             205.60100    -205.51600      27.74920
             205.60100    -205.51600      27.74920
             205.60100    -205.51600      27.74920
             205.60100    -205.51600      27.74920
             205.60100    -205.51600      27.74920
             205.60100    -205.51600      27.74920
             205.60100    -205.51600      27.74920
             205.60100    -205.51600      27.74920
             205.60100    -205.51600      27.74920
             205.60100    -205.51600      27.74920
             205.60100    -205.51600      27.74920
             205.60100    -205.51600      27.74920
             205.60100    -205.51600      27.74920
             205.60100    -205.51600      27.74920
             205.60100    -205.51600      27.74920
             205.60100    -205.51600      27.74920
             205.60100    -205.51600      27.74920
             205.60100    -205.51600      27.74920
             205.60100    -205.51600      27.74920
             205.60100    -205.51600      27.74920
             205.60100    -205.51600      27.74920
             205.60100    -205.51600      27.74920
             205.60100    -205.51600      27.74920
             205.60100    -205.51600      27.74920
             205.60100    -205.51600      27.74920
             205.60100    -205.51600      27.74920
             205.60100    -205.51600      27.74920
             205.60100    -205.51600      27.74920
             205.60100    -205.51600      27.74920
             205.60100    -205.51600      27.74920
             205.60100    -205.51600      27.74920
             205.60100    -205.51600      27.74920
             205.60100    -205.51600      27.74920
             205.60100    -205.51600      27.74920
             205.60100    -205.51600      27.74920
             205.60100    -205.51600      27.74920
             205.60100    -205.51600      27.74920
             205.60100    -205.51600      27.74920
             205.60100    -205.51600      27.74920
             205.60100    -205.51600      27.74920
             205.60100    -205.51600      27.74920
             205.60100    -205.51600      27.74920
             205.60100    -205.51600      27.74920
             205.60100    -205.51600      27.74920
             205.60100    -205.51600      27.74920
             205.60100    -205.51600      27.74920
             205.60100    -205.51600      27.74920
             205.60100    -205.51600      27.74920
             205.60100    -205.51600      27.74920
             205.60100    -205.51600      27.74920
             205.60100    -205.51600      27.74920
             205.60100    -205.51600      27.74920
             205.60100    -205.51600      27.74920
             205.60100    -205.51600      27.74920
             205.60100    -205.51600      27.74920
             205.60100    -205.51600      27.74920
             205.60100    -205.51600      27.74920
             205.60100    -205.51600      27.74920
             205.60100    -205.51600      27.74920
             205.60100    -205.51600      27.74920
             205.60100    -205.51600      27.74920
             205.60100    -205.51600      27.74920
             205.60100    -205.51600      27.74920
             205.60100    -205.51600      27.74920
             205.60100    -205.51600      27.74920
             205.60100    -205.51600      27.74920
             205.60100    -205.51600      27.74920
             205.60100    -205.51600      27.74920
             205.60100    -205.51600      27.74920
             205.60100    -205.51600      27.74920
             205.60100    -205.51600      27.74920
             205.60100    -205.51600      27.74920
             205.60100    -205.51600      27.74920
             205.60100    -205.51600      27.74920
             205.60100    -205.51600      27.74920
             205.60100    -205.51600      27.74920
             205.60100    -205.51600      27.74920
             205.60100    -205.51600      27.74920
             205.60100    -205.51600      27.74920
             205.60100    -205.51600      27.74920
             205.60100    -205.51600      27.74920
             205.60100    -205.51600      27.74920
             205.60100    -205.51600      27.74920
             205.60100    -205.51600      27.74920
             205.60100    -205.51600      27.74920
             205.60100    -205.51600      27.74920
             205.60100    -205.51600      27.74920
             205.60100    -205.51600      27.74920
             205.60100    -205.51600      27.74920
             205.60100    -205.51600      27.74920
             205.60100    -205.51600      27.74920
             205.60100    -205.51600      27.74920
             205.60100    -205.51600      27.74920
             205.60100    -205.51600      27.74920
             205.60100    -205.51600      27.74920
             205.60100    -205.51600      27.74920
             205.60100    -205.51600      27.74920
             205.60100    -205.51600      27.74920
             205.60100    -205.51600      27.74920
             205.60100    -205.51600      27.74920
             205.60100    -205.51600      27.74920
             205.60100    -205.51600      27.74920
             205.60100    -205.51600      27.74920
             205.60100    -205.51600      27.74920
             205.60100    -205.51600      27.74920
             205.60100    -205.51600      27.74920
             205.60100    -205.51600      27.74920
             205.60100    -205.51600      27.74920
             205.60100    -205.51600      27.74920
             205.60100    -205.51600      27.74920
             205.60100    -205.51600      27.74920
             205.60100    -205.51600      27.74920
             205.60100    -205.51600      27.74920
             205.60100    -205.51600      27.74920
             205.60100    -205.51600      27.74920
             205.60100    -205.51600      27.74920
             205.60100    -205.51600      27.74920
             205.60100    -205.51600      27.74920
             205.60100    -205.51600      27.74920
             205.60100    -205.51600      27.74920
             205.60100    -205.51600      27.74920
             205.60100    -205.51600      27.74920
             205.60100    -205.51600      27.74920
             205.60100    -205.51600      27.74920
             205.60100    -205.51600      27.74920
             205.60100    -205.51600      27.74920
             205.60100    -205.51600      27.74920
             205.60100    -205.51600      27.74920
             205.60100    -205.51600      27.74920
             205.60100    -205.51600      27.74920
             205.60100    -205.51600      27.74920
             205.60100    -205.51600      27.74920
             205.60100    -205.51600      27.74920
             205.60100    -205.51600      27.74920
             205.60100    -205.51600      27.74920
             205.60100    -205.51600      27.74920
             205.60100    -205.51600      27.74920
             205.60100    -205.51600      27.74920
             205.60100    -205.51600      27.74920
             205.60100    -205.51600      27.74920
             205.60100    -205.51600      27.74920
             205.60100    -205.51600      27.74920
             205.60100    -205.51600      27.74920
             205.60100    -205.51600      27.74920
             205.60100    -205.51600      27.74920
             205.60100    -205.51600      27.74920
             205.60100    -205.51600      27.74920
             205.60100    -205.51600      27.74920
             205.60100    -205.51600      27.74920
             205.60100    -205.51600      27.74920
             205.60100    -205.51600      27.74920
             205.60100    -205.51600      27.74920
             205.60100    -205.51600      27.74920
             205.60100    -205.51600      27.74920
             205.60100    -205.51600      27.74920
             205.60100    -205.51600      27.74920
             205.60100    -205.51600      27.74920
             205.60100    -205.51600      27.74920
             205.60100    -205.51600      27.74920
             205.60100    -205.51600      27.74920
             205.60100    -205.51600      27.74920
             205.60100    -205.51600      27.74920
             205.60100    -205.51600      27.74920
             205.60100    -205.51600      27.74920
             205.60100    -205.51600      27.74920
             205.60100    -205.51600      27.74920
             205.60100    -205.51600      27.74920
             205.60100    -205.51600      27.74920
             205.60100    -205.51600      27.74920
             205.60100    -205.51600      27.74920
             205.60100    -205.51600      27.74920
             205.60100    -205.51600      27.74920
             205.60100    -205.51600      27.74920
             205.60100    -205.51600      27.74920
             205.60100    -205.51600      27.74920
             205.60100    -205.51600      27.74920
             205.60100    -205.51600      27.74920
             205.60100    -205.51600      27.74920
             205.60100    -205.51600      27.74920
             205.60100    -205.51600      27.74920
             205.60100    -205.51600      27.74920
             205.60100    -205.51600      27.74920
             205.60100    -205.51600      27.74920
             205.60100    -205.51600      27.74920
             205.60100    -205.51600      27.74920
             205.60100    -205.51600      27.74920
             205.60100    -205.51600      27.74920
             205.60100    -205.51600      27.74920
             205.60100    -205.51600      27.74920
             205.60100    -205.51600      27.74920
             205.60100    -205.51600      27.74920
             205.60100    -205.51600      27.74920
             205.60100    -205.51600      27.74920
             205.60100    -205.51600      27.74920
             205.60100    -205.51600      27.74920
             205.60100    -205.51600      27.74920
             205.60100    -205.51600      27.74920
             205.60100    -205.51600      27.74920
             205.60100    -205.51600      27.74920
             205.60100    -205.51600      27.74920
             205.60100    -205.51600      27.74920
             205.60100    -205.51600      27.74920
             205.60100    -205.51600      27.74920
             205.60100    -205.51600      27.74920
             205.60100    -205.51600      27.74920
             205.60100    -205.51600      27.74920
             205.60100    -205.51600      27.74920
             205.60100    -205.51600      27.74920
             205.60100    -205.51600      27.74920
             205.60100    -205.51600      27.74920
             205.60100    -205.51600      27.74920
             205.60100    -205.51600      27.74920
             205.60100    -205.51600      27.74920
             205.60100    -205.51600      27.74920
             205.60100    -205.51600      27.74920
             205.60100    -205.51600      27.74920
             205.60100    -205.51600      27.74920
             205.60100    -205.51600      27.74920
             205.60100    -205.51600      27.74920
             205.60100    -205.51600      27.74920
             205.60100    -205.51600      27.74920
             205.60100    -205.51600      27.74920
             205.60100    -205.51600      27.74920
             205.60100    -205.51600      27.74920
             205.60100    -205.51600      27.74920
             205.60100    -205.51600      27.74920
             205.60100    -205.51600      27.74920
             205.60100    -205.51600      27.74920
             205.60100    -205.51600      27.74920
             205.60100    -205.51600      27.74920
             205.60100    -205.51600      27.74920
             205.60100    -205.51600      27.74920
             205.60100    -205.51600      27.74920
             205.60100    -205.51600      27.74920
             205.60100    -205.51600      27.74920
             205.60100    -205.51600      27.74920
             205.60100    -205.51600      27.74920
             205.60100    -205.51600      27.74920
             205.60100    -205.51600      27.74920
             205.60100    -205.51600      27.74920
             205.60100    -205.51600      27.74920
             205.60100    -205.51600      27.74920
             205.60100    -205.51600      27.74920
             205.60100    -205.51600      27.74920
             205.60100    -205.51600      27.74920
             205.60100    -205.51600      27.74920
             205.60100    -205.51600      27.74920
             205.60100    -205.51600      27.74920
             205.60100    -205.51600      27.74920
             205.60100    -205.51600      27.74920
             205.60100    -205.51600      27.74920
             205.60100    -205.51600      27.74920
             205.60100    -205.51600      27.74920
             205.60100    -205.51600      27.74920
             205.60100    -205.51600      27.74920
             205.60100    -205.51600      27.74920
             205.60100    -205.51600      27.74920
             205.60100    -205.51600      27.74920
             205.60100    -205.51600      27.74920
             205.60100    -205.51600      27.74920
             205.60100    -205.51600      27.74920
             205.60100    -205.51600      27.74920
             205.60100    -205.51600      27.74920
             205.60100    -205.51600      27.74920
             205.60100    -205.51600      27.74920
             205.60100    -205.51600      27.74920
             205.60100    -205.51600      27.74920
             205.60100    -205.51600      27.74920
             205.60100    -205.51600      27.74920
             205.60100    -205.51600      27.74920
             205.60100    -205.51600      27.74920
             205.60100    -205.51600      27.74920
             205.60100    -205.51600      27.74920
             205.60100    -205.51600      27.74920
             205.60100    -205.51600      27.74920
             205.60100    -205.51600      27.74920
             205.60100    -205.51600      27.74920
             205.60100    -205.51600      27.74920
             205.60100    -205.51600      27.74920
             205.60100    -205.51600      27.74920
             205.60100    -205.51600      27.74920
             205.60100    -205.51600      27.74920
             205.60100    -205.51600      27.74920
             205.60100    -205.51600      27.74920
             205.60100    -205.51600      27.74920
             205.60100    -205.51600      27.74920
             205.60100    -205.51600      27.74920
             205.60100    -205.51600      27.74920
             205.60100    -205.51600      27.74920
             205.60100    -205.51600      27.74920
             205.60100    -205.51600      27.74920
             205.60100    -205.51600      27.74920
             205.60100    -205.51600      27.74920
             205.60100    -205.51600      27.74920
             205.60100    -205.51600      27.74920
             205.60100    -205.51600      27.74920
             205.60100    -205.51600      27.74920
             205.60100    -205.51600      27.74920
             205.60100    -205.51600      27.74920
             205.60100    -205.51600      27.74920
             205.60100    -205.51600      27.74920
             205.60100    -205.51600      27.74920
             205.60100    -205.51600      27.74920
             205.60100    -205.51600      27.74920
             205.60100    -205.51600      27.74920
             205.60100    -205.51600      27.74920
             205.60100    -205.51600      27.74920
             205.60100    -205.51600      27.74920
             205.60100    -205.51600      27.74920
             205.60100    -205.51600      27.74920
             205.60100    -205.51600      27.74920
             205.60100    -205.51600      27.74920
             205.60100    -205.51600      27.74920
             205.60100    -205.51600      27.74920
             205.60100    -205.51600      27.74920
             205.60100    -205.51600      27.74920
             205.60100    -205.51600      27.74920
             205.60100    -205.51600      27.74920
             205.60100    -205.51600      27.74920
             205.60100    -205.51600      27.74920
             205.60100    -205.51600      27.74920
             205.60100    -205.51600      27.74920
             205.60100    -205.51600      27.74920
             205.60100    -205.51600      27.74920
             205.60100    -205.51600      27.74920
             205.60100    -205.51600      27.74920
             205.60100    -205.51600      27.74920
             205.60100    -205.51600      27.74920
             205.60100    -205.51600      27.74920
             205.60100    -205.51600      27.74920
             205.60100    -205.51600      27.74920
             205.60100    -205.51600      27.74920
             205.60100    -205.51600      27.74920
             205.60100    -205.51600      27.74920
             205.60100    -205.51600      27.74920
             205.60100    -205.51600      27.74920
             205.60100    -205.51600      27.74920
             205.60100    -205.51600      27.74920
             205.60100    -205.51600      27.74920
             205.60100    -205.51600      27.74920
             205.60100    -205.51600      27.74920
             205.60100    -205.51600      27.74920
             205.60100    -205.51600      27.74920
             205.60100    -205.51600      27.74920
             205.60100    -205.51600      27.74920
             205.60100    -205.51600      27.74920
             205.60100    -205.51600      27.74920
             205.60100    -205.51600      27.74920
             205.60100    -205.51600      27.74920
             205.60100    -205.51600      27.74920
             205.60100    -205.51600      27.74920
             205.60100    -205.51600      27.74920
             205.60100    -205.51600      27.74920
             205.60100    -205.51600      27.74920
             205.60100    -205.51600      27.74920
             205.60100    -205.51600      27.74920
             205.60100    -205.51600      27.74920
             205.60100    -205.51600      27.74920
             205.60100    -205.51600      27.74920
             205.60100    -205.51600      27.74920
             205.60100    -205.51600      27.74920
             205.60100    -205.51600      27.74920
             205.60100    -205.51600      27.74920
             205.60100    -205.51600      27.74920
             205.60100    -205.51600      27.74920
             205.60100    -205.51600      27.74920
             205.60100    -205.51600      27.74920
             205.60100    -205.51600      27.74920
             205.60100    -205.51600      27.74920
             205.60100    -205.51600      27.74920
             205.60100    -205.51600      27.74920
             205.60100    -205.51600      27.74920
             205.60100    -205.51600      27.74920
             205.60100    -205.51600      27.74920
             205.60100    -205.51600      27.74920
             205.60100    -205.51600      27.74920
             205.60100    -205.51600      27.74920
             205.60100    -205.51600      27.74920
             205.60100    -205.51600      27.74920
             205.60100    -205.51600      27.74920
             205.60100    -205.51600      27.74920
             205.60100    -205.51600      27.74920
             205.60100    -205.51600      27.74920
             205.60100    -205.51600      27.74920
             205.60100    -205.51600      27.74920
             205.60100    -205.51600      27.74920
             205.60100    -205.51600      27.74920
             205.60100    -205.51600      27.74920
             205.60100    -205.51600      27.74920
             205.60100    -205.51600      27.74920
             205.60100    -205.51600      27.74920
             205.60100    -205.51600      27.74920
             205.60100    -205.51600      27.74920
             205.60100    -205.51600      27.74920
             205.60100    -205.51600      27.74920
             205.60100    -205.51600      27.74920
             205.60100    -205.51600      27.74920
             205.60100    -205.51600      27.74920
             205.60100    -205.51600      27.74920
             205.60100    -205.51600      27.74920
             205.60100    -205.51600      27.74920
             205.60100    -205.51600      27.74920
             205.60100    -205.51600      27.74920
             205.60100    -205.51600      27.74920
             205.60100    -205.51600      27.74920
             205.60100    -205.51600      27.74920
             205.60100    -205.51600      27.74920
             205.60100    -205.51600      27.74920
             205.60100    -205.51600      27.74920
             205.60100    -205.51600      27.74920
             205.60100    -205.51600      27.74920
             205.60100    -205.51600      27.74920
             205.60100    -205.51600      27.74920
             205.60100    -205.51600      27.74920
             205.60100    -205.51600      27.74920
             205.60100    -205.51600      27.74920
             205.60100    -205.51600      27.74920
             205.60100    -205.51600      27.74920
             205.60100    -205.51600      27.74920
             205.60100    -205.51600      27.74920
             205.60100    -205.51600      27.74920
             205.60100    -205.51600      27.74920
             205.60100    -205.51600      27.74920
             205.60100    -205.51600      27.74920
             205.60100    -205.51600      27.74920
             205.60100    -205.51600      27.74920
             205.60100    -205.51600      27.74920
             205.60100    -205.51600      27.74920
             205.60100    -205.51600      27.74920
             205.60100    -205.51600      27.74920
             205.60100    -205.51600      27.74920
             205.60100    -205.51600      27.74920
             205.60100    -205.51600      27.74920
             205.60100    -205.51600      27.74920
             205.60100    -205.51600      27.74920
             205.60100    -205.51600      27.74920
             205.60100    -205.51600      27.74920
             205.60100    -205.51600      27.74920
             205.60100    -205.51600      27.74920
             205.60100    -205.51600      27.74920
             205.60100    -205.51600      27.74920
             205.60100    -205.51600      27.74920
             205.60100    -205.51600      27.74920
             205.60100    -205.51600      27.74920
             205.60100    -205.51600      27.74920
             205.60100    -205.51600      27.74920
             205.60100    -205.51600      27.74920
             205.60100    -205.51600      27.74920
             205.60100    -205.51600      27.74920
             205.60100    -205.51600      27.74920
             205.60100    -205.51600      27.74920
             205.60100    -205.51600      27.74920
             205.60100    -205.51600      27.74920
             205.60100    -205.51600      27.74920
             205.60100    -205.51600      27.74920
             205.60100    -205.51600      27.74920
             205.60100    -205.51600      27.74920
             205.60100    -205.51600      27.74920
             205.60100    -205.51600      27.74920
             205.60100    -205.51600      27.74920
             205.60100    -205.51600      27.74920
             205.60100    -205.51600      27.74920
             205.60100    -205.51600      27.74920
             205.60100    -205.51600      27.74920
             205.60100    -205.51600      27.74920
             205.60100    -205.51600      27.74920
             205.60100    -205.51600      27.74920
             205.60100    -205.51600      27.74920
             205.60100    -205.51600      27.74920
             205.60100    -205.51600      27.74920
             205.60100    -205.51600      27.74920
             205.60100    -205.51600      27.74920
             205.60100    -205.51600      27.74920
             205.60100    -205.51600      27.74920
             205.60100    -205.51600      27.74920
             205.60100    -205.51600      27.74920
             205.60100    -205.51600      27.74920
             205.60100    -205.51600      27.74920
             205.60100    -205.51600      27.74920
             205.60100    -205.51600      27.74920
             205.60100    -205.51600      27.74920
             205.60100    -205.51600      27.74920
             205.60100    -205.51600      27.74920
             205.60100    -205.51600      27.74920
             205.60100    -205.51600      27.74920
             205.60100    -205.51600      27.74920
             205.60100    -205.51600      27.74920
             205.60100    -205.51600      27.74920
             205.60100    -205.51600      27.74920
             205.60100    -205.51600      27.74920
             205.60100    -205.51600      27.74920
             205.60100    -205.51600      27.74920
             205.60100    -205.51600      27.74920
             205.60100    -205.51600      27.74920
             205.60100    -205.51600      27.74920
             205.60100    -205.51600      27.74920
             205.60100    -205.51600      27.74920
             205.60100    -205.51600      27.74920
             205.60100    -205.51600      27.74920
             205.60100    -205.51600      27.74920
             205.60100    -205.51600      27.74920
             205.60100    -205.51600      27.74920
             205.60100    -205.51600      27.74920
             205.60100    -205.51600      27.74920
             205.60100    -205.51600      27.74920
             205.60100    -205.51600      27.74920
             205.60100    -205.51600      27.74920
             205.60100    -205.51600      27.74920
             205.60100    -205.51600      27.74920
             205.60100    -205.51600      27.74920
             205.60100    -205.51600      27.74920
             205.60100    -205.51600      27.74920
             205.60100    -205.51600      27.74920
             205.60100    -205.51600      27.74920
             205.60100    -205.51600      27.74920
             205.60100    -205.51600      27.74920
             205.60100    -205.51600      27.74920
             205.60100    -205.51600      27.74920
             205.60100    -205.51600      27.74920
             205.60100    -205.51600      27.74920
             205.60100    -205.51600      27.74920
             205.60100    -205.51600      27.74920
             205.60100    -205.51600      27.74920
             205.60100    -205.51600      27.74920
             205.60100    -205.51600      27.74920
             205.60100    -205.51600      27.74920
             205.60100    -205.51600      27.74920
             205.60100    -205.51600      27.74920
             205.60100    -205.51600      27.74920
             205.60100    -205.51600      27.74920
             205.60100    -205.51600      27.74920
             205.60100    -205.51600      27.74920
             205.60100    -205.51600      27.74920
             205.60100    -205.51600      27.74920
             205.60100    -205.51600      27.74920
             205.60100    -205.51600      27.74920
             205.60100    -205.51600      27.74920
             205.60100    -205.51600      27.74920
             205.60100    -205.51600      27.74920
             205.60100    -205.51600      27.74920
             205.60100    -205.51600      27.74920
             205.60100    -205.51600      27.74920
             205.60100    -205.51600      27.74920
             205.60100    -205.51600      27.74920
             205.60100    -205.51600      27.74920
             205.60100    -205.51600      27.74920
             205.60100    -205.51600      27.74920
             205.60100    -205.51600      27.74920
             205.60100    -205.51600      27.74920
             205.60100    -205.51600      27.74920
             205.60100    -205.51600      27.74920
             205.60100    -205.51600      27.74920
             205.60100    -205.51600      27.74920
             205.60100    -205.51600      27.74920
             205.60100    -205.51600      27.74920
             205.60100    -205.51600      27.74920
             205.60100    -205.51600      27.74920
             205.60100    -205.51600      27.74920
             205.60100    -205.51600      27.74920
             205.60100    -205.51600      27.74920
             205.60100    -205.51600      27.74920
             205.60100    -205.51600      27.74920
             205.60100    -205.51600      27.74920
             205.60100    -205.51600      27.74920
             205.60100    -205.51600      27.74920
             205.60100    -205.51600      27.74920
             205.60100    -205.51600      27.74920
             205.60100    -205.51600      27.74920
             205.60100    -205.51600      27.74920
             205.60100    -205.51600      27.74920
             205.60100    -205.51600      27.74920
             205.60100    -205.51600      27.74920
             205.60100    -205.51600      27.74920
             205.60100    -205.51600      27.74920
             205.60100    -205.51600      27.74920
             205.60100    -205.51600      27.74920
             205.60100    -205.51600      27.74920
             205.60100    -205.51600      27.74920
             205.60100    -205.51600      27.74920
             205.60100    -205.51600      27.74920
             205.60100    -205.51600      27.74920
             205.60100    -205.51600      27.74920
             205.60100    -205.51600      27.74920
             205.60100    -205.51600      27.74920
             205.60100    -205.51600      27.74920
             205.60100    -205.51600      27.74920
             205.60100    -205.51600      27.74920
             205.60100    -205.51600      27.74920
             205.60100    -205.51600      27.74920
             205.60100    -205.51600      27.74920
             205.60100    -205.51600      27.74920
             205.60100    -205.51600      27.74920
             205.60100    -205.51600      27.74920
             205.60100    -205.51600      27.74920
             205.60100    -205.51600      27.74920
             205.60100    -205.51600      27.74920
             205.60100    -205.51600      27.74920
             205.60100    -205.51600      27.74920
             205.60100    -205.51600      27.74920
             205.60100    -205.51600      27.74920
             205.60100    -205.51600      27.74920
             205.60100    -205.51600      27.74920
             205.60100    -205.51600      27.74920
             205.60100    -205.51600      27.74920
             205.60100    -205.51600      27.74920
             205.60100    -205.51600      27.74920
             205.60100    -205.51600      27.74920
             205.60100    -205.51600      27.74920
             205.60100    -205.51600      27.74920
             205.60100    -205.51600      27.74920
             205.60100    -205.51600      27.74920
             205.60100    -205.51600      27.74920
             205.60100    -205.51600      27.74920
             205.60100    -205.51600      27.74920
             205.60100    -205.51600      27.74920
             205.60100    -205.51600      27.74920
             205.60100    -205.51600      27.74920
             205.60100    -205.51600      27.74920
             205.60100    -205.51600      27.74920
             205.60100    -205.51600      27.74920
             205.60100    -205.51600      27.74920
             205.60100    -205.51600      27.74920
             205.60100    -205.51600      27.74920
             205.60100    -205.51600      27.74920
             205.60100    -205.51600      27.74920
             205.60100    -205.51600      27.74920
             205.60100    -205.51600      27.74920
             205.60100    -205.51600      27.74920
             205.60100    -205.51600      27.74920
             205.60100    -205.51600      27.74920
             205.60100    -205.51600      27.74920
             205.60100    -205.51600      27.74920
             205.60100    -205.51600      27.74920
             205.60100    -205.51600      27.74920
             205.60100    -205.51600      27.74920
             205.60100    -205.51600      27.74920
             205.60100    -205.51600      27.74920
             205.60100    -205.51600      27.74920
             205.60100    -205.51600      27.74920
             205.60100    -205.51600      27.74920
             205.60100    -205.51600      27.74920
             205.60100    -205.51600      27.74920
             205.60100    -205.51600      27.74920
             205.60100    -205.51600      27.74920
             205.60100    -205.51600      27.74920
             205.60100    -205.51600      27.74920
             205.60100    -205.51600      27.74920
             205.60100    -205.51600      27.74920
             205.60100    -205.51600      27.74920
             205.60100    -205.51600      27.74920
             205.60100    -205.51600      27.74920
             205.60100    -205.51600      27.74920
             205.60100    -205.51600      27.74920
             205.60100    -205.51600      27.74920
             205.60100    -205.51600      27.74920
             205.60100    -205.51600      27.74920
             205.60100    -205.51600      27.74920
             205.60100    -205.51600      27.74920
             205.60100    -205.51600      27.74920
             205.60100    -205.51600      27.74920
             205.60100    -205.51600      27.74920
             205.60100    -205.51600      27.74920
             205.60100    -205.51600      27.74920
             205.60100    -205.51600      27.74920
             205.60100    -205.51600      27.74920
             205.60100    -205.51600      27.74920
             205.60100    -205.51600      27.74920
             205.60100    -205.51600      27.74920
             205.60100    -205.51600      27.74920
             205.60100    -205.51600      27.74920
             205.60100    -205.51600      27.74920
             205.60100    -205.51600      27.74920
             205.60100    -205.51600      27.74920
             205.60100    -205.51600      27.74920
             205.60100    -205.51600      27.74920
             205.60100    -205.51600      27.74920
             205.60100    -205.51600      27.74920
             205.60100    -205.51600      27.74920
             205.60100    -205.51600      27.74920
             205.60100    -205.51600      27.74920
             205.60100    -205.51600      27.74920
             205.60100    -205.51600      27.74920
             205.60100    -205.51600      27.74920
             205.60100    -205.51600      27.74920
             205.60100    -205.51600      27.74920
             205.60100    -205.51600      27.74920
             205.60100    -205.51600      27.74920
             205.60100    -205.51600      27.74920
             205.60100    -205.51600      27.74920
             205.60100    -205.51600      27.74920
             205.60100    -205.51600      27.74920
             205.60100    -205.51600      27.74920
             205.60100    -205.51600      27.74920
             205.60100    -205.51600      27.74920
             205.60100    -205.51600      27.74920
             205.60100    -205.51600      27.74920
             205.60100    -205.51600      27.74920
             205.60100    -205.51600      27.74920
             205.60100    -205.51600      27.74920
             205.60100    -205.51600      27.74920
             205.60100    -205.51600      27.74920
             205.60100    -205.51600      27.74920
             205.60100    -205.51600      27.74920
             205.60100    -205.51600      27.74920
             205.60100    -205.51600      27.74920
             205.60100    -205.51600      27.74920
             205.60100    -205.51600      27.74920
             205.60100    -205.51600      27.74920
             205.60100    -205.51600      27.74920
             205.60100    -205.51600      27.74920
             205.60100    -205.51600      27.74920
             205.60100    -205.51600      27.74920
             205.60100    -205.51600      27.74920
             205.60100    -205.51600      27.74920
             205.60100    -205.51600      27.74920
             205.60100    -205.51600      27.74920
             205.60100    -205.51600      27.74920
             205.60100    -205.51600      27.74920
             205.60100    -205.51600      27.74920
             205.60100    -205.51600      27.74920
             205.60100    -205.51600      27.74920
             205.60100    -205.51600      27.74920
             205.60100    -205.51600      27.74920
             205.60100    -205.51600      27.74920
             205.60100    -205.51600      27.74920
             205.60100    -205.51600      27.74920
             205.60100    -205.51600      27.74920
             205.60100    -205.51600      27.74920
             205.60100    -205.51600      27.74920
             205.60100    -205.51600      27.74920
             205.60100    -205.51600      27.74920
             205.60100    -205.51600      27.74920
             205.60100    -205.51600      27.74920
             205.60100    -205.51600      27.74920
             205.60100    -205.51600      27.74920
             205.60100    -205.51600      27.74920
             205.60100    -205.51600      27.74920
             205.60100    -205.51600      27.74920
             205.60100    -205.51600      27.74920
             205.60100    -205.51600      27.74920
             205.60100    -205.51600      27.74920
             205.60100    -205.51600      27.74920
             205.60100    -205.51600      27.74920
             205.60100    -205.51600      27.74920
             205.60100    -205.51600      27.74920
             205.60100    -205.51600      27.74920
             205.60100    -205.51600      27.74920
             205.60100    -205.51600      27.74920
             205.60100    -205.51600      27.74920
             205.60100    -205.51600      27.74920
             205.60100    -205.51600      27.74920
             205.60100    -205.51600      27.74920
             205.60100    -205.51600      27.74920
             205.60100    -205.51600      27.74920
             205.60100    -205.51600      27.74920
             205.60100    -205.51600      27.74920
             205.60100    -205.51600      27.74920
             205.60100    -205.51600      27.74920
             205.60100    -205.51600      27.74920
             205.60100    -205.51600      27.74920
             205.60100    -205.51600      27.74920
             205.60100    -205.51600      27.74920
             205.60100    -205.51600      27.74920
             205.60100    -205.51600      27.74920
             205.60100    -205.51600      27.74920
             205.60100    -205.51600      27.74920
             205.60100    -205.51600      27.74920
             205.60100    -205.51600      27.74920
             205.60100    -205.51600      27.74920
             205.60100    -205.51600      27.74920
             205.60100    -205.51600      27.74920
             205.60100    -205.51600      27.74920
             205.60100    -205.51600      27.74920
             205.60100    -205.51600      27.74920
             205.60100    -205.51600      27.74920
             205.60100    -205.51600      27.74920
             205.60100    -205.51600      27.74920
             205.60100    -205.51600      27.74920
             205.60100    -205.51600      27.74920
             205.60100    -205.51600      27.74920
             205.60100    -205.51600      27.74920
             205.60100    -205.51600      27.74920
             205.60100    -205.51600      27.74920
             205.60100    -205.51600      27.74920
             205.60100    -205.51600      27.74920
             205.60100    -205.51600      27.74920
             205.60100    -205.51600      27.74920
             205.60100    -205.51600      27.74920
             205.60100    -205.51600      27.74920
             205.60100    -205.51600      27.74920
             205.60100    -205.51600      27.74920
             205.60100    -205.51600      27.74920
             205.60100    -205.51600      27.74920
             205.60100    -205.51600      27.74920
             205.60100    -205.51600      27.74920
             205.60100    -205.51600      27.74920
             205.60100    -205.51600      27.74920
             205.60100    -205.51600      27.74920
             205.60100    -205.51600      27.74920
             205.60100    -205.51600      27.74920
             205.60100    -205.51600      27.74920
             205.60100    -205.51600      27.74920
             205.60100    -205.51600      27.74920
             205.60100    -205.51600      27.74920
             205.60100    -205.51600      27.74920
             205.60100    -205.51600      27.74920
             205.60100    -205.51600      27.74920
             205.60100    -205.51600      27.74920
             205.60100    -205.51600      27.74920
             205.60100    -205.51600      27.74920
             205.60100    -205.51600      27.74920
             205.60100    -205.51600      27.74920
             205.60100    -205.51600      27.74920
             205.60100    -205.51600      27.74920
             205.60100    -205.51600      27.74920
             205.60100    -205.51600      27.74920
             205.60100    -205.51600      27.74920
             205.60100    -205.51600      27.74920
             205.60100    -205.51600      27.74920
             205.60100    -205.51600      27.74920
             205.60100    -205.51600      27.74920
             205.60100    -205.51600      27.74920
             205.60100    -205.51600      27.74920
             205.60100    -205.51600      27.74920
             205.60100    -205.51600      27.74920
             205.60100    -205.51600      27.74920
             205.60100    -205.51600      27.74920
             205.60100    -205.51600      27.74920
             205.60100    -205.51600      27.74920
             205.60100    -205.51600      27.74920
             205.60100    -205.51600      27.74920
             205.60100    -205.51600      27.74920
             205.60100    -205.51600      27.74920
             205.60100    -205.51600      27.74920
             205.60100    -205.51600      27.74920
             205.60100    -205.51600      27.74920
             205.60100    -205.51600      27.74920
             205.60100    -205.51600      27.74920
             205.60100    -205.51600      27.74920
             205.60100    -205.51600      27.74920
             205.60100    -205.51600      27.74920
             205.60100    -205.51600      27.74920
             205.60100    -205.51600      27.74920
             205.60100    -205.51600      27.74920
             205.60100    -205.51600      27.74920
             205.60100    -205.51600      27.74920
             205.60100    -205.51600      27.74920
             205.60100    -205.51600      27.74920
             205.60100    -205.51600      27.74920
             205.60100    -205.51600      27.74920
             205.60100    -205.51600      27.74920
             205.60100    -205.51600      27.74920
             205.60100    -205.51600      27.74920
             205.60100    -205.51600      27.74920
             205.60100    -205.51600      27.74920
             205.60100    -205.51600      27.74920
             205.60100    -205.51600      27.74920
             205.60100    -205.51600      27.74920
             205.60100    -205.51600      27.74920
             205.60100    -205.51600      27.74920
             205.60100    -205.51600      27.74920
             205.60100    -205.51600      27.74920
             205.60100    -205.51600      27.74920
             205.60100    -205.51600      27.74920
             205.60100    -205.51600      27.74920
             205.60100    -205.51600      27.74920
             205.60100    -205.51600      27.74920
             205.60100    -205.51600      27.74920
             205.60100    -205.51600      27.74920
             205.60100    -205.51600      27.74920
             205.60100    -205.51600      27.74920
             205.60100    -205.51600      27.74920
             205.60100    -205.51600      27.74920
             205.60100    -205.51600      27.74920
             205.60100    -205.51600      27.74920
             205.60100    -205.51600      27.74920
             205.60100    -205.51600      27.74920
             205.60100    -205.51600      27.74920
             205.60100    -205.51600      27.74920
             205.60100    -205.51600      27.74920
             205.60100    -205.51600      27.74920
             205.60100    -205.51600      27.74920
             205.60100    -205.51600      27.74920
             205.60100    -205.51600      27.74920
             205.60100    -205.51600      27.74920
             205.60100    -205.51600      27.74920
             205.60100    -205.51600      27.74920
             205.60100    -205.51600      27.74920
             205.60100    -205.51600      27.74920
             205.60100    -205.51600      27.74920
             205.60100    -205.51600      27.74920
             205.60100    -205.51600      27.74920
             205.60100    -205.51600      27.74920
             205.60100    -205.51600      27.74920
             205.60100    -205.51600      27.74920
             205.60100    -205.51600      27.74920
             205.60100    -205.51600      27.74920
             205.60100    -205.51600      27.74920
             205.60100    -205.51600      27.74920
             205.60100    -205.51600      27.74920
             205.60100    -205.51600      27.74920
             205.60100    -205.51600      27.74920
             205.60100    -205.51600      27.74920
             205.60100    -205.51600      27.74920
             205.60100    -205.51600      27.74920
             205.60100    -205.51600      27.74920
             205.60100    -205.51600      27.74920
             205.60100    -205.51600      27.74920
             205.60100    -205.51600      27.74920
             205.60100    -205.51600      27.74920
             205.60100    -205.51600      27.74920
             205.60100    -205.51600      27.74920
             205.60100    -205.51600      27.74920
             205.60100    -205.51600      27.74920
             205.60100    -205.51600      27.74920
             205.60100    -205.51600      27.74920
             205.60100    -205.51600      27.74920
             205.60100    -205.51600      27.74920
             205.60100    -205.51600      27.74920
             205.60100    -205.51600      27.74920
             205.60100    -205.51600      27.74920
             205.60100    -205.51600      27.74920
             205.60100    -205.51600      27.74920
             205.60100    -205.51600      27.74920
             205.60100    -205.51600      27.74920
             205.60100    -205.51600      27.74920
             205.60100    -205.51600      27.74920
             205.60100    -205.51600      27.74920
             205.60100    -205.51600      27.74920
             205.60100    -205.51600      27.74920
             205.60100    -205.51600      27.74920
             205.60100    -205.51600      27.74920
             205.60100    -205.51600      27.74920
             205.60100    -205.51600      27.74920
             205.60100    -205.51600      27.74920
             205.60100    -205.51600      27.74920
             205.60100    -205.51600      27.74920
             205.60100    -205.51600      27.74920
             205.60100    -205.51600      27.74920
             205.60100    -205.51600      27.74920
             205.60100    -205.51600      27.74920
             205.60100    -205.51600      27.74920
             205.60100    -205.51600      27.74920
             205.60100    -205.51600      27.74920
             205.60100    -205.51600      27.74920
             205.60100    -205.51600      27.74920
             205.60100    -205.51600      27.74920
             205.60100    -205.51600      27.74920
             205.60100    -205.51600      27.74920
             205.60100    -205.51600      27.74920
             205.60100    -205.51600      27.74920
             205.60100    -205.51600      27.74920
             205.60100    -205.51600      27.74920
             205.60100    -205.51600      27.74920
             205.60100    -205.51600      27.74920
             205.60100    -205.51600      27.74920
             205.60100    -205.51600      27.74920
             205.60100    -205.51600      27.74920
             205.60100    -205.51600      27.74920
             205.60100    -205.51600      27.74920
             205.60100    -205.51600      27.74920
             205.60100    -205.51600      27.74920
             205.60100    -205.51600      27.74920
             205.60100    -205.51600      27.74920
             205.60100    -205.51600      27.74920
             205.60100    -205.51600      27.74920
             205.60100    -205.51600      27.74920
             205.60100    -205.51600      27.74920
             205.60100    -205.51600      27.74920
             205.60100    -205.51600      27.74920
             205.60100    -205.51600      27.74920
             205.60100    -205.51600      27.74920
             205.60100    -205.51600      27.74920
             205.60100    -205.51600      27.74920
             205.60100    -205.51600      27.74920
             205.60100    -205.51600      27.74920
             205.60100    -205.51600      27.74920
             205.60100    -205.51600      27.74920
             205.60100    -205.51600      27.74920
             205.60100    -205.51600      27.74920
             205.60100    -205.51600      27.74920
             205.60100    -205.51600      27.74920
             205.60100    -205.51600      27.74920
             205.60100    -205.51600      27.74920
             205.60100    -205.51600      27.74920
             205.60100    -205.51600      27.74920
             205.60100    -205.51600      27.74920
             205.60100    -205.51600      27.74920
             205.60100    -205.51600      27.74920
             205.60100    -205.51600      27.74920
             205.60100    -205.51600      27.74920
             205.60100    -205.51600      27.74920
             205.60100    -205.51600      27.74920
             205.60100    -205.51600      27.74920
             205.60100    -205.51600      27.74920
             205.60100    -205.51600      27.74920
             205.60100    -205.51600      27.74920
             205.60100    -205.51600      27.74920
             205.60100    -205.51600      27.74920
             205.60100    -205.51600      27.74920
             205.60100    -205.51600      27.74920
             205.60100    -205.51600      27.74920
             205.60100    -205.51600      27.74920
             205.60100    -205.51600      27.74920
             205.60100    -205.51600      27.74920
             205.60100    -205.51600      27.74920
             205.60100    -205.51600      27.74920
             205.60100    -205.51600      27.74920
             205.60100    -205.51600      27.74920
             205.60100    -205.51600      27.74920
             205.60100    -205.51600      27.74920
             205.60100    -205.51600      27.74920
             205.60100    -205.51600      27.74920
             205.60100    -205.51600      27.74920
             205.60100    -205.51600      27.74920
             205.60100    -205.51600      27.74920
             205.60100    -205.51600      27.74920
             205.60100    -205.51600      27.74920
             205.60100    -205.51600      27.74920
             205.60100    -205.51600      27.74920
             205.60100    -205.51600      27.74920
             205.60100    -205.51600      27.74920
             205.60100    -205.51600      27.74920
             205.60100    -205.51600      27.74920
             205.60100    -205.51600      27.74920
             205.60100    -205.51600      27.74920
             205.60100    -205.51600      27.74920
             205.60100    -205.51600      27.74920
             205.60100    -205.51600      27.74920
             205.60100    -205.51600      27.74920
             205.60100    -205.51600      27.74920
             205.60100    -205.51600      27.74920
             205.60100    -205.51600      27.74920
             205.60100    -205.51600      27.74920
             205.60100    -205.51600      27.74920
             205.60100    -205.51600      27.74920
             205.60100    -205.51600      27.74920
             205.60100    -205.51600      27.74920
             205.60100    -205.51600      27.74920
             205.60100    -205.51600      27.74920
             205.60100    -205.51600      27.74920
             205.60100    -205.51600      27.74920
             205.60100    -205.51600      27.74920
             205.60100    -205.51600      27.74920
             205.60100    -205.51600      27.74920
             205.60100    -205.51600      27.74920
             205.60100    -205.51600      27.74920
             205.60100    -205.51600      27.74920
             205.60100    -205.51600      27.74920
             205.60100    -205.51600      27.74920
             205.60100    -205.51600      27.74920
             205.60100    -205.51600      27.74920
             205.60100    -205.51600      27.74920
             205.60100    -205.51600      27.74920
             205.60100    -205.51600      27.74920
             205.60100    -205.51600      27.74920
             205.60100    -205.51600      27.74920
             205.60100    -205.51600      27.74920
             205.60100    -205.51600      27.74920
             205.60100    -205.51600      27.74920
             205.60100    -205.51600      27.74920
             205.60100    -205.51600      27.74920
             205.60100    -205.51600      27.74920
             205.60100    -205.51600      27.74920
             205.60100    -205.51600      27.74920
             205.60100    -205.51600      27.74920
             205.60100    -205.51600      27.74920
             205.60100    -205.51600      27.74920
             205.60100    -205.51600      27.74920
             205.60100    -205.51600      27.74920
             205.60100    -205.51600      27.74920
             205.60100    -205.51600      27.74920
             205.60100    -205.51600      27.74920
             205.60100    -205.51600      27.74920
             205.60100    -205.51600      27.74920
             205.60100    -205.51600      27.74920
             205.60100    -205.51600      27.74920
             205.60100    -205.51600      27.74920
             205.60100    -205.51600      27.74920
             205.60100    -205.51600      27.74920
             205.60100    -205.51600      27.74920
             205.60100    -205.51600      27.74920
             205.60100    -205.51600      27.74920
             205.60100    -205.51600      27.74920
             205.60100    -205.51600      27.74920
             205.60100    -205.51600      27.74920
             205.60100    -205.51600      27.74920
             205.60100    -205.51600      27.74920
             205.60100    -205.51600      27.74920
             205.60100    -205.51600      27.74920
             205.60100    -205.51600      27.74920
             205.60100    -205.51600      27.74920
             205.60100    -205.51600      27.74920
             205.60100    -205.51600      27.74920
             205.60100    -205.51600      27.74920
             205.60100    -205.51600      27.74920
             205.60100    -205.51600      27.74920
             205.60100    -205.51600      27.74920
             205.60100    -205.51600      27.74920
             205.60100    -205.51600      27.74920
             205.60100    -205.51600      27.74920
             205.60100    -205.51600      27.74920
             205.60100    -205.51600      27.74920
             205.60100    -205.51600      27.74920
             205.60100    -205.51600      27.74920
             205.60100    -205.51600      27.74920
             205.60100    -205.51600      27.74920
             205.60100    -205.51600      27.74920
             205.60100    -205.51600      27.74920
             205.60100    -205.51600      27.74920
             205.60100    -205.51600      27.74920
             205.60100    -205.51600      27.74920
             205.60100    -205.51600      27.74920
             205.60100    -205.51600      27.74920
             205.60100    -205.51600      27.74920
             205.60100    -205.51600      27.74920
             205.60100    -205.51600      27.74920
             205.60100    -205.51600      27.74920
             205.60100    -205.51600      27.74920
             205.60100    -205.51600      27.74920
             205.60100    -205.51600      27.74920
             205.60100    -205.51600      27.74920
             205.60100    -205.51600      27.74920
             205.60100    -205.51600      27.74920
             205.60100    -205.51600      27.74920
             205.60100    -205.51600      27.74920
             205.60100    -205.51600      27.74920
             205.60100    -205.51600      27.74920
             205.60100    -205.51600      27.74920
             205.60100    -205.51600      27.74920
             205.60100    -205.51600      27.74920
             205.60100    -205.51600      27.74920
             205.60100    -205.51600      27.74920
             205.60100    -205.51600      27.74920
             205.60100    -205.51600      27.74920
             205.60100    -205.51600      27.74920
             205.60100    -205.51600      27.74920
             205.60100    -205.51600      27.74920
             205.60100    -205.51600      27.74920
             205.60100    -205.51600      27.74920
             205.60100    -205.51600      27.74920
             205.60100    -205.51600      27.74920
             205.60100    -205.51600      27.74920
             205.60100    -205.51600      27.74920
             205.60100    -205.51600      27.74920
             205.60100    -205.51600      27.74920
             205.60100    -205.51600      27.74920
             205.60100    -205.51600      27.74920
             205.60100    -205.51600      27.74920
             205.60100    -205.51600      27.74920
             205.60100    -205.51600      27.74920
             205.60100    -205.51600      27.74920
             205.60100    -205.51600      27.74920
             205.60100    -205.51600      27.74920
             205.60100    -205.51600      27.74920
             205.60100    -205.51600      27.74920
             205.60100    -205.51600      27.74920
             205.60100    -205.51600      27.74920
             205.60100    -205.51600      27.74920
             205.60100    -205.51600      27.74920
             205.60100    -205.51600      27.74920
             205.60100    -205.51600      27.74920
             205.60100    -205.51600      27.74920
             205.60100    -205.51600      27.74920
             205.60100    -205.51600      27.74920
             205.60100    -205.51600      27.74920
             205.60100    -205.51600      27.74920
             205.60100    -205.51600      27.74920
             205.60100    -205.51600      27.74920
             205.60100    -205.51600      27.74920
             205.60100    -205.51600      27.74920
             205.60100    -205.51600      27.74920
             205.60100    -205.51600      27.74920
             205.60100    -205.51600      27.74920
             205.60100    -205.51600      27.74920
             205.60100    -205.51600      27.74920
             205.60100    -205.51600      27.74920
             205.60100    -205.51600      27.74920
             205.60100    -205.51600      27.74920
             205.60100    -205.51600      27.74920
             205.60100    -205.51600      27.74920
             205.60100    -205.51600      27.74920
             205.60100    -205.51600      27.74920
             205.60100    -205.51600      27.74920
             205.60100    -205.51600      27.74920
             205.60100    -205.51600      27.74920
             205.60100    -205.51600      27.74920
             205.60100    -205.51600      27.74920
             205.60100    -205.51600      27.74920
             205.60100    -205.51600      27.74920
             205.60100    -205.51600      27.74920
             205.60100    -205.51600      27.74920
             205.60100    -205.51600      27.74920
             205.60100    -205.51600      27.74920
             205.60100    -205.51600      27.74920
             205.60100    -205.51600      27.74920
             205.60100    -205.51600      27.74920
             205.60100    -205.51600      27.74920
             205.60100    -205.51600      27.74920
             205.60100    -205.51600      27.74920
             205.60100    -205.51600      27.74920
             205.60100    -205.51600      27.74920
             205.60100    -205.51600      27.74920
             205.60100    -205.51600      27.74920
             205.60100    -205.51600      27.74920
             205.60100    -205.51600      27.74920
             205.60100    -205.51600      27.74920
             205.60100    -205.51600      27.74920
             205.60100    -205.51600      27.74920
             205.60100    -205.51600      27.74920
             205.60100    -205.51600      27.74920
             205.60100    -205.51600      27.74920
             205.60100    -205.51600      27.74920
             205.60100    -205.51600      27.74920
             205.60100    -205.51600      27.74920
             205.60100    -205.51600      27.74920
             205.60100    -205.51600      27.74920
             205.60100    -205.51600      27.74920
             205.60100    -205.51600      27.74920
             205.60100    -205.51600      27.74920
             205.60100    -205.51600      27.74920
             205.60100    -205.51600      27.74920
             205.60100    -205.51600      27.74920
             205.60100    -205.51600      27.74920
             205.60100    -205.51600      27.74920
             205.60100    -205.51600      27.74920
             205.60100    -205.51600      27.74920
             205.60100    -205.51600      27.74920
             205.60100    -205.51600      27.74920
             205.60100    -205.51600      27.74920
             205.60100    -205.51600      27.74920
             205.60100    -205.51600      27.74920
             205.60100    -205.51600      27.74920
             205.60100    -205.51600      27.74920
             205.60100    -205.51600      27.74920
             205.60100    -205.51600      27.74920
             205.60100    -205.51600      27.74920
             205.60100    -205.51600      27.74920
             205.60100    -205.51600      27.74920
             205.60100    -205.51600      27.74920
             205.60100    -205.51600      27.74920
             205.60100    -205.51600      27.74920
             205.60100    -205.51600      27.74920
             205.60100    -205.51600      27.74920
             205.60100    -205.51600      27.74920
             205.60100    -205.51600      27.74920
             205.60100    -205.51600      27.74920
             205.60100    -205.51600      27.74920
             205.60100    -205.51600      27.74920
             205.60100    -205.51600      27.74920
             205.60100    -205.51600      27.74920
             205.60100    -205.51600      27.74920
             205.60100    -205.51600      27.74920
             205.60100    -205.51600      27.74920
             205.60100    -205.51600      27.74920
             205.60100    -205.51600      27.74920
             205.60100    -205.51600      27.74920
             205.60100    -205.51600      27.74920
             205.60100    -205.51600      27.74920
             205.60100    -205.51600      27.74920
             205.60100    -205.51600      27.74920
             205.60100    -205.51600      27.74920
             205.60100    -205.51600      27.74920
             205.60100    -205.51600      27.74920
             205.60100    -205.51600      27.74920
             205.60100    -205.51600      27.74920
             205.60100    -205.51600      27.74920
             205.60100    -205.51600      27.74920
             205.60100    -205.51600      27.74920
             205.60100    -205.51600      27.74920
             205.60100    -205.51600      27.74920
             205.60100    -205.51600      27.74920
             205.60100    -205.51600      27.74920
             205.60100    -205.51600      27.74920
             205.60100    -205.51600      27.74920
             205.60100    -205.51600      27.74920
             205.60100    -205.51600      27.74920
             205.60100    -205.51600      27.74920
             205.60100    -205.51600      27.74920
             205.60100    -205.51600      27.74920
             205.60100    -205.51600      27.74920
             205.60100    -205.51600      27.74920
             205.60100    -205.51600      27.74920
             205.60100    -205.51600      27.74920
             205.60100    -205.51600      27.74920
             205.60100    -205.51600      27.74920
             205.60100    -205.51600      27.74920
             205.60100    -205.51600      27.74920
             205.60100    -205.51600      27.74920
             205.60100    -205.51600      27.74920
             205.60100    -205.51600      27.74920
             205.60100    -205.51600      27.74920
             205.60100    -205.51600      27.74920
             205.60100    -205.51600      27.74920
             205.60100    -205.51600      27.74920
             205.60100    -205.51600      27.74920
             205.60100    -205.51600      27.74920
             205.60100    -205.51600      27.74920
             205.60100    -205.51600      27.74920
             205.60100    -205.51600      27.74920
             205.60100    -205.51600      27.74920
             205.60100    -205.51600      27.74920
             205.60100    -205.51600      27.74920
             205.60100    -205.51600      27.74920
             205.60100    -205.51600      27.74920
             205.60100    -205.51600      27.74920
             205.60100    -205.51600      27.74920
             205.60100    -205.51600      27.74920
             205.60100    -205.51600      27.74920
             205.60100    -205.51600      27.74920
             205.60100    -205.51600      27.74920
             205.60100    -205.51600      27.74920
             205.60100    -205.51600      27.74920
             205.60100    -205.51600      27.74920
             205.60100    -205.51600      27.74920
             205.60100    -205.51600      27.74920
             205.60100    -205.51600      27.74920
             205.60100    -205.51600      27.74920
             205.60100    -205.51600      27.74920
             205.60100    -205.51600      27.74920
             205.60100    -205.51600      27.74920
             205.60100    -205.51600      27.74920
             205.60100    -205.51600      27.74920
             205.60100    -205.51600      27.74920
             205.60100    -205.51600      27.74920
             205.60100    -205.51600      27.74920
             205.60100    -205.51600      27.74920
             205.60100    -205.51600      27.74920
             205.60100    -205.51600      27.74920
             205.60100    -205.51600      27.74920
             205.60100    -205.51600      27.74920
             205.60100    -205.51600      27.74920
             205.60100    -205.51600      27.74920
             205.60100    -205.51600      27.74920
             205.60100    -205.51600      27.74920
             205.60100    -205.51600      27.74920
             205.60100    -205.51600      27.74920
             205.60100    -205.51600      27.74920
             205.60100    -205.51600      27.74920
             205.60100    -205.51600      27.74920
             205.60100    -205.51600      27.74920
             205.60100    -205.51600      27.74920
             205.60100    -205.51600      27.74920
             205.60100    -205.51600      27.74920
             205.60100    -205.51600      27.74920
             205.60100    -205.51600      27.74920
             205.60100    -205.51600      27.74920
             205.60100    -205.51600      27.74920
             205.60100    -205.51600      27.74920
             205.60100    -205.51600      27.74920
             205.60100    -205.51600      27.74920
             205.60100    -205.51600      27.74920
             205.60100    -205.51600      27.74920
             205.60100    -205.51600      27.74920
             205.60100    -205.51600      27.74920
             205.60100    -205.51600      27.74920
             205.60100    -205.51600      27.74920
             205.60100    -205.51600      27.74920
             205.60100    -205.51600      27.74920
             205.60100    -205.51600      27.74920
             205.60100    -205.51600      27.74920
             205.60100    -205.51600      27.74920
             205.60100    -205.51600      27.74920
             205.60100    -205.51600      27.74920
             205.60100    -205.51600      27.74920
             205.60100    -205.51600      27.74920
             205.60100    -205.51600      27.74920
             205.60100    -205.51600      27.74920
             205.60100    -205.51600      27.74920
             205.60100    -205.51600      27.74920
             205.60100    -205.51600      27.74920
             205.60100    -205.51600      27.74920
             205.60100    -205.51600      27.74920
             205.60100    -205.51600      27.74920
             205.60100    -205.51600      27.74920
             205.60100    -205.51600      27.74920
             205.60100    -205.51600      27.74920
             205.60100    -205.51600      27.74920
             205.60100    -205.51600      27.74920
             205.60100    -205.51600      27.74920
             205.60100    -205.51600      27.74920
             205.60100    -205.51600      27.74920
             205.60100    -205.51600      27.74920
             205.60100    -205.51600      27.74920
             205.60100    -205.51600      27.74920
             205.60100    -205.51600      27.74920
             205.60100    -205.51600      27.74920
             205.60100    -205.51600      27.74920
             205.60100    -205.51600      27.74920
             205.60100    -205.51600      27.74920
             205.60100    -205.51600      27.74920
             205.60100    -205.51600      27.74920
             205.60100    -205.51600      27.74920
             205.60100    -205.51600      27.74920
             205.60100    -205.51600      27.74920
             205.60100    -205.51600      27.74920
             205.60100    -205.51600      27.74920
             205.60100    -205.51600      27.74920
             205.60100    -205.51600      27.74920
             205.60100    -205.51600      27.74920
             205.60100    -205.51600      27.74920
             205.60100    -205.51600      27.74920
             205.60100    -205.51600      27.74920
             205.60100    -205.51600      27.74920
             205.60100    -205.51600      27.74920
             205.60100    -205.51600      27.74920
             205.60100    -205.51600      27.74920
             205.60100    -205.51600      27.74920
             205.60100    -205.51600      27.74920
             205.60100    -205.51600      27.74920
             205.60100    -205.51600      27.74920
             205.60100    -205.51600      27.74920
             205.60100    -205.51600      27.74920
             205.60100    -205.51600      27.74920
             205.60100    -205.51600      27.74920
             205.60100    -205.51600      27.74920
             205.60100    -205.51600      27.74920
             205.60100    -205.51600      27.74920
             205.60100    -205.51600      27.74920
             205.60100    -205.51600      27.74920
             205.60100    -205.51600      27.74920
             205.60100    -205.51600      27.74920
             205.60100    -205.51600      27.74920
             205.60100    -205.51600      27.74920
             205.60100    -205.51600      27.74920
             205.60100    -205.51600      27.74920
             205.60100    -205.51600      27.74920
             205.60100    -205.51600      27.74920
             205.60100    -205.51600      27.74920
             205.60100    -205.51600      27.74920
             205.60100    -205.51600      27.74920
             205.60100    -205.51600      27.74920
             205.60100    -205.51600      27.74920
             205.60100    -205.51600      27.74920
             205.60100    -205.51600      27.74920
             205.60100    -205.51600      27.74920
             205.60100    -205.51600      27.74920
             205.60100    -205.51600      27.74920
             205.60100    -205.51600      27.74920
             205.60100    -205.51600      27.74920
             205.60100    -205.51600      27.74920
             205.60100    -205.51600      27.74920
             205.60100    -205.51600      27.74920
             205.60100    -205.51600      27.74920
             205.60100    -205.51600      27.74920
             205.60100    -205.51600      27.74920
             205.60100    -205.51600      27.74920
             205.60100    -205.51600      27.74920
             205.60100    -205.51600      27.74920
             205.60100    -205.51600      27.74920
             205.60100    -205.51600      27.74920
             205.60100    -205.51600      27.74920
             205.60100    -205.51600      27.74920
             205.60100    -205.51600      27.74920
             205.60100    -205.51600      27.74920
             205.60100    -205.51600      27.74920
             205.60100    -205.51600      27.74920
             205.60100    -205.51600      27.74920
             205.60100    -205.51600      27.74920
             205.60100    -205.51600      27.74920
             205.60100    -205.51600      27.74920
             205.60100    -205.51600      27.74920
             205.60100    -205.51600      27.74920
             205.60100    -205.51600      27.74920
             205.60100    -205.51600      27.74920
             205.60100    -205.51600      27.74920
             205.60100    -205.51600      27.74920
             205.60100    -205.51600      27.74920
             205.60100    -205.51600      27.74920
             205.60100    -205.51600      27.74920
             205.60100    -205.51600      27.74920
             205.60100    -205.51600      27.74920
             205.60100    -205.51600      27.74920
             205.60100    -205.51600      27.74920
             205.60100    -205.51600      27.74920
             205.60100    -205.51600      27.74920
             205.60100    -205.51600      27.74920
             205.60100    -205.51600      27.74920
             205.60100    -205.51600      27.74920
             205.60100    -205.51600      27.74920
             205.60100    -205.51600      27.74920
             205.60100    -205.51600      27.74920
             205.60100    -205.51600      27.74920
             205.60100    -205.51600      27.74920
             205.60100    -205.51600      27.74920
             205.60100    -205.51600      27.74920
             205.60100    -205.51600      27.74920
             205.60100    -205.51600      27.74920
             205.60100    -205.51600      27.74920
             205.60100    -205.51600      27.74920
             205.60100    -205.51600      27.74920
             205.60100    -205.51600      27.74920
             205.60100    -205.51600      27.74920
             205.60100    -205.51600      27.74920
             205.60100    -205.51600      27.74920
             205.60100    -205.51600      27.74920
             205.60100    -205.51600      27.74920
             205.60100    -205.51600      27.74920
             205.60100    -205.51600      27.74920
             205.60100    -205.51600      27.74920
             205.60100    -205.51600      27.74920
             205.60100    -205.51600      27.74920
             205.60100    -205.51600      27.74920
             205.60100    -205.51600      27.74920
             205.60100    -205.51600      27.74920
             205.60100    -205.51600      27.74920
             205.60100    -205.51600      27.74920
             205.60100    -205.51600      27.74920
             205.60100    -205.51600      27.74920
             205.60100    -205.51600      27.74920
             205.60100    -205.51600      27.74920
             205.60100    -205.51600      27.74920
             205.60100    -205.51600      27.74920
             205.60100    -205.51600      27.74920
             205.60100    -205.51600      27.74920
             205.60100    -205.51600      27.74920
             205.60100    -205.51600      27.74920
             205.60100    -205.51600      27.74920
             205.60100    -205.51600      27.74920
             205.60100    -205.51600      27.74920
             205.60100    -205.51600      27.74920
             205.60100    -205.51600      27.74920
             205.60100    -205.51600      27.74920
             205.60100    -205.51600      27.74920
      2948      2941      2953      2954      2950      2941      2955      2956
      2964      2957      2969      2970      2966      2957      2971      2972
      2980      2973      2985      2986      2982      2973      2987      2988
      2996      2989      3001      3002      2998      2989      3003      3004
      3012      3005      3017      3018      3014      3005      3019      3020
      3028      3021      3033      3034      3030      3021      3035      3036
      3044      3037      3049      3050      3046      3037      3051      3052
      3060      3053      3065      3066      3062      3053      3067      3068
      3076      3069      3081      3082      3078      3069      3083      3084
      3092      3085      3097      3098      3094      3085      3099      3100
      3108      3101      3113      3114      3110      3101      3115      3116
      3124      3117      3129      3130      3126      3117      3131      3132
      3140      3133      3145      3146      3142      3133      3147      3148
      3156      3149      3161      3162      3158      3149      3163      3164
      3172      3165      3177      3178      3174      3165      3179      3180
      3188      3181      3193      3194      3190      3181      3195      3196
      3204      3197      3209      3210      3206      3197      3211      3212
      3220      3213      3225      3226      3222      3213      3227      3228
      3236      3229      3241      3242      3238      3229      3243      3244
      3252      3245      3257      3258      3254      3245      3259      3260
      3268      3261      3273      3274      3270      3261      3275      3276
      3284      3277      3289      3290      3286      3277      3291      3292
      3300      3293      3305      3306      3302      3293      3307      3308
      3316      3309      3321      3322      3318      3309      3323      3324
      3332      3325      3337      3338      3334      3325      3339      3340
      3348      3341      3353      3354      3350      3341      3355      3356
      3364      3357      3369      3370      3366      3357      3371      3372
      3380      3373      3385      3386      3382      3373      3387      3388
      3396      3389      3401      3402      3398      3389      3403      3404
      3412      3405      3417      3418      3414      3405      3419      3420
      3428      3421      3433      3434      3430      3421      3435      3436
      3444      3437      3449      3450      3446      3437      3451      3452
      3460      3453      3465      3466      3462      3453      3467      3468
      3476      3469      3481      3482      3478      3469      3483      3484
      3492      3485      3497      3498      3494      3485      3499      3500
      3508      3501      3513      3514      3510      3501      3515      3516
      3524      3517      3529      3530      3526      3517      3531      3532
      3540      3533      3545      3546      3542      3533      3547      3548
      3556      3549      3561      3562      3558      3549      3563      3564
      3572      3565      3577      3578      3574      3565      3579      3580
      3588      3581      3593      3594      3590      3581      3595      3596
      3604      3597      3609      3610      3606      3597      3611      3612
      3620      3613      3625      3626      3622      3613      3627      3628
      3636      3629      3641      3642      3638      3629      3643      3644
      3652      3645      3657      3658      3654      3645      3659      3660
      3668      3661      3673      3674      3670      3661      3675      3676
      3684      3677      3689      3690      3686      3677      3691      3692
      3700      3693      3705      3706      3702      3693      3707      3708
      3716      3709      3721      3722      3718      3709      3723      3724
      3732      3725      3737      3738      3734      3725      3739      3740
      3748      3741      3753      3754      3750      3741      3755      3756
      3764      3757      3769      3770      3766      3757      3771      3772
      3780      3773      3785      3786      3782      3773      3787      3788
      3796      3789      3801      3802      3798      3789      3803      3804
      3812      3805      3817      3818      3814      3805      3819      3820
      3828      3821      3833      3834      3830      3821      3835      3836
      3844      3837      3849      3850      3846      3837      3851      3852
      3860      3853      3865      3866      3862      3853      3867      3868
      3876      3869      3881      3882      3878      3869      3883      3884
      3892      3885      3897      3898      3894      3885      3899      3900
      3908      3901      3913      3914      3910      3901      3915      3916
      3924      3917      3929      3930      3926      3917      3931      3932
      3940      3933      3945      3946      3942      3933      3947      3948
      3956      3949      3961      3962      3958      3949      3963      3964
      3972      3965      3977      3978      3974      3965      3979      3980
      3988      3981      3993      3994      3990      3981      3995      3996
      4004      3997      4009      4010      4006      3997      4011      4012
      4020      4013      4025      4026      4022      4013      4027      4028
      4036      4029      4041      4042      4038      4029      4043      4044
      4052      4045      4057      4058      4054      4045      4059      4060
      4068      4061      4073      4074      4070      4061      4075      4076
      4084      4077      4089      4090      4086      4077      4091      4092
      4100      4093      4105      4106      4102      4093      4107      4108
      4116      4109      4121      4122      4118      4109      4123      4124
      4132      4125      4137      4138      4134      4125      4139      4140
      4148      4141      4153      4154      4150      4141      4155      4156
      4164      4157      4169      4170      4166      4157      4171      4172
      4180      4173      4185      4186      4182      4173      4187      4188
      4196      4189      4201      4202      4198      4189      4203      4204
      4212      4205      4217      4218      4214      4205      4219      4220
      4228      4221      4233      4234      4230      4221      4235      4236
      4244      4237      4249      4250      4246      4237      4251      4252
      4260      4253      4265      4266      4262      4253      4267      4268
      4276      4269      4281      4282      4278      4269      4283      4284
      4292      4285      4297      4298      4294      4285      4299      4300
      4308      4301      4313      4314      4310      4301      4315      4316
      4324      4317      4329      4330      4326      4317      4331      4332
      4340      4333      4345      4346      4342      4333      4347      4348
      4356      4349      4361      4362      4358      4349      4363      4364
      4372      4365      4377      4378      4374      4365      4379      4380
      4388      4381      4393      4394      4390      4381      4395      4396
      4404      4397      4409      4410      4406      4397      4411      4412
      4420      4413      4425      4426      4422      4413      4427      4428
      8776      8769      8781      8782      8778      8769      8783      8784
      8792      8785      8797      8798      8794      8785      8799      8800
      8808      8801      8813      8814      8810      8801      8815      8816
      8824      8817      8829      8830      8826      8817      8831      8832
      8840      8833      8845      8846      8842      8833      8847      8848
      8856      8849      8861      8862      8858      8849      8863      8864
      8872      8865      8877      8878      8874      8865      8879      8880
      8888      8881      8893      8894      8890      8881      8895      8896
      8904      8897      8909      8910      8906      8897      8911      8912
      8920      8913      8925      8926      8922      8913      8927      8928
      8936      8929      8941      8942      8938      8929      8943      8944
      8952      8945      8957      8958      8954      8945      8959      8960
      8968      8961      8973      8974      8970      8961      8975      8976
      8984      8977      8989      8990      8986      8977      8991      8992
      9000      8993      9005      9006      9002      8993      9007      9008
      9016      9009      9021      9022      9018      9009      9023      9024
      9032      9025      9037      9038      9034      9025      9039      9040
      9048      9041      9053      9054      9050      9041      9055      9056
      9064      9057      9069      9070      9066      9057      9071      9072
      9080      9073      9085      9086      9082      9073      9087      9088
      9096      9089      9101      9102      9098      9089      9103      9104
      9112      9105      9117      9118      9114      9105      9119      9120
      9128      9121      9133      9134      9130      9121      9135      9136
      9144      9137      9149      9150      9146      9137      9151      9152
      9160      9153      9165      9166      9162      9153      9167      9168
      9176      9169      9181      9182      9178      9169      9183      9184
      9192      9185      9197      9198      9194      9185      9199      9200
      9208      9201      9213      9214      9210      9201      9215      9216
      9224      9217      9229      9230      9226      9217      9231      9232
      9240      9233      9245      9246      9242      9233      9247      9248
      9256      9249      9261      9262      9258      9249      9263      9264
      9272      9265      9277      9278      9274      9265      9279      9280
      9288      9281      9293      9294      9290      9281      9295      9296
      9304      9297      9309      9310      9306      9297      9311      9312
      9320      9313      9325      9326      9322      9313      9327      9328
      9336      9329      9341      9342      9338      9329      9343      9344
      9352      9345      9357      9358      9354      9345      9359      9360
      9368      9361      9373      9374      9370      9361      9375      9376
      9384      9377      9389      9390      9386      9377      9391      9392
      9400      9393      9405      9406      9402      9393      9407      9408
      9416      9409      9421      9422      9418      9409      9423      9424
      9432      9425      9437      9438      9434      9425      9439      9440
      9448      9441      9453      9454      9450      9441      9455      9456
      9464      9457      9469      9470      9466      9457      9471      9472
      9480      9473      9485      9486      9482      9473      9487      9488
      9496      9489      9501      9502      9498      9489      9503      9504
      9512      9505      9517      9518      9514      9505      9519      9520
      9528      9521      9533      9534      9530      9521      9535      9536
      9544      9537      9549      9550      9546      9537      9551      9552
      9560      9553      9565      9566      9562      9553      9567      9568
      9576      9569      9581      9582      9578      9569      9583      9584
      9592      9585      9597      9598      9594      9585      9599      9600
      9608      9601      9613      9614      9610      9601      9615      9616
      9624      9617      9629      9630      9626      9617      9631      9632
      9640      9633      9645      9646      9642      9633      9647      9648
      9656      9649      9661      9662      9658      9649      9663      9664
      9672      9665      9677      9678      9674      9665      9679      9680
      9688      9681      9693      9694      9690      9681      9695      9696
      9704      9697      9709      9710      9706      9697      9711      9712
      9720      9713      9725      9726      9722      9713      9727      9728
      9736      9729      9741      9742      9738      9729      9743      9744
      9752      9745      9757      9758      9754      9745      9759      9760
      9768      9761      9773      9774      9770      9761      9775      9776
      9784      9777      9789      9790      9786      9777      9791      9792
      9800      9793      9805      9806      9802      9793      9807      9808
      9816      9809      9821      9822      9818      9809      9823      9824
      9832      9825      9837      9838      9834      9825      9839      9840
      9848      9841      9853      9854      9850      9841      9855      9856
      9864      9857      9869      9870      9866      9857      9871      9872
      9880      9873      9885      9886      9882      9873      9887      9888
      9896      9889      9901      9902      9898      9889      9903      9904
      9912      9905      9917      9918      9914      9905      9919      9920
      9928      9921      9933      9934      9930      9921      9935      9936
      9944      9937      9949      9950      9946      9937      9951      9952
      9960      9953      9965      9966      9962      9953      9967      9968
      9976      9969      9981      9982      9978      9969      9983      9984
      9992      9985      9997      9998      9994      9985      9999     10000
     10008     10001     10013     10014     10010     10001     10015     10016
     10024     10017     10029     10030     10026     10017     10031     10032
     10040     10033     10045     10046     10042     10033     10047     10048
     10056     10049     10061     10062     10058     10049     10063     10064
     10072     10065     10077     10078     10074     10065     10079     10080
     10088     10081     10093     10094     10090     10081     10095     10096
     10104     10097     10109     10110     10106     10097     10111     10112
     10120     10113     10125     10126     10122     10113     10127     10128
     10136     10129     10141     10142     10138     10129     10143     10144
     10152     10145     10157     10158     10154     10145     10159     10160
     10168     10161     10173     10174     10170     10161     10175     10176
     10184     10177     10189     10190     10186     10177     10191     10192
     10200     10193     10205     10206     10202     10193     10207     10208
     10216     10209     10221     10222     10218     10209     10223     10224
     10232     10225     10237     10238     10234     10225     10239     10240
     10248     10241     10253     10254     10250     10241     10255     10256
     10264     10257     10269     10270     10266     10257     10271     10272
     10280     10273     10285     10286     10282     10273     10287     10288
     10296     10289     10301     10302     10298     10289     10303     10304
     10312     10305     10317     10318     10314     10305     10319     10320
     10328     10321     10333     10334     10330     10321     10335     10336
     10344     10337     10349     10350     10346     10337     10351     10352
     10360     10353     10365     10366     10362     10353     10367     10368
     10376     10369     10381     10382     10378     10369     10383     10384
     10392     10385     10397     10398     10394     10385     10399     10400
     10408     10401     10413     10414     10410     10401     10415     10416
     10424     10417     10429     10430     10426     10417     10431     10432
     10440     10433     10445     10446     10442     10433     10447     10448
     10456     10449     10461     10462     10458     10449     10463     10464
     10472     10465     10477     10478     10474     10465     10479     10480
     10488     10481     10493     10494     10490     10481     10495     10496
     10504     10497     10509     10510     10506     10497     10511     10512
     10520     10513     10525     10526     10522     10513     10527     10528
     10536     10529     10541     10542     10538     10529     10543     10544
     10552     10545     10557     10558     10554     10545     10559     10560
     10568     10561     10573     10574     10570     10561     10575     10576
     10584     10577     10589     10590     10586     10577     10591     10592
     10600     10593     10605     10606     10602     10593     10607     10608
     10616     10609     10621     10622     10618     10609     10623     10624
     10632     10625     10637     10638     10634     10625     10639     10640
     10648     10641     10653     10654     10650     10641     10655     10656
     10664     10657     10669     10670     10666     10657     10671     10672
     10680     10673     10685     10686     10682     10673     10687     10688
     10696     10689     10701     10702     10698     10689     10703     10704
     10712     10705     10717     10718     10714     10705     10719     10720
     10728     10721     10733     10734     10730     10721     10735     10736
     10744     10737     10749     10750     10746     10737     10751     10752
     10760     10753     10765     10766     10762     10753     10767     10768
     10776     10769     10781     10782     10778     10769     10783     10784
     10792     10785     10797     10798     10794     10785     10799     10800
     10808     10801     10813     10814     10810     10801     10815     10816
     10824     10817     10829     10830     10826     10817     10831     10832
     10840     10833     10845     10846     10842     10833     10847     10848
     10856     10849     10861     10862     10858     10849     10863     10864
     10872     10865     10877     10878     10874     10865     10879     10880
     10888     10881     10893     10894     10890     10881     10895     10896
     10904     10897     10909     10910     10906     10897     10911     10912
     10920     10913     10925     10926     10922     10913     10927     10928
     10936     10929     10941     10942     10938     10929     10943     10944
     10952     10945     10957     10958     10954     10945     10959     10960
     10968     10961     10973     10974     10970     10961     10975     10976
     10984     10977     10989     10990     10986     10977     10991     10992
     11000     10993     11005     11006     11002     10993     11007     11008
     11016     11009     11021     11022     11018     11009     11023     11024
     11032     11025     11037     11038     11034     11025     11039     11040
     11048     11041     11053     11054     11050     11041     11055     11056
     11064     11057     11069     11070     11066     11057     11071     11072
     11080     11073     11085     11086     11082     11073     11087     11088
     11096     11089     11101     11102     11098     11089     11103     11104
     11112     11105     11117     11118     11114     11105     11119     11120
     11128     11121     11133     11134     11130     11121     11135     11136
     11144     11137     11149     11150     11146     11137     11151     11152
     11160     11153     11165     11166     11162     11153     11167     11168
     11176     11169     11181     11182     11178     11169     11183     11184
     11192     11185     11197     11198     11194     11185     11199     11200
     11208     11201     11213     11214     11210     11201     11215     11216
     11224     11217     11229     11230     11226     11217     11231     11232
     11240     11233     11245     11246     11242     11233     11247     11248
     11256     11249     11261     11262     11258     11249     11263     11264
     11272     11265     11277     11278     11274     11265     11279     11280
     11288     11281     11293     11294     11290     11281     11295     11296
     11304     11297     11309     11310     11306     11297     11311     11312
     11320     11313     11325     11326     11322     11313     11327     11328
     11336     11329     11341     11342     11338     11329     11343     11344
     11352     11345     11357     11358     11354     11345     11359     11360
     11368     11361     11373     11374     11370     11361     11375     11376
     11384     11377     11389     11390     11386     11377     11391     11392
     11400     11393     11405     11406     11402     11393     11407     11408
     11416     11409     11421     11422     11418     11409     11423     11424
     11432     11425     11437     11438     11434     11425     11439     11440
     11448     11441     11453     11454     11450     11441     11455     11456
     11464     11457     11469     11470     11466     11457     11471     11472
     11480     11473     11485     11486     11482     11473     11487     11488
     11496     11489     11501     11502     11498     11489     11503     11504
     11512     11505     11517     11518     11514     11505     11519     11520
     11528     11521     11533     11534     11530     11521     11535     11536
     11544     11537     11549     11550     11546     11537     11551     11552
     11560     11553     11565     11566     11562     11553     11567     11568
     11576     11569     11581     11582     11578     11569     11583     11584
     11592     11585     11597     11598     11594     11585     11599     11600
     11608     11601     11613     11614     11610     11601     11615     11616
     11624     11617     11629     11630     11626     11617     11631     11632
     11640     11633     11645     11646     11642     11633     11647     11648
     11656     11649     11661     11662     11658     11649     11663     11664
     11672     11665     11677     11678     11674     11665     11679     11680
     11688     11681     11693     11694     11690     11681     11695     11696
     11704     11697     11709     11710     11706     11697     11711     11712
     11720     11713     11725     11726     11722     11713     11727     11728
     11736     11729     11741     11742     11738     11729     11743     11744
     11752     11745     11757     11758     11754     11745     11759     11760
     11768     11761     11773     11774     11770     11761     11775     11776
     11784     11777     11789     11790     11786     11777     11791     11792
     11800     11793     11805     11806     11802     11793     11807     11808
     11816     11809     11821     11822     11818     11809     11823     11824
     11832     11825     11837     11838     11834     11825     11839     11840
     11848     11841     11853     11854     11850     11841     11855     11856
     11864     11857     11869     11870     11866     11857     11871     11872
     11880     11873     11885     11886     11882     11873     11887     11888
     11896     11889     11901     11902     11898     11889     11903     11904
     11912     11905     11917     11918     11914     11905     11919     11920
     11928     11921     11933     11934     11930     11921     11935     11936
     11944     11937     11949     11950     11946     11937     11951     11952
     11960     11953     11965     11966     11962     11953     11967     11968
     11976     11969     11981     11982     11978     11969     11983     11984
     11992     11985     11997     11998     11994     11985     11999     12000
     12008     12001     12013     12014     12010     12001     12015     12016
     12024     12017     12029     12030     12026     12017     12031     12032
     12040     12033     12045     12046     12042     12033     12047     12048
     12056     12049     12061     12062     12058     12049     12063     12064
     12072     12065     12077     12078     12074     12065     12079     12080
     12088     12081     12093     12094     12090     12081     12095     12096
     12104     12097     12109     12110     12106     12097     12111     12112
     12120     12113     12125     12126     12122     12113     12127     12128
     12136     12129     12141     12142     12138     12129     12143     12144
     12152     12145     12157     12158     12154     12145     12159     12160
     12168     12161     12173     12174     12170     12161     12175     12176
     12184     12177     12189     12190     12186     12177     12191     12192
     12200     12193     12205     12206     12202     12193     12207     12208
     12216     12209     12221     12222     12218     12209     12223     12224
     12232     12225     12237     12238     12234     12225     12239     12240
     13773     13771     13780     13781     13784     13782     13791     13792
     13795     13793     13802     13803     13806     13804     13813     13814
     13817     13815     13824     13825     13828     13826     13835     13836
     13839     13837     13846     13847     13850     13848     13857     13858
     13861     13859     13868     13869     13872     13870     13879     13880
     13883     13881     13890     13891     13894     13892     13901     13902
     13905     13903     13912     13913     13916     13914     13923     13924
     13927     13925     13934     13935     13938     13936     13945     13946
     13949     13947     13956     13957     13960     13958     13967     13968
     13971     13969     13978     13979     13982     13980     13989     13990
     13993     13991     14000     14001     14004     14002     14011     14012
     14015     14013     14022     14023     14026     14024     14033     14034
     14037     14035     14044     14045     14048     14046     14055     14056
     14059     14057     14066     14067     14070     14068     14077     14078
     14081     14079     14088     14089     14092     14090     14099     14100
     14103     14101     14110     14111     14114     14112     14121     14122
     14125     14123     14132     14133     14136     14134     14143     14144
     14147     14145     14154     14155     14158     14156     14165     14166
     14169     14167     14176     14177     14180     14178     14187     14188
     14191     14189     14198     14199     14202     14200     14209     14210
     14213     14211     14220     14221     14224     14222     14231     14232
     14235     14233     14242     14243     14246     14244     14253     14254
     14257     14255     14264     14265     14268     14266     14275     14276
     14279     14277     14286     14287     14290     14288     14297     14298
     14301     14299     14308     14309     14312     14310     14319     14320
     14323     14321     14330     14331     14334     14332     14341     14342
     14345     14343     14352     14353     14356     14354     14363     14364
     14367     14365     14374     14375     14378     14376     14385     14386
     14389     14387     14396     14397     14400     14398     14407     14408
     14411     14409     14418     14419     14422     14420     14429     14430
     14433     14431     14440     14441     14444     14442     14451     14452
     14455     14453     14462     14463     14466     14464     14473     14474
     14477     14475     14484     14485     14488     14486     14495     14496
     14499     14497     14506     14507     14510     14508     14517     14518
     14521     14519     14528     14529     14532     14530     14539     14540
     14543     14541     14550     14551     14554     14552     14561     14562
     14565     14563     14572     14573     14576     14574     14583     14584
     14587     14585     14594     14595     14598     14596     14605     14606
     14609     14607     14616     14617     14620     14618     14627     14628
     14631     14629     14638     14639     14642     14640     14649     14650
     14653     14651     14660     14661     14664     14662     14671     14672
     14675     14673     14682     14683     14686     14684     14693     14694
     14697     14695     14704     14705     14708     14706     14715     14716
     14719     14717     14726     14727     14730     14728     14737     14738
     14741     14739     14748     14749     14752     14750     14759     14760
     14763     14761     14770     14771     14774     14772     14781     14782
     14785     14783     14792     14793     14796     14794     14803     14804
     14807     14805     14814     14815     14818     14816     14825     14826
     14829     14827     14836     14837     14840     14838     14847     14848
     14851     14849     14858     14859     14862     14860     14869     14870
     14873     14871     14880     14881     14884     14882     14891     14892
     14895     14893     14902     14903     14906     14904     14913     14914
     14917     14915     14924     14925     14928     14926     14935     14936
     14939     14937     14946     14947     14950     14948     14957     14958
     14961     14959     14968     14969     14972     14970     14979     14980
     14983     14981     14990     14991     14994     14992     15001     15002
     15005     15003     15012     15013     15016     15014     15023     15024
     15027     15025     15034     15035     15038     15036     15045     15046
     15049     15047     15056     15057     15060     15058     15067     15068
     15071     15069     15078     15079     15082     15080     15089     15090
     15093     15091     15100     15101     15104     15102     15111     15112
     15115     15113     15122     15123     15126     15124     15133     15134
     15137     15135     15144     15145     15148     15146     15155     15156
     15159     15157     15166     15167     15170     15168     15177     15178
     15181     15179     15188     15189     15192     15190     15199     15200
     15203     15201     15210     15211     15214     15212     15221     15222
     15225     15223     15232     15233     15236     15234     15243     15244
     15247     15245     15254     15255     15258     15256     15265     15266
     15269     15267     15276     15277     15280     15278     15287     15288
     15291     15289     15298     15299     15302     15300     15309     15310
     15313     15311     15320     15321     15324     15322     15331     15332
     15335     15333     15342     15343     15346     15344     15353     15354
     15357     15355     15364     15365     15368     15366     15375     15376
     15379     15377     15386     15387     15390     15388     15397     15398
     15401     15399     15408     15409     15412     15410     15419     15420
     15423     15421     15430     15431     15434     15432     15441     15442
     15445     15443     15452     15453     15456     15454     15463     15464
     15467     15465     15474     15475     15478     15476     15485     15486
     15489     15487     15496     15497     15500     15498     15507     15508
     15511     15509     15518     15519     15522     15520     15529     15530
     15533     15531     15540     15541     15544     15542     15551     15552
     15555     15553     15562     15563     15566     15564     15573     15574
     15577     15575     15584     15585     15588     15586     15595     15596
     15599     15597     15606     15607     15610     15608     15617     15618
     15621     15619     15628     15629     15632     15630     15639     15640
     15643     15641     15650     15651     15654     15652     15661     15662
     15665     15663     15672     15673     15676     15674     15683     15684
     15687     15685     15694     15695     15698     15696     15705     15706
     15709     15707     15716     15717     15720     15718     15727     15728
     15731     15729     15738     15739     15742     15740     15749     15750
     15753     15751     15760     15761     15764     15762     15771     15772
     15775     15773     15782     15783     15786     15784     15793     15794
     15797     15795     15804     15805     15808     15806     15815     15816
     15819     15817     15826     15827     15830     15828     15837     15838
     15841     15839     15848     15849     15852     15850     15859     15860
     15863     15861     15870     15871     15874     15872     15881     15882
     15885     15883     15892     15893     15896     15894     15903     15904
     15907     15905     15914     15915     15918     15916     15925     15926
     15929     15927     15936     15937     15940     15938     15947     15948
     15951     15949     15958     15959     15962     15960     15969     15970
     15973     15971     15980     15981     15984     15982     15991     15992
     15995     15993     16002     16003     16006     16004     16013     16014
     16017     16015     16024     16025     16028     16026     16035     16036
     16039     16037     16046     16047     16050     16048     16057     16058
     16061     16059     16068     16069     16072     16070     16079     16080
     16083     16081     16090     16091     16094     16092     16101     16102
     16105     16103     16112     16113     16116     16114     16123     16124
     16127     16125     16134     16135     16138     16136     16145     16146
     16149     16147     16156     16157     16160     16158     16167     16168
     16171     16169     16178     16179     16182     16180     16189     16190
     16193     16191     16200     16201     16204     16202     16211     16212
     16215     16213     16222     16223     16226     16224     16233     16234
     16237     16235     16244     16245     16248     16246     16255     16256
     16259     16257     16266     16267     16270     16268     16277     16278
     16281     16279     16288     16289     16292     16290     16299     16300
     16303     16301     16310     16311     16314     16312     16321     16322
     16325     16323     16332     16333     16336     16334     16343     16344
     16347     16345     16354     16355     16358     16356     16365     16366
     16369     16367     16376     16377     16380     16378     16387     16388
     16391     16389     16398     16399     16402     16400     16409     16410
     16413     16411     16420     16421     16424     16422     16431     16432
     16435     16433     16442     16443     16446     16444     16453     16454
     16457     16455     16464     16465     16468     16466     16475     16476
     16479     16477     16486     16487     16490     16488     16497     16498
     16501     16499     16508     16509     16512     16510     16519     16520
     16523     16521     16530     16531     16534     16532     16541     16542
     16545     16543     16552     16553     16556     16554     16563     16564
     16567     16565     16574     16575     16578     16576     16585     16586
     16589     16587     16596     16597     16600     16598     16607     16608
     16611     16609     16618     16619     16622     16620     16629     16630
     16633     16631     16640     16641     16644     16642     16651     16652
     16655     16653     16662     16663     16666     16664     16673     16674
     16677     16675     16684     16685     16688     16686     16695     16696
     16699     16697     16706     16707     16710     16708     16717     16718
     16721     16719     16728     16729     16732     16730     16739     16740
     16743     16741     16750     16751     16754     16752     16761     16762
     16765     16763     16772     16773     16776     16774     16783     16784
     16787     16785     16794     16795     16798     16796     16805     16806
     16809     16807     16816     16817     16820     16818     16827     16828
     16831     16829     16838     16839     16842     16840     16849     16850
     16853     16851     16860     16861     16864     16862     16871     16872
     16875     16873     16882     16883     16886     16884     16893     16894
     16897     16895     16904     16905     16908     16906     16915     16916
     16919     16917     16926     16927     16930     16928     16937     16938
     16941     16939     16948     16949     16952     16950     16959     16960
     16963     16961     16970     16971     16974     16972     16981     16982
     16985     16983     16992     16993     16996     16994     17003     17004
     17007     17005     17014     17015     17018     17016     17025     17026
     17029     17027     17036     17037     17040     17038     17047     17048
     17051     17049     17058     17059     17062     17060     17069     17070
     17073     17071     17080     17081     17084     17082     17091     17092
     17095     17093     17102     17103     17106     17104     17113     17114
     17117     17115     17124     17125     17128     17126     17135     17136
     17139     17137     17146     17147     17150     17148     17157     17158
     17161     17159     17168     17169     17172     17170     17179     17180
     17183     17181     17190     17191     17194     17192     17201     17202
     17205     17203     17212     17213     17216     17214     17223     17224
     17227     17225     17234     17235     17238     17236     17245     17246
     17249     17247     17256     17257     17260     17258     17267     17268
     17271     17269     17278     17279     17282     17280     17289     17290
     17293     17291     17300     17301     17304     17302     17311     17312
     17315     17313     17322     17323     17326     17324     17333     17334
     17337     17335     17344     17345     17348     17346     17355     17356
     17359     17357     17366     17367     17370     17368     17377     17378
     17381     17379     17388     17389     17392     17390     17399     17400
     17403     17401     17410     17411     17414     17412     17421     17422
     17425     17423     17432     17433     17436     17434     17443     17444
     17447     17445     17454     17455     17458     17456     17465     17466
     17469     17467     17476     17477     17480     17478     17487     17488
     17491     17489     17498     17499     17502     17500     17509     17510
     17513     17511     17520     17521     17524     17522     17531     17532
     17535     17533     17542     17543     17546     17544     17553     17554
     17557     17555     17564     17565     17568     17566     17575     17576
     17579     17577     17586     17587     17590     17588     17597     17598
     17601     17599     17608     17609     17612     17610     17619     17620
     17623     17621     17630     17631     17634     17632     17641     17642
     17645     17643     17652     17653     17656     17654     17663     17664
     17667     17665     17674     17675     17678     17676     17685     17686
     17689     17687     17696     17697     17700     17698     17707     17708
     17711     17709     17718     17719     17722     17720     17729     17730
     17733     17731     17740     17741     17744     17742     17751     17752
     17755     17753     17762     17763     17766     17764     17773     17774
     17777     17775     17784     17785     17788     17786     17795     17796
     17799     17797     17806     17807     17810     17808     17817     17818
     17821     17819     17828     17829     17832     17830     17839     17840
     17843     17841     17850     17851     17854     17852     17861     17862
     17865     17863     17872     17873     17876     17874     17883     17884
     17887     17885     17894     17895     17898     17896     17905     17906
     17909     17907     17916     17917     17920     17918     17927     17928
     17931     17929     17938     17939     17942     17940     17949     17950
     17953     17951     17960     17961     17964     17962     17971     17972
     17975     17973     17982     17983     17986     17984     17993     17994
     17997     17995     18004     18005     18008     18006     18015     18016
     18019     18017     18026     18027     18030     18028     18037     18038
     18041     18039     18048     18049     18052     18050     18059     18060
     18063     18061     18070     18071     18074     18072     18081     18082
     18085     18083     18092     18093     18096     18094     18103     18104
     18107     18105     18114     18115     18118     18116     18125     18126
     18129     18127     18136     18137     18140     18138     18147     18148
     18151     18149     18158     18159     18162     18160     18169     18170
     18173     18171     18180     18181     18184     18182     18191     18192
     18195     18193     18202     18203     18206     18204     18213     18214
     18217     18215     18224     18225     18228     18226     18235     18236
     18239     18237     18246     18247     18250     18248     18257     18258
     18261     18259     18268     18269     18272     18270     18279     18280
     18283     18281     18290     18291     18294     18292     18301     18302
     18305     18303     18312     18313     18316     18314     18323     18324
     18327     18325     18334     18335     18338     18336     18345     18346
     18349     18347     18356     18357     18360     18358     18367     18368
     18371     18369     18378     18379     18382     18380     18389     18390
     18393     18391     18400     18401     18404     18402     18411     18412
     18415     18413     18422     18423     18426     18424     18433     18434
     18437     18435     18444     18445     18448     18446     18455     18456
     18459     18457     18466     18467     18470     18468     18477     18478
     18481     18479     18488     18489     18492     18490     18499     18500
     18503     18501     18510     18511     18514     18512     18521     18522
     18525     18523     18532     18533     18536     18534     18543     18544
     18547     18545     18554     18555     18558     18556     18565     18566
     18569     18567     18576     18577     18580     18578     18587     18588
     18591     18589     18598     18599     18602     18600     18609     18610
     18613     18611     18620     18621     18624     18622     18631     18632
     18635     18633     18642     18643     18646     18644     18653     18654
     18657     18655     18664     18665     18668     18666     18675     18676
     18679     18677     18686     18687     18690     18688     18697     18698
     18701     18699     18708     18709     18712     18710     18719     18720
     18723     18721     18730     18731     18734     18732     18741     18742
     18745     18743     18752     18753     18756     18754     18763     18764
     18767     18765     18774     18775     18778     18776     18785     18786
     18789     18787     18796     18797     18800     18798     18807     18808
     18811     18809     18818     18819     18822     18820     18829     18830
     18833     18831     18840     18841     18844     18842     18851     18852
     18855     18853     18862     18863     18866     18864     18873     18874
     18877     18875     18884     18885     18888     18886     18895     18896
     18899     18897     18906     18907     18910     18908     18917     18918
     18921     18919     18928     18929     18932     18930     18939     18940
     18943     18941     18950     18951     18954     18952     18961     18962
     18965     18963     18972     18973     18976     18974     18983     18984
     18987     18985     18994     18995     18998     18996     19005     19006
     19009     19007     19016     19017     19020     19018     19027     19028
     19031     19029     19038     19039     19042     19040     19049     19050
     19053     19051     19060     19061     19064     19062     19071     19072
     19075     19073     19082     19083     19086     19084     19093     19094
     19097     19095     19104     19105     19108     19106     19115     19116
     19119     19117     19126     19127     19130     19128     19137     19138
     19141     19139     19148     19149     19152     19150     19159     19160
     19163     19161     19170     19171     19174     19172     19181     19182
     19185     19183     19192     19193     19196     19194     19203     19204
     19207     19205     19214     19215     19218     19216     19225     19226
     19229     19227     19236     19237     19240     19238     19247     19248
     19251     19249     19258     19259     19262     19260     19269     19270
     19273     19271     19280     19281     19284     19282     19291     19292
     19295     19293     19302     19303     19306     19304     19313     19314
     19317     19315     19324     19325     19328     19326     19335     19336
     19339     19337     19346     19347     19350     19348     19357     19358
     19361     19359     19368     19369     19372     19370     19379     19380
     19383     19381     19390     19391     19394     19392     19401     19402
     19405     19403     19412     19413     19416     19414     19423     19424
     19427     19425     19434     19435     19438     19436     19445     19446
     19449     19447     19456     19457     19460     19458     19467     19468
     19471     19469     19478     19479     19482     19480     19489     19490
     19493     19491     19500     19501     19504     19502     19511     19512
     19515     19513     19522     19523     19526     19524     19533     19534
     19537     19535     19544     19545     19548     19546     19555     19556
     19559     19557     19566     19567     19570     19568     19577     19578
     19581     19579     19588     19589     19592     19590     19599     19600
     19603     19601     19610     19611     19614     19612     19621     19622
     19625     19623     19632     19633     19636     19634     19643     19644
     19647     19645     19654     19655     19658     19656     19665     19666
     19669     19667     19676     19677     19680     19678     19687     19688
     19691     19689     19698     19699     19702     19700     19709     19710
     19713     19711     19720     19721     19724     19722     19731     19732
     19735     19733     19742     19743     19746     19744     19753     19754
     19757     19755     19764     19765     19768     19766     19775     19776
     19779     19777     19786     19787     19790     19788     19797     19798
     19801     19799     19808     19809     19812     19810     19819     19820
     19823     19821     19830     19831     19834     19832     19841     19842
     19845     19843     19852     19853     19856     19854     19863     19864
     19867     19865     19874     19875     19878     19876     19885     19886
     19889     19887     19896     19897     19900     19898     19907     19908
     19911     19909     19918     19919     19922     19920     19929     19930
     19933     19931     19940     19941     19944     19942     19951     19952
     19955     19953     19962     19963     19966     19964     19973     19974
     19977     19975     19984     19985     19988     19986     19995     19996
     19999     19997     20006     20007     20010     20008     20017     20018
     20021     20019     20028     20029     20032     20030     20039     20040
     20043     20041     20050     20051     20054     20052     20061     20062
     20065     20063     20072     20073     20076     20074     20083     20084
     20087     20085     20094     20095     20098     20096     20105     20106
     20109     20107     20116     20117     20120     20118     20127     20128
     20131     20129     20138     20139     20142     20140     20149     20150
     20153     20151     20160     20161     20164     20162     20171     20172
     20175     20173     20182     20183     20186     20184     20193     20194
     20197     20195     20204     20205     20208     20206     20215     20216
     20219     20217     20226     20227     20230     20228     20237     20238
     20241     20239     20248     20249     20252     20250     20259     20260
     20263     20261     20270     20271     20274     20272     20281     20282
     20285     20283     20292     20293     20296     20294     20303     20304
     20307     20305     20314     20315     20318     20316     20325     20326
     20329     20327     20336     20337     20340     20338     20347     20348
     20351     20349     20358     20359     20362     20360     20369     20370
     20373     20371     20380     20381     20384     20382     20391     20392
     20395     20393     20402     20403     20406     20404     20413     20414
     20417     20415     20424     20425     20428     20426     20435     20436
     20439     20437     20446     20447     20450     20448     20457     20458
     20461     20459     20468     20469     20472     20470     20479     20480
     20483     20481     20490     20491     20494     20492     20501     20502
     20505     20503     20512     20513     20516     20514     20523     20524
     20527     20525     20534     20535     20538     20536     20545     20546
     20549     20547     20556     20557     20560     20558     20567     20568
     20571     20569     20578     20579     20582     20580     20589     20590
     20593     20591     20600     20601     20604     20602     20611     20612
     20615     20613     20622     20623     20626     20624     20633     20634
     20637     20635     20644     20645     20648     20646     20655     20656
     20659     20657     20666     20667     20670     20668     20677     20678
     20681     20679     20688     20689     20692     20690     20699     20700
     20703     20701     20710     20711     20714     20712     20721     20722
     20725     20723     20732     20733     20736     20734     20743     20744
     20747     20745     20754     20755     20758     20756     20765     20766
     20769     20767     20776     20777     20780     20778     20787     20788
     20791     20789     20798     20799     20802     20800     20809     20810
     20813     20811     20820     20821     20824     20822     20831     20832
     20835     20833     20842     20843     20846     20844     20853     20854
     20857     20855     20864     20865     20868     20866     20875     20876
     20879     20877     20886     20887     20890     20888     20897     20898
     20901     20899     20908     20909     20912     20910     20919     20920
     20923     20921     20930     20931     20934     20932     20941     20942
     20945     20943     20952     20953     20956     20954     20963     20964
     20967     20965     20974     20975     20978     20976     20985     20986
     20989     20987     20996     20997     21000     20998     21007     21008
     21011     21009     21018     21019     21022     21020     21029     21030
     21033     21031     21040     21041     21044     21042     21051     21052
     21055     21053     21062     21063     21066     21064     21073     21074
     21077     21075     21084     21085     21088     21086     21095     21096
     21099     21097     21106     21107     21110     21108     21117     21118
     21121     21119     21128     21129     21132     21130     21139     21140
     21143     21141     21150     21151     21154     21152     21161     21162
     21165     21163     21172     21173     21176     21174     21183     21184
     21187     21185     21194     21195     21198     21196     21205     21206
     21209     21207     21216     21217     21220     21218     21227     21228
     21231     21229     21238     21239     21242     21240     21249     21250
     21253     21251     21260     21261     21264     21262     21271     21272
     21275     21273     21282     21283     21286     21284     21293     21294
     21297     21295     21304     21305     21308     21306     21315     21316
     21319     21317     21326     21327     21330     21328     21337     21338
     21341     21339     21348     21349     21352     21350     21359     21360
     21363     21361     21370     21371     21374     21372     21381     21382
     21385     21383     21392     21393     21396     21394     21403     21404
     21407     21405     21414     21415     21418     21416     21425     21426
     21429     21427     21436     21437     21440     21438     21447     21448
     21451     21449     21458     21459     21462     21460     21469     21470
     21473     21471     21480     21481     21484     21482     21491     21492
     21495     21493     21502     21503     21506     21504     21513     21514
     21517     21515     21524     21525     21528     21526     21535     21536
     21539     21537     21546     21547     21550     21548     21557     21558
     21561     21559     21568     21569     21572     21570     21579     21580
     21583     21581     21590     21591     21594     21592     21601     21602
     21605     21603     21612     21613     21616     21614     21623     21624
     21627     21625     21634     21635     21638     21636     21645     21646
     21649     21647     21656     21657     21660     21658     21667     21668
     21671     21669     21678     21679     21682     21680     21689     21690
     21693     21691     21700     21701     21704     21702     21711     21712
     21715     21713     21722     21723     21726     21724     21733     21734
     21737     21735     21744     21745     21748     21746     21755     21756
     21759     21757     21766     21767     21770     21768     21777     21778
     21781     21779     21788     21789     21792     21790     21799     21800
     21803     21801     21810     21811     21814     21812     21821     21822
     21825     21823     21832     21833     21836     21834     21843     21844
     21847     21845     21854     21855     21858     21856     21865     21866
     21869     21867     21876     21877     21880     21878     21887     21888
     21891     21889     21898     21899     21902     21900     21909     21910
     21913     21911     21920     21921     21924     21922     21931     21932
     21935     21933     21942     21943     21946     21944     21953     21954
     21957     21955     21964     21965     21968     21966     21975     21976
     21979     21977     21986     21987     21990     21988     21997     21998
     22001     21999     22008     22009     22012     22010     22019     22020
     22023     22021     22030     22031     22034     22032     22041     22042
     22045     22043     22052     22053     22056     22054     22063     22064
     22067     22065     22074     22075     22078     22076     22085     22086
     22089     22087     22096     22097     22100     22098     22107     22108
     22111     22109     22118     22119     22122     22120     22129     22130
     22133     22131     22140     22141     22144     22142     22151     22152
     22155     22153     22162     22163     22166     22164     22173     22174
     22177     22175     22184     22185     22188     22186     22195     22196
     22199     22197     22206     22207     22210     22208     22217     22218
     22221     22219     22228     22229     22232     22230     22239     22240
     22243     22241     22250     22251     22254     22252     22261     22262
     22265     22263     22272     22273     22276     22274     22283     22284
     22287     22285     22294     22295     22298     22296     22305     22306
     22309     22307     22316     22317     22320     22318     22327     22328
     22331     22329     22338     22339     22342     22340     22349     22350
     22353     22351     22360     22361     22364     22362     22371     22372
     22375     22373     22382     22383     22386     22384     22393     22394
     22397     22395     22404     22405     22408     22406     22415     22416
     22419     22417     22426     22427     22430     22428     22437     22438
     22441     22439     22448     22449     22452     22450     22459     22460
     22463     22461     22470     22471     22474     22472     22481     22482
     22485     22483     22492     22493     22496     22494     22503     22504
     22507     22505     22514     22515     22518     22516     22525     22526
     22529     22527     22536     22537     22540     22538     22547     22548
     22551     22549     22558     22559     22562     22560     22569     22570
     22573     22571     22580     22581     22584     22582     22591     22592
     22595     22593     22602     22603     22606     22604     22613     22614
     22617     22615     22624     22625     22628     22626     22635     22636
     22639     22637     22646     22647     22650     22648     22657     22658
     22661     22659     22668     22669     22672     22670     22679     22680
     22683     22681     22690     22691     22694     22692     22701     22702
     22705     22703     22712     22713     22716     22714     22723     22724
     22727     22725     22734     22735     22738     22736     22745     22746
     22749     22747     22756     22757     22760     22758     22767     22768
     22771     22769     22778     22779     22782     22780     22789     22790
     22793     22791     22800     22801     22804     22802     22811     22812
     22815     22813     22822     22823     22826     22824     22833     22834
     22837     22835     22844     22845     22848     22846     22855     22856
     22859     22857     22866     22867     22870     22868     22877     22878
     22881     22879     22888     22889     22892     22890     22899     22900
     22903     22901     22910     22911     22914     22912     22921     22922
     22925     22923     22932     22933     22936     22934     22943     22944
     22947     22945     22954     22955     22958     22956     22965     22966
     22969     22967     22976     22977     22980     22978     22987     22988
     22991     22989     22998     22999     23002     23000     23009     23010
     23013     23011     23020     23021     23024     23022     23031     23032
     23035     23033     23042     23043     23046     23044     23053     23054
     23057     23055     23064     23065     23068     23066     23075     23076
     23079     23077     23086     23087     23090     23088     23097     23098
     23101     23099     23108     23109     23112     23110     23119     23120
     23123     23121     23130     23131     23134     23132     23141     23142
     23145     23143     23152     23153     23156     23154     23163     23164
     23167     23165     23174     23175     23178     23176     23185     23186
     23189     23187     23196     23197     23200     23198     23207     23208
     23211     23209     23218     23219     23222     23220     23229     23230
     23233     23231     23240     23241     23244     23242     23251     23252
     23255     23253     23262     23263     23266     23264     23273     23274
     23277     23275     23284     23285     23288     23286     23295     23296
     23299     23297     23306     23307     23310     23308     23317     23318
     23321     23319     23328     23329     23332     23330     23339     23340
     23343     23341     23350     23351     23354     23352     23361     23362
     23365     23363     23372     23373     23376     23374     23383     23384
     23387     23385     23394     23395     23398     23396     23405     23406
     23409     23407     23416     23417     23420     23418     23427     23428
     23431     23429     23438     23439     23442     23440     23449     23450
     23453     23451     23460     23461     23464     23462     23471     23472
     23475     23473     23482     23483     23486     23484     23493     23494
     23497     23495     23504     23505     23508     23506     23515     23516
     23519     23517     23526     23527     23530     23528     23537     23538
     23541     23539     23548     23549     23552     23550     23559     23560
     23563     23561     23570     23571     23574     23572     23581     23582
     23585     23583     23592     23593     23596     23594     23603     23604
     23607     23605     23614     23615     23618     23616     23625     23626
     23629     23627     23636     23637     23640     23638     23647     23648
     23651     23649     23658     23659     23662     23660     23669     23670
     23673     23671     23680     23681     23684     23682     23691     23692
     23695     23693     23702     23703     23706     23704     23713     23714
     23717     23715     23724     23725     23728     23726     23735     23736
     23739     23737     23746     23747     23750     23748     23757     23758
     23761     23759     23768     23769     23772     23770     23779     23780
     23783     23781     23790     23791     23794     23792     23801     23802
     23805     23803     23812     23813     23816     23814     23823     23824
     23827     23825     23834     23835     23838     23836     23845     23846
     23849     23847     23856     23857     23860     23858     23867     23868
     23871     23869     23878     23879     23882     23880     23889     23890
     23893     23891     23900     23901     23904     23902     23911     23912
     23915     23913     23922     23923     23926     23924     23933     23934
     23937     23935     23944     23945     23948     23946     23955     23956
     23959     23957     23966     23967     23970     23968     23977     23978
     23981     23979     23988     23989     23992     23990     23999     24000
     24003     24001     24010     24011     24014     24012     24021     24022
     24025     24023     24032     24033     24036     24034     24043     24044
     24047     24045     24054     24055     24058     24056     24065     24066
     24069     24067     24076     24077     24080     24078     24087     24088
     24091     24089     24098     24099     24102     24100     24109     24110
     24113     24111     24120     24121     24124     24122     24131     24132
     24135     24133     24142     24143     24146     24144     24153     24154
     24157     24155     24164     24165     24168     24166     24175     24176
     24179     24177     24186     24187     24190     24188     24197     24198
     24201     24199     24208     24209     24212     24210     24219     24220
     24223     24221     24230     24231     24234     24232     24241     24242
     24245     24243     24252     24253     24256     24254     24263     24264
     24267     24265     24274     24275     24278     24276     24285     24286
     24289     24287     24296     24297     24300     24298     24307     24308
     24311     24309     24318     24319     24322     24320     24329     24330
     24333     24331     24340     24341     24344     24342     24351     24352
     24355     24353     24362     24363     24366     24364     24373     24374
     24377     24375     24384     24385     24388     24386     24395     24396
     24399     24397     24406     24407     24410     24408     24417     24418
     24421     24419     24428     24429     24432     24430     24439     24440
     24443     24441     24450     24451     24454     24452     24461     24462
     24465     24463     24472     24473     24476     24474     24483     24484
     24487     24485     24494     24495     24498     24496     24505     24506
     24509     24507     24516     24517     24520     24518     24527     24528
     24531     24529     24538     24539     24542     24540     24549     24550
     24553     24551     24560     24561     24564     24562     24571     24572
     24575     24573     24582     24583     24586     24584     24593     24594
     24597     24595     24604     24605     24608     24606     24615     24616
     24619     24617     24626     24627     24630     24628     24637     24638
     24641     24639     24648     24649     24652     24650     24659     24660
     24663     24661     24670     24671     24674     24672     24681     24682
     24685     24683     24692     24693     24696     24694     24703     24704
     24707     24705     24714     24715     24718     24716     24725     24726
     24729     24727     24736     24737     24740     24738     24747     24748
     24751     24749     24758     24759     24762     24760     24769     24770
     24773     24771     24780     24781     24784     24782     24791     24792
     24795     24793     24802     24803     24806     24804     24813     24814
     24817     24815     24824     24825     24828     24826     24835     24836
     24839     24837     24846     24847     24850     24848     24857     24858
     24861     24859     24868     24869     24872     24870     24879     24880
     24883     24881     24890     24891     24894     24892     24901     24902
     24905     24903     24912     24913     24916     24914     24923     24924
     24927     24925     24934     24935     24938     24936     24945     24946
     24949     24947     24956     24957     24960     24958     24967     24968
     24971     24969     24978     24979     24982     24980     24989     24990
     24993     24991     25000     25001     25004     25002     25011     25012
     25015     25013     25022     25023     25026     25024     25033     25034
     25037     25035     25044     25045     25048     25046     25055     25056
     25059     25057     25066     25067     25070     25068     25077     25078
     25081     25079     25088     25089     25092     25090     25099     25100
     25103     25101     25110     25111     25114     25112     25121     25122
     25125     25123     25132     25133     25136     25134     25143     25144
     25147     25145     25154     25155     25158     25156     25165     25166
     25169     25167     25176     25177     25180     25178     25187     25188
     25191     25189     25198     25199     25202     25200     25209     25210
     25213     25211     25220     25221     25224     25222     25231     25232
     25235     25233     25242     25243     25246     25244     25253     25254
     25257     25255     25264     25265     25268     25266     25275     25276
     25279     25277     25286     25287     25290     25288     25297     25298
     25301     25299     25308     25309     25312     25310     25319     25320
     25323     25321     25330     25331     25334     25332     25341     25342
     25345     25343     25352     25353     25356     25354     25363     25364
     25367     25365     25374     25375     25378     25376     25385     25386
     25389     25387     25396     25397     25400     25398     25407     25408
     25411     25409     25418     25419     25422     25420     25429     25430
     25433     25431     25440     25441     25444     25442     25451     25452
     25455     25453     25462     25463     25466     25464     25473     25474
     25477     25475     25484     25485     25488     25486     25495     25496
     25499     25497     25506     25507     25510     25508     25517     25518
     25521     25519     25528     25529     25532     25530     25539     25540
     25543     25541     25550     25551     25554     25552     25561     25562
     25565     25563     25572     25573     25576     25574     25583     25584
     25587     25585     25594     25595     25598     25596     25605     25606
     25609     25607     25616     25617     25620     25618     25627     25628
     25631     25629     25638     25639     25642     25640     25649     25650
     25653     25651     25660     25661     25664     25662     25671     25672
     25675     25673     25682     25683     25686     25684     25693     25694
     25697     25695     25704     25705     25708     25706     25715     25716
     25719     25717     25726     25727     25730     25728     25737     25738
     25741     25739     25748     25749     25752     25750     25759     25760
     25763     25761     25770     25771     25774     25772     25781     25782
     25785     25783     25792     25793     25796     25794     25803     25804
     25807     25805     25814     25815     25818     25816     25825     25826
     25829     25827     25836     25837     25840     25838     25847     25848
     25851     25849     25858     25859     25862     25860     25869     25870
     25873     25871     25880     25881     25884     25882     25891     25892
     25895     25893     25902     25903     25906     25904     25913     25914
     25917     25915     25924     25925     25928     25926     25935     25936
     25939     25937     25946     25947     25950     25948     25957     25958
     25961     25959     25968     25969     25972     25970     25979     25980
     25983     25981     25990     25991     25994     25992     26001     26002
     26005     26003     26012     26013     26016     26014     26023     26024
     26027     26025     26034     26035     26038     26036     26045     26046
     26049     26047     26056     26057     26060     26058     26067     26068
     26071     26069     26078     26079     26082     26080     26089     26090
     26093     26091     26100     26101     26104     26102     26111     26112
     26115     26113     26122     26123     26126     26124     26133     26134
     26137     26135     26144     26145     26148     26146     26155     26156
     26159     26157     26166     26167     26170     26168     26177     26178
     26181     26179     26188     26189     26192     26190     26199     26200
     26203     26201     26210     26211     26214     26212     26221     26222
     26225     26223     26232     26233     26236     26234     26243     26244
     26247     26245     26254     26255     26258     26256     26265     26266
     26269     26267     26276     26277     26280     26278     26287     26288
     26291     26289     26298     26299     26302     26300     26309     26310
     26313     26311     26320     26321     26324     26322     26331     26332
     26335     26333     26342     26343     26346     26344     26353     26354
     26357     26355     26364     26365     26368     26366     26375     26376
     26379     26377     26386     26387     26390     26388     26397     26398
     26401     26399     26408     26409     26412     26410     26419     26420
     26423     26421     26430     26431     26434     26432     26441     26442
     26445     26443     26452     26453     26456     26454     26463     26464
     26467     26465     26474     26475     26478     26476     26485     26486
     26489     26487     26496     26497     26500     26498     26507     26508
     26511     26509     26518     26519     26522     26520     26529     26530
     26533     26531     26540     26541     26544     26542     26551     26552
     26555     26553     26562     26563     26566     26564     26573     26574
     26577     26575     26584     26585     26588     26586     26595     26596
     26599     26597     26606     26607     26610     26608     26617     26618
     26621     26619     26628     26629     26632     26630     26639     26640
     26643     26641     26650     26651     26654     26652     26661     26662
     26665     26663     26672     26673     26676     26674     26683     26684
     26687     26685     26694     26695     26698     26696     26705     26706
     26709     26707     26716     26717     26720     26718     26727     26728
     26731     26729     26738     26739     26742     26740     26749     26750
     26753     26751     26760     26761     26764     26762     26771     26772
     26775     26773     26782     26783     26786     26784     26793     26794
     26797     26795     26804     26805     26808     26806     26815     26816
     26819     26817     26826     26827     26830     26828     26837     26838
     26841     26839     26848     26849     26852     26850     26859     26860
     26863     26861     26870     26871     26874     26872     26881     26882
     26885     26883     26892     26893     26896     26894     26903     26904
     26907     26905     26914     26915     26918     26916     26925     26926
     26929     26927     26936     26937     26940     26938     26947     26948
     26951     26949     26958     26959     26962     26960     26969     26970
     26973     26971     26980     26981     26984     26982     26991     26992
     26995     26993     27002     27003     27006     27004     27013     27014
     27017     27015     27024     27025     27028     27026     27035     27036
     27039     27037     27046     27047     27050     27048     27057     27058
     27061     27059     27068     27069     27072     27070     27079     27080
     27083     27081     27090     27091     27094     27092     27101     27102
     27105     27103     27112     27113     27116     27114     27123     27124
     27127     27125     27134     27135     27138     27136     27145     27146
     27149     27147     27156     27157     27160     27158     27167     27168
     27171     27169     27178     27179     27182     27180     27189     27190
     27193     27191     27200     27201     27204     27202     27211     27212
     27215     27213     27222     27223     27226     27224     27233     27234
     27237     27235     27244     27245     27248     27246     27255     27256
     27259     27257     27266     27267     27270     27268     27277     27278
     27281     27279     27288     27289     27292     27290     27299     27300
     27303     27301     27310     27311     27314     27312     27321     27322
     27325     27323     27332     27333     27336     27334     27343     27344
     27347     27345     27354     27355     27358     27356     27365     27366
     27369     27367     27376     27377     27380     27378     27387     27388
     27391     27389     27398     27399     27402     27400     27409     27410
     27413     27411     27420     27421     27424     27422     27431     27432
     27435     27433     27442     27443     27446     27444     27453     27454
     27457     27455     27464     27465     27468     27466     27475     27476
     27479     27477     27486     27487     27490     27488     27497     27498
     27501     27499     27508     27509     27512     27510     27519     27520
     27523     27521     27530     27531     27534     27532     27541     27542
     27545     27543     27552     27553     27556     27554     27563     27564
     27567     27565     27574     27575     27578     27576     27585     27586
     27589     27587     27596     27597     27600     27598     27607     27608
     27611     27609     27618     27619     27622     27620     27629     27630
     27633     27631     27640     27641     27644     27642     27651     27652
     27655     27653     27662     27663     27666     27664     27673     27674
     27677     27675     27684     27685     27688     27686     27695     27696
     27699     27697     27706     27707     27710     27708     27717     27718
     27721     27719     27728     27729     27732     27730     27739     27740
     27743     27741     27750     27751     27754     27752     27761     27762
     27765     27763     27772     27773     27776     27774     27783     27784
     27787     27785     27794     27795     27798     27796     27805     27806
     27809     27807     27816     27817     27820     27818     27827     27828
     27831     27829     27838     27839     27842     27840     27849     27850
     27853     27851     27860     27861     27864     27862     27871     27872
     27875     27873     27882     27883     27886     27884     27893     27894
     27897     27895     27904     27905     27908     27906     27915     27916
     27919     27917     27926     27927     27930     27928     27937     27938
     27941     27939     27948     27949     27952     27950     27959     27960
     27963     27961     27970     27971     27974     27972     27981     27982
     27985     27983     27992     27993     27996     27994     28003     28004
     28007     28005     28014     28015     28018     28016     28025     28026
     28029     28027     28036     28037     28040     28038     28047     28048
     28051     28049     28058     28059     28062     28060     28069     28070
     28073     28071     28080     28081     28084     28082     28091     28092
     28095     28093     28102     28103     28106     28104     28113     28114
     28117     28115     28124     28125     28128     28126     28135     28136
     28139     28137     28146     28147     28150     28148     28157     28158
     28161     28159     28168     28169     28172     28170     28179     28180
     28183     28181     28190     28191     28194     28192     28201     28202
     28205     28203     28212     28213     28216     28214     28223     28224
     28227     28225     28234     28235     28238     28236     28245     28246
     28249     28247     28256     28257     28260     28258     28267     28268
     28271     28269     28278     28279     28282     28280     28289     28290
     28293     28291     28300     28301     28304     28302     28311     28312
     28315     28313     28322     28323     28326     28324     28333     28334
     28337     28335     28344     28345     28348     28346     28355     28356
     28359     28357     28366     28367     28370     28368     28377     28378
     28381     28379     28388     28389     28392     28390     28399     28400
     28403     28401     28410     28411     28414     28412     28421     28422
     28425     28423     28432     28433     28436     28434     28443     28444
     28447     28445     28454     28455     28458     28456     28465     28466
     28469     28467     28476     28477     28480     28478     28487     28488
     28491     28489     28498     28499     28502     28500     28509     28510
     28513     28511     28520     28521     28524     28522     28531     28532
     28535     28533     28542     28543     28546     28544     28553     28554
     28557     28555     28564     28565     28568     28566     28575     28576
     28579     28577     28586     28587     28590     28588     28597     28598
     28601     28599     28608     28609     28612     28610     28619     28620
     28623     28621     28630     28631     28634     28632     28641     28642
     28645     28643     28652     28653     28656     28654     28663     28664
     28667     28665     28674     28675     28678     28676     28685     28686
     28689     28687     28696     28697     28700     28698     28707     28708
     28711     28709     28718     28719     28722     28720     28729     28730
     28733     28731     28740     28741     28744     28742     28751     28752
     28755     28753     28762     28763     28766     28764     28773     28774
     28777     28775     28784     28785     28788     28786     28795     28796
     28799     28797     28806     28807     28810     28808     28817     28818
     28821     28819     28828     28829     28832     28830     28839     28840
     28843     28841     28850     28851     28854     28852     28861     28862
     28865     28863     28872     28873     28876     28874     28883     28884
     28887     28885     28894     28895     28898     28896     28905     28906
     28909     28907     28916     28917     28920     28918     28927     28928
     28931     28929     28938     28939     28942     28940     28949     28950
     28953     28951     28960     28961     28964     28962     28971     28972
     28975     28973     28982     28983     28986     28984     28993     28994
     28997     28995     29004     29005     29008     29006     29015     29016
     29019     29017     29026     29027     29030     29028     29037     29038
     29041     29039     29048     29049     29052     29050     29059     29060
     29063     29061     29070     29071     29074     29072     29081     29082
     29085     29083     29092     29093     29096     29094     29103     29104
     29107     29105     29114     29115     29118     29116     29125     29126
     29129     29127     29136     29137     29140     29138     29147     29148
     29151     29149     29158     29159     29162     29160     29169     29170
     29173     29171     29180     29181     29184     29182     29191     29192
     29195     29193     29202     29203     29206     29204     29213     29214
     29217     29215     29224     29225     29228     29226     29235     29236
     29239     29237     29246     29247     29250     29248     29257     29258
     29261     29259     29268     29269     29272     29270     29279     29280
     29283     29281     29290     29291     29294     29292     29301     29302
     29305     29303     29312     29313     29316     29314     29323     29324
     29327     29325     29334     29335     29338     29336     29345     29346
     29349     29347     29356     29357     29360     29358     29367     29368
     29371     29369     29378     29379     29382     29380     29389     29390
     29393     29391     29400     29401     29404     29402     29411     29412
     29415     29413     29422     29423     29426     29424     29433     29434
     29437     29435     29444     29445     29448     29446     29455     29456
     29459     29457     29466     29467     29470     29468     29477     29478
     29481     29479     29488     29489     29492     29490     29499     29500
     29503     29501     29510     29511     29514     29512     29521     29522
     29525     29523     29532     29533     29536     29534     29543     29544
     29547     29545     29554     29555     29558     29556     29565     29566
     29569     29567     29576     29577     29580     29578     29587     29588
     29591     29589     29598     29599     29602     29600     29609     29610
     29613     29611     29620     29621     29624     29622     29631     29632
     29635     29633     29642     29643     29646     29644     29653     29654
     29657     29655     29664     29665     29668     29666     29675     29676
     29679     29677     29686     29687     29690     29688     29697     29698
     29701     29699     29708     29709     29712     29710     29719     29720
     29723     29721     29730     29731     29734     29732     29741     29742
     29745     29743     29752     29753     29756     29754     29763     29764
     29767     29765     29774     29775     29778     29776     29785     29786
     29789     29787     29796     29797     29800     29798     29807     29808
     29811     29809     29818     29819     29822     29820     29829     29830
     29833     29831     29840     29841     29844     29842     29851     29852
     29855     29853     29862     29863     29866     29864     29873     29874
     29877     29875     29884     29885     29888     29886     29895     29896
     29899     29897     29906     29907     29910     29908     29917     29918
     29921     29919     29928     29929     29932     29930     29939     29940
     29943     29941     29950     29951     29954     29952     29961     29962
     29965     29963     29972     29973     29976     29974     29983     29984
     29987     29985     29994     29995     29998     29996     30005     30006
     30009     30007     30016     30017     30020     30018     30027     30028
     30031     30029     30038     30039     30042     30040     30049     30050
     30053     30051     30060     30061     30064     30062     30071     30072
     30075     30073     30082     30083     30086     30084     30093     30094
     30097     30095     30104     30105     30108     30106     30115     30116
     30119     30117     30126     30127     30130     30128     30137     30138
     30141     30139     30148     30149     30152     30150     30159     30160
     30163     30161     30170     30171     30174     30172     30181     30182
     30185     30183     30192     30193     30196     30194     30203     30204
     30207     30205     30214     30215     30218     30216     30225     30226
     30229     30227     30236     30237     30240     30238     30247     30248
     30251     30249     30258     30259     30262     30260     30269     30270
     30273     30271     30280     30281     30284     30282     30291     30292
     30295     30293     30302     30303     30306     30304     30313     30314
     30317     30315     30324     30325     30328     30326     30335     30336
     30339     30337     30346     30347     30350     30348     30357     30358
     30361     30359     30368     30369     30372     30370     30379     30380
     30383     30381     30390     30391     30394     30392     30401     30402
     30405     30403     30412     30413     30416     30414     30423     30424
     30427     30425     30434     30435     30438     30436     30445     30446
     30449     30447     30456     30457     30460     30458     30467     30468
     30471     30469     30478     30479     30482     30480     30489     30490
     30493     30491     30500     30501     30504     30502     30511     30512
     30515     30513     30522     30523     30526     30524     30533     30534
     30537     30535     30544     30545     30548     30546     30555     30556
     30559     30557     30566     30567     30570     30568     30577     30578
     30581     30579     30588     30589     30592     30590     30599     30600
     30603     30601     30610     30611     30614     30612     30621     30622
     30625     30623     30632     30633     30636     30634     30643     30644
     30647     30645     30654     30655     30658     30656     30665     30666
     30669     30667     30676     30677     30680     30678     30687     30688
     30691     30689     30698     30699     30702     30700     30709     30710
     30713     30711     30720     30721     30724     30722     30731     30732
     30735     30733     30742     30743     30746     30744     30753     30754
     30757     30755     30764     30765     30768     30766     30775     30776
     30779     30777     30786     30787     30790     30788     30797     30798
     30801     30799     30808     30809     30812     30810     30819     30820
     30823     30821     30830     30831     30834     30832     30841     30842
     30845     30843     30852     30853     30856     30854     30863     30864
     30867     30865     30874     30875     30878     30876     30885     30886
     30889     30887     30896     30897     30900     30898     30907     30908
     30911     30909     30918     30919     30922     30920     30929     30930
     30933     30931     30940     30941     30944     30942     30951     30952
     30955     30953     30962     30963     30966     30964     30973     30974
     30977     30975     30984     30985     30988     30986     30995     30996
     30999     30997     31006     31007     31010     31008     31017     31018
     31021     31019     31028     31029     31032     31030     31039     31040
     31043     31041     31050     31051     31054     31052     31061     31062
     31065     31063     31072     31073     31076     31074     31083     31084
     31087     31085     31094     31095     31098     31096     31105     31106
     31109     31107     31116     31117     31120     31118     31127     31128
     31131     31129     31138     31139     31142     31140     31149     31150
     31153     31151     31160     31161     31164     31162     31171     31172
     31175     31173     31182     31183     31186     31184     31193     31194
     31197     31195     31204     31205     31208     31206     31215     31216
     31219     31217     31226     31227     31230     31228     31237     31238
     31241     31239     31248     31249     31252     31250     31259     31260
     31263     31261     31270     31271     31274     31272     31281     31282
     31285     31283     31292     31293     31296     31294     31303     31304
     31307     31305     31314     31315     31318     31316     31325     31326
     31329     31327     31336     31337     31340     31338     31347     31348
     31351     31349     31358     31359     31362     31360     31369     31370
     31373     31371     31380     31381     31384     31382     31391     31392
     31395     31393     31402     31403     31406     31404     31413     31414
     31417     31415     31424     31425     31428     31426     31435     31436
     31439     31437     31446     31447     31450     31448     31457     31458
     31461     31459     31468     31469     31472     31470     31479     31480
     31483     31481     31490     31491     31494     31492     31501     31502
     31505     31503     31512     31513     31516     31514     31523     31524
     31527     31525     31534     31535     31538     31536     31545     31546
     31549     31547     31556     31557     31560     31558     31567     31568
     31571     31569     31578     31579     31582     31580     31589     31590
     31593     31591     31600     31601     31604     31602     31611     31612
     31615     31613     31622     31623     31626     31624     31633     31634
     31637     31635     31644     31645     31648     31646     31655     31656
     31659     31657     31666     31667     31670     31668     31677     31678
     31681     31679     31688     31689     31692     31690     31699     31700
     31703     31701     31710     31711     31714     31712     31721     31722
     31725     31723     31732     31733     31736     31734     31743     31744
     31747     31745     31754     31755     31758     31756     31765     31766
     31769     31767     31776     31777     31780     31778     31787     31788
     31791     31789     31798     31799     31802     31800     31809     31810
     31813     31811     31820     31821     31824     31822     31831     31832
     31835     31833     31842     31843     31846     31844     31853     31854
     31857     31855     31864     31865     31868     31866     31875     31876
     31879     31877     31886     31887     31890     31888     31897     31898
     31901     31899     31908     31909     31912     31910     31919     31920
     31923     31921     31930     31931     31934     31932     31941     31942
     31945     31943     31952     31953     31956     31954     31963     31964
     31967     31965     31974     31975     31978     31976     31985     31986
     31989     31987     31996     31997     32000     31998     32007     32008
     32011     32009     32018     32019     32022     32020     32029     32030
     32033     32031     32040     32041     32044     32042     32051     32052
     32055     32053     32062     32063     32066     32064     32073     32074
     32077     32075     32084     32085     32088     32086     32095     32096
     32099     32097     32106     32107     32110     32108     32117     32118
     32121     32119     32128     32129     32132     32130     32139     32140
     32143     32141     32150     32151     32154     32152     32161     32162
     32165     32163     32172     32173     32176     32174     32183     32184
     32187     32185     32194     32195     32198     32196     32205     32206
     32209     32207     32216     32217     32220     32218     32227     32228
     32231     32229     32238     32239     32242     32240     32249     32250
     32253     32251     32260     32261     32264     32262     32271     32272
     32275     32273     32282     32283     32286     32284     32293     32294
     32297     32295     32304     32305     32308     32306     32315     32316
     32319     32317     32326     32327     32330     32328     32337     32338
     32341     32339     32348     32349     32352     32350     32359     32360
     32363     32361     32370     32371     32374     32372     32381     32382
     32385     32383     32392     32393     32396     32394     32403     32404
     32407     32405     32414     32415     32418     32416     32425     32426
     32429     32427     32436     32437     32440     32438     32447     32448
     32451     32449     32458     32459     32462     32460     32469     32470
     32473     32471     32480     32481     32484     32482     32491     32492
     32495     32493     32502     32503     32506     32504     32513     32514
     32517     32515     32524     32525     32528     32526     32535     32536
     32539     32537     32546     32547     32550     32548     32557     32558
     32561     32559     32568     32569     32572     32570     32579     32580
     32583     32581     32590     32591     32594     32592     32601     32602
     32605     32603     32612     32613     32616     32614     32623     32624
     32627     32625     32634     32635     32638     32636     32645     32646
     32649     32647     32656     32657     32660     32658     32667     32668
     32671     32669     32678     32679     32682     32680     32689     32690
     32693     32691     32700     32701     32704     32702     32711     32712
     32715     32713     32722     32723     32726     32724     32733     32734
     32737     32735     32744     32745     32748     32746     32755     32756
     32759     32757     32766     32767     32770     32768     32777     32778
     32781     32779     32788     32789     32792     32790     32799     32800
     32803     32801     32810     32811     32814     32812     32821     32822
     32825     32823     32832     32833     32836     32834     32843     32844
     32847     32845     32854     32855     32858     32856     32865     32866
     32869     32867     32876     32877     32880     32878     32887     32888
     32891     32889     32898     32899     32902     32900     32909     32910
     32913     32911     32920     32921     32924     32922     32931     32932
     32935     32933     32942     32943     32946     32944     32953     32954
     32957     32955     32964     32965     32968     32966     32975     32976
     32979     32977     32986     32987     32990     32988     32997     32998
     33001     32999     33008     33009     33012     33010     33019     33020
     33023     33021     33030     33031     33034     33032     33041     33042
     33045     33043     33052     33053     33056     33054     33063     33064
     33067     33065     33074     33075     33078     33076     33085     33086
     33089     33087     33096     33097     33100     33098     33107     33108
     33111     33109     33118     33119     33122     33120     33129     33130
     33133     33131     33140     33141     33144     33142     33151     33152
     33155     33153     33162     33163     33166     33164     33173     33174
     33177     33175     33184     33185     33188     33186     33195     33196
     33199     33197     33206     33207     33210     33208     33217     33218
     33221     33219     33228     33229     33232     33230     33239     33240
     33243     33241     33250     33251     33254     33252     33261     33262
     33265     33263     33272     33273     33276     33274     33283     33284
     33287     33285     33294     33295     33298     33296     33305     33306
     33309     33307     33316     33317     33320     33318     33327     33328
     33331     33329     33338     33339     33342     33340     33349     33350
     33353     33351     33360     33361     33364     33362     33371     33372
     33375     33373     33382     33383     33386     33384     33393     33394
     33397     33395     33404     33405     33408     33406     33415     33416
     33419     33417     33426     33427     33430     33428     33437     33438
     33441     33439     33448     33449     33452     33450     33459     33460
     33463     33461     33470     33471     33474     33472     33481     33482
     33485     33483     33492     33493     33496     33494     33503     33504
     33507     33505     33514     33515     33518     33516     33525     33526
     33529     33527     33536     33537     33540     33538     33547     33548
     33551     33549     33558     33559     33562     33560     33569     33570
     33573     33571     33580     33581     33584     33582     33591     33592
     33595     33593     33602     33603     33606     33604     33613     33614
     33617     33615     33624     33625     33628     33626     33635     33636
     33639     33637     33646     33647     33650     33648     33657     33658
     33661     33659     33668     33669     33672     33670     33679     33680
     33683     33681     33690     33691     33694     33692     33701     33702
     33705     33703     33712     33713     33716     33714     33723     33724
     33727     33725     33734     33735     33738     33736     33745     33746
     33749     33747     33756     33757     33760     33758     33767     33768
     33771     33769     33778     33779     33782     33780     33789     33790
     33793     33791     33800     33801     33804     33802     33811     33812
     33815     33813     33822     33823     33826     33824     33833     33834
     33837     33835     33844     33845     33848     33846     33855     33856
     33859     33857     33866     33867     33870     33868     33877     33878
     33881     33879     33888     33889     33892     33890     33899     33900
     33903     33901     33910     33911     33914     33912     33921     33922
     33925     33923     33932     33933     33936     33934     33943     33944
     33947     33945     33954     33955     33958     33956     33965     33966
     33969     33967     33976     33977     33980     33978     33987     33988
     33991     33989     33998     33999     34002     34000     34009     34010
     34013     34011     34020     34021     34024     34022     34031     34032
     34035     34033     34042     34043     34046     34044     34053     34054
     34057     34055     34064     34065     34068     34066     34075     34076
     34079     34077     34086     34087     34090     34088     34097     34098
     34101     34099     34108     34109     34112     34110     34119     34120
     34123     34121     34130     34131     34134     34132     34141     34142
     34145     34143     34152     34153     34156     34154     34163     34164
     34167     34165     34174     34175     34178     34176     34185     34186
     34189     34187     34196     34197     34200     34198     34207     34208
     34211     34209     34218     34219     34222     34220     34229     34230
     34233     34231     34240     34241     34244     34242     34251     34252
     34255     34253     34262     34263     34266     34264     34273     34274
     34277     34275     34284     34285     34288     34286     34295     34296
     34299     34297     34306     34307     34310     34308     34317     34318
     34321     34319     34328     34329     34332     34330     34339     34340
     34343     34341     34350     34351     34354     34352     34361     34362
     34365     34363     34372     34373     34376     34374     34383     34384
     34387     34385     34394     34395     34398     34396     34405     34406
     34409     34407     34416     34417     34420     34418     34427     34428
     34431     34429     34438     34439     34442     34440     34449     34450
     34453     34451     34460     34461     34464     34462     34471     34472
     34475     34473     34482     34483     34486     34484     34493     34494
     34497     34495     34504     34505     34508     34506     34515     34516
     34519     34517     34526     34527     34530     34528     34537     34538
     34541     34539     34548     34549     34552     34550     34559     34560
     34563     34561     34570     34571     34574     34572     34581     34582
     34585     34583     34592     34593     34596     34594     34603     34604
     34607     34605     34614     34615     34618     34616     34625     34626
     34629     34627     34636     34637     34640     34638     34647     34648
     34651     34649     34658     34659     34662     34660     34669     34670
     34673     34671     34680     34681     34684     34682     34691     34692
     34695     34693     34702     34703     34706     34704     34713     34714
     34717     34715     34724     34725     34728     34726     34735     34736
     34739     34737     34746     34747     34750     34748     34757     34758
     34761     34759     34768     34769     34772     34770     34779     34780
     34783     34781     34790     34791     34794     34792     34801     34802
     34805     34803     34812     34813     34816     34814     34823     34824
     34827     34825     34834     34835     34838     34836     34845     34846
     34849     34847     34856     34857     34860     34858     34867     34868
     34871     34869     34878     34879     34882     34880     34889     34890
     34893     34891     34900     34901     34904     34902     34911     34912
     34915     34913     34922     34923     34926     34924     34933     34934
     34937     34935     34944     34945     34948     34946     34955     34956
     34959     34957     34966     34967     34970     34968     34977     34978
     34981     34979     34988     34989     34992     34990     34999     35000
     35003     35001     35010     35011     35014     35012     35021     35022
     35025     35023     35032     35033     35036     35034     35043     35044
     35047     35045     35054     35055     35058     35056     35065     35066
     35069     35067     35076     35077     35080     35078     35087     35088
     35091     35089     35098     35099     35102     35100     35109     35110
     35113     35111     35120     35121     35124     35122     35131     35132
     35135     35133     35142     35143     35146     35144     35153     35154
     35157     35155     35164     35165     35168     35166     35175     35176
     35179     35177     35186     35187     35190     35188     35197     35198
     35201     35199     35208     35209     35212     35210     35219     35220
     35223     35221     35230     35231     35234     35232     35241     35242
     35245     35243     35252     35253     35256     35254     35263     35264
     35267     35265     35274     35275     35278     35276     35285     35286
     35289     35287     35296     35297     35300     35298     35307     35308
     35311     35309     35318     35319     35322     35320     35329     35330
     35333     35331     35340     35341     35344     35342     35351     35352
     35355     35353     35362     35363     35366     35364     35373     35374
     35377     35375     35384     35385     35388     35386     35395     35396
     35399     35397     35406     35407     35410     35408     35417     35418
     35421     35419     35428     35429     35432     35430     35439     35440
     35443     35441     35450     35451     35454     35452     35461     35462
     35465     35463     35472     35473     35476     35474     35483     35484
     35487     35485     35494     35495     35498     35496     35505     35506
     35509     35507     35516     35517     35520     35518     35527     35528
     35531     35529     35538     35539     35542     35540     35549     35550
     35553     35551     35560     35561     35564     35562     35571     35572
     35575     35573     35582     35583     35586     35584     35593     35594
     35597     35595     35604     35605     35608     35606     35615     35616
     35619     35617     35626     35627     35630     35628     35637     35638
     35641     35639     35648     35649     35652     35650     35659     35660
     35663     35661     35670     35671     35674     35672     35681     35682
     35685     35683     35692     35693     35696     35694     35703     35704
     35707     35705     35714     35715     35718     35716     35725     35726
     35729     35727     35736     35737     35740     35738     35747     35748
     35751     35749     35758     35759     35762     35760     35769     35770
     35773     35771     35780     35781     35784     35782     35791     35792
     35795     35793     35802     35803     35806     35804     35813     35814
     35817     35815     35824     35825     35828     35826     35835     35836
     35839     35837     35846     35847     35850     35848     35857     35858
     35861     35859     35868     35869     35872     35870     35879     35880
     35883     35881     35890     35891     35894     35892     35901     35902
     35905     35903     35912     35913     35916     35914     35923     35924
     35927     35925     35934     35935     35938     35936     35945     35946
     35949     35947     35956     35957     35960     35958     35967     35968
     35971     35969     35978     35979     35982     35980     35989     35990
     35993     35991     36000     36001     36004     36002     36011     36012
     36015     36013     36022     36023     36026     36024     36033     36034
     36037     36035     36044     36045     36048     36046     36055     36056
     36059     36057     36066     36067     36070     36068     36077     36078
     36081     36079     36088     36089     36092     36090     36099     36100
     36103     36101     36110     36111     36114     36112     36121     36122
     36125     36123     36132     36133     36136     36134     36143     36144
     36147     36145     36154     36155     36158     36156     36165     36166
     36169     36167     36176     36177     36180     36178     36187     36188
     36191     36189     36198     36199     36202     36200     36209     36210
     36213     36211     36220     36221     36224     36222     36231     36232
     36235     36233     36242     36243     36246     36244     36253     36254
     36257     36255     36264     36265     36268     36266     36275     36276
     36279     36277     36286     36287     36290     36288     36297     36298
     36301     36299     36308     36309     36312     36310     36319     36320
     36323     36321     36330     36331     36334     36332     36341     36342
     36345     36343     36352     36353     36356     36354     36363     36364
     36367     36365     36374     36375     36378     36376     36385     36386
     36389     36387     36396     36397     36400     36398     36407     36408
     36411     36409     36418     36419     36422     36420     36429     36430
     36433     36431     36440     36441     36444     36442     36451     36452
     36455     36453     36462     36463     36466     36464     36473     36474
     36477     36475     36484     36485     36488     36486     36495     36496
     36499     36497     36506     36507     36510     36508     36517     36518
     36521     36519     36528     36529     36532     36530     36539     36540
     36543     36541     36550     36551     36554     36552     36561     36562
     36565     36563     36572     36573     36576     36574     36583     36584
     36587     36585     36594     36595     36598     36596     36605     36606
     36609     36607     36616     36617     36620     36618     36627     36628
     36631     36629     36638     36639     36642     36640     36649     36650
     36653     36651     36660     36661     36664     36662     36671     36672
     36675     36673     36682     36683     36686     36684     36693     36694
     36697     36695     36704     36705     36708     36706     36715     36716
     36719     36717     36726     36727     36730     36728     36737     36738
     36741     36739     36748     36749     36752     36750     36759     36760
     36763     36761     36770     36771     36774     36772     36781     36782
     36785     36783     36792     36793     36796     36794     36803     36804
     36807     36805     36814     36815     36818     36816     36825     36826
     36829     36827     36836     36837     36840     36838     36847     36848
     36851     36849     36858     36859     36862     36860     36869     36870
     36873     36871     36880     36881     36884     36882     36891     36892
     36895     36893     36902     36903     36906     36904     36913     36914
     36917     36915     36924     36925     36928     36926     36935     36936
     36939     36937     36946     36947     36950     36948     36957     36958
     36961     36959     36968     36969     36972     36970     36979     36980
     36983     36981     36990     36991     36994     36992     37001     37002
     37005     37003     37012     37013     37016     37014     37023     37024
     37027     37025     37034     37035     37038     37036     37045     37046
     37049     37047     37056     37057     37060     37058     37067     37068
     37071     37069     37078     37079     37082     37080     37089     37090
     37093     37091     37100     37101     37104     37102     37111     37112
     37115     37113     37122     37123     37126     37124     37133     37134
     37137     37135     37144     37145     37148     37146     37155     37156
     37159     37157     37166     37167     37170     37168     37177     37178
     37181     37179     37188     37189     37192     37190     37199     37200
     37203     37201     37210     37211     37214     37212     37221     37222
     37225     37223     37232     37233     37236     37234     37243     37244
     37247     37245     37254     37255     37258     37256     37265     37266
     37269     37267     37276     37277     37280     37278     37287     37288
     37291     37289     37298     37299     37302     37300     37309     37310
     37313     37311     37320     37321     37324     37322     37331     37332
     37335     37333     37342     37343     37346     37344     37353     37354
     37357     37355     37364     37365     37368     37366     37375     37376
     37379     37377     37386     37387     37390     37388     37397     37398
     37401     37399     37408     37409     37412     37410     37419     37420
     37423     37421     37430     37431     37434     37432     37441     37442
     37445     37443     37452     37453     37456     37454     37463     37464
     37467     37465     37474     37475     37478     37476     37485     37486
     37489     37487     37496     37497     37500     37498     37507     37508
     37511     37509     37518     37519     37522     37520     37529     37530
     37533     37531     37540     37541     37544     37542     37551     37552
     37555     37553     37562     37563     37566     37564     37573     37574
     37577     37575     37584     37585     37588     37586     37595     37596
     37599     37597     37606     37607     37610     37608     37617     37618
     37621     37619     37628     37629     37632     37630     37639     37640
     37643     37641     37650     37651     37654     37652     37661     37662
     37665     37663     37672     37673     37676     37674     37683     37684
     37687     37685     37694     37695     37698     37696     37705     37706
     37709     37707     37716     37717     37720     37718     37727     37728
     37731     37729     37738     37739     37742     37740     37749     37750
     37753     37751     37760     37761     37764     37762     37771     37772
     37775     37773     37782     37783     37786     37784     37793     37794
     37797     37795     37804     37805     37808     37806     37815     37816
     37819     37817     37826     37827     37830     37828     37837     37838
     37841     37839     37848     37849     37852     37850     37859     37860
     37863     37861     37870     37871     37874     37872     37881     37882
     37885     37883     37892     37893     37896     37894     37903     37904
     37907     37905     37914     37915     37918     37916     37925     37926
     37929     37927     37936     37937     37940     37938     37947     37948
     37951     37949     37958     37959     37962     37960     37969     37970
     37973     37971     37980     37981     37984     37982     37991     37992
     37995     37993     38002     38003     38006     38004     38013     38014
     38017     38015     38024     38025     38028     38026     38035     38036
     38039     38037     38046     38047     38050     38048     38057     38058
     38061     38059     38068     38069     38072     38070     38079     38080
     38083     38081     38090     38091     38094     38092     38101     38102
     38105     38103     38112     38113     38116     38114     38123     38124
     38127     38125     38134     38135     38138     38136     38145     38146
     38149     38147     38156     38157     38160     38158     38167     38168
     38171     38169     38178     38179     38182     38180     38189     38190
     38193     38191     38200     38201     38204     38202     38211     38212
     38215     38213     38222     38223     38226     38224     38233     38234
     38237     38235     38244     38245     38248     38246     38255     38256
     38259     38257     38266     38267     38270     38268     38277     38278
     38281     38279     38288     38289     38292     38290     38299     38300
     38303     38301     38310     38311     38314     38312     38321     38322
     38325     38323     38332     38333     38336     38334     38343     38344
     38347     38345     38354     38355     38358     38356     38365     38366
     38369     38367     38376     38377     38380     38378     38387     38388
     38391     38389     38398     38399     38402     38400     38409     38410
     38413     38411     38420     38421     38424     38422     38431     38432
     38435     38433     38442     38443     38446     38444     38453     38454
     38457     38455     38464     38465     38468     38466     38475     38476
     38479     38477     38486     38487     38490     38488     38497     38498
     38501     38499     38508     38509     38512     38510     38519     38520
     38523     38521     38530     38531     38534     38532     38541     38542
     38545     38543     38552     38553     38556     38554     38563     38564
     38567     38565     38574     38575     38578     38576     38585     38586
     38589     38587     38596     38597     38600     38598     38607     38608
     38611     38609     38618     38619     38622     38620     38629     38630
     38633     38631     38640     38641     38644     38642     38651     38652
     38655     38653     38662     38663     38666     38664     38673     38674
     38677     38675     38684     38685     38688     38686     38695     38696
     38699     38697     38706     38707     38710     38708     38717     38718
     38721     38719     38728     38729     38732     38730     38739     38740
     38743     38741     38750     38751     38754     38752     38761     38762
     38765     38763     38772     38773     38776     38774     38783     38784
     38787     38785     38794     38795     38798     38796     38805     38806
     38809     38807     38816     38817     38820     38818     38827     38828
     38831     38829     38838     38839     38842     38840     38849     38850
     38853     38851     38860     38861     38864     38862     38871     38872
     38875     38873     38882     38883     38886     38884     38893     38894
     38897     38895     38904     38905     38908     38906     38915     38916
     38919     38917     38926     38927     38930     38928     38937     38938
     38941     38939     38948     38949     38952     38950     38959     38960
     38963     38961     38970     38971     38974     38972     38981     38982
     38985     38983     38992     38993     38996     38994     39003     39004
     39007     39005     39014     39015     39018     39016     39025     39026
     39029     39027     39036     39037     39040     39038     39047     39048
     39051     39049     39058     39059     39062     39060     39069     39070
     39073     39071     39080     39081     39084     39082     39091     39092
     39095     39093     39102     39103     39106     39104     39113     39114
     39117     39115     39124     39125     39128     39126     39135     39136
     39139     39137     39146     39147     39150     39148     39157     39158
     39161     39159     39168     39169     39172     39170     39179     39180
     39183     39181     39190     39191     39194     39192     39201     39202
     39205     39203     39212     39213     39216     39214     39223     39224
     39227     39225     39234     39235     39238     39236     39245     39246
     39249     39247     39256     39257     39260     39258     39267     39268
     39271     39269     39278     39279     39282     39280     39289     39290
     39293     39291     39300     39301     39304     39302     39311     39312
     39315     39313     39322     39323     39326     39324     39333     39334
     39337     39335     39344     39345     39348     39346     39355     39356
     39359     39357     39366     39367     39370     39368     39377     39378
     39381     39379     39388     39389     39392     39390     39399     39400
     39403     39401     39410     39411     39414     39412     39421     39422
     39425     39423     39432     39433     39436     39434     39443     39444
     39447     39445     39454     39455     39458     39456     39465     39466
     39469     39467     39476     39477     39480     39478     39487     39488
     39491     39489     39498     39499     39502     39500     39509     39510
     39513     39511     39520     39521     39524     39522     39531     39532
     39535     39533     39542     39543     39546     39544     39553     39554
     39557     39555     39564     39565     39568     39566     39575     39576
     39579     39577     39586     39587     39590     39588     39597     39598
     39601     39599     39608     39609     39612     39610     39619     39620
     39623     39621     39630     39631     39634     39632     39641     39642
     39645     39643     39652     39653     39656     39654     39663     39664
     39667     39665     39674     39675     39678     39676     39685     39686
     39689     39687     39696     39697     39700     39698     39707     39708
     39711     39709     39718     39719     39722     39720     39729     39730
     39733     39731     39740     39741     39744     39742     39751     39752
     39755     39753     39762     39763     39766     39764     39773     39774
     39777     39775     39784     39785     39788     39786     39795     39796
     39799     39797     39806     39807     39810     39808     39817     39818
     39821     39819     39828     39829     39832     39830     39839     39840
     39843     39841     39850     39851     39854     39852     39861     39862
     39865     39863     39872     39873     39876     39874     39883     39884
     39887     39885     39894     39895     39898     39896     39905     39906
     39909     39907     39916     39917     39920     39918     39927     39928
     39931     39929     39938     39939     39942     39940     39949     39950
     39953     39951     39960     39961     39964     39962     39971     39972
     39975     39973     39982     39983     39986     39984     39993     39994
     39997     39995     40004     40005     40008     40006     40015     40016
     40019     40017     40026     40027     40030     40028     40037     40038
     40041     40039     40048     40049     40052     40050     40059     40060
     40063     40061     40070     40071     40074     40072     40081     40082
     40085     40083     40092     40093     40096     40094     40103     40104
     40107     40105     40114     40115     40118     40116     40125     40126
     40129     40127     40136     40137     40140     40138     40147     40148
     40151     40149     40158     40159     40162     40160     40169     40170
     40173     40171     40180     40181     40184     40182     40191     40192
     40195     40193     40202     40203     40206     40204     40213     40214
     40217     40215     40224     40225     40228     40226     40235     40236
     40239     40237     40246     40247     40250     40248     40257     40258
     40261     40259     40268     40269     40272     40270     40279     40280
     40283     40281     40290     40291     40294     40292     40301     40302
     40305     40303     40312     40313     40316     40314     40323     40324
     40327     40325     40334     40335     40338     40336     40345     40346
     40349     40347     40356     40357     40360     40358     40367     40368
     40371     40369     40378     40379     40382     40380     40389     40390
     40393     40391     40400     40401     40404     40402     40411     40412
     40415     40413     40422     40423     40426     40424     40433     40434
     40437     40435     40444     40445     40448     40446     40455     40456
     40459     40457     40466     40467     40470     40468     40477     40478
     40481     40479     40488     40489     40492     40490     40499     40500
     40503     40501     40510     40511     40514     40512     40521     40522
     40525     40523     40532     40533     40536     40534     40543     40544
     40547     40545     40554     40555     40558     40556     40565     40566
     40569     40567     40576     40577     40580     40578     40587     40588
     40591     40589     40598     40599     40602     40600     40609     40610
     40613     40611     40620     40621     40624     40622     40631     40632
     40635     40633     40642     40643     40646     40644     40653     40654
     40657     40655     40664     40665     40668     40666     40675     40676
     40679     40677     40686     40687     40690     40688     40697     40698
     40701     40699     40708     40709     40712     40710     40719     40720
     40723     40721     40730     40731     40734     40732     40741     40742
     40745     40743     40752     40753     40756     40754     40763     40764
     40767     40765     40774     40775     40778     40776     40785     40786
     40789     40787     40796     40797     40800     40798     40807     40808
     40811     40809     40818     40819     40822     40820     40829     40830
     40833     40831     40840     40841     40844     40842     40851     40852
     40855     40853     40862     40863     40866     40864     40873     40874
     40877     40875     40884     40885     40888     40886     40895     40896
     40899     40897     40906     40907     40910     40908     40917     40918
     40921     40919     40928     40929     40932     40930     40939     40940
     40943     40941     40950     40951     40954     40952     40961     40962
     40965     40963     40972     40973     40976     40974     40983     40984
     40987     40985     40994     40995     40998     40996     41005     41006
     41009     41007     41016     41017     41020     41018     41027     41028
     41031     41029     41038     41039     41042     41040     41049     41050
     41053     41051     41060     41061     41064     41062     41071     41072
     41075     41073     41082     41083     41086     41084     41093     41094
     41097     41095     41104     41105     41108     41106     41115     41116
     41119     41117     41126     41127     41130     41128     41137     41138
     41141     41139     41148     41149     41152     41150     41159     41160
     41163     41161     41170     41171     41174     41172     41181     41182
     41185     41183     41192     41193     41196     41194     41203     41204
     41207     41205     41214     41215     41218     41216     41225     41226
     41229     41227     41236     41237     41240     41238     41247     41248
     41251     41249     41258     41259     41262     41260     41269     41270
     41273     41271     41280     41281     41284     41282     41291     41292
     41295     41293     41302     41303     41306     41304     41313     41314
     41317     41315     41324     41325     41328     41326     41335     41336
     41339     41337     41346     41347     41350     41348     41357     41358
     41361     41359     41368     41369     41372     41370     41379     41380
     41383     41381     41390     41391     41394     41392     41401     41402
     41405     41403     41412     41413     41416     41414     41423     41424
     41427     41425     41434     41435     41438     41436     41445     41446
     41449     41447     41456     41457     41460     41458     41467     41468
     41471     41469     41478     41479     41482     41480     41489     41490
     41493     41491     41500     41501     41504     41502     41511     41512
     41515     41513     41522     41523     41526     41524     41533     41534
     41537     41535     41544     41545     41548     41546     41555     41556
     41559     41557     41566     41567     41570     41568     41577     41578
     41581     41579     41588     41589     41592     41590     41599     41600
     41603     41601     41610     41611     41614     41612     41621     41622
     41625     41623     41632     41633     41636     41634     41643     41644
     41647     41645     41654     41655     41658     41656     41665     41666
     41669     41667     41676     41677     41680     41678     41687     41688
     41691     41689     41698     41699     41702     41700     41709     41710
     41713     41711     41720     41721     41724     41722     41731     41732
     41735     41733     41742     41743     41746     41744     41753     41754
     41757     41755     41764     41765     41768     41766     41775     41776
     41779     41777     41786     41787     41790     41788     41797     41798
     41801     41799     41808     41809     41812     41810     41819     41820
     41823     41821     41830     41831     41834     41832     41841     41842
     41845     41843     41852     41853     41856     41854     41863     41864
     41867     41865     41874     41875     41878     41876     41885     41886
     41889     41887     41896     41897     41900     41898     41907     41908
     41911     41909     41918     41919     41922     41920     41929     41930
     41933     41931     41940     41941     41944     41942     41951     41952
     41955     41953     41962     41963     41966     41964     41973     41974
     41977     41975     41984     41985     41988     41986     41995     41996
     41999     41997     42006     42007     42010     42008     42017     42018
     42021     42019     42028     42029     42032     42030     42039     42040
     42043     42041     42050     42051     42054     42052     42061     42062
     42065     42063     42072     42073     42076     42074     42083     42084
     42087     42085     42094     42095     42098     42096     42105     42106
     42109     42107     42116     42117     42120     42118     42127     42128
     42131     42129     42138     42139     42142     42140     42149     42150
     42153     42151     42160     42161     42164     42162     42171     42172
     42175     42173     42182     42183     42186     42184     42193     42194
     42197     42195     42204     42205     42208     42206     42215     42216
     42219     42217     42226     42227     42230     42228     42237     42238
     42241     42239     42248     42249     42252     42250     42259     42260
     42263     42261     42270     42271     42274     42272     42281     42282
     42285     42283     42292     42293     42296     42294     42303     42304
     42307     42305     42314     42315     42318     42316     42325     42326
     42329     42327     42336     42337     42340     42338     42347     42348
     42351     42349     42358     42359     42362     42360     42369     42370
     42373     42371     42380     42381     42384     42382     42391     42392
     42395     42393     42402     42403     42406     42404     42413     42414
     42417     42415     42424     42425     42428     42426     42435     42436
     42439     42437     42446     42447     42450     42448     42457     42458
     42461     42459     42468     42469     42472     42470     42479     42480
     42483     42481     42490     42491     42494     42492     42501     42502
     42505     42503     42512     42513     42516     42514     42523     42524
     42527     42525     42534     42535     42538     42536     42545     42546
     42549     42547     42556     42557     42560     42558     42567     42568
     42571     42569     42578     42579     42582     42580     42589     42590
     42593     42591     42600     42601     42604     42602     42611     42612
     42615     42613     42622     42623     42626     42624     42633     42634
     42637     42635     42644     42645     42648     42646     42655     42656
     42659     42657     42666     42667     42670     42668     42677     42678
     42681     42679     42688     42689     42692     42690     42699     42700
     42703     42701     42710     42711     42714     42712     42721     42722
     42725     42723     42732     42733     42736     42734     42743     42744
     42747     42745     42754     42755     42758     42756     42765     42766
     42769     42767     42776     42777     42780     42778     42787     42788
     42791     42789     42798     42799     42802     42800     42809     42810
     42813     42811     42820     42821     42824     42822     42831     42832
     42835     42833     42842     42843     42846     42844     42853     42854
     42857     42855     42864     42865     42868     42866     42875     42876
     42879     42877     42886     42887     42890     42888     42897     42898
     42901     42899     42908     42909     42912     42910     42919     42920
     42923     42921     42930     42931     42934     42932     42941     42942
     42945     42943     42952     42953     42956     42954     42963     42964
     42967     42965     42974     42975     42978     42976     42985     42986
     42989     42987     42996     42997     43000     42998     43007     43008
     43011     43009     43018     43019     43022     43020     43029     43030
     43033     43031     43040     43041     43044     43042     43051     43052
     43055     43053     43062     43063     43066     43064     43073     43074
     43077     43075     43084     43085     43088     43086     43095     43096
     43099     43097     43106     43107     43110     43108     43117     43118
     43121     43119     43128     43129     43132     43130     43139     43140
     43143     43141     43150     43151     43154     43152     43161     43162
     43165     43163     43172     43173     43176     43174     43183     43184
     43187     43185     43194     43195     43198     43196     43205     43206
     43209     43207     43216     43217     43220     43218     43227     43228
     43231     43229     43238     43239     43242     43240     43249     43250
     43253     43251     43260     43261     43264     43262     43271     43272
     43275     43273     43282     43283     43286     43284     43293     43294
     43297     43295     43304     43305     43308     43306     43315     43316
     43319     43317     43326     43327     43330     43328     43337     43338
     43341     43339     43348     43349     43352     43350     43359     43360
     43363     43361     43370     43371     43374     43372     43381     43382
     43385     43383     43392     43393     43396     43394     43403     43404
     43407     43405     43414     43415     43418     43416     43425     43426
     43429     43427     43436     43437     43440     43438     43447     43448
     43451     43449     43458     43459     43462     43460     43469     43470
     43473     43471     43480     43481     43484     43482     43491     43492
     43495     43493     43502     43503     43506     43504     43513     43514
     43517     43515     43524     43525     43528     43526     43535     43536
     43539     43537     43546     43547     43550     43548     43557     43558
     43561     43559     43568     43569     43572     43570     43579     43580
     43583     43581     43590     43591     43594     43592     43601     43602
     43605     43603     43612     43613     43616     43614     43623     43624
     43627     43625     43634     43635     43638     43636     43645     43646
     43649     43647     43656     43657     43660     43658     43667     43668
     43671     43669     43678     43679     43682     43680     43689     43690
     43693     43691     43700     43701     43704     43702     43711     43712
     43715     43713     43722     43723     43726     43724     43733     43734
     43737     43735     43744     43745     43748     43746     43755     43756
     43759     43757     43766     43767     43770     43768     43777     43778
     43781     43779     43788     43789     43792     43790     43799     43800
     43803     43801     43810     43811     43814     43812     43821     43822
     43825     43823     43832     43833     43836     43834     43843     43844
     43847     43845     43854     43855     43858     43856     43865     43866
     43869     43867     43876     43877     43880     43878     43887     43888
     43891     43889     43898     43899     43902     43900     43909     43910
     43913     43911     43920     43921     43924     43922     43931     43932
     43935     43933     43942     43943     43946     43944     43953     43954
     43957     43955     43964     43965     43968     43966     43975     43976
     43979     43977     43986     43987     43990     43988     43997     43998
     44001     43999     44008     44009     44012     44010     44019     44020
     44023     44021     44030     44031     44034     44032     44041     44042
     44045     44043     44052     44053     44056     44054     44063     44064
     44067     44065     44074     44075     44078     44076     44085     44086
     44089     44087     44096     44097     44100     44098     44107     44108
     44111     44109     44118     44119     44122     44120     44129     44130
     44133     44131     44140     44141     44144     44142     44151     44152
     44155     44153     44162     44163     44166     44164     44173     44174
     44177     44175     44184     44185     44188     44186     44195     44196
     44199     44197     44206     44207     44210     44208     44217     44218
     44221     44219     44228     44229     44232     44230     44239     44240
     44243     44241     44250     44251     44254     44252     44261     44262
     44265     44263     44272     44273     44276     44274     44283     44284
     44287     44285     44294     44295     44298     44296     44305     44306
     44309     44307     44316     44317     44320     44318     44327     44328
     44331     44329     44338     44339     44342     44340     44349     44350
     44353     44351     44360     44361     44364     44362     44371     44372
     44375     44373     44382     44383     44386     44384     44393     44394
     44397     44395     44404     44405     44408     44406     44415     44416
     44419     44417     44426     44427     44430     44428     44437     44438
     44441     44439     44448     44449     44452     44450     44459     44460
     44463     44461     44470     44471     44474     44472     44481     44482
     44485     44483     44492     44493     44496     44494     44503     44504
     44507     44505     44514     44515     44518     44516     44525     44526
     44529     44527     44536     44537     44540     44538     44547     44548
     44551     44549     44558     44559     44562     44560     44569     44570
     44573     44571     44580     44581     44584     44582     44591     44592
     44595     44593     44602     44603     44606     44604     44613     44614
     44617     44615     44624     44625     44628     44626     44635     44636
     44639     44637     44646     44647     44650     44648     44657     44658
     44661     44659     44668     44669     44672     44670     44679     44680
     44683     44681     44690     44691     44694     44692     44701     44702
     44705     44703     44712     44713     44716     44714     44723     44724
     44727     44725     44734     44735     44738     44736     44745     44746
     44749     44747     44756     44757     44760     44758     44767     44768
     44771     44769     44778     44779     44782     44780     44789     44790
     44793     44791     44800     44801     44804     44802     44811     44812
     44815     44813     44822     44823     44826     44824     44833     44834
     44837     44835     44844     44845     44848     44846     44855     44856
     44859     44857     44866     44867     44870     44868     44877     44878
     44881     44879     44888     44889     44892     44890     44899     44900
     44903     44901     44910     44911     44914     44912     44921     44922
     44925     44923     44932     44933     44936     44934     44943     44944
     44947     44945     44954     44955     44958     44956     44965     44966
     44969     44967     44976     44977     44980     44978     44987     44988
     44991     44989     44998     44999     45002     45000     45009     45010
     45013     45011     45020     45021     45024     45022     45031     45032
     45035     45033     45042     45043     45046     45044     45053     45054
     45057     45055     45064     45065     45068     45066     45075     45076
     45079     45077     45086     45087     45090     45088     45097     45098
     45101     45099     45108     45109     45112     45110     45119     45120
     45123     45121     45130     45131     45134     45132     45141     45142
     45145     45143     45152     45153     45156     45154     45163     45164
     45167     45165     45174     45175     45178     45176     45185     45186
     45189     45187     45196     45197     45200     45198     45207     45208
     45211     45209     45218     45219     45222     45220     45229     45230
     45233     45231     45240     45241     45244     45242     45251     45252
     45255     45253     45262     45263     45266     45264     45273     45274
     45277     45275     45284     45285     45288     45286     45295     45296
     45299     45297     45306     45307     45310     45308     45317     45318
     45321     45319     45328     45329     45332     45330     45339     45340
     45343     45341     45350     45351     45354     45352     45361     45362
     45365     45363     45372     45373     45376     45374     45383     45384
     45387     45385     45394     45395     45398     45396     45405     45406
     45409     45407     45416     45417     45420     45418     45427     45428
     45431     45429     45438     45439     45442     45440     45449     45450
     45453     45451     45460     45461     45464     45462     45471     45472
     45475     45473     45482     45483     45486     45484     45493     45494
     45497     45495     45504     45505     45508     45506     45515     45516
     45519     45517     45526     45527     45530     45528     45537     45538
     45541     45539     45548     45549     45552     45550     45559     45560
     45563     45561     45570     45571     45574     45572     45581     45582
     45585     45583     45592     45593     45596     45594     45603     45604
     45607     45605     45614     45615     45618     45616     45625     45626
     45629     45627     45636     45637     45640     45638     45647     45648
     45651     45649     45658     45659     45662     45660     45669     45670
     45673     45671     45680     45681     45684     45682     45691     45692
     45695     45693     45702     45703     45706     45704     45713     45714
     45717     45715     45724     45725     45728     45726     45735     45736
     45739     45737     45746     45747     45750     45748     45757     45758
     45761     45759     45768     45769     45772     45770     45779     45780
     45783     45781     45790     45791     45794     45792     45801     45802
     45805     45803     45812     45813     45816     45814     45823     45824
     45827     45825     45834     45835     45838     45836     45845     45846
     45849     45847     45856     45857     45860     45858     45867     45868
     45871     45869     45878     45879     45882     45880     45889     45890
     45893     45891     45900     45901     45904     45902     45911     45912
     45915     45913     45922     45923     45926     45924     45933     45934
     45937     45935     45944     45945     45948     45946     45955     45956
     45959     45957     45966     45967     45970     45968     45977     45978
     45981     45979     45988     45989     45992     45990     45999     46000
     46003     46001     46010     46011     46014     46012     46021     46022
     46025     46023     46032     46033     46036     46034     46043     46044
     46047     46045     46054     46055     46058     46056     46065     46066
     46069     46067     46076     46077     46080     46078     46087     46088
     46091     46089     46098     46099     46102     46100     46109     46110
     46113     46111     46120     46121     46124     46122     46131     46132
     46135     46133     46142     46143     46146     46144     46153     46154
     46157     46155     46164     46165     46168     46166     46175     46176
     46179     46177     46186     46187     46190     46188     46197     46198
     46201     46199     46208     46209     46212     46210     46219     46220
     46223     46221     46230     46231     46234     46232     46241     46242
     46245     46243     46252     46253     46256     46254     46263     46264
     46267     46265     46274     46275     46278     46276     46285     46286
     46289     46287     46296     46297     46300     46298     46307     46308
     46311     46309     46318     46319     46322     46320     46329     46330
     46333     46331     46340     46341     46344     46342     46351     46352
     46355     46353     46362     46363     46366     46364     46373     46374
     46377     46375     46384     46385     46388     46386     46395     46396
     46399     46397     46406     46407     46410     46408     46417     46418
     46421     46419     46428     46429     46432     46430     46439     46440
     46443     46441     46450     46451     46454     46452     46461     46462
     46465     46463     46472     46473     46476     46474     46483     46484
     46487     46485     46494     46495     46498     46496     46505     46506
     46509     46507     46516     46517     46520     46518     46527     46528
     46531     46529     46538     46539     46542     46540     46549     46550
     46553     46551     46560     46561     46564     46562     46571     46572
     46575     46573     46582     46583     46586     46584     46593     46594
     46597     46595     46604     46605     46608     46606     46615     46616
     46619     46617     46626     46627     46630     46628     46637     46638
     46641     46639     46648     46649     46652     46650     46659     46660
     46663     46661     46670     46671     46674     46672     46681     46682
     46685     46683     46692     46693     46696     46694     46703     46704
     46707     46705     46714     46715     46718     46716     46725     46726
     46729     46727     46736     46737     46740     46738     46747     46748
     46751     46749     46758     46759     46762     46760     46769     46770
     46773     46771     46780     46781     46784     46782     46791     46792
     46795     46793     46802     46803     46806     46804     46813     46814
     46817     46815     46824     46825     46828     46826     46835     46836
     46839     46837     46846     46847     46850     46848     46857     46858
     46861     46859     46868     46869     46872     46870     46879     46880
     46883     46881     46890     46891     46894     46892     46901     46902
     46905     46903     46912     46913     46916     46914     46923     46924
     46927     46925     46934     46935     46938     46936     46945     46946
     46949     46947     46956     46957     46960     46958     46967     46968
     46971     46969     46978     46979     46982     46980     46989     46990
     46993     46991     47000     47001     47004     47002     47011     47012
     47015     47013     47022     47023     47026     47024     47033     47034
     47037     47035     47044     47045     47048     47046     47055     47056
     47059     47057     47066     47067     47070     47068     47077     47078
     47081     47079     47088     47089     47092     47090     47099     47100
     47103     47101     47110     47111     47114     47112     47121     47122
     47125     47123     47132     47133     47136     47134     47143     47144
     47147     47145     47154     47155     47158     47156     47165     47166
     47169     47167     47176     47177     47180     47178     47187     47188
     47191     47189     47198     47199     47202     47200     47209     47210
     47213     47211     47220     47221     47224     47222     47231     47232
     47235     47233     47242     47243     47246     47244     47253     47254
     47257     47255     47264     47265     47268     47266     47275     47276
     47279     47277     47286     47287     47290     47288     47297     47298
     47301     47299     47308     47309     47312     47310     47319     47320
     47323     47321     47330     47331     47334     47332     47341     47342
     47345     47343     47352     47353     47356     47354     47363     47364
     47367     47365     47374     47375     47378     47376     47385     47386
     47389     47387     47396     47397     47400     47398     47407     47408
     47411     47409     47418     47419     47422     47420     47429     47430
     47433     47431     47440     47441     47444     47442     47451     47452
     47455     47453     47462     47463     47466     47464     47473     47474
     47477     47475     47484     47485     47488     47486     47495     47496
     47499     47497     47506     47507     47510     47508     47517     47518
     47521     47519     47528     47529     47532     47530     47539     47540
     47543     47541     47550     47551     47554     47552     47561     47562
     47565     47563     47572     47573     47576     47574     47583     47584
     47587     47585     47594     47595     47598     47596     47605     47606
     47609     47607     47616     47617     47620     47618     47627     47628
     47631     47629     47638     47639     47642     47640     47649     47650
     47653     47651     47660     47661     47664     47662     47671     47672
     47675     47673     47682     47683     47686     47684     47693     47694
     47697     47695     47704     47705     47708     47706     47715     47716
     47719     47717     47726     47727     47730     47728     47737     47738
     47741     47739     47748     47749     47752     47750     47759     47760
     47763     47761     47770     47771     47774     47772     47781     47782
     47785     47783     47792     47793     47796     47794     47803     47804
     47807     47805     47814     47815     47818     47816     47825     47826
     47829     47827     47836     47837     47840     47838     47847     47848
     47851     47849     47858     47859     47862     47860     47869     47870
     47873     47871     47880     47881     47884     47882     47891     47892
     47895     47893     47902     47903     47906     47904     47913     47914
     47917     47915     47924     47925     47928     47926     47935     47936
     47939     47937     47946     47947     47950     47948     47957     47958
     47961     47959     47968     47969     47972     47970     47979     47980
     47983     47981     47990     47991     47994     47992     48001     48002
     48005     48003     48012     48013     48016     48014     48023     48024
     48027     48025     48034     48035     48038     48036     48045     48046
     48049     48047     48056     48057     48060     48058     48067     48068
     48071     48069     48078     48079     48082     48080     48089     48090
     48093     48091     48100     48101     48104     48102     48111     48112
     48115     48113     48122     48123     48126     48124     48133     48134
     48137     48135     48144     48145     48148     48146     48155     48156
     48159     48157     48166     48167     48170     48168     48177     48178
     48181     48179     48188     48189     48192     48190     48199     48200
     48203     48201     48210     48211     48214     48212     48221     48222
     48225     48223     48232     48233     48236     48234     48243     48244
     48247     48245     48254     48255     48258     48256     48265     48266
     48269     48267     48276     48277     48280     48278     48287     48288
     48291     48289     48298     48299     48302     48300     48309     48310
     48313     48311     48320     48321     48324     48322     48331     48332
     48335     48333     48342     48343     48346     48344     48353     48354
     48357     48355     48364     48365     48368     48366     48375     48376
     48379     48377     48386     48387     48390     48388     48397     48398
     48401     48399     48408     48409     48412     48410     48419     48420
     48423     48421     48430     48431     48434     48432     48441     48442
     48445     48443     48452     48453     48456     48454     48463     48464
     48467     48465     48474     48475     48478     48476     48485     48486
     48489     48487     48496     48497     48500     48498     48507     48508
     48511     48509     48518     48519     48522     48520     48529     48530
     48533     48531     48540     48541     48544     48542     48551     48552
     48555     48553     48562     48563     48566     48564     48573     48574
     48577     48575     48584     48585     48588     48586     48595     48596
     48599     48597     48606     48607     48610     48608     48617     48618
     48621     48619     48628     48629     48632     48630     48639     48640
     48643     48641     48650     48651     48654     48652     48661     48662
     48665     48663     48672     48673     48676     48674     48683     48684
     48687     48685     48694     48695     48698     48696     48705     48706
     48709     48707     48716     48717     48720     48718     48727     48728
     48731     48729     48738     48739     48742     48740     48749     48750
     48753     48751     48760     48761     48764     48762     48771     48772
     48775     48773     48782     48783     48786     48784     48793     48794
     48797     48795     48804     48805     48808     48806     48815     48816
     48819     48817     48826     48827     48830     48828     48837     48838
     48841     48839     48848     48849     48852     48850     48859     48860
     48863     48861     48870     48871     48874     48872     48881     48882
     48885     48883     48892     48893     48896     48894     48903     48904
     48907     48905     48914     48915     48918     48916     48925     48926
     48929     48927     48936     48937     48940     48938     48947     48948
     48951     48949     48958     48959     48962     48960     48969     48970
     48973     48971     48980     48981     48984     48982     48991     48992
     48995     48993     49002     49003     49006     49004     49013     49014
     49017     49015     49024     49025     49028     49026     49035     49036
     49039     49037     49046     49047     49050     49048     49057     49058
     49061     49059     49068     49069     49072     49070     49079     49080
     49083     49081     49090     49091     49094     49092     49101     49102
     49105     49103     49112     49113     49116     49114     49123     49124
     49127     49125     49134     49135     49138     49136     49145     49146
     49149     49147     49156     49157     49160     49158     49167     49168
     49171     49169     49178     49179     49182     49180     49189     49190
     49193     49191     49200     49201     49204     49202     49211     49212
     49215     49213     49222     49223     49226     49224     49233     49234
     49237     49235     49244     49245     49248     49246     49255     49256
     49259     49257     49266     49267     49270     49268     49277     49278
     49281     49279     49288     49289     49292     49290     49299     49300
     49303     49301     49310     49311     49314     49312     49321     49322
     49325     49323     49332     49333     49336     49334     49343     49344
     49347     49345     49354     49355     49358     49356     49365     49366
     49369     49367     49376     49377     49380     49378     49387     49388
     49391     49389     49398     49399     49402     49400     49409     49410
     49413     49411     49420     49421     49424     49422     49431     49432
     49435     49433     49442     49443     49446     49444     49453     49454
     49457     49455     49464     49465     49468     49466     49475     49476
     49479     49477     49486     49487     49490     49488     49497     49498
     49501     49499     49508     49509     49512     49510     49519     49520
     49523     49521     49530     49531     49534     49532     49541     49542
     49545     49543     49552     49553     49556     49554     49563     49564
     49567     49565     49574     49575     49578     49576     49585     49586
     49589     49587     49596     49597     49600     49598     49607     49608
     49611     49609     49618     49619     49622     49620     49629     49630
     49633     49631     49640     49641     49644     49642     49651     49652
     49655     49653     49662     49663     49666     49664     49673     49674
     49677     49675     49684     49685     49688     49686     49695     49696
     49699     49697     49706     49707     49710     49708     49717     49718
     49721     49719     49728     49729     49732     49730     49739     49740
     49743     49741     49750     49751     49754     49752     49761     49762
     49765     49763     49772     49773     49776     49774     49783     49784
     49787     49785     49794     49795     49798     49796     49805     49806
     49809     49807     49816     49817     49820     49818     49827     49828
     49831     49829     49838     49839     49842     49840     49849     49850
     49853     49851     49860     49861     49864     49862     49871     49872
     49875     49873     49882     49883     49886     49884     49893     49894
     49897     49895     49904     49905     49908     49906     49915     49916
     49919     49917     49926     49927     49930     49928     49937     49938
     49941     49939     49948     49949     49952     49950     49959     49960
     49963     49961     49970     49971     49974     49972     49981     49982
     49985     49983     49992     49993     49996     49994     50003     50004
     50007     50005     50014     50015     50018     50016     50025     50026
     50029     50027     50036     50037     50040     50038     50047     50048
     50051     50049     50058     50059     50062     50060     50069     50070
     50073     50071     50080     50081     50084     50082     50091     50092
     50095     50093     50102     50103     50106     50104     50113     50114
     50117     50115     50124     50125     50128     50126     50135     50136
     50139     50137     50146     50147     50150     50148     50157     50158
     50161     50159     50168     50169     50172     50170     50179     50180
     50183     50181     50190     50191     50194     50192     50201     50202
     50205     50203     50212     50213     50216     50214     50223     50224
     50227     50225     50234     50235     50238     50236     50245     50246
     50249     50247     50256     50257     50260     50258     50267     50268
     50271     50269     50278     50279     50282     50280     50289     50290
     50293     50291     50300     50301     50304     50302     50311     50312
     50315     50313     50322     50323     50326     50324     50333     50334
     50337     50335     50344     50345     50348     50346     50355     50356
     50359     50357     50366     50367     50370     50368     50377     50378
     50381     50379     50388     50389     50392     50390     50399     50400
     50403     50401     50410     50411     50414     50412     50421     50422
     50425     50423     50432     50433     50436     50434     50443     50444
     50447     50445     50454     50455     50458     50456     50465     50466
     50469     50467     50476     50477     50480     50478     50487     50488
     50491     50489     50498     50499     50502     50500     50509     50510
     50513     50511     50520     50521     50524     50522     50531     50532
     50535     50533     50542     50543     50546     50544     50553     50554
     50557     50555     50564     50565     50568     50566     50575     50576
     50579     50577     50586     50587     50590     50588     50597     50598
     50601     50599     50608     50609     50612     50610     50619     50620
     50623     50621     50630     50631     50634     50632     50641     50642
     50645     50643     50652     50653     50656     50654     50663     50664
     50667     50665     50674     50675     50678     50676     50685     50686
     50689     50687     50696     50697     50700     50698     50707     50708
     50711     50709     50718     50719     50722     50720     50729     50730
     50733     50731     50740     50741     50744     50742     50751     50752
     50755     50753     50762     50763     50766     50764     50773     50774
     50777     50775     50784     50785     50788     50786     50795     50796
     50799     50797     50806     50807     50810     50808     50817     50818
     50821     50819     50828     50829     50832     50830     50839     50840
     50843     50841     50850     50851     50854     50852     50861     50862
     50865     50863     50872     50873     50876     50874     50883     50884
     50887     50885     50894     50895     50898     50896     50905     50906
     50909     50907     50916     50917     50920     50918     50927     50928
     50931     50929     50938     50939     50942     50940     50949     50950
     50953     50951     50960     50961     50964     50962     50971     50972
     50975     50973     50982     50983     50986     50984     50993     50994
     50997     50995     51004     51005     51008     51006     51015     51016
     51019     51017     51026     51027     51030     51028     51037     51038
     51041     51039     51048     51049     51052     51050     51059     51060
     51063     51061     51070     51071     51074     51072     51081     51082
     51085     51083     51092     51093     51096     51094     51103     51104
     51107     51105     51114     51115     51118     51116     51125     51126
     51129     51127     51136     51137     51140     51138     51147     51148
     51151     51149     51158     51159     51162     51160     51169     51170
     51173     51171     51180     51181     51184     51182     51191     51192
     51195     51193     51202     51203     51206     51204     51213     51214
     51217     51215     51224     51225     51228     51226     51235     51236
     51239     51237     51246     51247     51250     51248     51257     51258
     51261     51259     51268     51269     51272     51270     51279     51280
     51283     51281     51290     51291     51294     51292     51301     51302
     51305     51303     51312     51313     51316     51314     51323     51324
     51327     51325     51334     51335     51338     51336     51345     51346
     51349     51347     51356     51357     51360     51358     51367     51368
     51371     51369     51378     51379     51382     51380     51389     51390
     51393     51391     51400     51401     51404     51402     51411     51412
     51415     51413     51422     51423     51426     51424     51433     51434
     51437     51435     51444     51445     51448     51446     51455     51456
     51459     51457     51466     51467     51470     51468     51477     51478
     51481     51479     51488     51489     51492     51490     51499     51500
     51503     51501     51510     51511     51514     51512     51521     51522
     51525     51523     51532     51533     51536     51534     51543     51544
     51547     51545     51554     51555     51558     51556     51565     51566
     51569     51567     51576     51577     51580     51578     51587     51588
     51591     51589     51598     51599     51602     51600     51609     51610
     51613     51611     51620     51621     51624     51622     51631     51632
     51635     51633     51642     51643     51646     51644     51653     51654
     51657     51655     51664     51665     51668     51666     51675     51676
     51679     51677     51686     51687     51690     51688     51697     51698
     51701     51699     51708     51709     51712     51710     51719     51720
     51723     51721     51730     51731     51734     51732     51741     51742
     51745     51743     51752     51753     51756     51754     51763     51764
     51767     51765     51774     51775     51778     51776     51785     51786
     51789     51787     51796     51797     51800     51798     51807     51808
     51811     51809     51818     51819     51822     51820     51829     51830
     51833     51831     51840     51841     51844     51842     51851     51852
     51855     51853     51862     51863     51866     51864     51873     51874
     51877     51875     51884     51885     51888     51886     51895     51896
     51899     51897     51906     51907     51910     51908     51917     51918
     51921     51919     51928     51929     51932     51930     51939     51940
     51943     51941     51950     51951     51954     51952     51961     51962
     51965     51963     51972     51973     51976     51974     51983     51984
     51987     51985     51994     51995     51998     51996     52005     52006
     52009     52007     52016     52017     52020     52018     52027     52028
     52031     52029     52038     52039     52042     52040     52049     52050
     52053     52051     52060     52061     52064     52062     52071     52072
     52075     52073     52082     52083     52086     52084     52093     52094
     52097     52095     52104     52105     52108     52106     52115     52116
     52119     52117     52126     52127     52130     52128     52137     52138
     52141     52139     52148     52149     52152     52150     52159     52160
     52163     52161     52170     52171     52174     52172     52181     52182
     52185     52183     52192     52193     52196     52194     52203     52204
     52207     52205     52214     52215     52218     52216     52225     52226
     52229     52227     52236     52237     52240     52238     52247     52248
     52251     52249     52258     52259     52262     52260     52269     52270
     52273     52271     52280     52281     52284     52282     52291     52292
     52295     52293     52302     52303     52306     52304     52313     52314
     52317     52315     52324     52325     52328     52326     52335     52336
     52339     52337     52346     52347     52350     52348     52357     52358
     52361     52359     52368     52369     52372     52370     52379     52380
     52383     52381     52390     52391     52394     52392     52401     52402
     52405     52403     52412     52413     52416     52414     52423     52424
     52427     52425     52434     52435     52438     52436     52445     52446
     52449     52447     52456     52457     52460     52458     52467     52468
     52471     52469     52478     52479     52482     52480     52489     52490
     52493     52491     52500     52501     52504     52502     52511     52512
     52515     52513     52522     52523     52526     52524     52533     52534
     52537     52535     52544     52545     52548     52546     52555     52556
     52559     52557     52566     52567     52570     52568     52577     52578
     52581     52579     52588     52589     52592     52590     52599     52600
     52603     52601     52610     52611     52614     52612     52621     52622
     52625     52623     52632     52633     52636     52634     52643     52644
     52647     52645     52654     52655     52658     52656     52665     52666
     52669     52667     52676     52677     52680     52678     52687     52688
     52691     52689     52698     52699     52702     52700     52709     52710
     52713     52711     52720     52721     52724     52722     52731     52732
     52735     52733     52742     52743     52746     52744     52753     52754
     52757     52755     52764     52765     52768     52766     52775     52776
     52779     52777     52786     52787     52790     52788     52797     52798
     52801     52799     52808     52809     52812     52810     52819     52820
     52823     52821     52830     52831     52834     52832     52841     52842
     52845     52843     52852     52853     52856     52854     52863     52864
     52867     52865     52874     52875     52878     52876     52885     52886
     52889     52887     52896     52897     52900     52898     52907     52908
     52911     52909     52918     52919     52922     52920     52929     52930
     52933     52931     52940     52941     52944     52942     52951     52952
     52955     52953     52962     52963     52966     52964     52973     52974
     52977     52975     52984     52985     52988     52986     52995     52996
     52999     52997     53006     53007     53010     53008     53017     53018
     53021     53019     53028     53029     53032     53030     53039     53040
     53043     53041     53050     53051     53054     53052     53061     53062
     53065     53063     53072     53073     53076     53074     53083     53084
     53087     53085     53094     53095     53098     53096     53105     53106
     53109     53107     53116     53117     53120     53118     53127     53128
     53131     53129     53138     53139     53142     53140     53149     53150
     53153     53151     53160     53161     53164     53162     53171     53172
     53175     53173     53182     53183     53186     53184     53193     53194
     53197     53195     53204     53205     53208     53206     53215     53216
     53219     53217     53226     53227     53230     53228     53237     53238
     53241     53239     53248     53249     53252     53250     53259     53260
     53263     53261     53270     53271     53274     53272     53281     53282
     53285     53283     53292     53293     53296     53294     53303     53304
     53307     53305     53314     53315     53318     53316     53325     53326
     53329     53327     53336     53337     53340     53338     53347     53348
     53351     53349     53358     53359     53362     53360     53369     53370
     53373     53371     53380     53381     53384     53382     53391     53392
     53395     53393     53402     53403     53406     53404     53413     53414
     53417     53415     53424     53425     53428     53426     53435     53436
     53439     53437     53446     53447     53450     53448     53457     53458
     53461     53459     53468     53469     53472     53470     53479     53480
     53483     53481     53490     53491     53494     53492     53501     53502
     53505     53503     53512     53513     53516     53514     53523     53524
     53527     53525     53534     53535     53538     53536     53545     53546
     53549     53547     53556     53557     53560     53558     53567     53568
     53571     53569     53578     53579     53582     53580     53589     53590
     53593     53591     53600     53601     53604     53602     53611     53612
     53615     53613     53622     53623     53626     53624     53633     53634
     53637     53635     53644     53645     53648     53646     53655     53656
     53659     53657     53666     53667     53670     53668     53677     53678
     53681     53679     53688     53689     53692     53690     53699     53700
     53703     53701     53710     53711     53714     53712     53721     53722
     53725     53723     53732     53733     53736     53734     53743     53744
     53747     53745     53754     53755     53758     53756     53765     53766
     53769     53767     53776     53777     53780     53778     53787     53788
     53791     53789     53798     53799     53802     53800     53809     53810
     53813     53811     53820     53821     53824     53822     53831     53832
     53835     53833     53842     53843     53846     53844     53853     53854
     53857     53855     53864     53865     53868     53866     53875     53876
     53879     53877     53886     53887     53890     53888     53897     53898
     53901     53899     53908     53909     53912     53910     53919     53920
     53923     53921     53930     53931     53934     53932     53941     53942
     53945     53943     53952     53953     53956     53954     53963     53964
     53967     53965     53974     53975     53978     53976     53985     53986
     53989     53987     53996     53997     54000     53998     54007     54008
     54011     54009     54018     54019     54022     54020     54029     54030
     54033     54031     54040     54041     54044     54042     54051     54052
     54055     54053     54062     54063     54066     54064     54073     54074
     54077     54075     54084     54085     54088     54086     54095     54096
     54099     54097     54106     54107     54110     54108     54117     54118
     54121     54119     54128     54129     54132     54130     54139     54140
     54143     54141     54150     54151     54154     54152     54161     54162
     54165     54163     54172     54173     54176     54174     54183     54184
     54187     54185     54194     54195     54198     54196     54205     54206
     54209     54207     54216     54217     54220     54218     54227     54228
     54231     54229     54238     54239     54242     54240     54249     54250
     54253     54251     54260     54261     54264     54262     54271     54272
     54275     54273     54282     54283     54286     54284     54293     54294
     54297     54295     54304     54305     54308     54306     54315     54316
     54319     54317     54326     54327     54330     54328     54337     54338
     54341     54339     54348     54349     54352     54350     54359     54360
     54363     54361     54370     54371     54374     54372     54381     54382
     54385     54383     54392     54393     54396     54394     54403     54404
     54407     54405     54414     54415     54418     54416     54425     54426
     54429     54427     54436     54437     54440     54438     54447     54448
     54451     54449     54458     54459     54462     54460     54469     54470
     54473     54471     54480     54481     54484     54482     54491     54492
     54495     54493     54502     54503     54506     54504     54513     54514
     54517     54515     54524     54525     54528     54526     54535     54536
     54539     54537     54546     54547     54550     54548     54557     54558
     54561     54559     54568     54569     54572     54570     54579     54580
     54583     54581     54590     54591     54594     54592     54601     54602
     54605     54603     54612     54613     54616     54614     54623     54624
     54627     54625     54634     54635     54638     54636     54645     54646
     54649     54647     54656     54657     54660     54658     54667     54668
     54671     54669     54678     54679     54682     54680     54689     54690
     54693     54691     54700     54701     54704     54702     54711     54712
     54715     54713     54722     54723     54726     54724     54733     54734
     54737     54735     54744     54745     54748     54746     54755     54756
     54759     54757     54766     54767     54770     54768     54777     54778
     54781     54779     54788     54789     54792     54790     54799     54800
     54803     54801     54810     54811     54814     54812     54821     54822
     54825     54823     54832     54833     54836     54834     54843     54844
     54847     54845     54854     54855     54858     54856     54865     54866
     54869     54867     54876     54877     54880     54878     54887     54888
     54891     54889     54898     54899     54902     54900     54909     54910
     54913     54911     54920     54921     54924     54922     54931     54932
     54935     54933     54942     54943     54946     54944     54953     54954
     54957     54955     54964     54965     54968     54966     54975     54976
     54979     54977     54986     54987     54990     54988     54997     54998
     55001     54999     55008     55009     55012     55010     55019     55020
     55023     55021     55030     55031     55034     55032     55041     55042
     55045     55043     55052     55053     55056     55054     55063     55064
     55067     55065     55074     55075     55078     55076     55085     55086
     55089     55087     55096     55097     55100     55098     55107     55108
     55111     55109     55118     55119     55122     55120     55129     55130
     55133     55131     55140     55141     55144     55142     55151     55152
     55155     55153     55162     55163     55166     55164     55173     55174
     55177     55175     55184     55185

         0 !NCRTERM: cross-terms

